<event>
 8    1  0.3528896E-009  0.7761236E+02  0.7561462E-02  0.1335967E+00
          3   -1    0    0  501    0  0.00000000000E+00  0.00000000000E+00  0.71619182007E+02  0.71619182007E+02  0.00000000000E+00 0. -1.
         -3   -1    0    0    0  501 -0.00000000000E+00 -0.00000000000E+00 -0.18601244177E+03  0.18601244177E+03  0.00000000000E+00 0.  1.
         25    2    1    2    0    0  0.25867563188E+02  0.21536183915E+02 -0.87978611700E+02  0.15658921483E+03  0.12508800119E+03 0.  0.
         23    2    1    2    0    0 -0.25867563188E+02 -0.21536183915E+02 -0.26414648065E+02  0.10104240895E+03  0.91536313729E+02 0.  0.
          5    1    3    3  502    0  0.38311805399E+02  0.28083227216E+02  0.16973736975E+02  0.50616620104E+02  0.41800000000E+01 0. -1.
         -5    1    3    3    0  502 -0.12444242211E+02 -0.65470433018E+01 -0.10495234868E+03  0.10597259473E+03  0.41800000000E+01 0. -1.
        -11    1    4    4    0    0 -0.56578414175E+02 -0.22871095244E+01 -0.74718477598E+00  0.56629551522E+02  0.00000000000E+00 0. -1.
         11    1    4    4    0    0  0.30710850987E+02 -0.19249074390E+02 -0.25667463289E+02  0.44412857428E+02  0.00000000000E+00 0.  1.
</event>
<event>
 8    1  0.3528896E-009  0.1556254E+03  0.7561462E-02  0.1193726E+00
          1   -1    0    0  501    0  0.00000000000E+00  0.00000000000E+00  0.67052029679E+03  0.67052029679E+03  0.00000000000E+00 0. -1.
         -1   -1    0    0    0  501 -0.00000000000E+00 -0.00000000000E+00 -0.41940308164E+02  0.41940308164E+02  0.00000000000E+00 0.  1.
         25    2    1    2    0    0  0.52879616141E+02  0.11523952800E+03  0.33093478821E+03  0.37582222771E+03  0.12509240653E+03 0.  0.
         23    2    1    2    0    0 -0.52879616141E+02 -0.11523952800E+03  0.29764520041E+03  0.33663837724E+03  0.93039395355E+02 0.  0.
          5    1    3    3  502    0  0.21936398430E+01  0.10880200395E+03  0.13584334244E+03  0.17410793837E+03  0.41800000000E+01 0. -1.
         -5    1    3    3    0  502  0.50685976298E+02  0.64375240567E+01  0.19509144577E+03  0.20171428934E+03  0.41800000000E+01 0. -1.
        -11    1    4    4    0    0 -0.27151883413E+01 -0.98001329302E+02  0.14494570313E+03  0.17498825575E+03  0.00000000000E+00 0.  1.
         11    1    4    4    0    0 -0.50164427800E+02 -0.17238198700E+02  0.15269949728E+03  0.16165012150E+03  0.00000000000E+00 0. -1.
</event>
<event>
 8    1  0.3528896E-009  0.1010626E+03  0.7561462E-02  0.1278077E+00
          1   -1    0    0  501    0  0.00000000000E+00  0.00000000000E+00  0.17082685894E+04  0.17082685894E+04  0.00000000000E+00 0. -1.
         -1   -1    0    0    0  501 -0.00000000000E+00 -0.00000000000E+00 -0.12650417545E+02  0.12650417545E+02  0.00000000000E+00 0.  1.
         25    2    1    2    0    0  0.42417047435E+02 -0.56608892474E+02  0.13214951649E+04  0.13292862143E+04  0.12509434844E+03 0.  0.
         23    2    1    2    0    0 -0.42417047435E+02  0.56608892474E+02  0.37412300701E+03  0.39163279271E+03  0.91675772893E+02 0.  0.
          5    1    3    3  502    0 -0.12904618031E+02 -0.19126954274E+02  0.42498651471E+02  0.48538410802E+02  0.41800000000E+01 0.  1.
         -5    1    3    3    0  502  0.55321665466E+02 -0.37481938200E+02  0.12789965134E+04  0.12807478035E+04  0.41800000000E+01 0.  1.
        -11    1    4    4    0    0 -0.13652400176E+02 -0.23182857651E+02  0.14136203957E+03  0.14389947586E+03  0.00000000000E+00 0. -1.
         11    1    4    4    0    0 -0.28764647259E+02  0.79791750124E+02  0.23276096743E+03  0.24773331686E+03  0.00000000000E+00 0.  1.
</event>
<event>
 8    1  0.3528896E-009  0.1034479E+03  0.7561462E-02  0.1273208E+00
         -3   -1    0    0    0  501 -0.00000000000E+00  0.00000000000E+00  0.60255339824E+03  0.60255339824E+03  0.00000000000E+00 0.  1.
          3   -1    0    0  501    0  0.00000000000E+00 -0.00000000000E+00 -0.29427845189E+02  0.29427845189E+02  0.00000000000E+00 0. -1.
         25    2    1    2    0    0 -0.58145113162E+02  0.31847824094E+02  0.24520367602E+03  0.28314000720E+03  0.12509309676E+03 0.  0.
         23    2    1    2    0    0  0.58145113162E+02 -0.31847824094E+02  0.32792187703E+03  0.34884123623E+03  0.98804415769E+02 0.  0.
          5    1    3    3  502    0 -0.86730776210E+02  0.34885894661E+02  0.23397901327E+03  0.25199782586E+03  0.41800000000E+01 0. -1.
         -5    1    3    3    0  502  0.28585663048E+02 -0.30380705670E+01  0.11224662754E+02  0.31142181340E+02  0.41800000000E+01 0. -1.
        -11    1    4    4    0    0  0.42814431386E+01 -0.30073386392E+02  0.20302517276E+02  0.36536714852E+02  0.00000000000E+00 0. -1.
         11    1    4    4    0    0  0.53863670024E+02 -0.17744377019E+01  0.30761935976E+03  0.31230452138E+03  0.00000000000E+00 0.  1.
</event>
<event>
 8    1  0.3528896E-009  0.8856114E+02  0.7561462E-02  0.1306374E+00
         -2   -1    0    0    0  501 -0.00000000000E+00  0.00000000000E+00  0.91644267841E+02  0.91644267841E+02  0.00000000000E+00 0.  1.
          2   -1    0    0  501    0  0.00000000000E+00 -0.00000000000E+00 -0.13501280024E+03  0.13501280024E+03  0.00000000000E+00 0. -1.
         25    2    1    2    0    0 -0.18245096211E+02  0.12329920872E+02  0.73787867957E+01  0.12722430982E+03  0.12508664209E+03 0.  0.
         23    2    1    2    0    0  0.18245096211E+02 -0.12329920872E+02 -0.50747319197E+02  0.99432758263E+02  0.82623680175E+02 0.  0.
          5    1    3    3  502    0 -0.69303973564E+02  0.14810726973E+02 -0.12746837081E+02  0.72127336293E+02  0.41800000000E+01 0. -1.
         -5    1    3    3    0  502  0.51058877353E+02 -0.24808061014E+01  0.20125623877E+02  0.55096973528E+02  0.41800000000E+01 0. -1.
        -11    1    4    4    0    0 -0.17561484930E+02 -0.27592320375E+01  0.15458685754E+02  0.23558227429E+02  0.00000000000E+00 0.  1.
         11    1    4    4    0    0  0.35806581141E+02 -0.95706888342E+01 -0.66206004950E+02  0.75874530834E+02  0.00000000000E+00 0. -1.
</event>
<event>
 8    1  0.3528896E-009  0.1226198E+03  0.7561462E-02  0.1238837E+00
         -1   -1    0    0    0  501 -0.00000000000E+00  0.00000000000E+00  0.16314720785E+03  0.16314720785E+03  0.00000000000E+00 0.  1.
          1   -1    0    0  501    0  0.00000000000E+00 -0.00000000000E+00 -0.99029949774E+02  0.99029949774E+02  0.00000000000E+00 0. -1.
         25    2    1    2    0    0 -0.65404892128E+02  0.11243472723E+02  0.40092984223E+02  0.14716843373E+03  0.12508750901E+03 0.  0.
         23    2    1    2    0    0  0.65404892128E+02 -0.11243472723E+02  0.24024273850E+02  0.11500872389E+03  0.90805425187E+02 0.  0.
          5    1    3    3  502    0 -0.92927842122E+02  0.40195195938E+02  0.26172200638E+02  0.10465989731E+03  0.41800000000E+01 0. -1.
         -5    1    3    3    0  502  0.27522949993E+02 -0.28951723215E+02  0.13920783585E+02  0.42508536426E+02  0.41800000000E+01 0. -1.
        -11    1    4    4    0    0  0.23565526402E+02  0.34479697632E+02 -0.11831761635E+02  0.43407075078E+02  0.00000000000E+00 0. -1.
         11    1    4    4    0    0  0.41839365727E+02 -0.45723170356E+02  0.35856035486E+02  0.71601648812E+02  0.00000000000E+00 0.  1.
</event>
<event>
 8    1  0.3528896E-009  0.1256873E+03  0.7561462E-02  0.1233999E+00
          3   -1    0    0  501    0  0.00000000000E+00  0.00000000000E+00  0.57790482339E+02  0.57790482339E+02  0.00000000000E+00 0. -1.
         -3   -1    0    0    0  501 -0.00000000000E+00 -0.00000000000E+00 -0.49443635902E+03  0.49443635902E+03  0.00000000000E+00 0.  1.
         25    2    1    2    0    0 -0.53788589537E+02 -0.84544649126E+02 -0.38027004176E+03  0.41266675532E+03  0.12509011242E+03 0.  0.
         23    2    1    2    0    0  0.53788589537E+02  0.84544649126E+02 -0.56375834923E+02  0.13956008604E+03  0.79106085683E+02 0.  0.
          5    1    3    3  502    0 -0.42088172696E+02 -0.97399113770E+02 -0.16221010021E+03  0.19387519350E+03  0.41800000000E+01 0.  1.
         -5    1    3    3    0  502 -0.11700416841E+02  0.12854464644E+02 -0.21805994155E+03  0.21879156182E+03  0.41800000000E+01 0.  1.
        -11    1    4    4    0    0  0.60932060011E+02  0.96062797504E+02 -0.47025382306E+02  0.12309412489E+03  0.00000000000E+00 0. -1.
         11    1    4    4    0    0 -0.71434704734E+01 -0.11518148378E+02 -0.93504526175E+01  0.16465961150E+02  0.00000000000E+00 0.  1.
</event>
<event>
 8    1  0.3528896E-009  0.1701368E+03  0.7561462E-02  0.1177705E+00
          1   -1    0    0  501    0  0.00000000000E+00  0.00000000000E+00  0.21955609049E+03  0.21955609049E+03  0.00000000000E+00 0. -1.
         -1   -1    0    0    0  501 -0.00000000000E+00 -0.00000000000E+00 -0.21039305781E+03  0.21039305781E+03  0.00000000000E+00 0.  1.
         25    2    1    2    0    0  0.12426026635E+03  0.94844807785E+02 -0.94555798148E+02  0.22143131831E+03  0.12511945655E+03 0.  0.
         23    2    1    2    0    0 -0.12426026635E+03 -0.94844807785E+02  0.10371883083E+03  0.20851782999E+03  0.91027128892E+02 0.  0.
          5    1    3    3  502    0 -0.13688419695E+02  0.15887673130E+02  0.16900502084E+02  0.27256015151E+02  0.41800000000E+01 0.  1.
         -5    1    3    3    0  502  0.13794868605E+03  0.78957134655E+02 -0.11145630023E+03  0.19417530316E+03  0.41800000000E+01 0.  1.
        -11    1    4    4    0    0 -0.62697195289E+02 -0.26966483467E+02 -0.24198468643E+01  0.68293375861E+02  0.00000000000E+00 0.  1.
         11    1    4    4    0    0 -0.61563071065E+02 -0.67878324318E+02  0.10613867770E+03  0.14022445412E+03  0.00000000000E+00 0. -1.
</event>
<event>
 7    1  0.3528896E-009  0.9233840E+02  0.7561462E-02  0.1297286E+00
         -1   -1    0    0    0  501 -0.00000000000E+00  0.00000000000E+00  0.77296777263E+02  0.77296777263E+02  0.00000000000E+00 0.  1.
          1   -1    0    0  501    0  0.00000000000E+00 -0.00000000000E+00 -0.21029027959E+03  0.21029027959E+03  0.00000000000E+00 0. -1.
         23    2    1    2    0    0 -0.84882453317E+01  0.25063691741E+02 -0.12159716855E+03  0.15402598980E+03  0.90762851320E+02 0.  0.
          5    1    1    2  502    0  0.52062877740E+02  0.22836096090E+02 -0.32135173623E+02  0.65438309170E+02  0.41800000000E+01 0. -1.
         -5    1    1    2    0  502 -0.43574632408E+02 -0.47899787830E+02  0.20738839852E+02  0.68122757887E+02  0.41800000000E+01 0. -1.
        -11    1    3    3    0    0 -0.96491032244E+01 -0.17617155478E+02  0.47661333678E+01  0.20644257977E+02  0.00000000000E+00 0.  1.
         11    1    3    3    0    0  0.11608578927E+01  0.42680847218E+02 -0.12636330192E+03  0.13338173182E+03  0.00000000000E+00 0. -1.
</event>
<event>
 8    1  0.3528896E-009  0.1432898E+03  0.7561462E-02  0.1208970E+00
          1   -1    0    0  501    0  0.00000000000E+00  0.00000000000E+00  0.41901825487E+03  0.41901825487E+03  0.00000000000E+00 0. -1.
         -1   -1    0    0    0  501 -0.00000000000E+00 -0.00000000000E+00 -0.76145399102E+02  0.76145399102E+02  0.00000000000E+00 0.  1.
         25    2    1    2    0    0 -0.11867052498E+02  0.12201440450E+03  0.86238843505E+02  0.19522530474E+03  0.12508972636E+03 0.  0.
         23    2    1    2    0    0  0.11867052498E+02 -0.12201440450E+03  0.25663401226E+03  0.29993834923E+03  0.95255736048E+02 0.  0.
          5    1    3    3  502    0 -0.23472547583E+02  0.12222996419E+03  0.11147272053E+03  0.16713696317E+03  0.41800000000E+01 0. -1.
         -5    1    3    3    0  502  0.11605495084E+02 -0.21555969398E+00 -0.25233877025E+02  0.28088341565E+02  0.41800000000E+01 0. -1.
        -11    1    4    4    0    0  0.49260714352E+02 -0.72790131804E+02  0.10996114868E+03  0.14077100371E+03  0.00000000000E+00 0.  1.
         11    1    4    4    0    0 -0.37393661854E+02 -0.49224272696E+02  0.14667286358E+03  0.15916734552E+03  0.00000000000E+00 0. -1.
</event>
<event>
 8    1  0.3528896E-009  0.9695344E+02  0.7561462E-02  0.1286836E+00
         -1   -1    0    0    0  501 -0.00000000000E+00  0.00000000000E+00  0.63331604049E+02  0.63331604049E+02  0.00000000000E+00 0.  1.
          1   -1    0    0  501    0  0.00000000000E+00 -0.00000000000E+00 -0.24090028952E+03  0.24090028952E+03  0.00000000000E+00 0. -1.
         25    2    1    2    0    0 -0.51665972215E+02  0.86389741458E+01 -0.12853564366E+03  0.18684733180E+03  0.12508600701E+03 0.  0.
         23    2    1    2    0    0  0.51665972215E+02 -0.86389741458E+01 -0.49033041804E+02  0.11738456177E+03  0.92902591964E+02 0.  0.
          5    1    3    3  502    0 -0.38575341985E+01  0.33801630809E+02 -0.12815376387E+03  0.13265854820E+03  0.41800000000E+01 0. -1.
         -5    1    3    3    0  502 -0.47808438016E+02 -0.25162656663E+02 -0.38187979198E+00  0.54188783600E+02  0.41800000000E+01 0. -1.
        -11    1    4    4    0    0  0.54070155909E+02 -0.44177475443E+02 -0.23937373204E+02  0.73812119144E+02  0.00000000000E+00 0.  1.
         11    1    4    4    0    0 -0.24041836946E+01  0.35538501297E+02 -0.25095668600E+02  0.43572442624E+02  0.00000000000E+00 0. -1.
</event>
<event>
 8    1  0.3528896E-009  0.1159742E+03  0.7561462E-02  0.1249890E+00
          3   -1    0    0  501    0  0.00000000000E+00  0.00000000000E+00  0.55429833540E+03  0.55429833540E+03  0.00000000000E+00 0. -1.
         -3   -1    0    0    0  501 -0.00000000000E+00 -0.00000000000E+00 -0.49783127451E+02  0.49783127451E+02  0.00000000000E+00 0.  1.
         25    2    1    2    0    0  0.43834043431E+02  0.35169542814E+02  0.47186520249E+03  0.49139015117E+03  0.12509672754E+03 0.  0.
         23    2    1    2    0    0 -0.43834043431E+02 -0.35169542814E+02  0.32650005461E+02  0.11269131168E+03  0.92059702185E+02 0.  0.
          5    1    3    3  502    0  0.56014557106E+02 -0.31735237514E+02  0.16756459978E+03  0.17955534915E+03  0.41800000000E+01 0. -1.
         -5    1    3    3    0  502 -0.12180513675E+02  0.66904780328E+02  0.30430060271E+03  0.31183480202E+03  0.41800000000E+01 0. -1.
        -11    1    4    4    0    0 -0.64487270786E+02 -0.42671200047E+02  0.42916398410E+02  0.88437868922E+02  0.00000000000E+00 0. -1.
         11    1    4    4    0    0  0.20653227355E+02  0.75016572333E+01 -0.10266392950E+02  0.24253442758E+02  0.00000000000E+00 0.  1.
</event>
<event>
 8    1  0.3528896E-009  0.1500782E+03  0.7561462E-02  0.1200377E+00
         -3   -1    0    0    0  501 -0.00000000000E+00  0.00000000000E+00  0.21437863858E+03  0.21437863858E+03  0.00000000000E+00 0.  1.
          3   -1    0    0  501    0  0.00000000000E+00 -0.00000000000E+00 -0.13459139099E+03  0.13459139099E+03  0.00000000000E+00 0. -1.
         25    2    1    2    0    0  0.94737016614E+02  0.80476802273E+02  0.25279302915E+01  0.17636795766E+03  0.12509055935E+03 0.  0.
         23    2    1    2    0    0 -0.94737016614E+02 -0.80476802273E+02  0.77259317297E+02  0.17260207191E+03  0.91492377257E+02 0.  0.
          5    1    3    3  502    0  0.89261758321E+02  0.10855604214E+03 -0.16779647559E+02  0.14160192356E+03  0.41800000000E+01 0.  1.
         -5    1    3    3    0  502  0.54752582931E+01 -0.28079239868E+02  0.19307577850E+02  0.34766034105E+02  0.41800000000E+01 0.  1.
        -11    1    4    4    0    0 -0.33315966178E+02 -0.54662299663E+02  0.84027339703E+02  0.10563386968E+03  0.00000000000E+00 0.  1.
         11    1    4    4    0    0 -0.61421050436E+02 -0.25814502610E+02 -0.67680224057E+01  0.66968202222E+02  0.00000000000E+00 0. -1.
</event>
<event>
 8    1  0.3528896E-009  0.8723887E+02  0.7561462E-02  0.1309679E+00
         -1   -1    0    0    0  501 -0.00000000000E+00  0.00000000000E+00  0.48397080463E+02  0.48397080463E+02  0.00000000000E+00 0.  1.
          1   -1    0    0  501    0  0.00000000000E+00 -0.00000000000E+00 -0.25918722642E+03  0.25918722642E+03  0.00000000000E+00 0. -1.
         25    2    1    2    0    0  0.12616573478E+02  0.10871136808E+02 -0.15345104599E+03  0.19867600862E+03  0.12509026079E+03 0.  0.
         23    2    1    2    0    0 -0.12616573478E+02 -0.10871136808E+02 -0.57339099971E+02  0.10890829827E+03  0.91081751763E+02 0.  0.
          5    1    3    3  502    0  0.10670157575E+02 -0.56123875004E+02 -0.87283155315E+02  0.10440097322E+03  0.41800000000E+01 0. -1.
         -5    1    3    3    0  502  0.19464159033E+01  0.66995011812E+02 -0.66167890672E+02  0.94275035394E+02  0.41800000000E+01 0. -1.
        -11    1    4    4    0    0  0.11088407929E+02 -0.21401673402E+02 -0.74169452773E+02  0.77987769166E+02  0.00000000000E+00 0. -1.
         11    1    4    4    0    0 -0.23704981407E+02  0.10530536594E+02  0.16830352802E+02  0.30920529101E+02  0.00000000000E+00 0.  1.
</event>
<event>
 8    1  0.3528896E-009  0.1851189E+03  0.7561462E-02  0.1162939E+00
         -2   -1    0    0    0  501 -0.00000000000E+00  0.00000000000E+00  0.30855701955E+02  0.30855701955E+02  0.00000000000E+00 0.  1.
          2   -1    0    0  501    0  0.00000000000E+00 -0.00000000000E+00 -0.16104888037E+04  0.16104888037E+04  0.00000000000E+00 0. -1.
         25    2    1    2    0    0 -0.14976187191E+03 -0.78749118771E+02 -0.11835611723E+04  0.12021217906E+04  0.12509879656E+03 0.  0.
         23    2    1    2    0    0  0.14976187191E+03  0.78749118771E+02 -0.39607192945E+03  0.43922271505E+03  0.86102137788E+02 0.  0.
          5    1    3    3  502    0 -0.74636735074E+02 -0.98078157562E+02 -0.88800299172E+03  0.89652482003E+03  0.41800000000E+01 0.  1.
         -5    1    3    3    0  502 -0.75125136837E+02  0.19329038791E+02 -0.29555818058E+03  0.30559697059E+03  0.41800000000E+01 0.  1.
        -11    1    4    4    0    0  0.71757567608E+02  0.39552971622E+02 -0.93560953420E+02  0.12436735133E+03  0.00000000000E+00 0.  1.
         11    1    4    4    0    0  0.78004304303E+02  0.39196147148E+02 -0.30251097603E+03  0.31485536372E+03  0.00000000000E+00 0. -1.
</event>
<event>
 8    1  0.3528896E-009  0.8436174E+02  0.7561462E-02  0.1317110E+00
         -1   -1    0    0    0  501 -0.00000000000E+00  0.00000000000E+00  0.86540449374E+02  0.86540449374E+02  0.00000000000E+00 0.  1.
          1   -1    0    0  501    0  0.00000000000E+00 -0.00000000000E+00 -0.16071748806E+03  0.16071748806E+03  0.00000000000E+00 0. -1.
         25    2    1    2    0    0  0.32610251155E+02 -0.32517849183E+02 -0.50760651055E+02  0.14263201035E+03  0.12508560143E+03 0.  0.
         23    2    1    2    0    0 -0.32610251155E+02  0.32517849183E+02 -0.23416387627E+02  0.10462592708E+03  0.90980318817E+02 0.  0.
          5    1    3    3  502    0  0.38235484726E+02 -0.54648053859E+02  0.18700927207E+02  0.69394230028E+02  0.41800000000E+01 0.  1.
         -5    1    3    3    0  502 -0.56252335708E+01  0.22130204676E+02 -0.69461578262E+02  0.73237780321E+02  0.41800000000E+01 0.  1.
        -11    1    4    4    0    0 -0.24652410189E+02 -0.16083256638E+02  0.22688638956E+02  0.37164321733E+02  0.00000000000E+00 0.  1.
         11    1    4    4    0    0 -0.79578409661E+01  0.48601105821E+02 -0.46105026583E+02  0.67461605347E+02  0.00000000000E+00 0. -1.
</event>
<event>
 8    1  0.3528896E-009  0.9916228E+02  0.7561462E-02  0.1282067E+00
         -1   -1    0    0    0  501 -0.00000000000E+00  0.00000000000E+00  0.80147367707E+02  0.80147367707E+02  0.00000000000E+00 0.  1.
          1   -1    0    0  501    0  0.00000000000E+00 -0.00000000000E+00 -0.18813027142E+03  0.18813027142E+03  0.00000000000E+00 0. -1.
         25    2    1    2    0    0  0.23092185986E+02 -0.17447700465E+02 -0.69722963857E+01  0.12858661620E+03  0.12509290006E+03 0.  0.
         23    2    1    2    0    0 -0.23092185986E+02  0.17447700465E+02 -0.10101060732E+03  0.13969102292E+03  0.92047638683E+02 0.  0.
          5    1    3    3  502    0 -0.37529469276E+02 -0.40397866839E+02 -0.25709798479E+02  0.60982906188E+02  0.41800000000E+01 0. -1.
         -5    1    3    3    0  502  0.60621655262E+02  0.22950166375E+02  0.18737502093E+02  0.67603710016E+02  0.41800000000E+01 0. -1.
        -11    1    4    4    0    0 -0.56878883649E+01  0.45067466634E+02 -0.15233031743E+02  0.47911103921E+02  0.00000000000E+00 0.  1.
         11    1    4    4    0    0 -0.17404297621E+02 -0.27619766169E+02 -0.85777575580E+02  0.91779918998E+02  0.00000000000E+00 0. -1.
</event>
<event>
 8    1  0.3528896E-009  0.1941498E+03  0.7561462E-02  0.1154771E+00
          4   -1    0    0  501    0  0.00000000000E+00  0.00000000000E+00  0.91427002082E+03  0.91427002082E+03  0.00000000000E+00 0. -1.
         -4   -1    0    0    0  501 -0.00000000000E+00 -0.00000000000E+00 -0.56402380694E+02  0.56402380694E+02  0.00000000000E+00 0.  1.
         25    2    1    2    0    0  0.14611936792E+03  0.11564540126E+03  0.59112923621E+03  0.63230247609E+03  0.12509164182E+03 0.  0.
         23    2    1    2    0    0 -0.14611936792E+03 -0.11564540126E+03  0.26673840392E+03  0.33836992543E+03  0.92844503307E+02 0.  0.
          5    1    3    3  502    0  0.13110784003E+03  0.73534927415E+02  0.55397362966E+03  0.57402169473E+03  0.41800000000E+01 0.  1.
         -5    1    3    3    0  502  0.15011527889E+02  0.42110473848E+02  0.37155606547E+02  0.58280781353E+02  0.41800000000E+01 0.  1.
        -11    1    4    4    0    0 -0.11305442384E+03 -0.59236908454E+02  0.10983011195E+03  0.16838339456E+03  0.00000000000E+00 0. -1.
         11    1    4    4    0    0 -0.33064944080E+02 -0.56408492809E+02  0.15690829197E+03  0.16998653086E+03  0.00000000000E+00 0.  1.
</event>
<event>
 8    1  0.3528896E-009  0.1044528E+03  0.7561462E-02  0.1271201E+00
          3   -1    0    0  501    0  0.00000000000E+00  0.00000000000E+00  0.12879280848E+03  0.12879280848E+03  0.00000000000E+00 0. -1.
         -3   -1    0    0    0  501 -0.00000000000E+00 -0.00000000000E+00 -0.91803914392E+02  0.91803914392E+02  0.00000000000E+00 0.  1.
         25    2    1    2    0    0 -0.11638288197E+02  0.97355685922E+01  0.20971192315E+02  0.12774299202E+03  0.12509296565E+03 0.  0.
         23    2    1    2    0    0  0.11638288197E+02 -0.97355685922E+01  0.16017701768E+02  0.92853730849E+02  0.90194331944E+02 0.  0.
          5    1    3    3  502    0 -0.25204178473E+02 -0.50242321745E+02 -0.12314439373E+02  0.57694534611E+02  0.41800000000E+01 0. -1.
         -5    1    3    3    0  502  0.13565890276E+02  0.59977890338E+02  0.33285631688E+02  0.70048457408E+02  0.41800000000E+01 0. -1.
        -11    1    4    4    0    0 -0.27079117769E+02 -0.35314771120E+02  0.27334670439E+01  0.44585687395E+02  0.00000000000E+00 0.  1.
         11    1    4    4    0    0  0.38717405967E+02  0.25579202527E+02  0.13284234724E+02  0.48268043455E+02  0.00000000000E+00 0. -1.
</event>
<event>
 8    1  0.3528896E-009  0.1553970E+03  0.7561462E-02  0.1193994E+00
         -1   -1    0    0    0  501 -0.00000000000E+00  0.00000000000E+00  0.58138558967E+02  0.58138558967E+02  0.00000000000E+00 0.  1.
          1   -1    0    0  501    0  0.00000000000E+00 -0.00000000000E+00 -0.49976541612E+03  0.49976541612E+03  0.00000000000E+00 0. -1.
         25    2    1    2    0    0 -0.77281620983E+02  0.82437891775E+02 -0.34410368963E+03  0.38317560003E+03  0.12509091212E+03 0.  0.
         23    2    1    2    0    0  0.77281620983E+02 -0.82437891775E+02 -0.97523167519E+02  0.17472837506E+03  0.90833814771E+02 0.  0.
          5    1    3    3  502    0  0.25229451594E+02 -0.10540400448E+02 -0.85144396352E+02  0.89524666430E+02  0.41800000000E+01 0. -1.
         -5    1    3    3    0  502 -0.10251107258E+03  0.92978292223E+02 -0.25895929328E+03  0.29365093360E+03  0.41800000000E+01 0. -1.
        -11    1    4    4    0    0  0.57492319813E+02  0.24163162804E+01 -0.33279050882E+02  0.66473307796E+02  0.00000000000E+00 0.  1.
         11    1    4    4    0    0  0.19789301170E+02 -0.84854208056E+02 -0.64244116637E+02  0.10825506726E+03  0.00000000000E+00 0. -1.
</event>
<event>
 8    1  0.3528896E-009  0.1102683E+03  0.7561462E-02  0.1260074E+00
          1   -1    0    0  501    0  0.00000000000E+00  0.00000000000E+00  0.16055429426E+04  0.16055429426E+04  0.00000000000E+00 0. -1.
         -1   -1    0    0    0  501 -0.00000000000E+00 -0.00000000000E+00 -0.11662952757E+02  0.11662952757E+02  0.00000000000E+00 0.  1.
         25    2    1    2    0    0 -0.36164895106E+02  0.12175040806E+02  0.13269854025E+04  0.13334149922E+04  0.12509656923E+03 0.  0.
         23    2    1    2    0    0  0.36164895106E+02 -0.12175040806E+02  0.26689458737E+03  0.28379090321E+03  0.88591335490E+02 0.  0.
          5    1    3    3  502    0  0.39864389339E+02 -0.21206295583E+02  0.35595719409E+03  0.35883404651E+03  0.41800000000E+01 0.  1.
         -5    1    3    3    0  502 -0.76029284445E+02  0.33381336389E+02  0.97102820843E+03  0.97458094568E+03  0.41800000000E+01 0.  1.
        -11    1    4    4    0    0  0.40286997008E+02 -0.44174181295E+02  0.21043456832E+03  0.21876267498E+03  0.00000000000E+00 0. -1.
         11    1    4    4    0    0 -0.41221019020E+01  0.31999140490E+02  0.56460019051E+02  0.65028228235E+02  0.00000000000E+00 0.  1.
</event>
<event>
 8    1  0.3528896E-009  0.9010714E+02  0.7561462E-02  0.1302592E+00
          2   -1    0    0  501    0  0.00000000000E+00  0.00000000000E+00  0.34698875631E+03  0.34698875631E+03  0.00000000000E+00 0. -1.
         -2   -1    0    0    0  501 -0.00000000000E+00 -0.00000000000E+00 -0.44738526815E+02  0.44738526815E+02  0.00000000000E+00 0.  1.
         25    2    1    2    0    0 -0.41700473786E+02 -0.14767112507E+02  0.23339677099E+03  0.26847400593E+03  0.12508893646E+03 0.  0.
         23    2    1    2    0    0  0.41700473786E+02  0.14767112507E+02  0.68853458505E+02  0.12325327720E+03  0.92160590632E+02 0.  0.
          5    1    3    3  502    0  0.28538213577E+02 -0.18858875673E+02  0.17069365144E+03  0.17413753721E+03  0.41800000000E+01 0.  1.
         -5    1    3    3    0  502 -0.70238687362E+02  0.40917631666E+01  0.62703119556E+02  0.94336468718E+02  0.41800000000E+01 0.  1.
        -11    1    4    4    0    0  0.46732901459E+02  0.32444835939E+02  0.53488527027E+01  0.57142293296E+02  0.00000000000E+00 0.  1.
         11    1    4    4    0    0 -0.50324276738E+01 -0.17677723432E+02  0.63504605802E+02  0.66110983899E+02  0.00000000000E+00 0. -1.
</event>
<event>
 8    1  0.3528896E-009  0.1043731E+03  0.7561462E-02  0.1271360E+00
          1   -1    0    0  501    0  0.00000000000E+00  0.00000000000E+00  0.57014297086E+02  0.57014297086E+02  0.00000000000E+00 0. -1.
         -1   -1    0    0    0  501 -0.00000000000E+00 -0.00000000000E+00 -0.24611653223E+03  0.24611653223E+03  0.00000000000E+00 0.  1.
         25    2    1    2    0    0 -0.14428442265E+02 -0.30115974489E+02 -0.15285448003E+03  0.20031790149E+03  0.12509043820E+03 0.  0.
         23    2    1    2    0    0  0.14428442265E+02  0.30115974489E+02 -0.36247755121E+02  0.10281292783E+03  0.90229964600E+02 0.  0.
          5    1    3    3  502    0  0.55388721919E+02 -0.99172619155E+01 -0.72902310942E+02  0.92187211371E+02  0.41800000000E+01 0. -1.
         -5    1    3    3    0  502 -0.69817164184E+02 -0.20198712574E+02 -0.79952169085E+02  0.10813069012E+03  0.41800000000E+01 0. -1.
        -11    1    4    4    0    0 -0.28855709140E+02  0.44419406665E+01  0.13396019519E+02  0.32122206117E+02  0.00000000000E+00 0. -1.
         11    1    4    4    0    0  0.43284151405E+02  0.25674033823E+02 -0.49643774639E+02  0.70690721711E+02  0.00000000000E+00 0.  1.
</event>
<event>
 8    1  0.3528896E-009  0.1099345E+03  0.7561462E-02  0.1260691E+00
         -2   -1    0    0    0  501 -0.00000000000E+00  0.00000000000E+00  0.46444121533E+02  0.46444121533E+02  0.00000000000E+00 0.  1.
          2   -1    0    0  501    0  0.00000000000E+00 -0.00000000000E+00 -0.33547410281E+03  0.33547410281E+03  0.00000000000E+00 0. -1.
         25    2    1    2    0    0 -0.39899089324E+02 -0.24008850029E+02 -0.10077546897E+03  0.16725418292E+03  0.12509957774E+03 0.  0.
         23    2    1    2    0    0  0.39899089324E+02  0.24008850029E+02 -0.18825451231E+03  0.21466404142E+03  0.92046331090E+02 0.  0.
          5    1    3    3  502    0  0.29202665593E+02  0.19254066010E+02 -0.72945219337E+02  0.81006124212E+02  0.41800000000E+01 0.  1.
         -5    1    3    3    0  502 -0.69101754917E+02 -0.43262916039E+02 -0.27830249637E+02  0.86248058712E+02  0.41800000000E+01 0.  1.
        -11    1    4    4    0    0 -0.64006752270E+01  0.49663596799E+02 -0.85778431960E+02  0.99324623734E+02  0.00000000000E+00 0.  1.
         11    1    4    4    0    0  0.46299764551E+02 -0.25654746770E+02 -0.10247608035E+03  0.11533941769E+03  0.00000000000E+00 0. -1.
</event>
<event>
 8    1  0.3528896E-009  0.7879028E+02  0.7561462E-02  0.1332520E+00
         -2   -1    0    0    0  501 -0.00000000000E+00  0.00000000000E+00  0.44180505150E+02  0.44180505150E+02  0.00000000000E+00 0.  1.
          2   -1    0    0  501    0  0.00000000000E+00 -0.00000000000E+00 -0.27860158200E+03  0.27860158200E+03  0.00000000000E+00 0. -1.
         25    2    1    2    0    0 -0.34005064132E+02  0.49134327964E+01 -0.16189616597E+03  0.20746259816E+03  0.12509945991E+03 0.  0.
         23    2    1    2    0    0  0.34005064132E+02 -0.49134327964E+01 -0.72524910880E+02  0.11531948900E+03  0.82814465136E+02 0.  0.
          5    1    3    3  502    0  0.16516736931E+02 -0.21470311336E+02 -0.14542750781E+03  0.14798786875E+03  0.41800000000E+01 0.  1.
         -5    1    3    3    0  502 -0.50521801062E+02  0.26383744132E+02 -0.16468658162E+02  0.59474729412E+02  0.41800000000E+01 0.  1.
        -11    1    4    4    0    0  0.41350692729E+02  0.20795054726E+02 -0.10050050128E+02  0.47363673821E+02  0.00000000000E+00 0.  1.
         11    1    4    4    0    0 -0.73456285971E+01 -0.25708487522E+02 -0.62474860752E+02  0.67955815176E+02  0.00000000000E+00 0. -1.
</event>
<event>
 8    1  0.3528896E-009  0.9021366E+02  0.7561462E-02  0.1302335E+00
         -3   -1    0    0    0  501 -0.00000000000E+00  0.00000000000E+00  0.68189264528E+02  0.68189264528E+02  0.00000000000E+00 0.  1.
          3   -1    0    0  501    0  0.00000000000E+00 -0.00000000000E+00 -0.18315940858E+03  0.18315940858E+03  0.00000000000E+00 0. -1.
         25    2    1    2    0    0 -0.64058382855E+01  0.25906089381E+02 -0.51146488450E+02  0.13773887565E+03  0.12507547463E+03 0.  0.
         23    2    1    2    0    0  0.64058382855E+01 -0.25906089381E+02 -0.63823655598E+02  0.11360979745E+03  0.90119736088E+02 0.  0.
          5    1    3    3  502    0  0.35712634546E+02 -0.14357827877E+02  0.21683032627E+02  0.44375283565E+02  0.41800000000E+01 0.  1.
         -5    1    3    3    0  502 -0.42118472832E+02  0.40263917258E+02 -0.72829521078E+02  0.93363592085E+02  0.41800000000E+01 0.  1.
        -11    1    4    4    0    0  0.76619092499E+01 -0.54316596955E+02 -0.14603816687E+02  0.56765033427E+02  0.00000000000E+00 0. -1.
         11    1    4    4    0    0 -0.12560709644E+01  0.28410507574E+02 -0.49219838911E+02  0.56844764027E+02  0.00000000000E+00 0.  1.
</event>
<event>
 8    1  0.3528896E-009  0.2223030E+03  0.7561462E-02  0.1132178E+00
         -2   -1    0    0    0  501 -0.00000000000E+00  0.00000000000E+00  0.52382188498E+03  0.52382188498E+03  0.00000000000E+00 0.  1.
          2   -1    0    0  501    0  0.00000000000E+00 -0.00000000000E+00 -0.98719589958E+02  0.98719589958E+02  0.00000000000E+00 0. -1.
         25    2    1    2    0    0  0.12327668903E+03 -0.15319263723E+03  0.17503213894E+03  0.29146253072E+03  0.12509608705E+03 0.  0.
         23    2    1    2    0    0 -0.12327668903E+03  0.15319263723E+03  0.25007015609E+03  0.33107894422E+03  0.91722724453E+02 0.  0.
          5    1    3    3  502    0  0.41447030957E+02  0.11974370704E+02  0.11084726125E+02  0.44739082268E+02  0.41800000000E+01 0. -1.
         -5    1    3    3    0  502  0.81829658074E+02 -0.16516700793E+03  0.16394741281E+03  0.24672344845E+03  0.41800000000E+01 0. -1.
        -11    1    4    4    0    0 -0.82877772850E+02  0.31495287663E+02  0.10685213323E+03  0.13884544196E+03  0.00000000000E+00 0.  1.
         11    1    4    4    0    0 -0.40398916181E+02  0.12169734956E+03  0.14321802286E+03  0.19223350226E+03  0.00000000000E+00 0. -1.
</event>
<event>
 8    1  0.3528896E-009  0.1035170E+03  0.7561462E-02  0.1273069E+00
          1   -1    0    0  501    0  0.00000000000E+00  0.00000000000E+00  0.23815156314E+03  0.23815156314E+03  0.00000000000E+00 0. -1.
         -1   -1    0    0    0  501 -0.00000000000E+00 -0.00000000000E+00 -0.80405746114E+02  0.80405746114E+02  0.00000000000E+00 0.  1.
         25    2    1    2    0    0 -0.19297408967E+02  0.73546823678E+02  0.13100825814E+03  0.19644887236E+03  0.12508984964E+03 0.  0.
         23    2    1    2    0    0  0.19297408967E+02 -0.73546823678E+02  0.26737558883E+02  0.12210843689E+03  0.91728120222E+02 0.  0.
          5    1    3    3  502    0 -0.61017040711E+02  0.59311987042E+02  0.12570150627E+03  0.15185299517E+03  0.41800000000E+01 0.  1.
         -5    1    3    3    0  502  0.41719631743E+02  0.14234836636E+02  0.53067518748E+01  0.44595877190E+02  0.41800000000E+01 0.  1.
        -11    1    4    4    0    0  0.21225697273E+02 -0.55692872860E+02 -0.27013713595E+02  0.65436740707E+02  0.00000000000E+00 0. -1.
         11    1    4    4    0    0 -0.19282883055E+01 -0.17853950818E+02  0.53751272478E+02  0.56671696186E+02  0.00000000000E+00 0.  1.
</event>
<event>
 8    1  0.3528896E-009  0.1060026E+03  0.7561462E-02  0.1268157E+00
         -3   -1    0    0    0  501 -0.00000000000E+00  0.00000000000E+00  0.15220868393E+03  0.15220868393E+03  0.00000000000E+00 0.  1.
          3   -1    0    0  501    0  0.00000000000E+00 -0.00000000000E+00 -0.79807755876E+02  0.79807755876E+02  0.00000000000E+00 0. -1.
         25    2    1    2    0    0  0.16752917130E+02  0.26800289780E+02  0.31719741693E+02  0.13286332179E+03  0.12509038532E+03 0.  0.
         23    2    1    2    0    0 -0.16752917130E+02 -0.26800289780E+02  0.40681186365E+02  0.99153118019E+02  0.84719927551E+02 0.  0.
          5    1    3    3  502    0  0.17758407998E+02  0.75042114029E+02  0.33990357360E+02  0.84377110202E+02  0.41800000000E+01 0. -1.
         -5    1    3    3    0  502 -0.10054908683E+01 -0.48241824249E+02 -0.22706156672E+01  0.48486211589E+02  0.41800000000E+01 0. -1.
        -11    1    4    4    0    0  0.21939364799E+02  0.17107417379E+02  0.27593593261E+02  0.39184255081E+02  0.00000000000E+00 0.  1.
         11    1    4    4    0    0 -0.38692281929E+02 -0.43907707159E+02  0.13087593104E+02  0.59968862938E+02  0.00000000000E+00 0. -1.
</event>
<event>
 8    1  0.3528896E-009  0.1153526E+03  0.7561462E-02  0.1250967E+00
          2   -1    0    0  501    0  0.00000000000E+00  0.00000000000E+00  0.13067044869E+03  0.13067044869E+03  0.00000000000E+00 0. -1.
         -2   -1    0    0    0  501 -0.00000000000E+00 -0.00000000000E+00 -0.16223862782E+03  0.16223862782E+03  0.00000000000E+00 0.  1.
         25    2    1    2    0    0 -0.24715462736E+02  0.84096019899E+02 -0.48222541127E+02  0.16017219397E+03  0.12508686417E+03 0.  0.
         23    2    1    2    0    0  0.24715462736E+02 -0.84096019899E+02  0.16654361998E+02  0.13273688253E+03  0.98278774669E+02 0.  0.
          5    1    3    3  502    0 -0.55090866629E+02  0.62513342937E+02 -0.76512369422E+02  0.11320131053E+03  0.41800000000E+01 0.  1.
         -5    1    3    3    0  502  0.30375403893E+02  0.21582676962E+02  0.28289828295E+02  0.46970883444E+02  0.41800000000E+01 0.  1.
        -11    1    4    4    0    0  0.44855932066E+02 -0.35592790091E+02  0.45209302215E+02  0.72957400959E+02  0.00000000000E+00 0.  1.
         11    1    4    4    0    0 -0.20140469330E+02 -0.48503229808E+02 -0.28554940217E+02  0.59779481576E+02  0.00000000000E+00 0. -1.
</event>
<event>
 8    1  0.3528896E-009  0.1119597E+03  0.7561462E-02  0.1256983E+00
         -1   -1    0    0    0  501 -0.00000000000E+00  0.00000000000E+00  0.14645093764E+03  0.14645093764E+03  0.00000000000E+00 0.  1.
          1   -1    0    0  501    0  0.00000000000E+00 -0.00000000000E+00 -0.21886766038E+03  0.21886766038E+03  0.00000000000E+00 0. -1.
         25    2    1    2    0    0 -0.33245671129E+02  0.60141689594E+02 -0.16094318901E+03  0.21511139417E+03  0.12509158380E+03 0.  0.
         23    2    1    2    0    0  0.33245671129E+02 -0.60141689594E+02  0.88526466272E+02  0.15020720385E+03  0.10001485580E+03 0.  0.
          5    1    3    3  502    0  0.16082843437E+02  0.83454232585E+02 -0.76126812493E+02  0.11417543856E+03  0.41800000000E+01 0. -1.
         -5    1    3    3    0  502 -0.49328514566E+02 -0.23312542992E+02 -0.84816376517E+02  0.10093595561E+03  0.41800000000E+01 0. -1.
        -11    1    4    4    0    0  0.27830381219E+02 -0.44871029574E+01  0.89958009803E+02  0.94271457713E+02  0.00000000000E+00 0.  1.
         11    1    4    4    0    0  0.54152899107E+01 -0.55654586636E+02 -0.14315435306E+01  0.55935746132E+02  0.00000000000E+00 0. -1.
</event>
<event>
 8    1  0.3528896E-009  0.1291502E+03  0.7561462E-02  0.1228722E+00
          2   -1    0    0  501    0  0.00000000000E+00  0.00000000000E+00  0.54752346859E+02  0.54752346859E+02  0.00000000000E+00 0.  1.
         -2   -1    0    0    0  501 -0.00000000000E+00 -0.00000000000E+00 -0.46224453570E+03  0.46224453570E+03  0.00000000000E+00 0. -1.
         25    2    1    2    0    0  0.15792600001E+02  0.11121263406E+03 -0.26897498848E+03  0.31719528791E+03  0.12509056741E+03 0.  0.
         23    2    1    2    0    0 -0.15792600001E+02 -0.11121263406E+03 -0.13851720035E+03  0.19980159464E+03  0.90088879662E+02 0.  0.
          5    1    3    3  502    0  0.47602874262E+02  0.39291387375E+02 -0.20967884929E+03  0.21861504752E+03  0.41800000000E+01 0.  1.
         -5    1    3    3    0  502 -0.31810274261E+02  0.71921246686E+02 -0.59296139191E+02  0.98580240395E+02  0.41800000000E+01 0.  1.
        -11    1    4    4    0    0 -0.24657378985E+02 -0.49137274044E+02 -0.87369884327E+01  0.55666803445E+02  0.00000000000E+00 0. -1.
         11    1    4    4    0    0  0.88647789843E+01 -0.62075360017E+02 -0.12978021192E+03  0.14413479120E+03  0.00000000000E+00 0.  1.
</event>
<event>
 8    1  0.3528896E-009  0.1318704E+03  0.7561462E-02  0.1224707E+00
          1   -1    0    0  501    0  0.00000000000E+00  0.00000000000E+00  0.82002472311E+03  0.82002472311E+03  0.00000000000E+00 0. -1.
         -1   -1    0    0    0  501 -0.00000000000E+00 -0.00000000000E+00 -0.26010248441E+02  0.26010248441E+02  0.00000000000E+00 0.  1.
         25    2    1    2    0    0 -0.64168179239E+02 -0.39314021973E+02  0.38050425104E+03  0.40754630044E+03  0.12508938558E+03 0.  0.
         23    2    1    2    0    0  0.64168179239E+02  0.39314021973E+02  0.41351022363E+03  0.43848867112E+03  0.12497384568E+03 0.  0.
          5    1    3    3  502    0 -0.51054170886E+02  0.36993451138E+02  0.11829622838E+03  0.13411380929E+03  0.41800000000E+01 0. -1.
         -5    1    3    3    0  502 -0.13114008353E+02 -0.76307473111E+02  0.26220802266E+03  0.27343249115E+03  0.41800000000E+01 0. -1.
        -11    1    4    4    0    0 -0.92078640591E+01  0.48228786492E+02  0.60967236956E+02  0.78280295024E+02  0.00000000000E+00 0.  1.
         11    1    4    4    0    0  0.73376043298E+02 -0.89147645191E+01  0.35254298667E+03  0.36020837609E+03  0.00000000000E+00 0. -1.
</event>
<event>
 8    1  0.3528896E-009  0.1095664E+03  0.7561462E-02  0.1261375E+00
          2   -1    0    0  501    0  0.00000000000E+00  0.00000000000E+00  0.34186443899E+03  0.34186443899E+03  0.00000000000E+00 0. -1.
         -2   -1    0    0    0  501 -0.00000000000E+00 -0.00000000000E+00 -0.45227109654E+02  0.45227109654E+02  0.00000000000E+00 0.  1.
         25    2    1    2    0    0 -0.11183621940E+02 -0.63968917734E+02  0.16447200811E+03  0.21660087418E+03  0.12509117238E+03 0.  0.
         23    2    1    2    0    0  0.11183621940E+02  0.63968917734E+02  0.13216532122E+03  0.17049067446E+03  0.85920324195E+02 0.  0.
          5    1    3    3  502    0  0.22353569221E+02  0.15750048226E+02 -0.32442479019E+01  0.27852174431E+02  0.41800000000E+01 0. -1.
         -5    1    3    3    0  502 -0.33537191161E+02 -0.79718965960E+02  0.16771625601E+03  0.18874869975E+03  0.41800000000E+01 0. -1.
        -11    1    4    4    0    0  0.20241915094E+02 -0.15127260400E+02  0.16887215874E+02  0.30393209666E+02  0.00000000000E+00 0.  1.
         11    1    4    4    0    0 -0.90582931537E+01  0.79096178133E+02  0.11527810535E+03  0.14009746480E+03  0.00000000000E+00 0. -1.
</event>
<event>
 8    1  0.3528896E-009  0.1053964E+03  0.7561462E-02  0.1269341E+00
         -2   -1    0    0    0  501 -0.00000000000E+00  0.00000000000E+00  0.87381288057E+02  0.87381288057E+02  0.00000000000E+00 0.  1.
          2   -1    0    0  501    0  0.00000000000E+00 -0.00000000000E+00 -0.15026624490E+03  0.15026624490E+03  0.00000000000E+00 0. -1.
         25    2    1    2    0    0  0.68411313178E+01 -0.39032921974E+02 -0.29946460527E+02  0.13459371276E+03  0.12509319302E+03 0.  0.
         23    2    1    2    0    0 -0.68411313178E+01  0.39032921974E+02 -0.32938496314E+02  0.10305382020E+03  0.89245589484E+02 0.  0.
          5    1    3    3  502    0 -0.15031926953E+02 -0.72957705019E+02 -0.49513006924E+02  0.89542145408E+02  0.41800000000E+01 0.  1.
         -5    1    3    3    0  502  0.21873058270E+02  0.33924783045E+02  0.19566546397E+02  0.45051567350E+02  0.41800000000E+01 0.  1.
        -11    1    4    4    0    0 -0.14723805820E+02  0.65941467895E+02 -0.13407574716E+02  0.68882731550E+02  0.00000000000E+00 0.  1.
         11    1    4    4    0    0  0.78826745023E+01 -0.26908545921E+02 -0.19530921599E+02  0.34171088648E+02  0.00000000000E+00 0. -1.
</event>
<event>
 7    1  0.3528896E-009  0.1489901E+03  0.7561462E-02  0.1201719E+00
         -1   -1    0    0    0  501 -0.00000000000E+00  0.00000000000E+00  0.15494423012E+03  0.15494423012E+03  0.00000000000E+00 0.  1.
          1   -1    0    0  501    0  0.00000000000E+00 -0.00000000000E+00 -0.21550295159E+03  0.21550295159E+03  0.00000000000E+00 0. -1.
         23    2    1    2    0    0 -0.19916885457E+02  0.11158732758E+03  0.66700275302E+02  0.15959924705E+03  0.90413378045E+02 0.  0.
          5    1    1    2  502    0  0.70773707736E+01  0.21104152000E+02  0.48031007134E+01  0.23152031988E+02  0.41800000000E+01 0.  1.
         -5    1    1    2    0  502  0.12839514684E+02 -0.13269147958E+03 -0.13206209748E+03  0.18769590268E+03  0.41800000000E+01 0.  1.
        -11    1    3    3    0    0 -0.49847329240E+02  0.96091641690E+02  0.64074974188E+02  0.12579333111E+03  0.00000000000E+00 0.  1.
         11    1    3    3    0    0  0.29930443783E+02  0.15495685891E+02  0.26253011139E+01  0.33805915935E+02  0.00000000000E+00 0. -1.
</event>
<event>
 8    1  0.3528896E-009  0.1357756E+03  0.7561462E-02  0.1219129E+00
         -1   -1    0    0    0  501 -0.00000000000E+00  0.00000000000E+00  0.14502269187E+03  0.14502269187E+03  0.00000000000E+00 0.  1.
          1   -1    0    0  501    0  0.00000000000E+00 -0.00000000000E+00 -0.19969069562E+03  0.19969069562E+03  0.00000000000E+00 0. -1.
         25    2    1    2    0    0  0.14074614661E+02  0.13391665170E+03 -0.25211744481E+02  0.18551257254E+03  0.12509004009E+03 0.  0.
         23    2    1    2    0    0 -0.14074614661E+02 -0.13391665170E+03 -0.29456259277E+02  0.15920081495E+03  0.79658420084E+02 0.  0.
          5    1    3    3  502    0  0.64318971931E+01  0.83935823007E+02 -0.76170461895E+02  0.11360459212E+03  0.41800000000E+01 0. -1.
         -5    1    3    3    0  502  0.76427174677E+01  0.49980828695E+02  0.50958717414E+02  0.71907980418E+02  0.41800000000E+01 0. -1.
        -11    1    4    4    0    0 -0.20270323022E+02 -0.96596951434E+02  0.16078075425E+02  0.10000180764E+03  0.00000000000E+00 0.  1.
         11    1    4    4    0    0  0.61957083616E+01 -0.37319700268E+02 -0.45534334702E+02  0.59199007314E+02  0.00000000000E+00 0. -1.
</event>
<event>
 8    1  0.3528896E-009  0.5896443E+02  0.7561462E-02  0.1402230E+00
         -1   -1    0    0    0  501 -0.00000000000E+00  0.00000000000E+00  0.34195229973E+02  0.34195229973E+02  0.00000000000E+00 0.  1.
          1   -1    0    0  501    0  0.00000000000E+00 -0.00000000000E+00 -0.36975962712E+03  0.36975962712E+03  0.00000000000E+00 0. -1.
         25    2    1    2    0    0 -0.22490912479E+02  0.26211040506E+02 -0.20222356273E+03  0.24026893775E+03  0.12506771500E+03 0.  0.
         23    2    1    2    0    0  0.22490912479E+02 -0.26211040506E+02 -0.13334083442E+03  0.16368591935E+03  0.88433264555E+02 0.  0.
          5    1    3    3  502    0  0.14796293395E+02  0.16359371682E+02 -0.20016678632E+03  0.20142188085E+03  0.41800000000E+01 0. -1.
         -5    1    3    3    0  502 -0.37287205875E+02  0.98516688245E+01 -0.20567764128E+01  0.38847056900E+02  0.41800000000E+01 0. -1.
        -11    1    4    4    0    0 -0.67469113596E+01 -0.26602954719E+02 -0.27635578210E+00  0.27446573287E+02  0.00000000000E+00 0.  1.
         11    1    4    4    0    0  0.29237823839E+02  0.39191421244E+00 -0.13306447864E+03  0.13623934606E+03  0.00000000000E+00 0. -1.
</event>
<event>
 8    1  0.3528896E-009  0.9296474E+02  0.7561462E-02  0.1295827E+00
         -1   -1    0    0    0  501 -0.00000000000E+00  0.00000000000E+00  0.70952443811E+02  0.70952443811E+02  0.00000000000E+00 0.  1.
          1   -1    0    0  501    0  0.00000000000E+00 -0.00000000000E+00 -0.31294759571E+03  0.31294759571E+03  0.00000000000E+00 0. -1.
         25    2    1    2    0    0  0.62607559622E+02  0.31599167705E+02 -0.35727846411E+02  0.14778890743E+03  0.12508744232E+03 0.  0.
         23    2    1    2    0    0 -0.62607559622E+02 -0.31599167705E+02 -0.20626730549E+03  0.23611113210E+03  0.91016764746E+02 0.  0.
          5    1    3    3  502    0  0.16693752416E+02  0.21678903664E+02 -0.79047447608E+02  0.83753373706E+02  0.41800000000E+01 0. -1.
         -5    1    3    3    0  502  0.45913807206E+02  0.99202640413E+01  0.43319601198E+02  0.64035533719E+02  0.41800000000E+01 0. -1.
        -11    1    4    4    0    0 -0.36284027387E+02  0.28069730148E+02 -0.56630195978E+02  0.72879486074E+02  0.00000000000E+00 0.  1.
         11    1    4    4    0    0 -0.26323532235E+02 -0.59668897853E+02 -0.14963710951E+03  0.16323164603E+03  0.00000000000E+00 0. -1.
</event>
<event>
 8    1  0.3528896E-009  0.1199881E+03  0.7561462E-02  0.1243117E+00
         -1   -1    0    0    0  501 -0.00000000000E+00  0.00000000000E+00  0.18507986145E+02  0.18507986145E+02  0.00000000000E+00 0. -1.
          1   -1    0    0  501    0  0.00000000000E+00 -0.00000000000E+00 -0.79689935800E+03  0.79689935800E+03  0.00000000000E+00 0.  1.
         25    2    1    2    0    0 -0.10775363756E+01  0.56165492655E+02 -0.43502267344E+03  0.45612287826E+03  0.12509048730E+03 0.  0.
         23    2    1    2    0    0  0.10775363756E+01 -0.56165492655E+02 -0.34336869841E+03  0.35928446589E+03  0.89596544169E+02 0.  0.
          5    1    3    3  502    0 -0.31046824142E+02 -0.31248384050E+02 -0.15694863198E+03  0.16306658847E+03  0.41800000000E+01 0. -1.
         -5    1    3    3    0  502  0.29969287766E+02  0.87413876705E+02 -0.27807404146E+03  0.29305628978E+03  0.41800000000E+01 0. -1.
        -11    1    4    4    0    0 -0.42662057087E+02 -0.31295112486E+02 -0.13678207854E+03  0.14665869285E+03  0.00000000000E+00 0.  1.
         11    1    4    4    0    0  0.43739593462E+02 -0.24870380169E+02 -0.20658661988E+03  0.21262577303E+03  0.00000000000E+00 0. -1.
</event>
<event>
 8    1  0.3528896E-009  0.1139529E+03  0.7561462E-02  0.1253420E+00
          2   -1    0    0  501    0  0.00000000000E+00  0.00000000000E+00  0.15419642729E+03  0.15419642729E+03  0.00000000000E+00 0. -1.
         -2   -1    0    0    0  501 -0.00000000000E+00 -0.00000000000E+00 -0.13249455434E+03  0.13249455434E+03  0.00000000000E+00 0.  1.
         25    2    1    2    0    0 -0.88951536012E+02 -0.39202627744E+01  0.38606173766E+02  0.15832500120E+03  0.12509446484E+03 0.  0.
         23    2    1    2    0    0  0.88951536012E+02  0.39202627744E+01 -0.16904300813E+02  0.12836598042E+03  0.90908334739E+02 0.  0.
          5    1    3    3  502    0 -0.79542625303E+02 -0.27104059801E+02  0.75838596303E+02  0.11327234608E+03  0.41800000000E+01 0.  1.
         -5    1    3    3    0  502 -0.94089107094E+01  0.23183797027E+02 -0.37232422538E+02  0.45052655120E+02  0.41800000000E+01 0.  1.
        -11    1    4    4    0    0 -0.55321589227E+01 -0.20153223871E+02  0.15058021623E+02  0.25758517619E+02  0.00000000000E+00 0. -1.
         11    1    4    4    0    0  0.94483694935E+02  0.24073486645E+02 -0.31962322436E+02  0.10260746280E+03  0.00000000000E+00 0.  1.
</event>
<event>
 8    1  0.3528896E-009  0.9819789E+02  0.7561462E-02  0.1284132E+00
          3   -1    0    0  501    0  0.00000000000E+00  0.00000000000E+00  0.21446481182E+02  0.21446481182E+02  0.00000000000E+00 0. -1.
         -3   -1    0    0    0  501 -0.00000000000E+00 -0.00000000000E+00 -0.90906414636E+03  0.90906414636E+03  0.00000000000E+00 0.  1.
         25    2    1    2    0    0  0.16431903415E+01  0.26067493897E+02 -0.76661804743E+03  0.77719554267E+03  0.12508983402E+03 0.  0.
         23    2    1    2    0    0 -0.16431903415E+01 -0.26067493897E+02 -0.12099961774E+03  0.15331508487E+03  0.90456583198E+02 0.  0.
          5    1    3    3  502    0 -0.60897911657E+02  0.34590421081E+01 -0.36085115496E+03  0.36599391942E+03  0.41800000000E+01 0.  1.
         -5    1    3    3    0  502  0.62541101999E+02  0.22608451788E+02 -0.40576689248E+03  0.41120162325E+03  0.41800000000E+01 0.  1.
        -11    1    4    4    0    0 -0.50214853550E+01  0.20920147472E+02 -0.99021104590E+02  0.10133137244E+03  0.00000000000E+00 0.  1.
         11    1    4    4    0    0  0.33782950135E+01 -0.46987641368E+02 -0.21978513151E+02  0.51983712439E+02  0.00000000000E+00 0. -1.
</event>
<event>
 8    1  0.3528896E-009  0.1609839E+03  0.7561462E-02  0.1187590E+00
         -2   -1    0    0    0  501 -0.00000000000E+00  0.00000000000E+00  0.26248561328E+02  0.26248561328E+02  0.00000000000E+00 0.  1.
          2   -1    0    0  501    0  0.00000000000E+00 -0.00000000000E+00 -0.13231801809E+04  0.13231801809E+04  0.00000000000E+00 0. -1.
         25    2    1    2    0    0  0.13000482491E+03 -0.52265122760E+02 -0.88583516252E+03  0.90552891163E+03  0.12508308076E+03 0.  0.
         23    2    1    2    0    0 -0.13000482491E+03  0.52265122760E+02 -0.41109645707E+03  0.44389983062E+03  0.91727122732E+02 0.  0.
          5    1    3    3  502    0  0.12991704110E+03 -0.62364934562E+02 -0.88235730493E+03  0.89405800069E+03  0.41800000000E+01 0.  1.
         -5    1    3    3    0  502  0.87783812443E-01  0.10099811802E+02 -0.34778575847E+01  0.11470910941E+02  0.41800000000E+01 0.  1.
        -11    1    4    4    0    0 -0.14404908418E+03  0.50805043905E+02 -0.36449314488E+03  0.39520443293E+03  0.00000000000E+00 0. -1.
         11    1    4    4    0    0  0.14044259271E+02  0.14600788552E+01 -0.46603312193E+02  0.48695397689E+02  0.00000000000E+00 0.  1.
</event>
<event>
 8    1  0.3528896E-009  0.1926138E+03  0.7561462E-02  0.1156125E+00
         -1   -1    0    0    0  501 -0.00000000000E+00  0.00000000000E+00  0.60494246398E+03  0.60494246398E+03  0.00000000000E+00 0.  1.
          1   -1    0    0  501    0  0.00000000000E+00 -0.00000000000E+00 -0.93144035730E+02  0.93144035730E+02  0.00000000000E+00 0. -1.
         25    2    1    2    0    0  0.16357613750E+03  0.54430772864E+02  0.82473939257E+02  0.22840943103E+03  0.12509618593E+03 0.  0.
         23    2    1    2    0    0 -0.16357613750E+03 -0.54430772864E+02  0.42932448899E+03  0.46967706868E+03  0.80976355811E+02 0.  0.
          5    1    3    3  502    0 -0.37325202123E+01 -0.18529039223E+02  0.34627913530E+02  0.39671422927E+02  0.41800000000E+01 0.  1.
         -5    1    3    3    0  502  0.16730865771E+03  0.72959812087E+02  0.47846025727E+02  0.18873800810E+03  0.41800000000E+01 0.  1.
        -11    1    4    4    0    0 -0.13167456372E+03 -0.68504786126E+02  0.28659645002E+03  0.32275164077E+03  0.00000000000E+00 0. -1.
         11    1    4    4    0    0 -0.31901573784E+02  0.14074013262E+02  0.14272803897E+03  0.14692542791E+03  0.00000000000E+00 0.  1.
</event>
<event>
 8    1  0.3528896E-009  0.9948074E+02  0.7561462E-02  0.1281392E+00
          1   -1    0    0  501    0  0.00000000000E+00  0.00000000000E+00  0.37396155139E+03  0.37396155139E+03  0.00000000000E+00 0. -1.
         -1   -1    0    0    0  501 -0.00000000000E+00 -0.00000000000E+00 -0.50647502901E+02  0.50647502901E+02  0.00000000000E+00 0.  1.
         25    2    1    2    0    0 -0.79106928024E+02  0.23252452372E+02  0.16396239726E+03  0.22210270231E+03  0.12508940824E+03 0.  0.
         23    2    1    2    0    0  0.79106928024E+02 -0.23252452372E+02  0.15935165122E+03  0.20250635198E+03  0.93900432596E+02 0.  0.
          5    1    3    3  502    0 -0.15112149870E+02  0.21124875309E+01  0.15285270235E+03  0.15366932255E+03  0.41800000000E+01 0. -1.
         -5    1    3    3    0  502 -0.63994778154E+02  0.21139964841E+02  0.11109694915E+02  0.68433379761E+02  0.41800000000E+01 0. -1.
        -11    1    4    4    0    0  0.74533195241E+02  0.15888089580E+02  0.64661907253E+02  0.99943938450E+02  0.00000000000E+00 0.  1.
         11    1    4    4    0    0  0.45737327830E+01 -0.39140541952E+02  0.94689743968E+02  0.10256241353E+03  0.00000000000E+00 0. -1.
</event>
<event>
 8    1  0.3528896E-009  0.1023066E+03  0.7561462E-02  0.1275519E+00
         -2   -1    0    0    0  501 -0.00000000000E+00  0.00000000000E+00  0.52513264254E+02  0.52513264254E+02  0.00000000000E+00 0.  1.
          2   -1    0    0  501    0  0.00000000000E+00 -0.00000000000E+00 -0.31237120384E+03  0.31237120384E+03  0.00000000000E+00 0. -1.
         25    2    1    2    0    0  0.58665546982E+02 -0.24635443199E+02 -0.10914780238E+03  0.17778872410E+03  0.12508811370E+03 0.  0.
         23    2    1    2    0    0 -0.58665546982E+02  0.24635443199E+02 -0.15071013721E+03  0.18709574399E+03  0.90789429438E+02 0.  0.
          5    1    3    3  502    0  0.66912063156E+02  0.35468332022E+02 -0.40150305742E+02  0.85818099626E+02  0.41800000000E+01 0.  1.
         -5    1    3    3    0  502 -0.82465161745E+01 -0.60103775221E+02 -0.68997496636E+02  0.91970624478E+02  0.41800000000E+01 0.  1.
        -11    1    4    4    0    0 -0.24184007192E+02 -0.21695865532E+01  0.54989126699E+01  0.24896010729E+02  0.00000000000E+00 0.  1.
         11    1    4    4    0    0 -0.34481539790E+02  0.26805029752E+02 -0.15620904988E+03  0.16219973326E+03  0.00000000000E+00 0. -1.
</event>
<event>
 8    1  0.3528896E-009  0.1388830E+03  0.7561462E-02  0.1214840E+00
         -2   -1    0    0    0  501 -0.00000000000E+00  0.00000000000E+00  0.40903904437E+03  0.40903904437E+03  0.00000000000E+00 0. -1.
          2   -1    0    0  501    0  0.00000000000E+00 -0.00000000000E+00 -0.65765977428E+02  0.65765977428E+02  0.00000000000E+00 0.  1.
         25    2    1    2    0    0  0.10941696551E+03  0.34661767142E+02  0.25502704731E+03  0.30636620822E+03  0.12509175925E+03 0.  0.
         23    2    1    2    0    0 -0.10941696551E+03 -0.34661767142E+02  0.88246019628E+02  0.16843881358E+03  0.86085791503E+02 0.  0.
          5    1    3    3  502    0 -0.18433852099E+02  0.28698394675E+02  0.97357616239E+02  0.10324428604E+03  0.41800000000E+01 0.  1.
         -5    1    3    3    0  502  0.12785081760E+03  0.59633724667E+01  0.15766943108E+03  0.20312192218E+03  0.41800000000E+01 0.  1.
        -11    1    4    4    0    0 -0.23308494556E+02 -0.12412858719E+02 -0.16415205468E+02  0.31093792798E+02  0.00000000000E+00 0.  1.
         11    1    4    4    0    0 -0.86108470950E+02 -0.22248908423E+02  0.10466122510E+03  0.13734502078E+03  0.00000000000E+00 0. -1.
</event>
<event>
 8    1  0.3528896E-009  0.4470870E+03  0.7561462E-02  0.1028594E+00
          1   -1    0    0  501    0  0.00000000000E+00  0.00000000000E+00  0.22477389910E+04  0.22477389910E+04  0.00000000000E+00 0. -1.
         -1   -1    0    0    0  501 -0.00000000000E+00 -0.00000000000E+00 -0.94483692963E+02  0.94483692963E+02  0.00000000000E+00 0.  1.
         25    2    1    2    0    0 -0.12681851444E+03 -0.42275494024E+03  0.89970873175E+03  0.10099150256E+04  0.12509149401E+03 0.  0.
         23    2    1    2    0    0  0.12681851444E+03  0.42275494024E+03  0.12535465663E+04  0.13323076583E+04  0.94127719346E+02 0.  0.
          5    1    3    3  502    0 -0.75080174942E+02 -0.18612919051E+03  0.27989387659E+03  0.34444036172E+03  0.41800000000E+01 0. -1.
         -5    1    3    3    0  502 -0.51738339500E+02 -0.23662574973E+03  0.61981485516E+03  0.66547466390E+03  0.41800000000E+01 0. -1.
        -11    1    4    4    0    0  0.10235313923E+03  0.41187367809E+03  0.11717465926E+04  0.12462368030E+04  0.00000000000E+00 0. -1.
         11    1    4    4    0    0  0.24465375213E+02  0.10881262145E+02  0.81799973691E+02  0.86070855381E+02  0.00000000000E+00 0.  1.
</event>
<event>
 8    1  0.3528896E-009  0.9767013E+02  0.7561462E-02  0.1285273E+00
          2   -1    0    0  501    0  0.00000000000E+00  0.00000000000E+00  0.86186182911E+03  0.86186182911E+03  0.00000000000E+00 0. -1.
         -2   -1    0    0    0  501 -0.00000000000E+00 -0.00000000000E+00 -0.21866945721E+02  0.21866945721E+02  0.00000000000E+00 0.  1.
         25    2    1    2    0    0 -0.75029062613E+01  0.56103523042E+02  0.65806685821E+03  0.67223714132E+03  0.12508751095E+03 0.  0.
         23    2    1    2    0    0  0.75029062613E+01 -0.56103523042E+02  0.18192802518E+03  0.21149163351E+03  0.91798724389E+02 0.  0.
          5    1    3    3  502    0 -0.17284514431E+02 -0.37709109526E+02  0.24459988629E+03  0.24812760458E+03  0.41800000000E+01 0. -1.
         -5    1    3    3    0  502  0.97816081693E+01  0.93812632568E+02  0.41346697192E+03  0.42410953674E+03  0.41800000000E+01 0. -1.
        -11    1    4    4    0    0 -0.52680332924E+01 -0.26099259558E+02 -0.39225583741E-01  0.26625646714E+02  0.00000000000E+00 0.  1.
         11    1    4    4    0    0  0.12770939554E+02 -0.30004263483E+02  0.18196725076E+03  0.18486598680E+03  0.00000000000E+00 0. -1.
</event>
<event>
 8    1  0.3528896E-009  0.6554266E+02  0.7561462E-02  0.1375942E+00
         -2   -1    0    0    0  501 -0.00000000000E+00  0.00000000000E+00  0.30978783913E+02  0.30978783913E+02  0.00000000000E+00 0.  1.
          2   -1    0    0  501    0  0.00000000000E+00 -0.00000000000E+00 -0.57131696247E+03  0.57131696247E+03  0.00000000000E+00 0. -1.
         25    2    1    2    0    0 -0.15016672380E+02  0.36755088909E+02 -0.46196628091E+03  0.48024609193E+03  0.12508807740E+03 0.  0.
         23    2    1    2    0    0  0.15016672380E+02 -0.36755088909E+02 -0.78371897648E+02  0.12204965445E+03  0.84720285654E+02 0.  0.
          5    1    3    3  502    0 -0.18614171559E+02  0.14417541190E+02 -0.45579866752E+03  0.45642551483E+03  0.41800000000E+01 0. -1.
         -5    1    3    3    0  502  0.35974991794E+01  0.22337547719E+02 -0.61676133918E+01  0.23820577100E+02  0.41800000000E+01 0. -1.
        -11    1    4    4    0    0  0.13530147283E+02 -0.59678288066E+02 -0.77916977666E+02  0.99073802595E+02  0.00000000000E+00 0. -1.
         11    1    4    4    0    0  0.14865250972E+01  0.22923199157E+02 -0.45491998249E+00  0.22975851859E+02  0.00000000000E+00 0.  1.
</event>
<event>
 8    1  0.3528896E-009  0.1473955E+03  0.7561462E-02  0.1203710E+00
          2   -1    0    0  501    0  0.00000000000E+00  0.00000000000E+00  0.17130220715E+04  0.17130220715E+04  0.00000000000E+00 0. -1.
         -2   -1    0    0    0  501 -0.00000000000E+00 -0.00000000000E+00 -0.18841154253E+02  0.18841154253E+02  0.00000000000E+00 0.  1.
         25    2    1    2    0    0  0.70679991954E+01 -0.14190229736E+03  0.11307070308E+04  0.11464445500E+04  0.12510195051E+03 0.  0.
         23    2    1    2    0    0 -0.70679991954E+01  0.14190229736E+03  0.56347388641E+03  0.58541867576E+03  0.70894193365E+02 0.  0.
          5    1    3    3  502    0 -0.24100169236E+02 -0.51908163149E+02  0.80580796897E+03  0.80784851972E+03  0.41800000000E+01 0. -1.
         -5    1    3    3    0  502  0.31168168432E+02 -0.89994134207E+02  0.32489906184E+03  0.33859603024E+03  0.41800000000E+01 0. -1.
        -11    1    4    4    0    0 -0.43478687754E+01  0.85825220115E+02  0.45740580365E+03  0.46540836003E+03  0.00000000000E+00 0. -1.
         11    1    4    4    0    0 -0.27201304200E+01  0.56077077241E+02  0.10606808276E+03  0.12001031573E+03  0.00000000000E+00 0.  1.
</event>
<event>
 8    1  0.3528896E-009  0.9276226E+02  0.7561462E-02  0.1296297E+00
          2   -1    0    0  501    0  0.00000000000E+00  0.00000000000E+00  0.52135004836E+02  0.52135004836E+02  0.00000000000E+00 0. -1.
         -2   -1    0    0    0  501 -0.00000000000E+00 -0.00000000000E+00 -0.30463201461E+03  0.30463201461E+03  0.00000000000E+00 0.  1.
         25    2    1    2    0    0  0.67355507647E+02 -0.24503896121E+02 -0.11086277916E+03  0.18186807588E+03  0.12509290901E+03 0.  0.
         23    2    1    2    0    0 -0.67355507647E+02  0.24503896121E+02 -0.14163423062E+03  0.17489894357E+03  0.73431463580E+02 0.  0.
          5    1    3    3  502    0  0.23829024433E+02  0.13491753742E+02 -0.12005998527E+03  0.12321413185E+03  0.41800000000E+01 0.  1.
         -5    1    3    3    0  502  0.43526483214E+02 -0.37995649863E+02  0.91972061146E+01  0.58653944026E+02  0.41800000000E+01 0.  1.
        -11    1    4    4    0    0 -0.40229067992E+01  0.35403976142E+02 -0.70777628433E+02  0.79240759666E+02  0.00000000000E+00 0.  1.
         11    1    4    4    0    0 -0.63332600848E+02 -0.10900080021E+02 -0.70856602185E+02  0.95658183904E+02  0.00000000000E+00 0. -1.
</event>
<event>
 8    1  0.3528896E-009  0.1453258E+03  0.7561462E-02  0.1206337E+00
         -1   -1    0    0    0  501 -0.00000000000E+00  0.00000000000E+00  0.11455479295E+03  0.11455479295E+03  0.00000000000E+00 0.  1.
          1   -1    0    0  501    0  0.00000000000E+00 -0.00000000000E+00 -0.18656056560E+03  0.18656056560E+03  0.00000000000E+00 0. -1.
         25    2    1    2    0    0 -0.58519903162E+02  0.79496647815E+02 -0.39378633725E+02  0.16413348316E+03  0.12507928454E+03 0.  0.
         23    2    1    2    0    0  0.58519903162E+02 -0.79496647815E+02 -0.32627138932E+02  0.13698187539E+03  0.89191972230E+02 0.  0.
          5    1    3    3  502    0 -0.35805017945E+02 -0.29270919006E+02 -0.81295867572E+00  0.46442645395E+02  0.41800000000E+01 0. -1.
         -5    1    3    3    0  502 -0.22714885217E+02  0.10876756682E+03 -0.38565675049E+02  0.11769083777E+03  0.41800000000E+01 0. -1.
        -11    1    4    4    0    0 -0.19104388707E+02 -0.43395680382E+02 -0.12655079454E+02  0.49074573658E+02  0.00000000000E+00 0.  1.
         11    1    4    4    0    0  0.77624291870E+02 -0.36100967433E+02 -0.19972059478E+02  0.87907301731E+02  0.00000000000E+00 0. -1.
</event>
<event>
 8    1  0.3528896E-009  0.8356165E+02  0.7561462E-02  0.1319237E+00
          1   -1    0    0  501    0  0.00000000000E+00  0.00000000000E+00  0.36796014536E+03  0.36796014536E+03  0.00000000000E+00 0. -1.
         -1   -1    0    0    0  501 -0.00000000000E+00 -0.00000000000E+00 -0.40717737960E+02  0.40717737960E+02  0.00000000000E+00 0.  1.
         25    2    1    2    0    0 -0.48883226214E+02  0.37000506165E+02  0.18150169279E+03  0.22879719078E+03  0.12508670099E+03 0.  0.
         23    2    1    2    0    0  0.48883226214E+02 -0.37000506165E+02  0.14574071461E+03  0.17988069254E+03  0.85779370425E+02 0.  0.
          5    1    3    3  502    0 -0.41559290971E+02  0.41424899613E+02  0.13282068833E+02  0.60308231001E+02  0.41800000000E+01 0. -1.
         -5    1    3    3    0  502 -0.73239352438E+01 -0.44243934477E+01  0.16821962395E+03  0.16848895978E+03  0.41800000000E+01 0. -1.
        -11    1    4    4    0    0  0.68649962654E+02 -0.38916743478E+02  0.85038348953E+02  0.11601228852E+03  0.00000000000E+00 0.  1.
         11    1    4    4    0    0 -0.19766736440E+02  0.19162373120E+01  0.60702365659E+02  0.63868404016E+02  0.00000000000E+00 0. -1.
</event>
<event>
 8    1  0.3528896E-009  0.1128296E+03  0.7561462E-02  0.1255418E+00
         -2   -1    0    0    0  501 -0.00000000000E+00  0.00000000000E+00  0.19776839175E+02  0.19776839175E+02  0.00000000000E+00 0. -1.
          2   -1    0    0  501    0  0.00000000000E+00 -0.00000000000E+00 -0.98370672090E+03  0.98370672090E+03  0.00000000000E+00 0.  1.
         25    2    1    2    0    0 -0.34740077283E+02  0.74695442087E+02 -0.43672451346E+03  0.46170128506E+03  0.12511392378E+03 0.  0.
         23    2    1    2    0    0  0.34740077283E+02 -0.74695442087E+02 -0.52720536826E+03  0.54178227502E+03  0.93788331693E+02 0.  0.
          5    1    3    3  502    0 -0.10845673754E+02  0.77406279007E+02 -0.42902566441E+03  0.43610761721E+03  0.41800000000E+01 0.  1.
         -5    1    3    3    0  502 -0.23894403530E+02 -0.27108369205E+01 -0.76988490516E+01  0.25593667841E+02  0.41800000000E+01 0.  1.
        -11    1    4    4    0    0  0.65614067114E+02 -0.41467033060E+02 -0.37564095003E+03  0.38357638610E+03  0.00000000000E+00 0.  1.
         11    1    4    4    0    0 -0.30873989830E+02 -0.33228409027E+02 -0.15156441823E+03  0.15820588891E+03  0.00000000000E+00 0. -1.
</event>
<event>
 8    1  0.3528896E-009  0.1436755E+03  0.7561462E-02  0.1208467E+00
         -2   -1    0    0    0  501 -0.00000000000E+00  0.00000000000E+00  0.75743676124E+02  0.75743676124E+02  0.00000000000E+00 0.  1.
          2   -1    0    0  501    0  0.00000000000E+00 -0.00000000000E+00 -0.37931411309E+03  0.37931411309E+03  0.00000000000E+00 0. -1.
         25    2    1    2    0    0  0.12648793332E+03 -0.12355303340E+02 -0.12967525209E+03  0.22048659866E+03  0.12508724310E+03 0.  0.
         23    2    1    2    0    0 -0.12648793332E+03  0.12355303340E+02 -0.17389518487E+03  0.23457119055E+03  0.92909941986E+02 0.  0.
          5    1    3    3  502    0  0.11761967392E+03  0.96492528445E+01 -0.35544564837E+02  0.12332227804E+03  0.41800000000E+01 0.  1.
         -5    1    3    3    0  502  0.88682594024E+01 -0.22004556185E+02 -0.94130687251E+02  0.97164320612E+02  0.41800000000E+01 0.  1.
        -11    1    4    4    0    0 -0.16691408808E+02 -0.24245940330E+02 -0.50476284686E+01  0.29865486831E+02  0.00000000000E+00 0.  1.
         11    1    4    4    0    0 -0.10979652451E+03  0.36601243670E+02 -0.16884755641E+03  0.20470570372E+03  0.00000000000E+00 0. -1.
</event>
<event>
 8    1  0.3528896E-009  0.9941732E+02  0.7561462E-02  0.1281526E+00
         -2   -1    0    0    0  501 -0.00000000000E+00  0.00000000000E+00  0.43360524094E+03  0.43360524094E+03  0.00000000000E+00 0.  1.
          2   -1    0    0  501    0  0.00000000000E+00 -0.00000000000E+00 -0.49390224567E+02  0.49390224567E+02  0.00000000000E+00 0. -1.
         25    2    1    2    0    0 -0.40652620000E+02 -0.87481360387E+02  0.18184157873E+03  0.24087247344E+03  0.12509022656E+03 0.  0.
         23    2    1    2    0    0  0.40652620000E+02  0.87481360387E+02  0.20237343764E+03  0.24212299206E+03  0.91448953476E+02 0.  0.
          5    1    3    3  502    0 -0.30527391172E+02 -0.33576191180E+02 -0.52400652431E+01  0.45871700532E+02  0.41800000000E+01 0. -1.
         -5    1    3    3    0  502 -0.10125228828E+02 -0.53905169207E+02  0.18708164397E+03  0.19500077291E+03  0.41800000000E+01 0. -1.
        -11    1    4    4    0    0  0.16666755889E+00  0.16801297395E+02 -0.64330066672E+01  0.17991524310E+02  0.00000000000E+00 0. -1.
         11    1    4    4    0    0  0.40485952441E+02  0.70680062992E+02  0.20880644431E+03  0.22413146775E+03  0.00000000000E+00 0.  1.
</event>
<event>
 8    1  0.3528896E-009  0.7710730E+02  0.7561462E-02  0.1337467E+00
         -2   -1    0    0    0  501 -0.00000000000E+00  0.00000000000E+00  0.61048589636E+03  0.61048589636E+03  0.00000000000E+00 0.  1.
          2   -1    0    0  501    0  0.00000000000E+00 -0.00000000000E+00 -0.24498668571E+02  0.24498668571E+02  0.00000000000E+00 0. -1.
         25    2    1    2    0    0 -0.20078664621E+02 -0.83593338967E+01  0.46148764464E+03  0.47863480344E+03  0.12508955863E+03 0.  0.
         23    2    1    2    0    0  0.20078664621E+02  0.83593338967E+01  0.12449958315E+03  0.15634976149E+03  0.92043850836E+02 0.  0.
          5    1    3    3  502    0  0.22510791172E+02  0.34600316026E+02  0.34331542884E+03  0.34581335091E+03  0.41800000000E+01 0.  1.
         -5    1    3    3    0  502 -0.42589455793E+02 -0.42959649923E+02  0.11817221580E+03  0.13282145253E+03  0.41800000000E+01 0.  1.
        -11    1    4    4    0    0  0.10992569146E+02 -0.19718963107E+02  0.12481094133E+03  0.12683629274E+03  0.00000000000E+00 0.  1.
         11    1    4    4    0    0  0.90860954750E+01  0.28078297003E+02 -0.31135817173E+00  0.29513468747E+02  0.00000000000E+00 0. -1.
</event>
<event>
 8    1  0.3528896E-009  0.1496467E+03  0.7561462E-02  0.1200908E+00
          2   -1    0    0  501    0  0.00000000000E+00  0.00000000000E+00  0.54152781140E+03  0.54152781140E+03  0.00000000000E+00 0. -1.
         -2   -1    0    0    0  501 -0.00000000000E+00 -0.00000000000E+00 -0.46643593826E+02  0.46643593826E+02  0.00000000000E+00 0.  1.
         25    2    1    2    0    0 -0.40143721166E+02  0.10924135760E+03  0.30845570201E+03  0.35261528205E+03  0.12508966572E+03 0.  0.
         23    2    1    2    0    0  0.40143721166E+02 -0.10924135760E+03  0.18642851556E+03  0.23555612318E+03  0.84769706822E+02 0.  0.
          5    1    3    3  502    0 -0.81214923921E+02  0.46608632988E+02  0.14344605242E+03  0.17135480994E+03  0.41800000000E+01 0. -1.
         -5    1    3    3    0  502  0.41071202755E+02  0.62632724608E+02  0.16500964959E+03  0.18126047210E+03  0.41800000000E+01 0. -1.
        -11    1    4    4    0    0 -0.15479872893E+02 -0.29608659148E+02  0.11259080305E+02  0.35257141839E+02  0.00000000000E+00 0.  1.
         11    1    4    4    0    0  0.55623594059E+02 -0.79632698447E+02  0.17516943526E+03  0.20029898134E+03  0.00000000000E+00 0. -1.
</event>
<event>
 8    1  0.3528896E-009  0.1108297E+03  0.7561462E-02  0.1259041E+00
         -2   -1    0    0    0  501 -0.00000000000E+00  0.00000000000E+00  0.93298112071E+02  0.93298112071E+02  0.00000000000E+00 0.  1.
          2   -1    0    0  501    0  0.00000000000E+00 -0.00000000000E+00 -0.18607905070E+03  0.18607905070E+03  0.00000000000E+00 0. -1.
         25    2    1    2    0    0 -0.36818809403E+02  0.44092820604E+02  0.62645138571E+01  0.13779248077E+03  0.12509085526E+03 0.  0.
         23    2    1    2    0    0  0.36818809403E+02 -0.44092820604E+02 -0.99045452486E+02  0.14158468200E+03  0.83285166528E+02 0.  0.
          5    1    3    3  502    0  0.41789701412E+02  0.24245886767E+02 -0.20014321558E+02  0.52462249634E+02  0.41800000000E+01 0.  1.
         -5    1    3    3    0  502 -0.78608510815E+02  0.19846933837E+02  0.26278835415E+02  0.85330231138E+02  0.41800000000E+01 0.  1.
        -11    1    4    4    0    0  0.15913910273E+01 -0.55062950101E+02 -0.28614112420E+02  0.62074378199E+02  0.00000000000E+00 0.  1.
         11    1    4    4    0    0  0.35227418376E+02  0.10970129497E+02 -0.70431340066E+02  0.79510303799E+02  0.00000000000E+00 0. -1.
</event>
<event>
 8    1  0.3528896E-009  0.8580431E+02  0.7561462E-02  0.1313342E+00
         -3   -1    0    0    0  501 -0.00000000000E+00  0.00000000000E+00  0.13051606025E+02  0.13051606025E+02  0.00000000000E+00 0.  1.
          3   -1    0    0  501    0  0.00000000000E+00 -0.00000000000E+00 -0.11852104764E+04  0.11852104764E+04  0.00000000000E+00 0. -1.
         25    2    1    2    0    0  0.36277445779E+01  0.48204018815E+02 -0.83831616265E+03  0.84897228519E+03  0.12507263688E+03 0.  0.
         23    2    1    2    0    0 -0.36277445779E+01 -0.48204018815E+02 -0.33384270771E+03  0.34928979723E+03  0.90640062843E+02 0.  0.
          5    1    3    3  502    0 -0.59097309732E+01 -0.17935315963E+02 -0.19645959567E+02  0.27568761419E+02  0.41800000000E+01 0.  1.
         -5    1    3    3    0  502  0.95374755511E+01  0.66139334778E+02 -0.81867020308E+03  0.82140352377E+03  0.41800000000E+01 0.  1.
        -11    1    4    4    0    0  0.32389861155E+02 -0.12855100060E+02 -0.49695981590E+02  0.60696353180E+02  0.00000000000E+00 0.  1.
         11    1    4    4    0    0 -0.36017605732E+02 -0.35348918755E+02 -0.28414672612E+03  0.28859344405E+03  0.00000000000E+00 0. -1.
</event>
<event>
 8    1  0.3528896E-009  0.2294510E+03  0.7561462E-02  0.1127027E+00
          1   -1    0    0  501    0  0.00000000000E+00  0.00000000000E+00  0.59069510140E+03  0.59069510140E+03  0.00000000000E+00 0. -1.
         -1   -1    0    0    0  501 -0.00000000000E+00 -0.00000000000E+00 -0.11016858124E+03  0.11016858124E+03  0.00000000000E+00 0.  1.
         25    2    1    2    0    0  0.19304059606E+03  0.87066543884E+02  0.12187278564E+03  0.27448940659E+03  0.12508478588E+03 0.  0.
         23    2    1    2    0    0 -0.19304059606E+03 -0.87066543884E+02  0.35865373452E+03  0.42637427605E+03  0.91199052624E+02 0.  0.
          5    1    3    3  502    0  0.33305668037E+02  0.56829423327E+02  0.85210155840E+02  0.10778262354E+03  0.41800000000E+01 0.  1.
         -5    1    3    3    0  502  0.15973492803E+03  0.30237120557E+02  0.36662629800E+02  0.16670678305E+03  0.41800000000E+01 0.  1.
        -11    1    4    4    0    0 -0.11107051494E+01 -0.30027372134E+02  0.39855466716E+02  0.49913274491E+02  0.00000000000E+00 0.  1.
         11    1    4    4    0    0 -0.19192989092E+03 -0.57039171750E+02  0.31879826780E+03  0.37646100156E+03  0.00000000000E+00 0. -1.
</event>
<event>
 8    1  0.3528896E-009  0.1144077E+03  0.7561462E-02  0.1252619E+00
          1   -1    0    0  501    0  0.00000000000E+00  0.00000000000E+00  0.17396808729E+03  0.17396808729E+03  0.00000000000E+00 0. -1.
         -1   -1    0    0    0  501 -0.00000000000E+00 -0.00000000000E+00 -0.87870959137E+02  0.87870959137E+02  0.00000000000E+00 0.  1.
         25    2    1    2    0    0  0.21380301501E+02  0.51713989196E+02  0.31528233503E+02  0.14061358802E+03  0.12508676052E+03 0.  0.
         23    2    1    2    0    0 -0.21380301501E+02 -0.51713989196E+02  0.54568894655E+02  0.12122545841E+03  0.92662794760E+02 0.  0.
          5    1    3    3  502    0  0.63747524638E+02 -0.30434611099E+01 -0.10906807954E+01  0.63966174949E+02  0.41800000000E+01 0.  1.
         -5    1    3    3    0  502 -0.42367223136E+02  0.54757450306E+02  0.32618914298E+02  0.76647413070E+02  0.41800000000E+01 0.  1.
        -11    1    4    4    0    0  0.15262553184E+02  0.13707173849E+02 -0.94911122966E+01  0.22603392605E+02  0.00000000000E+00 0.  1.
         11    1    4    4    0    0 -0.36642854686E+02 -0.65421163045E+02  0.64060006951E+02  0.98622065808E+02  0.00000000000E+00 0. -1.
</event>
<event>
 8    1  0.3528896E-009  0.2311846E+03  0.7561462E-02  0.1125809E+00
          2   -1    0    0  501    0  0.00000000000E+00  0.00000000000E+00  0.56898935798E+02  0.56898935798E+02  0.00000000000E+00 0. -1.
         -2   -1    0    0    0  501 -0.00000000000E+00 -0.00000000000E+00 -0.11573364404E+04  0.11573364404E+04  0.00000000000E+00 0.  1.
         25    2    1    2    0    0  0.15872110626E+03 -0.16571584629E+03 -0.46594744144E+03  0.53423603886E+03  0.12508795202E+03 0.  0.
         23    2    1    2    0    0 -0.15872110626E+03  0.16571584629E+03 -0.63449006313E+03  0.67999933732E+03  0.84660068833E+02 0.  0.
          5    1    3    3  502    0  0.63600148901E+02 -0.47390168453E+02 -0.29528481409E+03  0.30577998764E+03  0.41800000000E+01 0.  1.
         -5    1    3    3    0  502  0.95120957360E+02 -0.11832567783E+03 -0.17066262735E+03  0.22845605122E+03  0.41800000000E+01 0.  1.
        -11    1    4    4    0    0 -0.11909913424E+03  0.10621054695E+03 -0.52916934744E+03  0.55270741114E+03  0.00000000000E+00 0.  1.
         11    1    4    4    0    0 -0.39621972019E+02  0.59505299332E+02 -0.10532071569E+03  0.12729192617E+03  0.00000000000E+00 0. -1.
</event>
<event>
 7    1  0.3528896E-009  0.5663532E+02  0.7561462E-02  0.1412520E+00
         -2   -1    0    0    0  501 -0.00000000000E+00  0.00000000000E+00  0.24643964732E+02  0.24643964732E+02  0.00000000000E+00 0.  1.
          2   -1    0    0  501    0  0.00000000000E+00 -0.00000000000E+00 -0.50741715560E+03  0.50741715560E+03  0.00000000000E+00 0. -1.
         23    2    1    2    0    0 -0.11773120581E+02  0.15413766985E+02 -0.12170671724E+03  0.14787082999E+03  0.81713320572E+02 0.  0.
          5    1    1    2  502    0  0.21303571433E+02  0.95486851492E+00 -0.36393445149E+03  0.36458265361E+03  0.41800000000E+01 0.  1.
         -5    1    1    2    0  502 -0.95304508520E+01 -0.16368635499E+02  0.28679778587E+01  0.19607636741E+02  0.41800000000E+01 0.  1.
        -11    1    3    3    0    0  0.29350074212E+02  0.67980441975E+01 -0.15983061310E+02  0.34104230090E+02  0.00000000000E+00 0.  1.
         11    1    3    3    0    0 -0.41123194793E+02  0.86157227871E+01 -0.10572365593E+03  0.11376659990E+03  0.00000000000E+00 0. -1.
</event>
<event>
 8    1  0.3528896E-009  0.1273248E+03  0.7561462E-02  0.1231480E+00
         -2   -1    0    0    0  501 -0.00000000000E+00  0.00000000000E+00  0.32547288949E+02  0.32547288949E+02  0.00000000000E+00 0.  1.
          2   -1    0    0  501    0  0.00000000000E+00 -0.00000000000E+00 -0.70664232013E+03  0.70664232013E+03  0.00000000000E+00 0. -1.
         25    2    1    2    0    0  0.10449415022E+03  0.13127772134E+02 -0.35920781686E+03  0.39467291119E+03  0.12508031541E+03 0.  0.
         23    2    1    2    0    0 -0.10449415022E+03 -0.13127772134E+02 -0.31488721432E+03  0.34451669788E+03  0.91904469683E+02 0.  0.
          5    1    3    3  502    0  0.36095049266E+02 -0.26804954772E+02 -0.27619467008E+03  0.27986126271E+03  0.41800000000E+01 0. -1.
         -5    1    3    3    0  502  0.68399100958E+02  0.39932726906E+02 -0.83013146779E+02  0.11481164849E+03  0.41800000000E+01 0. -1.
        -11    1    4    4    0    0  0.33323455969E+01 -0.21758197056E+02 -0.17669063195E+02  0.28226219379E+02  0.00000000000E+00 0.  1.
         11    1    4    4    0    0 -0.10782649582E+03  0.86304249214E+01 -0.29721815112E+03  0.31629047851E+03  0.00000000000E+00 0. -1.
</event>
<event>
 8    1  0.3528896E-009  0.8470545E+02  0.7561462E-02  0.1316205E+00
          2   -1    0    0  501    0  0.00000000000E+00  0.00000000000E+00  0.40455689378E+03  0.40455689378E+03  0.00000000000E+00 0. -1.
         -2   -1    0    0    0  501 -0.00000000000E+00 -0.00000000000E+00 -0.48376247569E+02  0.48376247569E+02  0.00000000000E+00 0.  1.
         25    2    1    2    0    0  0.51558926916E+02 -0.38220096048E+02  0.10029723422E+03  0.17270206411E+03  0.12508944428E+03 0.  0.
         23    2    1    2    0    0 -0.51558926916E+02  0.38220096048E+02  0.25588341199E+03  0.28023107724E+03  0.94520037186E+02 0.  0.
          5    1    3    3  502    0  0.18228860917E+02 -0.20476247850E+02 -0.27694048392E+02  0.39191846253E+02  0.41800000000E+01 0. -1.
         -5    1    3    3    0  502  0.33330065999E+02 -0.17743848198E+02  0.12799128261E+03  0.13351021786E+03  0.41800000000E+01 0. -1.
        -11    1    4    4    0    0 -0.20178815140E+02 -0.25585375887E+02  0.14418465372E+03  0.14782087270E+03  0.00000000000E+00 0. -1.
         11    1    4    4    0    0 -0.31380111776E+02  0.63805471935E+02  0.11169875828E+03  0.13241020453E+03  0.00000000000E+00 0.  1.
</event>
<event>
 8    1  0.3528896E-009  0.1498584E+03  0.7561462E-02  0.1200647E+00
          2   -1    0    0  501    0  0.00000000000E+00  0.00000000000E+00  0.13853020267E+03  0.13853020267E+03  0.00000000000E+00 0. -1.
         -2   -1    0    0    0  501 -0.00000000000E+00 -0.00000000000E+00 -0.17728417084E+03  0.17728417084E+03  0.00000000000E+00 0.  1.
         25    2    1    2    0    0  0.78255670331E+02 -0.69121277748E+02  0.21543691133E+02  0.16435787983E+03  0.12509069133E+03 0.  0.
         23    2    1    2    0    0 -0.78255670331E+02  0.69121277748E+02 -0.60297659309E+02  0.15145649369E+03  0.91660028283E+02 0.  0.
          5    1    3    3  502    0 -0.16307116590E+02  0.24509787981E+02  0.21423706195E+01  0.29811305074E+02  0.41800000000E+01 0.  1.
         -5    1    3    3    0  502  0.94562786921E+02 -0.93631065729E+02  0.19401320514E+02  0.13454657475E+03  0.41800000000E+01 0.  1.
        -11    1    4    4    0    0 -0.44497822657E+02  0.87675584332E+02 -0.31106647488E+02  0.10312462280E+03  0.00000000000E+00 0. -1.
         11    1    4    4    0    0 -0.33757847674E+02 -0.18554306584E+02 -0.29191011821E+02  0.48331870888E+02  0.00000000000E+00 0.  1.
</event>
<event>
 8    1  0.3528896E-009  0.1789508E+03  0.7561462E-02  0.1168822E+00
          2   -1    0    0  501    0  0.00000000000E+00  0.00000000000E+00  0.70403530682E+03  0.70403530682E+03  0.00000000000E+00 0.  1.
         -2   -1    0    0    0  501 -0.00000000000E+00 -0.00000000000E+00 -0.51409967081E+02  0.51409967081E+02  0.00000000000E+00 0. -1.
         25    2    1    2    0    0  0.84650235648E+02 -0.13047119707E+03  0.32029862293E+03  0.37739481663E+03  0.12508894478E+03 0.  0.
         23    2    1    2    0    0 -0.84650235648E+02  0.13047119707E+03  0.33232671681E+03  0.37805045727E+03  0.91064295301E+02 0.  0.
          5    1    3    3  502    0 -0.70305879901E+01 -0.68477684006E+02  0.49694996747E+02  0.85004043881E+02  0.41800000000E+01 0.  1.
         -5    1    3    3    0  502  0.91680823639E+02 -0.61993513061E+02  0.27060362618E+03  0.29239077275E+03  0.41800000000E+01 0.  1.
        -11    1    4    4    0    0 -0.59728431200E+01  0.89087823506E+02  0.19488025581E+03  0.21436097886E+03  0.00000000000E+00 0.  1.
         11    1    4    4    0    0 -0.78677392529E+02  0.41383373562E+02  0.13744646099E+03  0.16368947841E+03  0.00000000000E+00 0. -1.
</event>
<event>
 8    1  0.3528896E-009  0.8138752E+02  0.7561462E-02  0.1325159E+00
         -1   -1    0    0    0  501 -0.00000000000E+00  0.00000000000E+00  0.65522447059E+03  0.65522447059E+03  0.00000000000E+00 0.  1.
          1   -1    0    0  501    0  0.00000000000E+00 -0.00000000000E+00 -0.20844538135E+02  0.20844538135E+02  0.00000000000E+00 0. -1.
         25    2    1    2    0    0  0.30557009416E+02 -0.34362432434E+02  0.37233299120E+03  0.39546689281E+03  0.12509076459E+03 0.  0.
         23    2    1    2    0    0 -0.30557009416E+02  0.34362432434E+02  0.26204694126E+03  0.28060211592E+03  0.89187669814E+02 0.  0.
          5    1    3    3  502    0  0.18330151481E+02  0.11972367102E+02  0.33184508459E+03  0.33259279095E+03  0.41800000000E+01 0.  1.
         -5    1    3    3    0  502  0.12226857935E+02 -0.46334799537E+02  0.40487906615E+02  0.62874101863E+02  0.41800000000E+01 0.  1.
        -11    1    4    4    0    0 -0.55530765906E+02  0.37798117625E+02  0.23122006355E+03  0.24078015168E+03  0.00000000000E+00 0.  1.
         11    1    4    4    0    0  0.24973756490E+02 -0.34356851908E+01  0.30826877712E+02  0.39821964234E+02  0.00000000000E+00 0. -1.
</event>
<event>
 8    1  0.3528896E-009  0.1583282E+03  0.7561462E-02  0.1190597E+00
         -1   -1    0    0    0  501 -0.00000000000E+00  0.00000000000E+00  0.20812387835E+02  0.20812387835E+02  0.00000000000E+00 0.  1.
          1   -1    0    0  501    0  0.00000000000E+00 -0.00000000000E+00 -0.12706091600E+04  0.12706091600E+04  0.00000000000E+00 0. -1.
         25    2    1    2    0    0 -0.67886841783E+02 -0.97984775052E+02 -0.59288856907E+03  0.61755464925E+03  0.12508896852E+03 0.  0.
         23    2    1    2    0    0  0.67886841783E+02  0.97984775052E+02 -0.65690820304E+03  0.67386689854E+03  0.91425216911E+02 0.  0.
          5    1    3    3  502    0 -0.10306235974E+03 -0.58780536895E+02 -0.44272358662E+03  0.45836519072E+03  0.41800000000E+01 0. -1.
         -5    1    3    3    0  502  0.35175517954E+02 -0.39204238157E+02 -0.15016498245E+03  0.15918945853E+03  0.41800000000E+01 0. -1.
        -11    1    4    4    0    0  0.42142135694E+02 -0.16674142594E+01 -0.12034041506E+03  0.12751688268E+03  0.00000000000E+00 0.  1.
         11    1    4    4    0    0  0.25744706089E+02  0.99652189311E+02 -0.53656778798E+03  0.54635001586E+03  0.00000000000E+00 0. -1.
</event>
<event>
 8    1  0.3528896E-009  0.9903132E+02  0.7561462E-02  0.1282346E+00
          2   -1    0    0  501    0  0.00000000000E+00  0.00000000000E+00  0.61555825049E+03  0.61555825049E+03  0.00000000000E+00 0. -1.
         -2   -1    0    0    0  501 -0.00000000000E+00 -0.00000000000E+00 -0.24237163669E+02  0.24237163669E+02  0.00000000000E+00 0.  1.
         25    2    1    2    0    0  0.45609510981E+02 -0.31549661967E+02  0.35404960354E+03  0.37956870083E+03  0.12508264555E+03 0.  0.
         23    2    1    2    0    0 -0.45609510981E+02  0.31549661967E+02  0.23727148328E+03  0.26022671333E+03  0.91348655666E+02 0.  0.
          5    1    3    3  502    0  0.68275105814E+02 -0.14358835966E+02  0.34082953120E+03  0.34792227290E+03  0.41800000000E+01 0. -1.
         -5    1    3    3    0  502 -0.22665594832E+02 -0.17190826002E+02  0.13220072344E+02  0.31646427927E+02  0.41800000000E+01 0. -1.
        -11    1    4    4    0    0 -0.12645854563E+02  0.56611743942E+02  0.88628746809E+02  0.10592384977E+03  0.00000000000E+00 0.  1.
         11    1    4    4    0    0 -0.32963656418E+02 -0.25062081974E+02  0.14864273647E+03  0.15430286356E+03  0.00000000000E+00 0. -1.
</event>
<event>
 8    1  0.3528896E-009  0.1846389E+03  0.7561462E-02  0.1163388E+00
         -2   -1    0    0    0  501 -0.00000000000E+00  0.00000000000E+00  0.15165908154E+03  0.15165908154E+03  0.00000000000E+00 0. -1.
          2   -1    0    0  501    0  0.00000000000E+00 -0.00000000000E+00 -0.26263153444E+03  0.26263153444E+03  0.00000000000E+00 0.  1.
         25    2    1    2    0    0 -0.11310919993E+03  0.10715033729E+03 -0.11401184390E+03  0.23004881745E+03  0.12509545144E+03 0.  0.
         23    2    1    2    0    0  0.11310919993E+03 -0.10715033729E+03  0.30393909985E+01  0.18424179853E+03  0.98289961522E+02 0.  0.
          5    1    3    3  502    0 -0.12938747802E+03  0.70185221887E+02 -0.11874298514E+03  0.18916779261E+03  0.41800000000E+01 0. -1.
         -5    1    3    3    0  502  0.16278278092E+02  0.36965115408E+02  0.47311412415E+01  0.40881024843E+02  0.41800000000E+01 0. -1.
        -11    1    4    4    0    0 -0.15805163846E+02 -0.21327100132E+02  0.11961163234E+02  0.29115594278E+02  0.00000000000E+00 0. -1.
         11    1    4    4    0    0  0.12891436378E+03 -0.85823237163E+02 -0.89217722357E+01  0.15512620425E+03  0.00000000000E+00 0.  1.
</event>
<event>
 8    1  0.3528896E-009  0.8246583E+02  0.7561462E-02  0.1322196E+00
         -1   -1    0    0    0  501 -0.00000000000E+00  0.00000000000E+00  0.36226824276E+02  0.36226824276E+02  0.00000000000E+00 0.  1.
          1   -1    0    0  501    0  0.00000000000E+00 -0.00000000000E+00 -0.36669937144E+03  0.36669937144E+03  0.00000000000E+00 0. -1.
         25    2    1    2    0    0 -0.31517876313E+02 -0.17185602013E+02 -0.17049981865E+03  0.21449036545E+03  0.12508879752E+03 0.  0.
         23    2    1    2    0    0  0.31517876313E+02  0.17185602013E+02 -0.15997272851E+03  0.18843583027E+03  0.92887387831E+02 0.  0.
          5    1    3    3  502    0 -0.46962053730E+02 -0.19413072464E+02 -0.18554006980E+03  0.19241853282E+03  0.41800000000E+01 0. -1.
         -5    1    3    3    0  502  0.15444177418E+02  0.22274704513E+01  0.15040251146E+02  0.22071832621E+02  0.41800000000E+01 0. -1.
        -11    1    4    4    0    0 -0.25150536829E+02 -0.18142156567E+02 -0.35161683795E+02  0.46883167075E+02  0.00000000000E+00 0.  1.
         11    1    4    4    0    0  0.56668413142E+02  0.35327758579E+02 -0.12481104471E+03  0.14155266319E+03  0.00000000000E+00 0. -1.
</event>
<event>
 8    1  0.3528896E-009  0.1767853E+03  0.7561462E-02  0.1170951E+00
         -1   -1    0    0    0  501 -0.00000000000E+00  0.00000000000E+00  0.59311275813E+02  0.59311275813E+02  0.00000000000E+00 0.  1.
          1   -1    0    0  501    0  0.00000000000E+00 -0.00000000000E+00 -0.60314321548E+03  0.60314321548E+03  0.00000000000E+00 0. -1.
         25    2    1    2    0    0 -0.93572622794E+02 -0.11932757678E+03 -0.23395178672E+03  0.30557534108E+03  0.12509174333E+03 0.  0.
         23    2    1    2    0    0  0.93572622794E+02  0.11932757678E+03 -0.30988015294E+03  0.35687915021E+03  0.91335164918E+02 0.  0.
          5    1    3    3  502    0 -0.10541737262E+03 -0.37534347766E+02 -0.11353763085E+03  0.15946760088E+03  0.41800000000E+01 0.  1.
         -5    1    3    3    0  502  0.11844749829E+02 -0.81793229010E+02 -0.12041415587E+03  0.14610774020E+03  0.41800000000E+01 0.  1.
        -11    1    4    4    0    0 -0.56386138766E+00  0.26927567445E+02 -0.90713950184E+01  0.28420099151E+02  0.00000000000E+00 0.  1.
         11    1    4    4    0    0  0.94136484182E+02  0.92400009332E+02 -0.30080875792E+03  0.32845905106E+03  0.00000000000E+00 0. -1.
</event>
<event>
 8    1  0.3528896E-009  0.1170718E+03  0.7561462E-02  0.1248007E+00
          1   -1    0    0  501    0  0.00000000000E+00  0.00000000000E+00  0.73288429301E+03  0.73288429301E+03  0.00000000000E+00 0. -1.
         -1   -1    0    0    0  501 -0.00000000000E+00 -0.00000000000E+00 -0.25227213045E+02  0.25227213045E+02  0.00000000000E+00 0.  1.
         25    2    1    2    0    0  0.71746113223E+02  0.31790222096E+02  0.43060057416E+03  0.45521697591E+03  0.12509003838E+03 0.  0.
         23    2    1    2    0    0 -0.71746113223E+02 -0.31790222096E+02  0.27705650580E+03  0.30289453015E+03  0.93950337958E+02 0.  0.
          5    1    3    3  502    0  0.34898879474E+02 -0.32141456951E+02  0.31097660039E+03  0.31460280264E+03  0.41800000000E+01 0. -1.
         -5    1    3    3    0  502  0.36847233749E+02  0.63931679047E+02  0.11962397378E+03  0.14061417326E+03  0.41800000000E+01 0. -1.
        -11    1    4    4    0    0 -0.70673678806E+02  0.94940203461E+01  0.11218975577E+03  0.13293399339E+03  0.00000000000E+00 0.  1.
         11    1    4    4    0    0 -0.10724344168E+01 -0.41284242442E+02  0.16486675003E+03  0.16996053676E+03  0.00000000000E+00 0. -1.
</event>
<event>
 8    1  0.3528896E-009  0.1136086E+03  0.7561462E-02  0.1254029E+00
          1   -1    0    0  501    0  0.00000000000E+00  0.00000000000E+00  0.99532914299E+03  0.99532914299E+03  0.00000000000E+00 0. -1.
         -1   -1    0    0    0  501 -0.00000000000E+00 -0.00000000000E+00 -0.15272126941E+02  0.15272126941E+02  0.00000000000E+00 0.  1.
         25    2    1    2    0    0  0.43943933234E+02 -0.44542708663E+02  0.62397885649E+03  0.63945875619E+03  0.12507104123E+03 0.  0.
         23    2    1    2    0    0 -0.43943933234E+02  0.44542708663E+02  0.35607815955E+03  0.37114251374E+03  0.83904634142E+02 0.  0.
          5    1    3    3  502    0  0.64380129180E+01  0.35196177173E+02  0.34471864727E+03  0.34659578341E+03  0.41800000000E+01 0.  1.
         -5    1    3    3    0  502  0.37505920316E+02 -0.79738885835E+02  0.27926020922E+03  0.29286297278E+03  0.41800000000E+01 0.  1.
        -11    1    4    4    0    0 -0.18978793375E+02  0.66852627166E+02  0.26950288939E+03  0.27831865864E+03  0.00000000000E+00 0. -1.
         11    1    4    4    0    0 -0.24965139859E+02 -0.22309918503E+02  0.86575270164E+02  0.92823855100E+02  0.00000000000E+00 0.  1.
</event>
<event>
 8    1  0.3528896E-009  0.7865607E+02  0.7561462E-02  0.1332909E+00
          1   -1    0    0  501    0  0.00000000000E+00  0.00000000000E+00  0.10680995075E+03  0.10680995075E+03  0.00000000000E+00 0. -1.
         -1   -1    0    0    0  501 -0.00000000000E+00 -0.00000000000E+00 -0.12758682310E+03  0.12758682310E+03  0.00000000000E+00 0.  1.
         25    2    1    2    0    0  0.73587249628E+01 -0.39604244272E+02 -0.26746780382E+02  0.13410935026E+03  0.12508909052E+03 0.  0.
         23    2    1    2    0    0 -0.73587249628E+01  0.39604244272E+02  0.59699080276E+01  0.10028742359E+03  0.91647588792E+02 0.  0.
          5    1    3    3  502    0 -0.21576386969E+02 -0.12563337154E+02  0.45240109796E+02  0.51841275538E+02  0.41800000000E+01 0.  1.
         -5    1    3    3    0  502  0.28935111932E+02 -0.27040907118E+02 -0.71986890178E+02  0.82268074718E+02  0.41800000000E+01 0.  1.
        -11    1    4    4    0    0  0.35443273150E+02  0.33806349124E+02  0.22677722072E+02  0.53975679069E+02  0.00000000000E+00 0. -1.
         11    1    4    4    0    0 -0.42801998112E+02  0.57978951489E+01 -0.16707814045E+02  0.46311744522E+02  0.00000000000E+00 0.  1.
</event>
<event>
 8    1  0.3528896E-009  0.9319819E+02  0.7561462E-02  0.1295287E+00
          2   -1    0    0  501    0  0.00000000000E+00  0.00000000000E+00  0.30044929465E+02  0.30044929465E+02  0.00000000000E+00 0. -1.
         -2   -1    0    0    0  501 -0.00000000000E+00 -0.00000000000E+00 -0.40000977887E+03  0.40000977887E+03  0.00000000000E+00 0.  1.
         25    2    1    2    0    0  0.21443422030E+02 -0.17041341862E+02 -0.21480508043E+03  0.25007904445E+03  0.12509227879E+03 0.  0.
         23    2    1    2    0    0 -0.21443422030E+02  0.17041341862E+02 -0.15515976897E+03  0.17997566388E+03  0.86985389589E+02 0.  0.
          5    1    3    3  502    0  0.93200509382E+01 -0.61843219102E+02 -0.54248969044E+02  0.82896743849E+02  0.41800000000E+01 0. -1.
         -5    1    3    3    0  502  0.12123371092E+02  0.44801877240E+02 -0.16055611138E+03  0.16718230060E+03  0.41800000000E+01 0. -1.
        -11    1    4    4    0    0 -0.44106337439E+02 -0.63311638872E+01 -0.38593126264E+02  0.58948130024E+02  0.00000000000E+00 0. -1.
         11    1    4    4    0    0  0.22662915410E+02  0.23372505749E+02 -0.11656664271E+03  0.12102753386E+03  0.00000000000E+00 0.  1.
</event>
<event>
 8    1  0.3528896E-009  0.1131540E+03  0.7561462E-02  0.1254838E+00
         -1   -1    0    0    0  501 -0.00000000000E+00  0.00000000000E+00  0.12337479392E+03  0.12337479392E+03  0.00000000000E+00 0.  1.
          1   -1    0    0  501    0  0.00000000000E+00 -0.00000000000E+00 -0.13121404884E+03  0.13121404884E+03  0.00000000000E+00 0. -1.
         25    2    1    2    0    0 -0.54423025870E+02  0.20235035583E+02 -0.36965865983E+02  0.14277781711E+03  0.12509079663E+03 0.  0.
         23    2    1    2    0    0  0.54423025870E+02 -0.20235035583E+02  0.29126611061E+02  0.11181102565E+03  0.91005623866E+02 0.  0.
          5    1    3    3  502    0 -0.15927919309E+02  0.63920526923E+02 -0.50190867084E+02  0.82922421059E+02  0.41800000000E+01 0.  1.
         -5    1    3    3    0  502 -0.38495106561E+02 -0.43685491340E+02  0.13225001101E+02  0.59855396055E+02  0.41800000000E+01 0.  1.
        -11    1    4    4    0    0 -0.21722145916E+02  0.38503992446E+01  0.22755510544E+02  0.31693697444E+02  0.00000000000E+00 0.  1.
         11    1    4    4    0    0  0.76145171786E+02 -0.24085434828E+02  0.63711005170E+01  0.80117328206E+02  0.00000000000E+00 0. -1.
</event>
<event>
 8    1  0.3528896E-009  0.9504261E+02  0.7561462E-02  0.1291080E+00
          2   -1    0    0  501    0  0.00000000000E+00  0.00000000000E+00  0.34132999056E+03  0.34132999056E+03  0.00000000000E+00 0. -1.
         -2   -1    0    0    0  501 -0.00000000000E+00 -0.00000000000E+00 -0.38353803067E+02  0.38353803067E+02  0.00000000000E+00 0.  1.
         25    2    1    2    0    0 -0.19246900283E+02  0.28434440075E+02  0.15016134708E+03  0.19842945679E+03  0.12508740389E+03 0.  0.
         23    2    1    2    0    0  0.19246900283E+02 -0.28434440075E+02  0.15281484041E+03  0.18125433684E+03  0.91223892812E+02 0.  0.
          5    1    3    3  502    0  0.21596492179E+02  0.44191184223E+02  0.14616058078E+03  0.15427137457E+03  0.41800000000E+01 0.  1.
         -5    1    3    3    0  502 -0.40843392462E+02 -0.15756744148E+02  0.40007662959E+01  0.44158082215E+02  0.41800000000E+01 0.  1.
        -11    1    4    4    0    0  0.27034163059E+02 -0.59162193387E+02  0.11273074569E+03  0.13015080531E+03  0.00000000000E+00 0. -1.
         11    1    4    4    0    0 -0.77872627763E+01  0.30727753312E+02  0.40084094717E+02  0.51103531526E+02  0.00000000000E+00 0.  1.
</event>
<event>
 8    1  0.3528896E-009  0.1146585E+03  0.7561462E-02  0.1252178E+00
         -2   -1    0    0    0  501 -0.00000000000E+00  0.00000000000E+00  0.17167415808E+02  0.17167415808E+02  0.00000000000E+00 0.  1.
          2   -1    0    0  501    0  0.00000000000E+00 -0.00000000000E+00 -0.79544522164E+03  0.79544522164E+03  0.00000000000E+00 0. -1.
         25    2    1    2    0    0  0.17878840175E+02 -0.39652114386E+02 -0.42033416222E+03  0.44070395849E+03  0.12508888038E+03 0.  0.
         23    2    1    2    0    0 -0.17878840175E+02  0.39652114386E+02 -0.35794364361E+03  0.37190867896E+03  0.91106917323E+02 0.  0.
          5    1    3    3  502    0  0.28238062177E+02 -0.82253413239E+02 -0.24832067540E+03  0.26314186740E+03  0.41800000000E+01 0.  1.
         -5    1    3    3    0  502 -0.10359222002E+02  0.42601298853E+02 -0.17201348682E+03  0.17756209109E+03  0.41800000000E+01 0.  1.
        -11    1    4    4    0    0  0.35861922086E+02  0.12332003493E+02 -0.18242653797E+03  0.18632658834E+03  0.00000000000E+00 0. -1.
         11    1    4    4    0    0 -0.53740762262E+02  0.27320110893E+02 -0.17551710564E+03  0.18558209062E+03  0.00000000000E+00 0.  1.
</event>
<event>
 8    1  0.3528896E-009  0.1191334E+03  0.7561462E-02  0.1244534E+00
         -2   -1    0    0    0  501 -0.00000000000E+00  0.00000000000E+00  0.22924174055E+02  0.22924174055E+02  0.00000000000E+00 0.  1.
          2   -1    0    0  501    0  0.00000000000E+00 -0.00000000000E+00 -0.70786500083E+03  0.70786500083E+03  0.00000000000E+00 0. -1.
         25    2    1    2    0    0 -0.59607095899E+02  0.27317669415E+02 -0.41524805541E+03  0.43861348421E+03  0.12510627507E+03 0.  0.
         23    2    1    2    0    0  0.59607095899E+02 -0.27317669415E+02 -0.26969277136E+03  0.29217569067E+03  0.91286265967E+02 0.  0.
          5    1    3    3  502    0  0.21938985613E+02  0.40327987896E+02 -0.24559920375E+03  0.24988818895E+03  0.41800000000E+01 0.  1.
         -5    1    3    3    0  502 -0.81546081512E+02 -0.13010318482E+02 -0.16964885167E+03  0.18872529525E+03  0.41800000000E+01 0.  1.
        -11    1    4    4    0    0  0.69324678734E+02  0.10788087802E+02 -0.20264089507E+03  0.21444259435E+03  0.00000000000E+00 0. -1.
         11    1    4    4    0    0 -0.97175828357E+01 -0.38105757217E+02 -0.67051876293E+02  0.77733096321E+02  0.00000000000E+00 0.  1.
</event>
<event>
 8    1  0.3528896E-009  0.2347586E+03  0.7561462E-02  0.1123335E+00
          2   -1    0    0  501    0  0.00000000000E+00  0.00000000000E+00  0.19169471605E+03  0.19169471605E+03  0.00000000000E+00 0. -1.
         -2   -1    0    0    0  501 -0.00000000000E+00 -0.00000000000E+00 -0.29458901948E+03  0.29458901948E+03  0.00000000000E+00 0.  1.
         25    2    1    2    0    0 -0.21445261263E+03  0.11256960030E+02 -0.61895092872E+02  0.25611497509E+03  0.12508891131E+03 0.  0.
         23    2    1    2    0    0  0.21445261263E+03 -0.11256960030E+02 -0.40999210560E+02  0.23016876045E+03  0.71972778242E+02 0.  0.
          5    1    3    3  502    0 -0.13079722611E+03  0.66387535337E+02 -0.50536618566E+02  0.15519871592E+03  0.41800000000E+01 0.  1.
         -5    1    3    3    0  502 -0.83655386512E+02 -0.55130575308E+02 -0.11358474306E+02  0.10091625917E+03  0.41800000000E+01 0.  1.
        -11    1    4    4    0    0  0.12918863060E+03 -0.35278267751E+02 -0.34702401568E+01  0.13396380488E+03  0.00000000000E+00 0.  1.
         11    1    4    4    0    0  0.85263982026E+02  0.24021307722E+02 -0.37528970403E+02  0.96204955564E+02  0.00000000000E+00 0. -1.
</event>
<event>
 8    1  0.3528896E-009  0.7716943E+02  0.7561462E-02  0.1337282E+00
          1   -1    0    0  501    0  0.00000000000E+00  0.00000000000E+00  0.16160303550E+04  0.16160303550E+04  0.00000000000E+00 0. -1.
         -1   -1    0    0    0  501 -0.00000000000E+00 -0.00000000000E+00 -0.12278230601E+02  0.12278230601E+02  0.00000000000E+00 0.  1.
         25    2    1    2    0    0  0.61790929524E+02  0.47217913749E+01  0.12423674012E+04  0.12501853341E+04  0.12508475433E+03 0.  0.
         23    2    1    2    0    0 -0.61790929524E+02 -0.47217913749E+01  0.36138472325E+03  0.37812325154E+03  0.92400545861E+02 0.  0.
          5    1    3    3  502    0  0.17306004508E+01  0.38546394572E+01 -0.40298259381E+00  0.59571820717E+01  0.41800000000E+01 0.  1.
         -5    1    3    3    0  502  0.60060329073E+02  0.86715191771E+00  0.12427703838E+04  0.12442281520E+04  0.41800000000E+01 0.  1.
        -11    1    4    4    0    0 -0.19958346962E+02  0.28479469247E+02  0.43060704778E+02  0.55350158790E+02  0.00000000000E+00 0.  1.
         11    1    4    4    0    0 -0.41832582561E+02 -0.33201260622E+02  0.31832401847E+03  0.32277309275E+03  0.00000000000E+00 0. -1.
</event>
<event>
 8    1  0.3528896E-009  0.8526097E+02  0.7561462E-02  0.1314751E+00
          2   -1    0    0  501    0  0.00000000000E+00  0.00000000000E+00  0.23142080940E+03  0.23142080940E+03  0.00000000000E+00 0. -1.
         -2   -1    0    0    0  501 -0.00000000000E+00 -0.00000000000E+00 -0.71951598953E+02  0.71951598953E+02  0.00000000000E+00 0.  1.
         25    2    1    2    0    0 -0.65776578958E+02 -0.40281928620E+01  0.65144528068E+02  0.15567546170E+03  0.12509298606E+03 0.  0.
         23    2    1    2    0    0  0.65776578958E+02  0.40281928620E+01  0.94324682380E+02  0.14769694665E+03  0.92598367517E+02 0.  0.
          5    1    3    3  502    0  0.47676771197E+01 -0.55091406191E+01 -0.33378842099E+02  0.34419483950E+02  0.41800000000E+01 0.  1.
         -5    1    3    3    0  502 -0.70544256078E+02  0.14809477571E+01  0.98523370167E+02  0.12125597775E+03  0.41800000000E+01 0.  1.
        -11    1    4    4    0    0  0.56089996534E+02 -0.24576879280E+02  0.15332565602E+02  0.63128426832E+02  0.00000000000E+00 0. -1.
         11    1    4    4    0    0  0.96865824238E+01  0.28605072142E+02  0.78992116778E+02  0.84568519819E+02  0.00000000000E+00 0.  1.
</event>
<event>
 8    1  0.3528896E-009  0.2605600E+03  0.7561462E-02  0.1106807E+00
         -2   -1    0    0    0  501 -0.00000000000E+00  0.00000000000E+00  0.34573783641E+02  0.34573783641E+02  0.00000000000E+00 0.  1.
          2   -1    0    0  501    0  0.00000000000E+00 -0.00000000000E+00 -0.19863907462E+04  0.19863907462E+04  0.00000000000E+00 0. -1.
         25    2    1    2    0    0 -0.12853811566E+03  0.19198795293E+03 -0.97845353229E+03  0.10131140739E+04  0.12508953080E+03 0.  0.
         23    2    1    2    0    0  0.12853811566E+03 -0.19198795293E+03 -0.97336343028E+03  0.10078504559E+04  0.12224873343E+03 0.  0.
          5    1    3    3  502    0 -0.14033895359E+02  0.12731771526E+03 -0.40655024567E+03  0.42627142233E+03  0.41800000000E+01 0. -1.
         -5    1    3    3    0  502 -0.11450422030E+03  0.64670237676E+02 -0.57190328661E+03  0.58684265161E+03  0.41800000000E+01 0. -1.
        -11    1    4    4    0    0  0.11985987024E+03 -0.69409209731E+02 -0.51453203137E+03  0.53284823185E+03  0.00000000000E+00 0. -1.
         11    1    4    4    0    0  0.86782454206E+01 -0.12257874320E+03 -0.45883139891E+03  0.47500222406E+03  0.00000000000E+00 0.  1.
</event>
<event>
 8    1  0.3528896E-009  0.1332213E+03  0.7561462E-02  0.1222753E+00
          1   -1    0    0  501    0  0.00000000000E+00  0.00000000000E+00  0.37983956313E+03  0.37983956313E+03  0.00000000000E+00 0. -1.
         -1   -1    0    0    0  501 -0.00000000000E+00 -0.00000000000E+00 -0.59465416506E+02  0.59465416506E+02  0.00000000000E+00 0.  1.
         25    2    1    2    0    0 -0.43681501891E+02  0.91546165634E+02  0.21285032765E+03  0.26691196374E+03  0.12509180772E+03 0.  0.
         23    2    1    2    0    0  0.43681501891E+02 -0.91546165634E+02  0.10752381897E+03  0.17239301589E+03  0.88708546558E+02 0.  0.
          5    1    3    3  502    0  0.73853329305E+01  0.83865192093E+02  0.54687286870E+02  0.10047927812E+03  0.41800000000E+01 0.  1.
         -5    1    3    3    0  502 -0.51066834821E+02  0.76809735413E+01  0.15816304078E+03  0.16643268562E+03  0.41800000000E+01 0.  1.
        -11    1    4    4    0    0  0.54842849929E+02 -0.20700507122E+02  0.70480435386E+02  0.91671920213E+02  0.00000000000E+00 0.  1.
         11    1    4    4    0    0 -0.11161348038E+02 -0.70845658513E+02  0.37043383587E+02  0.80721095679E+02  0.00000000000E+00 0. -1.
</event>
<event>
 8    1  0.3528896E-009  0.9970897E+02  0.7561462E-02  0.1280909E+00
         -1   -1    0    0    0  501 -0.00000000000E+00  0.00000000000E+00  0.95003775767E+02  0.95003775767E+02  0.00000000000E+00 0.  1.
          1   -1    0    0  501    0  0.00000000000E+00 -0.00000000000E+00 -0.20872851568E+03  0.20872851568E+03  0.00000000000E+00 0. -1.
         25    2    1    2    0    0 -0.54370975824E+02  0.38898680647E+02 -0.33287993495E+01  0.14187100591E+03  0.12508793325E+03 0.  0.
         23    2    1    2    0    0  0.54370975824E+02 -0.38898680647E+02 -0.11039594057E+03  0.16186128554E+03  0.97685729226E+02 0.  0.
          5    1    3    3  502    0 -0.50426265976E+02  0.67119745082E+02 -0.41750581499E+02  0.93853353353E+02  0.41800000000E+01 0.  1.
         -5    1    3    3    0  502 -0.39447098475E+01 -0.28221064435E+02  0.38421782149E+02  0.48017652558E+02  0.41800000000E+01 0.  1.
        -11    1    4    4    0    0  0.33896145900E+02 -0.52132116026E+02 -0.12039977297E+03  0.13550945192E+03  0.00000000000E+00 0. -1.
         11    1    4    4    0    0  0.20474829924E+02  0.13233435379E+02  0.10003832403E+02  0.26351833620E+02  0.00000000000E+00 0.  1.
</event>
<event>
 8    1  0.3528896E-009  0.1152643E+03  0.7561462E-02  0.1251120E+00
          1   -1    0    0  501    0  0.00000000000E+00  0.00000000000E+00  0.10742707572E+03  0.10742707572E+03  0.00000000000E+00 0. -1.
         -1   -1    0    0    0  501 -0.00000000000E+00 -0.00000000000E+00 -0.13979039004E+03  0.13979039004E+03  0.00000000000E+00 0.  1.
         25    2    1    2    0    0 -0.14806017204E+02 -0.53967634491E+02 -0.35356058809E+02  0.14152862117E+03  0.12509426844E+03 0.  0.
         23    2    1    2    0    0  0.14806017204E+02  0.53967634491E+02  0.29927444873E+01  0.10568884460E+03  0.89607207492E+02 0.  0.
          5    1    3    3  502    0  0.39900172159E+02 -0.57907838928E+02  0.87953233430E+01  0.70994166383E+02  0.41800000000E+01 0. -1.
         -5    1    3    3    0  502 -0.54706189363E+02  0.39402044372E+01 -0.44151382152E+02  0.70534454783E+02  0.41800000000E+01 0. -1.
        -11    1    4    4    0    0 -0.31525517052E+02  0.49287218561E+02 -0.37916113106E+01  0.58629893870E+02  0.00000000000E+00 0.  1.
         11    1    4    4    0    0  0.46331534256E+02  0.46804159303E+01  0.67843557979E+01  0.47058950726E+02  0.00000000000E+00 0. -1.
</event>
<event>
 8    1  0.3528896E-009  0.1258990E+03  0.7561462E-02  0.1233671E+00
          2   -1    0    0  501    0  0.00000000000E+00  0.00000000000E+00  0.12680648214E+03  0.12680648214E+03  0.00000000000E+00 0. -1.
         -2   -1    0    0    0  501 -0.00000000000E+00 -0.00000000000E+00 -0.13441639851E+03  0.13441639851E+03  0.00000000000E+00 0.  1.
         25    2    1    2    0    0  0.68816280736E+02  0.21376859021E+02 -0.77642273044E+01  0.14457199307E+03  0.12509247523E+03 0.  0.
         23    2    1    2    0    0 -0.68816280736E+02 -0.21376859021E+02  0.15431093787E+00  0.11665088757E+03  0.91731974600E+02 0.  0.
          5    1    3    3  502    0  0.89723755070E+02 -0.18112897677E+02 -0.27324390178E+02  0.95616546606E+02  0.41800000000E+01 0. -1.
         -5    1    3    3    0  502 -0.20907474334E+02  0.39489756698E+02  0.19560162873E+02  0.48955446467E+02  0.41800000000E+01 0. -1.
        -11    1    4    4    0    0  0.10129763506E+02 -0.33878953593E+02 -0.81586038994E+01  0.36289921780E+02  0.00000000000E+00 0.  1.
         11    1    4    4    0    0 -0.78946044242E+02  0.12502094572E+02  0.83129148373E+01  0.80360965794E+02  0.00000000000E+00 0. -1.
</event>
<event>
 8    1  0.3528896E-009  0.1063326E+03  0.7561462E-02  0.1267516E+00
          2   -1    0    0  501    0  0.00000000000E+00  0.00000000000E+00  0.13536492149E+04  0.13536492149E+04  0.00000000000E+00 0. -1.
         -2   -1    0    0    0  501 -0.00000000000E+00 -0.00000000000E+00 -0.11288368392E+02  0.11288368392E+02  0.00000000000E+00 0.  1.
         25    2    1    2    0    0 -0.28230101659E+02 -0.18532450502E+02  0.10599513551E+04  0.10678413281E+04  0.12509131234E+03 0.  0.
         23    2    1    2    0    0  0.28230101659E+02  0.18532450502E+02  0.28240949140E+03  0.29709625520E+03  0.85852627566E+02 0.  0.
          5    1    3    3  502    0 -0.72562766924E+02 -0.22242451302E+02  0.83778145597E+03  0.84122251643E+03  0.41800000000E+01 0. -1.
         -5    1    3    3    0  502  0.44332665265E+02  0.37100008000E+01  0.22216989915E+03  0.22661881168E+03  0.41800000000E+01 0. -1.
        -11    1    4    4    0    0  0.25468586090E+02  0.52257534000E+02  0.16704047883E+03  0.17686723921E+03  0.00000000000E+00 0.  1.
         11    1    4    4    0    0  0.27615155691E+01 -0.33725083498E+02  0.11536901257E+03  0.12022901599E+03  0.00000000000E+00 0. -1.
</event>
<event>
 8    1  0.3528896E-009  0.1642337E+03  0.7561462E-02  0.1183998E+00
         -1   -1    0    0    0  501 -0.00000000000E+00  0.00000000000E+00  0.21204882299E+03  0.21204882299E+03  0.00000000000E+00 0.  1.
          1   -1    0    0  501    0  0.00000000000E+00 -0.00000000000E+00 -0.15878545721E+03  0.15878545721E+03  0.00000000000E+00 0. -1.
         25    2    1    2    0    0 -0.60612975752E+02  0.13327389770E+03  0.11857992634E+02  0.19293922508E+03  0.12509623475E+03 0.  0.
         23    2    1    2    0    0  0.60612975752E+02 -0.13327389770E+03  0.41405373147E+02  0.17789505512E+03  0.92175816099E+02 0.  0.
          5    1    3    3  502    0 -0.47700737980E+02  0.14453115241E+03 -0.22895378951E+02  0.15396845521E+03  0.41800000000E+01 0. -1.
         -5    1    3    3    0  502 -0.12912237773E+02 -0.11257254714E+02  0.34753371584E+02  0.38970769873E+02  0.41800000000E+01 0. -1.
        -11    1    4    4    0    0  0.58563532510E+02 -0.55203872204E+02 -0.14597372735E+02  0.81793875915E+02  0.00000000000E+00 0. -1.
         11    1    4    4    0    0  0.20494432426E+01 -0.78070025495E+02  0.56002745882E+02  0.96101179206E+02  0.00000000000E+00 0.  1.
</event>
<event>
 8    1  0.3528896E-009  0.1207415E+03  0.7561462E-02  0.1241879E+00
         -1   -1    0    0    0  501 -0.00000000000E+00  0.00000000000E+00  0.82142492387E+02  0.82142492387E+02  0.00000000000E+00 0.  1.
          1   -1    0    0  501    0  0.00000000000E+00 -0.00000000000E+00 -0.18618358767E+03  0.18618358767E+03  0.00000000000E+00 0. -1.
         25    2    1    2    0    0  0.36237960249E+02 -0.46794315883E+02 -0.55591268611E+02  0.14913315989E+03  0.12508961776E+03 0.  0.
         23    2    1    2    0    0 -0.36237960249E+02  0.46794315883E+02 -0.48449826668E+02  0.11919292016E+03  0.91414816911E+02 0.  0.
          5    1    3    3  502    0  0.43033203336E+01  0.41879694053E+02 -0.65663218242E+01  0.42813739875E+02  0.41800000000E+01 0.  1.
         -5    1    3    3    0  502  0.31934639915E+02 -0.88674009936E+02 -0.49024946787E+02  0.10631942001E+03  0.41800000000E+01 0.  1.
        -11    1    4    4    0    0  0.22140835653E+02  0.40447867572E+02 -0.37551741951E+02  0.59467469411E+02  0.00000000000E+00 0.  1.
         11    1    4    4    0    0 -0.58378795902E+02  0.63464483108E+01 -0.10898084717E+02  0.59725450752E+02  0.00000000000E+00 0. -1.
</event>
<event>
 8    1  0.3528896E-009  0.1209130E+03  0.7561462E-02  0.1241598E+00
         -2   -1    0    0    0  501 -0.00000000000E+00  0.00000000000E+00  0.90042569980E+02  0.90042569980E+02  0.00000000000E+00 0.  1.
          2   -1    0    0  501    0  0.00000000000E+00 -0.00000000000E+00 -0.16867496882E+03  0.16867496882E+03  0.00000000000E+00 0. -1.
         25    2    1    2    0    0 -0.14600802790E+02 -0.55319641548E+02 -0.38479341294E+02  0.14283363063E+03  0.12508932868E+03 0.  0.
         23    2    1    2    0    0  0.14600802790E+02  0.55319641548E+02 -0.40153057548E+02  0.11588390817E+03  0.92430330301E+02 0.  0.
          5    1    3    3  502    0  0.92041590692E+01 -0.90584974443E+02 -0.10525014649E+02  0.91752942581E+02  0.41800000000E+01 0. -1.
         -5    1    3    3    0  502 -0.23804961860E+02  0.35265332895E+02 -0.27954326645E+02  0.51080688049E+02  0.41800000000E+01 0. -1.
        -11    1    4    4    0    0 -0.39027527333E+02  0.22363464376E+02 -0.23611906831E+02  0.50801521363E+02  0.00000000000E+00 0.  1.
         11    1    4    4    0    0  0.53628330123E+02  0.32956177172E+02 -0.16541150717E+02  0.65082386808E+02  0.00000000000E+00 0. -1.
</event>
<event>
 8    1  0.3528896E-009  0.1259684E+03  0.7561462E-02  0.1233564E+00
          1   -1    0    0  501    0  0.00000000000E+00  0.00000000000E+00  0.20259389536E+03  0.20259389536E+03  0.00000000000E+00 0. -1.
         -1   -1    0    0    0  501 -0.00000000000E+00 -0.00000000000E+00 -0.11050731877E+03  0.11050731877E+03  0.00000000000E+00 0.  1.
         25    2    1    2    0    0  0.94997201443E+02 -0.38601679348E+01  0.10020471846E+02  0.15744052431E+03  0.12509092557E+03 0.  0.
         23    2    1    2    0    0 -0.94997201443E+02  0.38601679348E+01  0.82066104747E+02  0.15566068983E+03  0.91956705199E+02 0.  0.
          5    1    3    3  502    0 -0.24050012875E+02  0.10687779577E+02 -0.20492856184E+02  0.33616384490E+02  0.41800000000E+01 0. -1.
         -5    1    3    3    0  502  0.11904721432E+03 -0.14547947512E+02  0.30513328030E+02  0.12382413982E+03  0.41800000000E+01 0. -1.
        -11    1    4    4    0    0 -0.19196041709E+02  0.20065963159E+02 -0.14904808954E+02  0.31516411991E+02  0.00000000000E+00 0.  1.
         11    1    4    4    0    0 -0.75801159734E+02 -0.16205795224E+02  0.96970913701E+02  0.12414427784E+03  0.00000000000E+00 0. -1.
</event>
<event>
 8    1  0.3528896E-009  0.1685588E+03  0.7561462E-02  0.1179359E+00
         -3   -1    0    0    0  501 -0.00000000000E+00  0.00000000000E+00  0.14201404144E+04  0.14201404144E+04  0.00000000000E+00 0.  1.
          3   -1    0    0  501    0  0.00000000000E+00 -0.00000000000E+00 -0.20701131272E+02  0.20701131272E+02  0.00000000000E+00 0. -1.
         25    2    1    2    0    0 -0.97038282033E+02 -0.85619311640E+02  0.85393680360E+03  0.87269896022E+03  0.12509322889E+03 0.  0.
         23    2    1    2    0    0  0.97038282033E+02  0.85619311640E+02  0.54550247950E+03  0.56814258543E+03  0.92010583789E+02 0.  0.
          5    1    3    3  502    0 -0.76295196082E+02 -0.11744867066E+03  0.71505783338E+03  0.72865652036E+03  0.41800000000E+01 0.  1.
         -5    1    3    3    0  502 -0.20743085950E+02  0.31829359021E+02  0.13887897022E+03  0.14404243986E+03  0.41800000000E+01 0.  1.
        -11    1    4    4    0    0  0.15482431009E+02 -0.20028688987E+02  0.88831107989E+02  0.92367850462E+02  0.00000000000E+00 0.  1.
         11    1    4    4    0    0  0.81555851024E+02  0.10564800063E+03  0.45667137151E+03  0.47577473497E+03  0.00000000000E+00 0. -1.
</event>
<event>
 8    1  0.3528896E-009  0.1070230E+03  0.7561462E-02  0.1266184E+00
          2   -1    0    0  501    0  0.00000000000E+00  0.00000000000E+00  0.11726479736E+03  0.11726479736E+03  0.00000000000E+00 0. -1.
         -2   -1    0    0    0  501 -0.00000000000E+00 -0.00000000000E+00 -0.15260095512E+03  0.15260095512E+03  0.00000000000E+00 0.  1.
         25    2    1    2    0    0  0.70679283137E+01  0.77696277387E+02 -0.25695009731E+02  0.14966154020E+03  0.12510665834E+03 0.  0.
         23    2    1    2    0    0 -0.70679283137E+01 -0.77696277387E+02 -0.96411480289E+01  0.12020421228E+03  0.90936427163E+02 0.  0.
          5    1    3    3  502    0 -0.23680845986E+02 -0.20522615648E+02  0.19536808724E+02  0.37163416350E+02  0.41800000000E+01 0. -1.
         -5    1    3    3    0  502  0.30748774300E+02  0.98218893035E+02 -0.45231818455E+02  0.11249812385E+03  0.41800000000E+01 0. -1.
        -11    1    4    4    0    0 -0.90710533327E+01 -0.23432815475E+02 -0.47686763600E+02  0.53901839229E+02  0.00000000000E+00 0.  1.
         11    1    4    4    0    0  0.20031250190E+01 -0.54263461912E+02  0.38045615571E+02  0.66302373055E+02  0.00000000000E+00 0. -1.
</event>
<event>
 8    1  0.3528896E-009  0.1590605E+03  0.7561462E-02  0.1189762E+00
          1   -1    0    0  501    0  0.00000000000E+00  0.00000000000E+00  0.80784871410E+03  0.80784871410E+03  0.00000000000E+00 0. -1.
         -1   -1    0    0    0  501 -0.00000000000E+00 -0.00000000000E+00 -0.38633658775E+02  0.38633658775E+02  0.00000000000E+00 0.  1.
         25    2    1    2    0    0  0.82551863625E+00 -0.13002843669E+03  0.52338468597E+03  0.55360959754E+03  0.12507590156E+03 0.  0.
         23    2    1    2    0    0 -0.82551863625E+00  0.13002843669E+03  0.24583036936E+03  0.29287277534E+03  0.91835811133E+02 0.  0.
          5    1    3    3  502    0 -0.33516859113E+02  0.94177552593E+01  0.75507609834E+02  0.83252300279E+02  0.41800000000E+01 0. -1.
         -5    1    3    3    0  502  0.34342377749E+02 -0.13944619195E+03  0.44787707613E+03  0.47035729726E+03  0.41800000000E+01 0. -1.
        -11    1    4    4    0    0  0.21636460684E+02  0.97371903051E+02  0.22905888926E+03  0.24983474275E+03  0.00000000000E+00 0. -1.
         11    1    4    4    0    0 -0.22461979320E+02  0.32656533638E+02  0.16771480090E+02  0.43038032583E+02  0.00000000000E+00 0.  1.
</event>
<event>
 8    1  0.3528896E-009  0.1285119E+03  0.7561462E-02  0.1229681E+00
         -1   -1    0    0    0  501 -0.00000000000E+00  0.00000000000E+00  0.33104178694E+02  0.33104178694E+02  0.00000000000E+00 0.  1.
          1   -1    0    0  501    0  0.00000000000E+00 -0.00000000000E+00 -0.62404269273E+03  0.62404269273E+03  0.00000000000E+00 0. -1.
         25    2    1    2    0    0  0.57513554597E+02 -0.78304397863E+02 -0.39259628078E+03  0.42334281073E+03  0.12509159857E+03 0.  0.
         23    2    1    2    0    0 -0.57513554597E+02  0.78304397863E+02 -0.19834223326E+03  0.23380406069E+03  0.76715771614E+02 0.  0.
          5    1    3    3  502    0 -0.72276452346E+01 -0.84664068859E+02 -0.28608731451E+03  0.29846887164E+03  0.41800000000E+01 0.  1.
         -5    1    3    3    0  502  0.64741199832E+02  0.63596709954E+01 -0.10650896626E+03  0.12487393910E+03  0.41800000000E+01 0.  1.
        -11    1    4    4    0    0 -0.26365056322E+02  0.69590753018E+02 -0.72587442219E+02  0.10395636521E+03  0.00000000000E+00 0.  1.
         11    1    4    4    0    0 -0.31148498274E+02  0.87136448449E+01 -0.12575479104E+03  0.12984769548E+03  0.00000000000E+00 0. -1.
</event>
<event>
 8    1  0.3528896E-009  0.1158135E+03  0.7561462E-02  0.1250168E+00
         -2   -1    0    0    0  501 -0.00000000000E+00  0.00000000000E+00  0.52026247867E+02  0.52026247867E+02  0.00000000000E+00 0.  1.
          2   -1    0    0  501    0  0.00000000000E+00 -0.00000000000E+00 -0.30615242228E+03  0.30615242228E+03  0.00000000000E+00 0. -1.
         25    2    1    2    0    0  0.94251123049E+00  0.44677800029E+02 -0.21103443927E+03  0.24936078750E+03  0.12509305994E+03 0.  0.
         23    2    1    2    0    0 -0.94251123049E+00 -0.44677800029E+02 -0.43091735141E+02  0.10881788264E+03  0.89372477877E+02 0.  0.
          5    1    3    3  502    0  0.67331796985E+01 -0.43021295884E+02 -0.55559139278E+02  0.70713916351E+02  0.41800000000E+01 0. -1.
         -5    1    3    3    0  502 -0.57906684680E+01  0.87699095914E+02 -0.15547529999E+03  0.17864687115E+03  0.41800000000E+01 0. -1.
        -11    1    4    4    0    0 -0.20412610673E+02 -0.67135261630E+02 -0.29049936551E+02  0.75945485990E+02  0.00000000000E+00 0. -1.
         11    1    4    4    0    0  0.19470099443E+02  0.22457461601E+02 -0.14041798591E+02  0.32872396650E+02  0.00000000000E+00 0.  1.
</event>
<event>
 8    1  0.3528896E-009  0.3573296E+03  0.7561462E-02  0.1059646E+00
         -2   -1    0    0    0  501 -0.00000000000E+00  0.00000000000E+00  0.21523502239E+03  0.21523502239E+03  0.00000000000E+00 0.  1.
          2   -1    0    0  501    0  0.00000000000E+00 -0.00000000000E+00 -0.61346926785E+03  0.61346926785E+03  0.00000000000E+00 0. -1.
         25    2    1    2    0    0 -0.91565490488E+02 -0.33297461911E+03 -0.23408644127E+03  0.43554537211E+03  0.12508786178E+03 0.  0.
         23    2    1    2    0    0  0.91565490488E+02  0.33297461911E+03 -0.16414780419E+03  0.39315891812E+03  0.91504629720E+02 0.  0.
          5    1    3    3  502    0 -0.63512849765E+01  0.99998943632E+01 -0.19807957415E+01  0.12717415614E+02  0.41800000000E+01 0. -1.
         -5    1    3    3    0  502 -0.85214205511E+02 -0.34297451347E+03 -0.23210564553E+03  0.42282795650E+03  0.41800000000E+01 0. -1.
        -11    1    4    4    0    0  0.49904804880E+02  0.25906477378E+03 -0.85138927974E+02  0.27722496933E+03  0.00000000000E+00 0.  1.
         11    1    4    4    0    0  0.41660685608E+02  0.73909845329E+02 -0.79008876214E+02  0.11593394879E+03  0.00000000000E+00 0. -1.
</event>
<event>
 8    1  0.3528896E-009  0.1518260E+03  0.7561462E-02  0.1198247E+00
          2   -1    0    0  501    0  0.00000000000E+00  0.00000000000E+00  0.48002356925E+03  0.48002356925E+03  0.00000000000E+00 0. -1.
         -2   -1    0    0    0  501 -0.00000000000E+00 -0.00000000000E+00 -0.66192151198E+02  0.66192151198E+02  0.00000000000E+00 0.  1.
         25    2    1    2    0    0  0.38656046420E+02  0.10233629441E+03  0.87406233913E+02  0.18776331685E+03  0.12509279095E+03 0.  0.
         23    2    1    2    0    0 -0.38656046420E+02 -0.10233629441E+03  0.32642518414E+03  0.35845240360E+03  0.99838458155E+02 0.  0.
          5    1    3    3  502    0 -0.21881338181E+02 -0.18113237953E+02  0.35054353547E+01  0.28924778768E+02  0.41800000000E+01 0. -1.
         -5    1    3    3    0  502  0.60537384601E+02  0.12044953236E+03  0.83900798558E+02  0.15883853808E+03  0.41800000000E+01 0. -1.
        -11    1    4    4    0    0 -0.39873965692E+01  0.16139542721E+02  0.11547324139E+02  0.20241661627E+02  0.00000000000E+00 0.  1.
         11    1    4    4    0    0 -0.34668649851E+02 -0.11847583713E+03  0.31487786000E+03  0.33821074197E+03  0.00000000000E+00 0. -1.
</event>
<event>
 8    1  0.3528896E-009  0.1518417E+03  0.7561462E-02  0.1198228E+00
         -1   -1    0    0    0  501 -0.00000000000E+00  0.00000000000E+00  0.27961940425E+02  0.27961940425E+02  0.00000000000E+00 0.  1.
          1   -1    0    0  501    0  0.00000000000E+00 -0.00000000000E+00 -0.11087019551E+04  0.11087019551E+04  0.00000000000E+00 0. -1.
         25    2    1    2    0    0  0.50062772134E+02  0.11608335310E+03 -0.73503521929E+03  0.75624443699E+03  0.12508896376E+03 0.  0.
         23    2    1    2    0    0 -0.50062772134E+02 -0.11608335310E+03 -0.34570479537E+03  0.38041945853E+03  0.96049637476E+02 0.  0.
          5    1    3    3  502    0  0.76957984333E+02  0.92223171237E+02 -0.67886503391E+03  0.68942211405E+03  0.41800000000E+01 0.  1.
         -5    1    3    3    0  502 -0.26895212200E+02  0.23860181868E+02 -0.56170185379E+02  0.66822322944E+02  0.41800000000E+01 0.  1.
        -11    1    4    4    0    0 -0.66577661429E+02 -0.62826109833E+02 -0.13984326074E+03  0.16714018862E+03  0.00000000000E+00 0.  1.
         11    1    4    4    0    0  0.16514889295E+02 -0.53257243272E+02 -0.20586153463E+03  0.21327926990E+03  0.00000000000E+00 0. -1.
</event>
<event>
 8    1  0.3528896E-009  0.1096459E+03  0.7561462E-02  0.1261227E+00
         -2   -1    0    0    0  501 -0.00000000000E+00  0.00000000000E+00  0.60484845824E+02  0.60484845824E+02  0.00000000000E+00 0.  1.
          2   -1    0    0  501    0  0.00000000000E+00 -0.00000000000E+00 -0.21476843093E+03  0.21476843093E+03  0.00000000000E+00 0. -1.
         25    2    1    2    0    0 -0.11290855817E+02 -0.22478413715E+02 -0.11529056387E+03  0.17197547359E+03  0.12510350471E+03 0.  0.
         23    2    1    2    0    0  0.11290855817E+02  0.22478413715E+02 -0.38993021232E+02  0.10327780316E+03  0.92266388316E+02 0.  0.
          5    1    3    3  502    0  0.54946650768E+02  0.34003436650E+01 -0.61952917303E+02  0.82983932963E+02  0.41800000000E+01 0.  1.
         -5    1    3    3    0  502 -0.66237506584E+02 -0.25878757380E+02 -0.53337646571E+02  0.88991540631E+02  0.41800000000E+01 0.  1.
        -11    1    4    4    0    0  0.37053519945E+02 -0.20790291667E+02 -0.56016963534E+01  0.42855321372E+02  0.00000000000E+00 0.  1.
         11    1    4    4    0    0 -0.25762664128E+02  0.43268705382E+02 -0.33391324879E+02  0.60422481789E+02  0.00000000000E+00 0. -1.
</event>
<event>
 8    1  0.3528896E-009  0.1716990E+03  0.7561462E-02  0.1176088E+00
         -1   -1    0    0    0  501 -0.00000000000E+00  0.00000000000E+00  0.15023803135E+03  0.15023803135E+03  0.00000000000E+00 0.  1.
          1   -1    0    0  501    0  0.00000000000E+00 -0.00000000000E+00 -0.25867597736E+03  0.25867597736E+03  0.00000000000E+00 0. -1.
         25    2    1    2    0    0  0.16223873408E+03  0.18641295938E+01 -0.74173083354E+02  0.21788630957E+03  0.12509162958E+03 0.  0.
         23    2    1    2    0    0 -0.16223873408E+03 -0.18641295938E+01 -0.34264862651E+02  0.19102769914E+03  0.94829421663E+02 0.  0.
          5    1    3    3  502    0  0.16061070401E+03 -0.81761206740E+01 -0.10027270337E+03  0.18956459224E+03  0.41800000000E+01 0. -1.
         -5    1    3    3    0  502  0.16280300710E+01  0.10040250268E+02  0.26099620017E+02  0.28321717328E+02  0.41800000000E+01 0. -1.
        -11    1    4    4    0    0 -0.74361991245E+02 -0.28603281290E+02  0.22823319116E+02  0.82877966541E+02  0.00000000000E+00 0.  1.
         11    1    4    4    0    0 -0.87876742833E+02  0.26739151696E+02 -0.57088181767E+02  0.10814973260E+03  0.00000000000E+00 0. -1.
</event>
<event>
 8    1  0.3528896E-009  0.7584630E+02  0.7561462E-02  0.1341270E+00
          2   -1    0    0  501    0  0.00000000000E+00  0.00000000000E+00  0.15128445089E+03  0.15128445089E+03  0.00000000000E+00 0. -1.
         -2   -1    0    0    0  501 -0.00000000000E+00 -0.00000000000E+00 -0.10452248394E+03  0.10452248394E+03  0.00000000000E+00 0.  1.
         25    2    1    2    0    0 -0.17508279405E+02  0.15546353832E+02 -0.34402064200E+02  0.13183006436E+03  0.12508970734E+03 0.  0.
         23    2    1    2    0    0  0.17508279405E+02 -0.15546353832E+02  0.81164031149E+02  0.12397687048E+03  0.90743790397E+02 0.  0.
          5    1    3    3  502    0 -0.30811449688E+02  0.50152084107E+02 -0.61871218484E+02  0.85499105544E+02  0.41800000000E+01 0. -1.
         -5    1    3    3    0  502  0.13303170283E+02 -0.34605730275E+02  0.27469154283E+02  0.46330958812E+02  0.41800000000E+01 0. -1.
        -11    1    4    4    0    0  0.33037430404E+02  0.50364845603E+00 -0.63606030835E+01  0.33647923280E+02  0.00000000000E+00 0.  1.
         11    1    4    4    0    0 -0.15529150998E+02 -0.16050002288E+02  0.87524634232E+02  0.90328947197E+02  0.00000000000E+00 0. -1.
</event>
<event>
 8    1  0.3528896E-009  0.9531778E+02  0.7561462E-02  0.1290462E+00
          2   -1    0    0  501    0  0.00000000000E+00  0.00000000000E+00  0.27551466722E+03  0.27551466722E+03  0.00000000000E+00 0. -1.
         -2   -1    0    0    0  501 -0.00000000000E+00 -0.00000000000E+00 -0.13348338324E+03  0.13348338324E+03  0.00000000000E+00 0.  1.
         25    2    1    2    0    0  0.22127631679E+02 -0.95124946449E+01 -0.91600990978E+02  0.15691665613E+03  0.12510785661E+03 0.  0.
         23    2    1    2    0    0 -0.22127631679E+02  0.95124946449E+01  0.23363227495E+03  0.25208139433E+03  0.91547090771E+02 0.  0.
          5    1    3    3  502    0 -0.24311677920E+02 -0.35781629539E+02 -0.93772972653E+02  0.10335485231E+03  0.41800000000E+01 0.  1.
         -5    1    3    3    0  502  0.46439309599E+02  0.26269134894E+02  0.21719816750E+01  0.53561803820E+02  0.41800000000E+01 0.  1.
        -11    1    4    4    0    0 -0.45461959770E+02 -0.25086797162E+02  0.11104266428E+03  0.12258307578E+03  0.00000000000E+00 0.  1.
         11    1    4    4    0    0  0.23334328092E+02  0.34599291807E+02  0.12258961068E+03  0.12949831855E+03  0.00000000000E+00 0. -1.
</event>
<event>
 8    1  0.3528896E-009  0.8526061E+02  0.7561462E-02  0.1314752E+00
         -2   -1    0    0    0  501 -0.00000000000E+00  0.00000000000E+00  0.11160806469E+02  0.11160806469E+02  0.00000000000E+00 0.  1.
          2   -1    0    0  501    0  0.00000000000E+00 -0.00000000000E+00 -0.16538765576E+04  0.16538765576E+04  0.00000000000E+00 0. -1.
         25    2    1    2    0    0  0.40592418534E+01 -0.41339001732E+02 -0.13320944078E+04  0.13385993397E+04  0.12508912977E+03 0.  0.
         23    2    1    2    0    0 -0.40592418534E+01  0.41339001732E+02 -0.31062134332E+03  0.32643802438E+03  0.91382571240E+02 0.  0.
          5    1    3    3  502    0 -0.27811771198E+02 -0.39266545355E+02 -0.12416732618E+04  0.12426122958E+04  0.41800000000E+01 0. -1.
         -5    1    3    3    0  502  0.31871013052E+02 -0.20724563771E+01 -0.90421145955E+02  0.95987043835E+02  0.41800000000E+01 0. -1.
        -11    1    4    4    0    0  0.28930647782E+02 -0.85799340492E+01 -0.45141341960E+02  0.54298604064E+02  0.00000000000E+00 0.  1.
         11    1    4    4    0    0 -0.32989889635E+02  0.49918935782E+02 -0.26548000136E+03  0.27213942031E+03  0.00000000000E+00 0. -1.
</event>
<event>
 8    1  0.3528896E-009  0.1021818E+03  0.7561462E-02  0.1275774E+00
         -2   -1    0    0    0  501 -0.00000000000E+00  0.00000000000E+00  0.31375378107E+02  0.31375378107E+02  0.00000000000E+00 0. -1.
          2   -1    0    0  501    0  0.00000000000E+00 -0.00000000000E+00 -0.39066582745E+03  0.39066582745E+03  0.00000000000E+00 0.  1.
         25    2    1    2    0    0 -0.16430000806E+02  0.23152989330E+01 -0.22037901943E+03  0.25394745451E+03  0.12508833643E+03 0.  0.
         23    2    1    2    0    0  0.16430000806E+02 -0.23152989330E+01 -0.13891142991E+03  0.16809375105E+03  0.93187006850E+02 0.  0.
          5    1    3    3  502    0  0.44319731888E+02 -0.33133885072E+02 -0.89536841863E+02  0.10533950553E+03  0.41800000000E+01 0.  1.
         -5    1    3    3    0  502 -0.60749732694E+02  0.35449184005E+02 -0.13084217757E+03  0.14860794898E+03  0.41800000000E+01 0.  1.
        -11    1    4    4    0    0  0.27067742996E+02 -0.34880415307E+02 -0.28648079376E+02  0.52630965551E+02  0.00000000000E+00 0. -1.
         11    1    4    4    0    0 -0.10637742190E+02  0.32565116374E+02 -0.11026335054E+03  0.11546278550E+03  0.00000000000E+00 0.  1.
</event>
<event>
 8    1  0.3528896E-009  0.1536623E+03  0.7561462E-02  0.1196044E+00
          1   -1    0    0  501    0  0.00000000000E+00  0.00000000000E+00  0.20689909816E+04  0.20689909816E+04  0.00000000000E+00 0. -1.
         -1   -1    0    0    0  501 -0.00000000000E+00 -0.00000000000E+00 -0.17689838877E+02  0.17689838877E+02  0.00000000000E+00 0.  1.
         25    2    1    2    0    0  0.11613819663E+03 -0.46805334730E+02  0.15927454919E+04  0.16025494196E+04  0.12509044817E+03 0.  0.
         23    2    1    2    0    0 -0.11613819663E+03  0.46805334730E+02  0.45855565083E+03  0.48413140089E+03  0.91821066950E+02 0.  0.
          5    1    3    3  502    0  0.11595341454E+03 -0.11191585915E+02  0.74665700283E+03  0.75570139487E+03  0.41800000000E+01 0.  1.
         -5    1    3    3    0  502  0.18478208807E+00 -0.35613748815E+02  0.84608848908E+03  0.84684802474E+03  0.41800000000E+01 0.  1.
        -11    1    4    4    0    0  0.71203689328E+01  0.29600810175E+02  0.10418306120E+03  0.10854039735E+03  0.00000000000E+00 0.  1.
         11    1    4    4    0    0 -0.12325856557E+03  0.17204524555E+02  0.35437258963E+03  0.37559100353E+03  0.00000000000E+00 0. -1.
</event>
<event>
 8    1  0.3528896E-009  0.1071761E+03  0.7561462E-02  0.1265890E+00
         -1   -1    0    0    0  501 -0.00000000000E+00  0.00000000000E+00  0.22527023712E+02  0.22527023712E+02  0.00000000000E+00 0.  1.
          1   -1    0    0  501    0  0.00000000000E+00 -0.00000000000E+00 -0.56295932728E+03  0.56295932728E+03  0.00000000000E+00 0. -1.
         25    2    1    2    0    0 -0.17904608024E+02  0.20697073511E+02 -0.31878884501E+03  0.34354350247E+03  0.12508743560E+03 0.  0.
         23    2    1    2    0    0  0.17904608024E+02 -0.20697073511E+02 -0.22164345856E+03  0.24194284852E+03  0.93067585061E+02 0.  0.
          5    1    3    3  502    0  0.31793805119E+01  0.66545739969E+02 -0.24584619198E+03  0.25474745627E+03  0.41800000000E+01 0.  1.
         -5    1    3    3    0  502 -0.21083988536E+02 -0.45848666458E+02 -0.72942653036E+02  0.88796046199E+02  0.41800000000E+01 0.  1.
        -11    1    4    4    0    0 -0.24313777757E+02  0.24913671322E+02 -0.76057251766E+02  0.83645420399E+02  0.00000000000E+00 0.  1.
         11    1    4    4    0    0  0.42218385781E+02 -0.45610744833E+02 -0.14558620679E+03  0.15829742812E+03  0.00000000000E+00 0. -1.
</event>
<event>
 8    1  0.3528896E-009  0.2812704E+02  0.7561462E-02  0.1619765E+00
          2   -1    0    0  501    0  0.00000000000E+00  0.00000000000E+00  0.29251554378E+03  0.29251554378E+03  0.00000000000E+00 0. -1.
         -2   -1    0    0    0  501 -0.00000000000E+00 -0.00000000000E+00 -0.64694970036E+02  0.64694970036E+02  0.00000000000E+00 0.  1.
         25    2    1    2    0    0  0.52667612311E+01  0.79590888185E+01  0.23246680356E+03  0.26416050663E+03  0.12509545410E+03 0.  0.
         23    2    1    2    0    0 -0.52667612311E+01 -0.79590888185E+01 -0.46462298208E+01  0.93050007181E+02  0.92442579563E+02 0.  0.
          5    1    3    3  502    0  0.21759382758E+01  0.70251265224E+01 -0.14687698877E+02  0.16949572512E+02  0.41800000000E+01 0.  1.
         -5    1    3    3    0  502  0.30908229553E+01  0.93396229607E+00  0.24715450244E+03  0.24721093412E+03  0.41800000000E+01 0.  1.
        -11    1    4    4    0    0  0.11902975759E+02 -0.18767963369E+02  0.39017371073E+02  0.44902923361E+02  0.00000000000E+00 0. -1.
         11    1    4    4    0    0 -0.17169736990E+02  0.10808874550E+02 -0.43663600894E+02  0.48147083820E+02  0.00000000000E+00 0.  1.
</event>
<event>
 8    1  0.3528896E-009  0.9837566E+02  0.7561462E-02  0.1283749E+00
          2   -1    0    0  501    0  0.00000000000E+00  0.00000000000E+00  0.22283308366E+03  0.22283308366E+03  0.00000000000E+00 0. -1.
         -2   -1    0    0    0  501 -0.00000000000E+00 -0.00000000000E+00 -0.97887664527E+02  0.97887664527E+02  0.00000000000E+00 0.  1.
         25    2    1    2    0    0 -0.26011048816E+02 -0.61902588440E+02  0.14606478600E+03  0.20369327057E+03  0.12509005417E+03 0.  0.
         23    2    1    2    0    0  0.26011048816E+02  0.61902588440E+02 -0.21119366863E+02  0.11702747762E+03  0.93492768407E+02 0.  0.
          5    1    3    3  502    0 -0.14679343017E+02  0.31304324827E+01 -0.19759620306E+02  0.25163420149E+02  0.41800000000E+01 0. -1.
         -5    1    3    3    0  502 -0.11331705799E+02 -0.65033020922E+02  0.16582440630E+03  0.17852985042E+03  0.41800000000E+01 0. -1.
        -11    1    4    4    0    0 -0.94535798287E+01 -0.21994831206E+02 -0.61806237546E+01  0.24725348964E+02  0.00000000000E+00 0.  1.
         11    1    4    4    0    0  0.35464628645E+02  0.83897419646E+02 -0.14938743108E+02  0.92302128653E+02  0.00000000000E+00 0. -1.
</event>
<event>
 8    1  0.3528896E-009  0.2307415E+03  0.7561462E-02  0.1126119E+00
          3   -1    0    0  501    0  0.00000000000E+00  0.00000000000E+00  0.45182588717E+03  0.45182588717E+03  0.00000000000E+00 0. -1.
         -3   -1    0    0    0  501 -0.00000000000E+00 -0.00000000000E+00 -0.16636416725E+03  0.16636416725E+03  0.00000000000E+00 0.  1.
         25    2    1    2    0    0  0.18979661073E+03  0.11729457652E+03  0.27682957724E+03  0.37691221282E+03  0.12508968867E+03 0.  0.
         23    2    1    2    0    0 -0.18979661073E+03 -0.11729457652E+03  0.86321426824E+01  0.24127784160E+03  0.91431459756E+02 0.  0.
          5    1    3    3  502    0  0.19992844902E+02 -0.40397371565E+01  0.10354730505E+03  0.10561983766E+03  0.41800000000E+01 0. -1.
         -5    1    3    3    0  502  0.16980376583E+03  0.12133431368E+03  0.17328227219E+03  0.27129237516E+03  0.41800000000E+01 0. -1.
        -11    1    4    4    0    0 -0.11420480364E+03 -0.10538197229E+03 -0.25519874933E+02  0.15747812952E+03  0.00000000000E+00 0.  1.
         11    1    4    4    0    0 -0.75591807083E+02 -0.11912604233E+02  0.34152017615E+02  0.83799712081E+02  0.00000000000E+00 0. -1.
</event>
<event>
 8    1  0.3528896E-009  0.1169316E+03  0.7561462E-02  0.1248246E+00
          2   -1    0    0  501    0  0.00000000000E+00  0.00000000000E+00  0.21389100272E+04  0.21389100272E+04  0.00000000000E+00 0. -1.
         -2   -1    0    0    0  501 -0.00000000000E+00 -0.00000000000E+00 -0.19419168351E+02  0.19419168351E+02  0.00000000000E+00 0.  1.
         25    2    1    2    0    0  0.26527783557E+02  0.66028188960E+02  0.19200266278E+04  0.19254127037E+04  0.12509349717E+03 0.  0.
         23    2    1    2    0    0 -0.26527783557E+02 -0.66028188960E+02  0.19946423099E+03  0.23291649181E+03  0.96957040337E+02 0.  0.
          5    1    3    3  502    0 -0.26036421843E+02 -0.12081841662E+02  0.10304082863E+04  0.10308164604E+04  0.41800000000E+01 0. -1.
         -5    1    3    3    0  502  0.52564205400E+02  0.78110030622E+02  0.88961834152E+03  0.89459624331E+03  0.41800000000E+01 0. -1.
        -11    1    4    4    0    0 -0.51913243891E+02 -0.67538327482E+02  0.10563673860E+03  0.13570383603E+03  0.00000000000E+00 0.  1.
         11    1    4    4    0    0  0.25385460334E+02  0.15101385214E+01  0.93827492390E+02  0.97212655776E+02  0.00000000000E+00 0. -1.
</event>
<event>
 8    1  0.3528896E-009  0.1053101E+03  0.7561462E-02  0.1269510E+00
         -1   -1    0    0    0  501 -0.00000000000E+00  0.00000000000E+00  0.19471273472E+02  0.19471273472E+02  0.00000000000E+00 0.  1.
          1   -1    0    0  501    0  0.00000000000E+00 -0.00000000000E+00 -0.81388042158E+03  0.81388042158E+03  0.00000000000E+00 0. -1.
         25    2    1    2    0    0  0.64423524165E+02  0.42844451394E+00 -0.44795195830E+03  0.46953142278E+03  0.12509286949E+03 0.  0.
         23    2    1    2    0    0 -0.64423524165E+02 -0.42844451394E+00 -0.34645718980E+03  0.36382027227E+03  0.90454585952E+02 0.  0.
          5    1    3    3  502    0  0.10358675234E+02 -0.35227890100E+02 -0.35052562214E+03  0.35246842492E+03  0.41800000000E+01 0. -1.
         -5    1    3    3    0  502  0.54064848931E+02  0.35656334613E+02 -0.97426336167E+02  0.11706299786E+03  0.41800000000E+01 0. -1.
        -11    1    4    4    0    0 -0.29326296189E+02  0.43546731322E+02 -0.13077007030E+03  0.14091543827E+03  0.00000000000E+00 0.  1.
         11    1    4    4    0    0 -0.35097227976E+02 -0.43975175836E+02 -0.21568711950E+03  0.22290483400E+03  0.00000000000E+00 0. -1.
</event>
<event>
 8    1  0.3528896E-009  0.1277761E+03  0.7561462E-02  0.1230793E+00
          4   -1    0    0  501    0  0.00000000000E+00  0.00000000000E+00  0.38381449121E+03  0.38381449121E+03  0.00000000000E+00 0. -1.
         -4   -1    0    0    0  501 -0.00000000000E+00 -0.00000000000E+00 -0.70256481620E+02  0.70256481620E+02  0.00000000000E+00 0.  1.
         25    2    1    2    0    0 -0.10029338522E+03  0.47413794932E+02  0.94816598120E+02  0.19220972633E+03  0.12509020964E+03 0.  0.
         23    2    1    2    0    0  0.10029338522E+03 -0.47413794932E+02  0.21874141147E+03  0.26186124650E+03  0.91742445244E+02 0.  0.
          5    1    3    3  502    0 -0.44797540603E+02  0.16423056628E+02 -0.26826714996E+02  0.54897007847E+02  0.41800000000E+01 0.  1.
         -5    1    3    3    0  502 -0.55495844619E+02  0.30990738304E+02  0.12164331312E+03  0.13731271848E+03  0.41800000000E+01 0.  1.
        -11    1    4    4    0    0 -0.49717034155E+01 -0.37941718271E+02  0.58316244216E+02  0.69750097919E+02  0.00000000000E+00 0.  1.
         11    1    4    4    0    0  0.10526508864E+03 -0.94720766611E+01  0.16042516725E+03  0.19211114858E+03  0.00000000000E+00 0. -1.
</event>
<event>
 8    1  0.3528896E-009  0.1386263E+03  0.7561462E-02  0.1215189E+00
         -2   -1    0    0    0  501 -0.00000000000E+00  0.00000000000E+00  0.13685804067E+03  0.13685804067E+03  0.00000000000E+00 0.  1.
          2   -1    0    0  501    0  0.00000000000E+00 -0.00000000000E+00 -0.19713785931E+03  0.19713785931E+03  0.00000000000E+00 0. -1.
         25    2    1    2    0    0  0.10946992421E+03  0.15784345127E+02  0.17039479785E+02  0.16784354850E+03  0.12509317745E+03 0.  0.
         23    2    1    2    0    0 -0.10946992421E+03 -0.15784345127E+02 -0.77319298422E+02  0.16615235147E+03  0.96930491248E+02 0.  0.
          5    1    3    3  502    0  0.13560167509E+03  0.62238511554E+01  0.17502511717E+01  0.13582005150E+03  0.41800000000E+01 0. -1.
         -5    1    3    3    0  502 -0.26131750874E+02  0.95604939721E+01  0.15289228613E+02  0.32023497003E+02  0.41800000000E+01 0. -1.
        -11    1    4    4    0    0 -0.23793998697E+02  0.67179531980E+01 -0.73435162062E+02  0.77485536046E+02  0.00000000000E+00 0. -1.
         11    1    4    4    0    0 -0.85675925516E+02 -0.22502298325E+02 -0.38841363601E+01  0.88666815429E+02  0.00000000000E+00 0.  1.
</event>
<event>
 8    1  0.3528896E-009  0.1184901E+03  0.7561462E-02  0.1245609E+00
          4   -1    0    0  501    0  0.00000000000E+00  0.00000000000E+00  0.14367491133E+04  0.14367491133E+04  0.00000000000E+00 0. -1.
         -4   -1    0    0    0  501 -0.00000000000E+00 -0.00000000000E+00 -0.12496409988E+02  0.12496409988E+02  0.00000000000E+00 0.  1.
         25    2    1    2    0    0  0.23908999579E+02 -0.50419471184E+02  0.10561408948E+04  0.10649856593E+04  0.12508837427E+03 0.  0.
         23    2    1    2    0    0 -0.23908999579E+02  0.50419471184E+02  0.36811180852E+03  0.38425986406E+03  0.95055648014E+02 0.  0.
          5    1    3    3  502    0  0.10959207130E+02  0.37503795537E+02  0.17464002723E+03  0.17900628596E+03  0.41800000000E+01 0. -1.
         -5    1    3    3    0  502  0.12949792449E+02 -0.87923266721E+02  0.88150086758E+03  0.88597937329E+03  0.41800000000E+01 0. -1.
        -11    1    4    4    0    0  0.31538978108E+02 -0.30499086364E+01  0.80499234961E+02  0.86510900539E+02  0.00000000000E+00 0.  1.
         11    1    4    4    0    0 -0.55447977687E+02  0.53469379820E+02  0.28761257356E+03  0.29774896352E+03  0.00000000000E+00 0. -1.
</event>
<event>
 8    1  0.3528896E-009  0.7646267E+02  0.7561462E-02  0.1339401E+00
          1   -1    0    0  501    0  0.00000000000E+00  0.00000000000E+00  0.88760403246E+02  0.88760403246E+02  0.00000000000E+00 0. -1.
         -1   -1    0    0    0  501 -0.00000000000E+00 -0.00000000000E+00 -0.19799021282E+03  0.19799021282E+03  0.00000000000E+00 0.  1.
         25    2    1    2    0    0  0.51581740600E+02  0.48617720270E+02 -0.28850285457E+02  0.14664137439E+03  0.12508794915E+03 0.  0.
         23    2    1    2    0    0 -0.51581740600E+02 -0.48617720270E+02 -0.80379524117E+02  0.14010924168E+03  0.90251720311E+02 0.  0.
          5    1    3    3  502    0  0.49726213195E+02  0.46041213174E+02 -0.74438223783E+02  0.10075222652E+03  0.41800000000E+01 0.  1.
         -5    1    3    3    0  502  0.18555274049E+01  0.25765070960E+01  0.45587938326E+02  0.45889147863E+02  0.41800000000E+01 0.  1.
        -11    1    4    4    0    0 -0.47047965370E+02 -0.20536762427E+02 -0.95107915744E+02  0.10807768176E+03  0.00000000000E+00 0.  1.
         11    1    4    4    0    0 -0.45337752297E+01 -0.28080957843E+02  0.14728391627E+02  0.32031559924E+02  0.00000000000E+00 0. -1.
</event>
<event>
 8    1  0.3528896E-009  0.1251815E+03  0.7561462E-02  0.1234786E+00
         -1   -1    0    0    0  501 -0.00000000000E+00  0.00000000000E+00  0.41234888326E+02  0.41234888326E+02  0.00000000000E+00 0.  1.
          1   -1    0    0  501    0  0.00000000000E+00 -0.00000000000E+00 -0.53664513456E+03  0.53664513456E+03  0.00000000000E+00 0. -1.
         25    2    1    2    0    0  0.97925207313E+02  0.23141533453E+02 -0.25918753591E+03  0.30487808229E+03  0.12509032534E+03 0.  0.
         23    2    1    2    0    0 -0.97925207313E+02 -0.23141533453E+02 -0.23622271032E+03  0.27300194059E+03  0.92757823912E+02 0.  0.
          5    1    3    3  502    0  0.25121183992E+02  0.61308930517E+02 -0.17486806308E+03  0.18704590541E+03  0.41800000000E+01 0. -1.
         -5    1    3    3    0  502  0.72804023321E+02 -0.38167397064E+02 -0.84319472835E+02  0.11783217689E+03  0.41800000000E+01 0. -1.
        -11    1    4    4    0    0 -0.49628539103E+02 -0.19188274801E+02 -0.21247785287E+03  0.21903885442E+03  0.00000000000E+00 0. -1.
         11    1    4    4    0    0 -0.48296668210E+02 -0.39532586514E+01 -0.23744857450E+02  0.53963086175E+02  0.00000000000E+00 0.  1.
</event>
<event>
 8    1  0.3528896E-009  0.1307798E+03  0.7561462E-02  0.1226303E+00
          1   -1    0    0  501    0  0.00000000000E+00  0.00000000000E+00  0.24192695476E+03  0.24192695476E+03  0.00000000000E+00 0. -1.
         -1   -1    0    0    0  501 -0.00000000000E+00 -0.00000000000E+00 -0.90876871429E+02  0.90876871429E+02  0.00000000000E+00 0.  1.
         25    2    1    2    0    0  0.39808436581E+02  0.73959578522E+02  0.20190721848E+02  0.15201077039E+03  0.12507948748E+03 0.  0.
         23    2    1    2    0    0 -0.39808436581E+02 -0.73959578522E+02  0.13085936149E+03  0.18079305580E+03  0.92234622883E+02 0.  0.
          5    1    3    3  502    0  0.62783148486E+02 -0.72487291503E+01 -0.58038695084E+01  0.63603656415E+02  0.41800000000E+01 0. -1.
         -5    1    3    3    0  502 -0.22974711905E+02  0.81208307672E+02  0.25994591356E+02  0.88407113978E+02  0.41800000000E+01 0. -1.
        -11    1    4    4    0    0  0.78326145371E+01  0.12647563013E+02 -0.21980167951E+01  0.15038017771E+02  0.00000000000E+00 0.  1.
         11    1    4    4    0    0 -0.47641051118E+02 -0.86607141535E+02  0.13305737828E+03  0.16575503803E+03  0.00000000000E+00 0. -1.
</event>
<event>
 8    1  0.3528896E-009  0.1151060E+03  0.7561462E-02  0.1251396E+00
         -1   -1    0    0    0  501 -0.00000000000E+00  0.00000000000E+00  0.22227897630E+03  0.22227897630E+03  0.00000000000E+00 0.  1.
          1   -1    0    0  501    0  0.00000000000E+00 -0.00000000000E+00 -0.70389524129E+02  0.70389524129E+02  0.00000000000E+00 0. -1.
         25    2    1    2    0    0 -0.50530383607E+02  0.22909222374E+02  0.11703783728E+03  0.18006752133E+03  0.12509318425E+03 0.  0.
         23    2    1    2    0    0  0.50530383607E+02 -0.22909222374E+02  0.34851614893E+02  0.11260097910E+03  0.91576161178E+02 0.  0.
          5    1    3    3  502    0 -0.30116411739E+02 -0.50030283487E+02  0.68045184185E+02  0.89764397245E+02  0.41800000000E+01 0.  1.
         -5    1    3    3    0  502 -0.20413971868E+02  0.72939505861E+02  0.48992653092E+02  0.90303124086E+02  0.41800000000E+01 0.  1.
        -11    1    4    4    0    0  0.31432792538E+02  0.27587543917E+02 -0.93174562479E+01  0.42847497208E+02  0.00000000000E+00 0. -1.
         11    1    4    4    0    0  0.19097591069E+02 -0.50496766290E+02  0.44169071141E+02  0.69753481890E+02  0.00000000000E+00 0.  1.
</event>
<event>
 8    1  0.3528896E-009  0.8335124E+02  0.7561462E-02  0.1319801E+00
         -2   -1    0    0    0  501 -0.00000000000E+00  0.00000000000E+00  0.82593678033E+02  0.82593678033E+02  0.00000000000E+00 0.  1.
          2   -1    0    0  501    0  0.00000000000E+00 -0.00000000000E+00 -0.18689575818E+03  0.18689575818E+03  0.00000000000E+00 0. -1.
         25    2    1    2    0    0  0.10607277849E+02  0.58328027481E+02 -0.59915384309E+02  0.15083989775E+03  0.12509255910E+03 0.  0.
         23    2    1    2    0    0 -0.10607277849E+02 -0.58328027481E+02 -0.44386695842E+02  0.11864953847E+03  0.92697686474E+02 0.  0.
          5    1    3    3  502    0  0.83386713817E+01  0.34840660499E+02  0.36605212366E+02  0.51388899938E+02  0.41800000000E+01 0.  1.
         -5    1    3    3    0  502  0.22686064670E+01  0.23487366982E+02 -0.96520596676E+02  0.99450997811E+02  0.41800000000E+01 0.  1.
        -11    1    4    4    0    0 -0.31981248884E+02  0.11235625807E+02 -0.97487271803E+00  0.33911501651E+02  0.00000000000E+00 0.  1.
         11    1    4    4    0    0  0.21373971035E+02 -0.69563653288E+02 -0.43411823124E+02  0.84738036816E+02  0.00000000000E+00 0. -1.
</event>
<event>
 8    1  0.3528896E-009  0.1217854E+03  0.7561462E-02  0.1240181E+00
         -2   -1    0    0    0  501 -0.00000000000E+00  0.00000000000E+00  0.33625486899E+02  0.33625486899E+02  0.00000000000E+00 0.  1.
          2   -1    0    0  501    0  0.00000000000E+00 -0.00000000000E+00 -0.55687789317E+03  0.55687789317E+03  0.00000000000E+00 0. -1.
         25    2    1    2    0    0  0.13595909164E+02  0.74473109828E+02 -0.19353899519E+03  0.24256086894E+03  0.12508932669E+03 0.  0.
         23    2    1    2    0    0 -0.13595909164E+02 -0.74473109828E+02 -0.32971341109E+03  0.34794251113E+03  0.81375455556E+02 0.  0.
          5    1    3    3  502    0 -0.24695483690E+02 -0.23053920535E+02 -0.85384050511E+02  0.91919849045E+02  0.41800000000E+01 0.  1.
         -5    1    3    3    0  502  0.38291392854E+02  0.97527030363E+02 -0.10815494468E+03  0.15064101990E+03  0.41800000000E+01 0.  1.
        -11    1    4    4    0    0 -0.36899076193E+02 -0.13321977172E+02 -0.18509845837E+03  0.18921008480E+03  0.00000000000E+00 0. -1.
         11    1    4    4    0    0  0.23303167029E+02 -0.61151132656E+02 -0.14461495272E+03  0.15873242633E+03  0.00000000000E+00 0.  1.
</event>
<event>
 8    1  0.3528896E-009  0.1048960E+03  0.7561462E-02  0.1270325E+00
         -1   -1    0    0    0  501 -0.00000000000E+00  0.00000000000E+00  0.20036050503E+02  0.20036050503E+02  0.00000000000E+00 0.  1.
          1   -1    0    0  501    0  0.00000000000E+00 -0.00000000000E+00 -0.10742118481E+04  0.10742118481E+04  0.00000000000E+00 0. -1.
         25    2    1    2    0    0 -0.43364931656E+02 -0.77271448701E+02 -0.59643776690E+03  0.61582110036E+03  0.12508486633E+03 0.  0.
         23    2    1    2    0    0  0.43364931656E+02  0.77271448701E+02 -0.45773803074E+03  0.47842679829E+03  0.10731590026E+03 0.  0.
          5    1    3    3  502    0 -0.36248545143E+02 -0.71729759765E+02 -0.59991541031E+03  0.60528925927E+03  0.41800000000E+01 0. -1.
         -5    1    3    3    0  502 -0.71163865130E+01 -0.55416889362E+01  0.34776434034E+01  0.10531841098E+02  0.41800000000E+01 0. -1.
        -11    1    4    4    0    0 -0.22928134405E+02  0.30876613381E+02 -0.51872949232E+02  0.64574510940E+02  0.00000000000E+00 0.  1.
         11    1    4    4    0    0  0.66293066061E+02  0.46394835320E+02 -0.40586508151E+03  0.41385228735E+03  0.00000000000E+00 0. -1.
</event>
<event>
 8    1  0.3528896E-009  0.1473505E+03  0.7561462E-02  0.1203767E+00
          1   -1    0    0  501    0  0.00000000000E+00  0.00000000000E+00  0.58461143364E+02  0.58461143364E+02  0.00000000000E+00 0. -1.
         -1   -1    0    0    0  501 -0.00000000000E+00 -0.00000000000E+00 -0.43216378813E+03  0.43216378813E+03  0.00000000000E+00 0.  1.
         25    2    1    2    0    0  0.10617959719E+03  0.28560364182E+02 -0.14314124845E+03  0.21960740412E+03  0.12509274028E+03 0.  0.
         23    2    1    2    0    0 -0.10617959719E+03 -0.28560364182E+02 -0.23056139631E+03  0.27101752738E+03  0.90565674588E+02 0.  0.
          5    1    3    3  502    0  0.42057004881E+02  0.72609437972E+02 -0.48439653371E+02  0.96978320056E+02  0.41800000000E+01 0. -1.
         -5    1    3    3    0  502  0.64122592313E+02 -0.44049073790E+02 -0.94701595082E+02  0.12262908406E+03  0.41800000000E+01 0. -1.
        -11    1    4    4    0    0 -0.11407533707E+03 -0.12341487737E+02 -0.15219143572E+03  0.19059834195E+03  0.00000000000E+00 0. -1.
         11    1    4    4    0    0  0.78957398777E+01 -0.16218876445E+02 -0.78369960598E+02  0.80419185431E+02  0.00000000000E+00 0.  1.
</event>
<event>
 8    1  0.3528896E-009  0.9936743E+02  0.7561462E-02  0.1281632E+00
          2   -1    0    0  501    0  0.00000000000E+00  0.00000000000E+00  0.17728343482E+04  0.17728343482E+04  0.00000000000E+00 0.  1.
         -2   -1    0    0    0  501 -0.00000000000E+00 -0.00000000000E+00 -0.10577292389E+02  0.10577292389E+02  0.00000000000E+00 0. -1.
         25    2    1    2    0    0 -0.38187859814E+02  0.40320690393E+01  0.14712944964E+04  0.14771014698E+04  0.12508671652E+03 0.  0.
         23    2    1    2    0    0  0.38187859814E+02 -0.40320690393E+01  0.29096255947E+03  0.30631017088E+03  0.87704843371E+02 0.  0.
          5    1    3    3  502    0  0.14105652412E+02 -0.36228266849E+02  0.18396324198E+03  0.18807286766E+03  0.41800000000E+01 0.  1.
         -5    1    3    3    0  502 -0.52293512226E+02  0.40260335888E+02  0.12873312544E+04  0.12890286021E+04  0.41800000000E+01 0.  1.
        -11    1    4    4    0    0 -0.99749123697E+01 -0.34901140747E+02  0.82327780629E+02  0.89974729594E+02  0.00000000000E+00 0. -1.
         11    1    4    4    0    0  0.48162772184E+02  0.30869071708E+02  0.20863477884E+03  0.21633544128E+03  0.00000000000E+00 0.  1.
</event>
<event>
 8    1  0.3528896E-009  0.9633394E+02  0.7561462E-02  0.1288200E+00
          3   -1    0    0  501    0  0.00000000000E+00  0.00000000000E+00  0.11146593486E+04  0.11146593486E+04  0.00000000000E+00 0. -1.
         -3   -1    0    0    0  501 -0.00000000000E+00 -0.00000000000E+00 -0.12574059713E+02  0.12574059713E+02  0.00000000000E+00 0.  1.
         25    2    1    2    0    0 -0.73315901153E+00  0.24842571726E+02  0.82037958837E+03  0.83023346398E+03  0.12508894758E+03 0.  0.
         23    2    1    2    0    0  0.73315901153E+00 -0.24842571726E+02  0.28170570049E+03  0.29699994430E+03  0.90736841117E+02 0.  0.
          5    1    3    3  502    0  0.37907981571E+02  0.54155519658E+02  0.63937417242E+03  0.64279595529E+03  0.41800000000E+01 0.  1.
         -5    1    3    3    0  502 -0.38641140582E+02 -0.29312947933E+02  0.18100541595E+03  0.18743750869E+03  0.41800000000E+01 0.  1.
        -11    1    4    4    0    0 -0.32110046852E+02  0.60336779348E+01  0.42622086529E+02  0.53703841933E+02  0.00000000000E+00 0.  1.
         11    1    4    4    0    0  0.32843205863E+02 -0.30876249661E+02  0.23908361396E+03  0.24329610237E+03  0.00000000000E+00 0. -1.
</event>
<event>
 8    1  0.3528896E-009  0.1136369E+03  0.7561462E-02  0.1253979E+00
          2   -1    0    0  501    0  0.00000000000E+00  0.00000000000E+00  0.33418714855E+03  0.33418714855E+03  0.00000000000E+00 0. -1.
         -2   -1    0    0    0  501 -0.00000000000E+00 -0.00000000000E+00 -0.50475644680E+02  0.50475644680E+02  0.00000000000E+00 0.  1.
         25    2    1    2    0    0 -0.41381292983E+02 -0.29628803087E+02  0.22877655645E+03  0.26567247367E+03  0.12511144275E+03 0.  0.
         23    2    1    2    0    0  0.41381292983E+02  0.29628803087E+02  0.54934947419E+02  0.11899031955E+03  0.92469293921E+02 0.  0.
          5    1    3    3  502    0 -0.74458960740E+02 -0.43663835235E+02  0.20476567265E+03  0.22225462973E+03  0.41800000000E+01 0. -1.
         -5    1    3    3    0  502  0.33077667757E+02  0.14035032148E+02  0.24010883798E+02  0.43417843940E+02  0.41800000000E+01 0. -1.
        -11    1    4    4    0    0  0.70312473210E+02  0.28068106157E+02  0.32697021868E+02  0.82466706683E+02  0.00000000000E+00 0.  1.
         11    1    4    4    0    0 -0.28931180227E+02  0.15606969308E+01  0.22237925552E+02  0.36523612870E+02  0.00000000000E+00 0. -1.
</event>
<event>
 8    1  0.3528896E-009  0.1240812E+03  0.7561462E-02  0.1236512E+00
         -2   -1    0    0    0  501 -0.00000000000E+00  0.00000000000E+00  0.33979048057E+03  0.33979048057E+03  0.00000000000E+00 0. -1.
          2   -1    0    0  501    0  0.00000000000E+00 -0.00000000000E+00 -0.60223672793E+02  0.60223672793E+02  0.00000000000E+00 0.  1.
         25    2    1    2    0    0  0.54461223788E+02 -0.58045846091E+02  0.23338779470E+03  0.27650223219E+03  0.12509307155E+03 0.  0.
         23    2    1    2    0    0 -0.54461223788E+02  0.58045846091E+02  0.46179013079E+02  0.12351192117E+03  0.82385364458E+02 0.  0.
          5    1    3    3  502    0 -0.37575766774E+02 -0.72844694519E+01  0.35389176039E+02  0.52295964706E+02  0.41800000000E+01 0. -1.
         -5    1    3    3    0  502  0.92036990562E+02 -0.50761376639E+02  0.19799861866E+03  0.22420626749E+03  0.41800000000E+01 0. -1.
        -11    1    4    4    0    0 -0.34178062718E+02 -0.82334929061E+01  0.40995062572E+02  0.54004865817E+02  0.00000000000E+00 0. -1.
         11    1    4    4    0    0 -0.20283161070E+02  0.66279338997E+02  0.51839505073E+01  0.69507055352E+02  0.00000000000E+00 0.  1.
</event>
<event>
 8    1  0.3528896E-009  0.1506175E+03  0.7561462E-02  0.1199716E+00
         -2   -1    0    0    0  501 -0.00000000000E+00  0.00000000000E+00  0.87077693382E+02  0.87077693382E+02  0.00000000000E+00 0. -1.
          2   -1    0    0  501    0  0.00000000000E+00 -0.00000000000E+00 -0.33583104283E+03  0.33583104283E+03  0.00000000000E+00 0.  1.
         25    2    1    2    0    0  0.13198749948E+03 -0.65333737560E+01 -0.14253618328E+03  0.23114389496E+03  0.12509017404E+03 0.  0.
         23    2    1    2    0    0 -0.13198749948E+03  0.65333737560E+01 -0.10621716617E+03  0.19176484125E+03  0.89600686150E+02 0.  0.
          5    1    3    3  502    0  0.14927067427E+03 -0.23378681823E+01 -0.14975696473E+03  0.21149898512E+03  0.41800000000E+01 0.  1.
         -5    1    3    3    0  502 -0.17283174785E+02 -0.41955055737E+01  0.72207814500E+01  0.19644909835E+02  0.41800000000E+01 0.  1.
        -11    1    4    4    0    0 -0.10428360738E+03 -0.29795571199E+01 -0.12032342131E+03  0.15925349053E+03  0.00000000000E+00 0.  1.
         11    1    4    4    0    0 -0.27703892099E+02  0.95129308759E+01  0.14106255147E+02  0.32511350719E+02  0.00000000000E+00 0. -1.
</event>
<event>
 8    1  0.3528896E-009  0.9358699E+02  0.7561462E-02  0.1294391E+00
          1   -1    0    0  501    0  0.00000000000E+00  0.00000000000E+00  0.32866914859E+03  0.32866914859E+03  0.00000000000E+00 0.  1.
         -1   -1    0    0    0  501 -0.00000000000E+00 -0.00000000000E+00 -0.42604004513E+02  0.42604004513E+02  0.00000000000E+00 0. -1.
         25    2    1    2    0    0 -0.22552539905E+02  0.32654327695E+02  0.20710863918E+03  0.24518534005E+03  0.12508773072E+03 0.  0.
         23    2    1    2    0    0  0.22552539905E+02 -0.32654327695E+02  0.78956504890E+02  0.12608781305E+03  0.89939339349E+02 0.  0.
          5    1    3    3  502    0 -0.73094194440E+02  0.50342292218E+01  0.12058545124E+03  0.14116100090E+03  0.41800000000E+01 0.  1.
         -5    1    3    3    0  502  0.50541654535E+02  0.27620098473E+02  0.86523187941E+02  0.10402433914E+03  0.41800000000E+01 0.  1.
        -11    1    4    4    0    0  0.31354712683E+02 -0.11972551726E+02  0.93482932161E+02  0.99325317053E+02  0.00000000000E+00 0.  1.
         11    1    4    4    0    0 -0.88021727775E+01 -0.20681775970E+02 -0.14526427271E+02  0.26762496000E+02  0.00000000000E+00 0. -1.
</event>
<event>
 8    1  0.3528896E-009  0.7003819E+02  0.7561462E-02  0.1359963E+00
          2   -1    0    0  501    0  0.00000000000E+00  0.00000000000E+00  0.46551302231E+03  0.46551302231E+03  0.00000000000E+00 0.  1.
         -2   -1    0    0    0  501 -0.00000000000E+00 -0.00000000000E+00 -0.44959881812E+02  0.44959881812E+02  0.00000000000E+00 0. -1.
         25    2    1    2    0    0  0.90451005181E+01 -0.62707482461E+02  0.39090975284E+03  0.41529833978E+03  0.12509290131E+03 0.  0.
         23    2    1    2    0    0 -0.90451005181E+01  0.62707482461E+02  0.29643387656E+02  0.95174564340E+02  0.64540104320E+02 0.  0.
          5    1    3    3  502    0  0.65808784969E+01 -0.65652018295E+02  0.39953774542E+03  0.40497083584E+03  0.41800000000E+01 0.  1.
         -5    1    3    3    0  502  0.24642220212E+01  0.29445358339E+01 -0.86279925845E+01  0.10327503933E+02  0.41800000000E+01 0.  1.
        -11    1    4    4    0    0 -0.15899174975E+02  0.22803985423E+02  0.44144304869E+02  0.52168239077E+02  0.00000000000E+00 0.  1.
         11    1    4    4    0    0  0.68540744570E+01  0.39903497039E+02 -0.14500917213E+02  0.43006325263E+02  0.00000000000E+00 0. -1.
</event>
<event>
 8    1  0.3528896E-009  0.1067083E+03  0.7561462E-02  0.1266790E+00
          1   -1    0    0  501    0  0.00000000000E+00  0.00000000000E+00  0.12101116275E+03  0.12101116275E+03  0.00000000000E+00 0. -1.
         -1   -1    0    0    0  501 -0.00000000000E+00 -0.00000000000E+00 -0.15185595900E+03  0.15185595900E+03  0.00000000000E+00 0.  1.
         25    2    1    2    0    0 -0.62960358580E+02  0.36364238025E+02  0.20036428489E+02  0.14606821221E+03  0.12509236425E+03 0.  0.
         23    2    1    2    0    0  0.62960358580E+02 -0.36364238025E+02 -0.50881224738E+02  0.12679890954E+03  0.90568757687E+02 0.  0.
          5    1    3    3  502    0 -0.21964520083E+02  0.64656559308E+02  0.52698808473E+02  0.86357093620E+02  0.41800000000E+01 0. -1.
         -5    1    3    3    0  502 -0.40995838497E+02 -0.28292321283E+02 -0.32662379985E+02  0.59711118595E+02  0.41800000000E+01 0. -1.
        -11    1    4    4    0    0  0.17101467161E+02 -0.45189449047E+02 -0.62185259911E+02  0.78749939901E+02  0.00000000000E+00 0.  1.
         11    1    4    4    0    0  0.45858891419E+02  0.88252110218E+01  0.11304035173E+02  0.48048969635E+02  0.00000000000E+00 0. -1.
</event>
<event>
 8    1  0.3528896E-009  0.1288568E+03  0.7561462E-02  0.1229162E+00
          2   -1    0    0  501    0  0.00000000000E+00  0.00000000000E+00  0.44079494566E+03  0.44079494566E+03  0.00000000000E+00 0.  1.
         -2   -1    0    0    0  501 -0.00000000000E+00 -0.00000000000E+00 -0.69448419268E+02  0.69448419268E+02  0.00000000000E+00 0. -1.
         25    2    1    2    0    0 -0.11012531092E+03 -0.24478863255E+02  0.30925213304E+03  0.35215250236E+03  0.12509078415E+03 0.  0.
         23    2    1    2    0    0  0.11012531092E+03  0.24478863255E+02  0.62094393352E+02  0.15809086256E+03  0.91707187767E+02 0.  0.
          5    1    3    3  502    0 -0.13304145345E+02 -0.42625048685E+02  0.25129348795E+02  0.51408672708E+02  0.41800000000E+01 0. -1.
         -5    1    3    3    0  502 -0.96821165577E+02  0.18146185430E+02  0.28412278424E+03  0.30074382966E+03  0.41800000000E+01 0. -1.
        -11    1    4    4    0    0  0.72671186007E+02  0.24883671498E+02  0.84698738002E+02  0.11434235699E+03  0.00000000000E+00 0.  1.
         11    1    4    4    0    0  0.37454124915E+02 -0.40480824319E+00 -0.22604344649E+02  0.43748505573E+02  0.00000000000E+00 0. -1.
</event>
<event>
 8    1  0.3528896E-009  0.2076818E+03  0.7561462E-02  0.1143415E+00
         -2   -1    0    0    0  501 -0.00000000000E+00  0.00000000000E+00  0.76949275606E+02  0.76949275606E+02  0.00000000000E+00 0.  1.
          2   -1    0    0  501    0  0.00000000000E+00 -0.00000000000E+00 -0.64603834487E+03  0.64603834487E+03  0.00000000000E+00 0. -1.
         25    2    1    2    0    0  0.14419272560E+03 -0.11523170206E+03 -0.19444861625E+03  0.29585383815E+03  0.12509732977E+03 0.  0.
         23    2    1    2    0    0 -0.14419272560E+03  0.11523170206E+03 -0.37464045301E+03  0.42713378232E+03  0.89542792483E+02 0.  0.
          5    1    3    3  502    0  0.12124131485E+03 -0.14164420503E+03 -0.17427238738E+03  0.25524669371E+03  0.41800000000E+01 0.  1.
         -5    1    3    3    0  502  0.22951410749E+02  0.26412502974E+02 -0.20176228860E+02  0.40607144442E+02  0.41800000000E+01 0.  1.
        -11    1    4    4    0    0 -0.22847617377E+02  0.51999887799E+02 -0.53370171755E+02  0.77938290873E+02  0.00000000000E+00 0.  1.
         11    1    4    4    0    0 -0.12134510823E+03  0.63231814257E+02 -0.32127028126E+03  0.34919549144E+03  0.00000000000E+00 0. -1.
</event>
<event>
 8    1  0.3528896E-009  0.2487905E+03  0.7561462E-02  0.1114072E+00
          3   -1    0    0  501    0  0.00000000000E+00  0.00000000000E+00  0.10231393870E+03  0.10231393870E+03  0.00000000000E+00 0. -1.
         -3   -1    0    0    0  501 -0.00000000000E+00 -0.00000000000E+00 -0.71133232380E+03  0.71133232380E+03  0.00000000000E+00 0.  1.
         25    2    1    2    0    0 -0.70609327458E+02 -0.22786999995E+03 -0.21699321153E+03  0.34589640648E+03  0.12509139125E+03 0.  0.
         23    2    1    2    0    0  0.70609327458E+02  0.22786999995E+03 -0.39202517356E+03  0.46774985602E+03  0.90530531301E+02 0.  0.
          5    1    3    3  502    0 -0.43630126807E+02 -0.69772325902E+02 -0.15179660115E+03  0.17271782174E+03  0.41800000000E+01 0. -1.
         -5    1    3    3    0  502 -0.26979200651E+02 -0.15809767405E+03 -0.65196610381E+02  0.17317858474E+03  0.41800000000E+01 0. -1.
        -11    1    4    4    0    0  0.15089891908E+02  0.18229063968E+03 -0.26923753888E+03  0.32549413896E+03  0.00000000000E+00 0. -1.
         11    1    4    4    0    0  0.55519435549E+02  0.45579360275E+02 -0.12278763468E+03  0.14225571706E+03  0.00000000000E+00 0.  1.
</event>
<event>
 8    1  0.3528896E-009  0.1381081E+03  0.7561462E-02  0.1215898E+00
         -2   -1    0    0    0  501 -0.00000000000E+00  0.00000000000E+00  0.10988307203E+04  0.10988307203E+04  0.00000000000E+00 0.  1.
          2   -1    0    0  501    0  0.00000000000E+00 -0.00000000000E+00 -0.20586928785E+02  0.20586928785E+02  0.00000000000E+00 0. -1.
         25    2    1    2    0    0 -0.38002902383E+02 -0.94683416554E+02  0.50984814764E+03  0.53479103667E+03  0.12508856577E+03 0.  0.
         23    2    1    2    0    0  0.38002902383E+02  0.94683416554E+02  0.56839564384E+03  0.58462661239E+03  0.91134505054E+02 0.  0.
          5    1    3    3  502    0 -0.80731967400E+02 -0.35850835627E+02  0.29118087673E+03  0.30431350339E+03  0.41800000000E+01 0.  1.
         -5    1    3    3    0  502  0.42729065018E+02 -0.58832580926E+02  0.21866727092E+03  0.23047753328E+03  0.41800000000E+01 0.  1.
        -11    1    4    4    0    0 -0.13583686343E+02  0.18829045951E+02  0.27423418299E+02  0.35931787838E+02  0.00000000000E+00 0. -1.
         11    1    4    4    0    0  0.51586588726E+02  0.75854370603E+02  0.54097222554E+03  0.54869482455E+03  0.00000000000E+00 0.  1.
</event>
<event>
 8    1  0.3528896E-009  0.1265880E+03  0.7561462E-02  0.1232608E+00
         -1   -1    0    0    0  501 -0.00000000000E+00  0.00000000000E+00  0.22215114342E+03  0.22215114342E+03  0.00000000000E+00 0.  1.
          1   -1    0    0  501    0  0.00000000000E+00 -0.00000000000E+00 -0.11196727767E+03  0.11196727767E+03  0.00000000000E+00 0. -1.
         25    2    1    2    0    0 -0.62339328905E+02 -0.50084243949E+02 -0.26559672869E+02  0.15081884699E+03  0.12508511089E+03 0.  0.
         23    2    1    2    0    0  0.62339328905E+02  0.50084243949E+02  0.13674353862E+03  0.18329957409E+03  0.92224265168E+02 0.  0.
          5    1    3    3  502    0 -0.95433715352E+02 -0.23477457319E+02  0.38163855565E+01  0.98441973907E+02  0.41800000000E+01 0. -1.
         -5    1    3    3    0  502  0.33094386446E+02 -0.26606786630E+02 -0.30376058425E+02  0.52376873088E+02  0.41800000000E+01 0. -1.
        -11    1    4    4    0    0  0.48867588609E+02 -0.10577668476E+02  0.98146718945E+02  0.11014856661E+03  0.00000000000E+00 0.  1.
         11    1    4    4    0    0  0.13471740297E+02  0.60661912425E+02  0.38596819675E+02  0.73151007475E+02  0.00000000000E+00 0. -1.
</event>
<event>
 8    1  0.3528896E-009  0.1169167E+03  0.7561462E-02  0.1248272E+00
          2   -1    0    0  501    0  0.00000000000E+00  0.00000000000E+00  0.29791661753E+03  0.29791661753E+03  0.00000000000E+00 0. -1.
         -2   -1    0    0    0  501 -0.00000000000E+00 -0.00000000000E+00 -0.55412465025E+02  0.55412465025E+02  0.00000000000E+00 0.  1.
         25    2    1    2    0    0 -0.58197862643E+02 -0.21913431542E+02  0.17242594509E+03  0.22191266129E+03  0.12508930010E+03 0.  0.
         23    2    1    2    0    0  0.58197862643E+02  0.21913431542E+02  0.70078207408E+02  0.13141642126E+03  0.92152758647E+02 0.  0.
          5    1    3    3  502    0  0.33064435902E+02  0.19611042269E+02  0.58087512906E+02  0.69781669914E+02  0.41800000000E+01 0.  1.
         -5    1    3    3    0  502 -0.91262298545E+02 -0.41524473812E+02  0.11433843219E+03  0.15213099137E+03  0.41800000000E+01 0.  1.
        -11    1    4    4    0    0  0.65090567747E+02  0.39351260815E+02  0.21042929942E+02  0.78918366924E+02  0.00000000000E+00 0.  1.
         11    1    4    4    0    0 -0.68927051042E+01 -0.17437829272E+02  0.49035277466E+02  0.52498054341E+02  0.00000000000E+00 0. -1.
</event>
<event>
 8    1  0.3528896E-009  0.1142547E+03  0.7561462E-02  0.1252888E+00
          1   -1    0    0  501    0  0.00000000000E+00  0.00000000000E+00  0.44478249619E+02  0.44478249619E+02  0.00000000000E+00 0. -1.
         -1   -1    0    0    0  501 -0.00000000000E+00 -0.00000000000E+00 -0.64199431317E+03  0.64199431317E+03  0.00000000000E+00 0.  1.
         25    2    1    2    0    0  0.18095946855E+02 -0.54679002643E+02 -0.55263146556E+03  0.56953019684E+03  0.12508337923E+03 0.  0.
         23    2    1    2    0    0 -0.18095946855E+02  0.54679002643E+02 -0.44884597985E+02  0.11694236595E+03  0.91343490157E+02 0.  0.
          5    1    3    3  502    0 -0.49732860003E+02 -0.40000777991E+02 -0.33540751985E+03  0.34145145537E+03  0.41800000000E+01 0.  1.
         -5    1    3    3    0  502  0.67828806858E+02 -0.14678224653E+02 -0.21722394571E+03  0.22807874147E+03  0.41800000000E+01 0.  1.
        -11    1    4    4    0    0 -0.35211282313E+02 -0.25380067904E+01  0.90790390979E+01  0.36451403698E+02  0.00000000000E+00 0. -1.
         11    1    4    4    0    0  0.17115335458E+02  0.57217009434E+02 -0.53963637083E+02  0.80490962248E+02  0.00000000000E+00 0.  1.
</event>
<event>
 8    1  0.3528896E-009  0.1356094E+03  0.7561462E-02  0.1219362E+00
         -3   -1    0    0    0  501 -0.00000000000E+00  0.00000000000E+00  0.13538696213E+03  0.13538696213E+03  0.00000000000E+00 0.  1.
          3   -1    0    0  501    0  0.00000000000E+00 -0.00000000000E+00 -0.18388743127E+03  0.18388743127E+03  0.00000000000E+00 0. -1.
         25    2    1    2    0    0 -0.30215742973E+01 -0.10047634688E+03 -0.80435004169E+02  0.17951153220E+03  0.12509985653E+03 0.  0.
         23    2    1    2    0    0  0.30215742973E+01  0.10047634688E+03  0.31934535034E+02  0.13976286120E+03  0.91701781051E+02 0.  0.
          5    1    3    3  502    0  0.29316511569E+02  0.17464906410E+02 -0.34786177262E+02  0.48908397387E+02  0.41800000000E+01 0.  1.
         -5    1    3    3    0  502 -0.32338085866E+02 -0.11794125329E+03 -0.45648826906E+02  0.13060313481E+03  0.41800000000E+01 0.  1.
        -11    1    4    4    0    0  0.14508410866E+02  0.10187401094E+03  0.52984644415E+02  0.11574187071E+03  0.00000000000E+00 0.  1.
         11    1    4    4    0    0 -0.11486836569E+02 -0.13976640577E+01 -0.21050109381E+02  0.24020990490E+02  0.00000000000E+00 0. -1.
</event>
<event>
 8    1  0.3528896E-009  0.1547697E+03  0.7561462E-02  0.1194732E+00
          1   -1    0    0  501    0  0.00000000000E+00  0.00000000000E+00  0.11413971569E+03  0.11413971569E+03  0.00000000000E+00 0. -1.
         -1   -1    0    0    0  501 -0.00000000000E+00 -0.00000000000E+00 -0.26177083282E+03  0.26177083282E+03  0.00000000000E+00 0.  1.
         25    2    1    2    0    0 -0.55330943195E+02  0.12244197666E+03 -0.82643040545E+02  0.20132213781E+03  0.12508868893E+03 0.  0.
         23    2    1    2    0    0  0.55330943195E+02 -0.12244197666E+03 -0.64988076582E+02  0.17458841070E+03  0.90576553974E+02 0.  0.
          5    1    3    3  502    0 -0.61080813940E+01 -0.21403938672E+02  0.82926449186E+01  0.24117993464E+02  0.41800000000E+01 0. -1.
         -5    1    3    3    0  502 -0.49222861801E+02  0.14384591533E+03 -0.90935685464E+02  0.17720414434E+03  0.41800000000E+01 0. -1.
        -11    1    4    4    0    0  0.15279298940E+02 -0.46460166208E+02 -0.73490316117E+02  0.88277010502E+02  0.00000000000E+00 0.  1.
         11    1    4    4    0    0  0.40051644255E+02 -0.75981810452E+02  0.85022395353E+01  0.86311400199E+02  0.00000000000E+00 0. -1.
</event>
<event>
 8    1  0.3528896E-009  0.1078542E+03  0.7561462E-02  0.1264596E+00
         -1   -1    0    0    0  501 -0.00000000000E+00  0.00000000000E+00  0.16283752737E+02  0.16283752737E+02  0.00000000000E+00 0.  1.
          1   -1    0    0  501    0  0.00000000000E+00 -0.00000000000E+00 -0.86759152213E+03  0.86759152213E+03  0.00000000000E+00 0. -1.
         25    2    1    2    0    0 -0.16457756779E+02  0.42024098965E+02 -0.43814284083E+03  0.45787836260E+03  0.12508622350E+03 0.  0.
         23    2    1    2    0    0  0.16457756779E+02 -0.42024098965E+02 -0.41316492857E+03  0.42599691227E+03  0.93441042470E+02 0.  0.
          5    1    3    3  502    0  0.45810039068E+02  0.29401443483E+02 -0.31020257812E+03  0.31497002465E+03  0.41800000000E+01 0.  1.
         -5    1    3    3    0  502 -0.62267795846E+02  0.12622655482E+02 -0.12794026271E+03  0.14290833795E+03  0.41800000000E+01 0.  1.
        -11    1    4    4    0    0  0.49319619443E+02 -0.76878489719E+01 -0.28426158581E+03  0.28861077085E+03  0.00000000000E+00 0. -1.
         11    1    4    4    0    0 -0.32861862665E+02 -0.34336249993E+02 -0.12890334275E+03  0.13738614142E+03  0.00000000000E+00 0.  1.
</event>
<event>
 8    1  0.3528896E-009  0.9863187E+02  0.7561462E-02  0.1283200E+00
          2   -1    0    0  501    0  0.00000000000E+00  0.00000000000E+00  0.16978761361E+03  0.16978761361E+03  0.00000000000E+00 0. -1.
         -2   -1    0    0    0  501 -0.00000000000E+00 -0.00000000000E+00 -0.10459184534E+03  0.10459184534E+03  0.00000000000E+00 0.  1.
         25    2    1    2    0    0  0.63174504099E+02 -0.32153138334E+02  0.46651177613E+01  0.14385549899E+03  0.12509116273E+03 0.  0.
         23    2    1    2    0    0 -0.63174504099E+02  0.32153138334E+02  0.60530650512E+02  0.13052395996E+03  0.91365760545E+02 0.  0.
          5    1    3    3  502    0  0.12484164300E+02  0.33713438990E+02 -0.36160723966E+02  0.51161711118E+02  0.41800000000E+01 0. -1.
         -5    1    3    3    0  502  0.50690339799E+02 -0.65866577323E+02  0.40825841727E+02  0.92693787871E+02  0.41800000000E+01 0. -1.
        -11    1    4    4    0    0 -0.21508381577E+02 -0.49383843711E+01  0.70484968870E+02  0.73858844798E+02  0.00000000000E+00 0. -1.
         11    1    4    4    0    0 -0.41666122522E+02  0.37091522705E+02 -0.99543183588E+01  0.56665115164E+02  0.00000000000E+00 0.  1.
</event>
<event>
 7    1  0.3528896E-009  0.1326013E+03  0.7561462E-02  0.1223646E+00
         -2   -1    0    0    0  501 -0.00000000000E+00  0.00000000000E+00  0.25990388747E+02  0.25990388747E+02  0.00000000000E+00 0.  1.
          2   -1    0    0  501    0  0.00000000000E+00 -0.00000000000E+00 -0.10283918412E+04  0.10283918412E+04  0.00000000000E+00 0. -1.
         23    2    1    2    0    0 -0.10017798014E+03  0.43063436168E+02 -0.66597891381E+03  0.67934115456E+03  0.78015404854E+02 0.  0.
          5    1    1    2  502    0  0.39289478441E+02  0.20638872051E+02 -0.24099212507E+03  0.24508019688E+03  0.41800000000E+01 0.  1.
         -5    1    1    2    0  502  0.60888501702E+02 -0.63702308219E+02 -0.95430413610E+02  0.12996087855E+03  0.41800000000E+01 0.  1.
        -11    1    3    3    0    0  0.28864444606E+01  0.28114368432E+02 -0.10280381589E+03  0.10661788704E+03  0.00000000000E+00 0.  1.
         11    1    3    3    0    0 -0.10306442460E+03  0.14949067736E+02 -0.56317509792E+03  0.57272326752E+03  0.00000000000E+00 0. -1.
</event>
<event>
 8    1  0.3528896E-009  0.1198769E+03  0.7561462E-02  0.1243300E+00
          2   -1    0    0  501    0  0.00000000000E+00  0.00000000000E+00  0.59252912313E+02  0.59252912313E+02  0.00000000000E+00 0.  1.
         -2   -1    0    0    0  501 -0.00000000000E+00 -0.00000000000E+00 -0.33671250489E+03  0.33671250489E+03  0.00000000000E+00 0. -1.
         25    2    1    2    0    0  0.31531762116E+02 -0.82415780606E+02 -0.18350630964E+03  0.23897391880E+03  0.12508938913E+03 0.  0.
         23    2    1    2    0    0 -0.31531762116E+02  0.82415780606E+02 -0.93953282942E+02  0.15699149841E+03  0.89624205896E+02 0.  0.
          5    1    3    3  502    0 -0.19448751237E+02  0.25150997824E+02 -0.55689088564E+02  0.64261758468E+02  0.41800000000E+01 0.  1.
         -5    1    3    3    0  502  0.50980513352E+02 -0.10756677843E+03 -0.12781722107E+03  0.17471216033E+03  0.41800000000E+01 0.  1.
        -11    1    4    4    0    0 -0.21352236785E+02  0.45123125076E+02 -0.10544315061E+03  0.11666307231E+03  0.00000000000E+00 0. -1.
         11    1    4    4    0    0 -0.10179525331E+02  0.37292655530E+02  0.11489867663E+02  0.40328426096E+02  0.00000000000E+00 0.  1.
</event>
<event>
 8    1  0.3528896E-009  0.1138176E+03  0.7561462E-02  0.1253659E+00
          2   -1    0    0  501    0  0.00000000000E+00  0.00000000000E+00  0.53410488556E+02  0.53410488556E+02  0.00000000000E+00 0. -1.
         -2   -1    0    0    0  501 -0.00000000000E+00 -0.00000000000E+00 -0.38911060131E+03  0.38911060131E+03  0.00000000000E+00 0.  1.
         25    2    1    2    0    0  0.11211539631E+02  0.85856610761E+02 -0.24600153508E+03  0.28924458774E+03  0.12509444449E+03 0.  0.
         23    2    1    2    0    0 -0.11211539631E+02 -0.85856610761E+02 -0.89698577673E+02  0.15327650213E+03  0.89167230727E+02 0.  0.
          5    1    3    3  502    0  0.14738233067E+02 -0.35909537609E+01 -0.17284895834E+03  0.17356366343E+03  0.41800000000E+01 0. -1.
         -5    1    3    3    0  502 -0.35266934358E+01  0.89447564522E+02 -0.73152576738E+02  0.11568092431E+03  0.41800000000E+01 0. -1.
        -11    1    4    4    0    0  0.37416556508E+02 -0.28155614144E+02 -0.48020244268E+02  0.67072208613E+02  0.00000000000E+00 0.  1.
         11    1    4    4    0    0 -0.48628096139E+02 -0.57700996617E+02 -0.41678333405E+02  0.86204293513E+02  0.00000000000E+00 0. -1.
</event>
<event>
 8    1  0.3528896E-009  0.1790442E+03  0.7561462E-02  0.1168731E+00
          1   -1    0    0  501    0  0.00000000000E+00  0.00000000000E+00  0.10304951171E+03  0.10304951171E+03  0.00000000000E+00 0. -1.
         -1   -1    0    0    0  501 -0.00000000000E+00 -0.00000000000E+00 -0.60333293404E+03  0.60333293404E+03  0.00000000000E+00 0.  1.
         25    2    1    2    0    0 -0.14255425740E+03 -0.35974796010E+02 -0.49533944785E+03  0.53163253065E+03  0.12512424546E+03 0.  0.
         23    2    1    2    0    0  0.14255425740E+03  0.35974796010E+02 -0.49439744854E+01  0.17474991509E+03  0.94324904937E+02 0.  0.
          5    1    3    3  502    0 -0.40265511226E+01 -0.52397429143E+02 -0.15804922423E+03  0.16660952367E+03  0.41800000000E+01 0.  1.
         -5    1    3    3    0  502 -0.13852770627E+03  0.16422633133E+02 -0.33729022362E+03  0.36502300699E+03  0.41800000000E+01 0.  1.
        -11    1    4    4    0    0  0.14655499797E+03  0.18305759757E+02 -0.22647083241E+02  0.14942007445E+03  0.00000000000E+00 0.  1.
         11    1    4    4    0    0 -0.40007405730E+01  0.17669036253E+02  0.17703108756E+02  0.25329840640E+02  0.00000000000E+00 0. -1.
</event>
<event>
 8    1  0.3528896E-009  0.9907166E+02  0.7561462E-02  0.1282260E+00
          1   -1    0    0  501    0  0.00000000000E+00  0.00000000000E+00  0.21162375349E+03  0.21162375349E+03  0.00000000000E+00 0. -1.
         -1   -1    0    0    0  501 -0.00000000000E+00 -0.00000000000E+00 -0.69875830293E+02  0.69875830293E+02  0.00000000000E+00 0.  1.
         25    2    1    2    0    0  0.31010186456E+02  0.23181817966E+01  0.26823339810E+02  0.13166033677E+03  0.12509175468E+03 0.  0.
         23    2    1    2    0    0 -0.31010186456E+02 -0.23181817966E+01  0.11492458339E+03  0.14983924702E+03  0.90978758230E+02 0.  0.
          5    1    3    3  502    0 -0.18013524021E+02  0.48541489611E+02  0.36466193526E+02  0.63466675756E+02  0.41800000000E+01 0.  1.
         -5    1    3    3    0  502  0.49023710477E+02 -0.46223307814E+02 -0.96428537162E+01  0.68193661010E+02  0.41800000000E+01 0.  1.
        -11    1    4    4    0    0 -0.54569152006E+02  0.25698121466E+01  0.31600713589E+02  0.63111024270E+02  0.00000000000E+00 0.  1.
         11    1    4    4    0    0  0.23558965550E+02 -0.48879939432E+01  0.83323869802E+02  0.86728222750E+02  0.00000000000E+00 0. -1.
</event>
<event>
 8    1  0.3528896E-009  0.2862331E+03  0.7561462E-02  0.1092332E+00
          2   -1    0    0  501    0  0.00000000000E+00  0.00000000000E+00  0.18133055131E+04  0.18133055131E+04  0.00000000000E+00 0. -1.
         -2   -1    0    0    0  501 -0.00000000000E+00 -0.00000000000E+00 -0.60415276420E+02  0.60415276420E+02  0.00000000000E+00 0.  1.
         25    2    1    2    0    0 -0.24848457326E+03  0.12699278453E+03  0.49283488062E+03  0.58000525354E+03  0.12509246221E+03 0.  0.
         23    2    1    2    0    0  0.24848457326E+03 -0.12699278453E+03  0.12600553560E+04  0.12937155359E+04  0.89936851389E+02 0.  0.
          5    1    3    3  502    0 -0.20018638983E+03  0.10678852068E+03  0.27807820175E+03  0.35891968114E+03  0.41800000000E+01 0. -1.
         -5    1    3    3    0  502 -0.48298183425E+02  0.20204263846E+02  0.21475667887E+03  0.22108557239E+03  0.41800000000E+01 0. -1.
        -11    1    4    4    0    0  0.21840500680E+03 -0.71346711325E+02  0.10058205271E+04  0.10317296317E+04  0.00000000000E+00 0. -1.
         11    1    4    4    0    0  0.30079566461E+02 -0.55646073206E+02  0.25423482892E+03  0.26198590423E+03  0.00000000000E+00 0.  1.
</event>
<event>
 8    1  0.3528896E-009  0.1021008E+03  0.7561462E-02  0.1275939E+00
         -2   -1    0    0    0  501 -0.00000000000E+00  0.00000000000E+00  0.10370721558E+02  0.10370721558E+02  0.00000000000E+00 0.  1.
          2   -1    0    0  501    0  0.00000000000E+00 -0.00000000000E+00 -0.17624703510E+04  0.17624703510E+04  0.00000000000E+00 0. -1.
         25    2    1    2    0    0 -0.11695728071E+02  0.22973669453E+02 -0.14606219816E+04  0.14661949326E+04  0.12508568180E+03 0.  0.
         23    2    1    2    0    0  0.11695728071E+02 -0.22973669453E+02 -0.29147764788E+03  0.30664613997E+03  0.91695454630E+02 0.  0.
          5    1    3    3  502    0 -0.11241797961E+02  0.72872632301E+02 -0.10363181229E+04  0.10389463522E+04  0.41800000000E+01 0.  1.
         -5    1    3    3    0  502 -0.45393010926E+00 -0.49898962848E+02 -0.42430385869E+03  0.42724858039E+03  0.41800000000E+01 0.  1.
        -11    1    4    4    0    0  0.43013164796E+02 -0.29777919771E+01 -0.71051735237E+02  0.83110460659E+02  0.00000000000E+00 0.  1.
         11    1    4    4    0    0 -0.31317436725E+02 -0.19995877476E+02 -0.22042591265E+03  0.22353567931E+03  0.00000000000E+00 0. -1.
</event>
<event>
 8    1  0.3528896E-009  0.8063792E+02  0.7561462E-02  0.1327251E+00
          1   -1    0    0  501    0  0.00000000000E+00  0.00000000000E+00  0.45279127677E+03  0.45279127677E+03  0.00000000000E+00 0.  1.
         -1   -1    0    0    0  501 -0.00000000000E+00 -0.00000000000E+00 -0.27246515355E+02  0.27246515355E+02  0.00000000000E+00 0. -1.
         25    2    1    2    0    0  0.43606965025E+01  0.10577648689E+02  0.29584337963E+03  0.32140892979E+03  0.12509793183E+03 0.  0.
         23    2    1    2    0    0 -0.43606965025E+01 -0.10577648689E+02  0.12970138178E+03  0.15862886234E+03  0.90607754659E+02 0.  0.
          5    1    3    3  502    0  0.39605747680E+02  0.41367009049E+02  0.24718814622E+03  0.25377016514E+03  0.41800000000E+01 0.  1.
         -5    1    3    3    0  502 -0.35245051177E+02 -0.30789360360E+02  0.48655233416E+02  0.67638764644E+02  0.41800000000E+01 0.  1.
        -11    1    4    4    0    0 -0.26166141129E+02 -0.20177759229E+02  0.13067098112E+03  0.13478395385E+03  0.00000000000E+00 0.  1.
         11    1    4    4    0    0  0.21805444627E+02  0.96001105397E+01 -0.96959933877E+00  0.23844908484E+02  0.00000000000E+00 0. -1.
</event>
<event>
 8    1  0.3528896E-009  0.1516747E+03  0.7561462E-02  0.1198430E+00
         -1   -1    0    0    0  501 -0.00000000000E+00  0.00000000000E+00  0.41569835800E+02  0.41569835800E+02  0.00000000000E+00 0.  1.
          1   -1    0    0  501    0  0.00000000000E+00 -0.00000000000E+00 -0.59752208897E+03  0.59752208897E+03  0.00000000000E+00 0. -1.
         25    2    1    2    0    0  0.42729439630E+02  0.98753261699E+02 -0.38507378700E+03  0.41893613613E+03  0.12509057925E+03 0.  0.
         23    2    1    2    0    0 -0.42729439630E+02 -0.98753261699E+02 -0.17087846617E+03  0.22015578864E+03  0.87698970130E+02 0.  0.
          5    1    3    3  502    0  0.47696732957E+02  0.12714554988E+03 -0.31923644587E+03  0.34694430383E+03  0.41800000000E+01 0.  1.
         -5    1    3    3    0  502 -0.49672933273E+01 -0.28392288183E+02 -0.65837341127E+02  0.71991832300E+02  0.41800000000E+01 0.  1.
        -11    1    4    4    0    0  0.23621649595E+02 -0.60909860819E+01 -0.23714791604E+02  0.34021666359E+02  0.00000000000E+00 0. -1.
         11    1    4    4    0    0 -0.66351089225E+02 -0.92662275617E+02 -0.14716367457E+03  0.18613412228E+03  0.00000000000E+00 0.  1.
</event>
<event>
 8    1  0.3528896E-009  0.1879326E+03  0.7561462E-02  0.1160339E+00
         -3   -1    0    0    0  501 -0.00000000000E+00  0.00000000000E+00  0.14766422788E+03  0.14766422788E+03  0.00000000000E+00 0.  1.
          3   -1    0    0  501    0  0.00000000000E+00 -0.00000000000E+00 -0.29587192452E+03  0.29587192452E+03  0.00000000000E+00 0. -1.
         25    2    1    2    0    0  0.92849189424E+02 -0.12564583629E+03 -0.16063915683E+03  0.25663308832E+03  0.12509098752E+03 0.  0.
         23    2    1    2    0    0 -0.92849189424E+02  0.12564583629E+03  0.12431460193E+02  0.18690306408E+03  0.10183499401E+03 0.  0.
          5    1    3    3  502    0  0.15493094118E+02  0.23431955815E+02 -0.76609357993E+01  0.29415214703E+02  0.41800000000E+01 0.  1.
         -5    1    3    3    0  502  0.77356095306E+02 -0.14907779211E+03 -0.15297822103E+03  0.22721787362E+03  0.41800000000E+01 0.  1.
        -11    1    4    4    0    0  0.14457729346E+02  0.30630178455E+00  0.16388366432E+02  0.21856310598E+02  0.00000000000E+00 0.  1.
         11    1    4    4    0    0 -0.10730691877E+03  0.12533953451E+03 -0.39569062395E+01  0.16504675348E+03  0.00000000000E+00 0. -1.
</event>
<event>
 8    1  0.3528896E-009  0.1586749E+03  0.7561462E-02  0.1190201E+00
          2   -1    0    0  501    0  0.00000000000E+00  0.00000000000E+00  0.48832244301E+03  0.48832244301E+03  0.00000000000E+00 0. -1.
         -2   -1    0    0    0  501 -0.00000000000E+00 -0.00000000000E+00 -0.70579480134E+02  0.70579480134E+02  0.00000000000E+00 0.  1.
         25    2    1    2    0    0  0.58914518025E+02 -0.13081580135E+03  0.18946878547E+03  0.26857195406E+03  0.12509508195E+03 0.  0.
         23    2    1    2    0    0 -0.58914518025E+02  0.13081580135E+03  0.22827417741E+03  0.29032996908E+03  0.10769724489E+03 0.  0.
          5    1    3    3  502    0  0.43091674735E+02 -0.13795582388E+03  0.20078816805E+03  0.24743092491E+03  0.41800000000E+01 0.  1.
         -5    1    3    3    0  502  0.15822843290E+02  0.71400225363E+01 -0.11319382581E+02  0.21141029152E+02  0.41800000000E+01 0.  1.
        -11    1    4    4    0    0 -0.70908474005E+02  0.10975522869E+03  0.23154800173E+03  0.26587346429E+03  0.00000000000E+00 0. -1.
         11    1    4    4    0    0  0.11993955980E+02  0.21060572660E+02 -0.32738243169E+01  0.24456504788E+02  0.00000000000E+00 0.  1.
</event>
<event>
 8    1  0.3528896E-009  0.1894501E+03  0.7561462E-02  0.1158958E+00
          1   -1    0    0  501    0  0.00000000000E+00  0.00000000000E+00  0.11326715507E+04  0.11326715507E+04  0.00000000000E+00 0. -1.
         -1   -1    0    0    0  501 -0.00000000000E+00 -0.00000000000E+00 -0.50597960914E+02  0.50597960914E+02  0.00000000000E+00 0.  1.
         25    2    1    2    0    0  0.15885650611E+03 -0.56331076272E+02  0.88876850401E+03  0.91321751642E+03  0.12509276112E+03 0.  0.
         23    2    1    2    0    0 -0.15885650611E+03  0.56331076272E+02  0.19330508580E+03  0.27005199522E+03  0.84573306884E+02 0.  0.
          5    1    3    3  502    0  0.71468408422E+02  0.37472735998E+02  0.38360685616E+03  0.39202503981E+03  0.41800000000E+01 0. -1.
         -5    1    3    3    0  502  0.87388097692E+02 -0.93803812269E+02  0.50516164785E+03  0.52119247661E+03  0.41800000000E+01 0. -1.
        -11    1    4    4    0    0 -0.51111271957E+02  0.28596881429E+02  0.12869440469E+03  0.14139446081E+03  0.00000000000E+00 0. -1.
         11    1    4    4    0    0 -0.10774523416E+03  0.27734194843E+02  0.64610681107E+02  0.12865753441E+03  0.00000000000E+00 0.  1.
</event>
<event>
 8    1  0.3528896E-009  0.7548771E+02  0.7561462E-02  0.1342367E+00
         -1   -1    0    0    0  501 -0.00000000000E+00  0.00000000000E+00  0.10991320617E+03  0.10991320617E+03  0.00000000000E+00 0.  1.
          1   -1    0    0  501    0  0.00000000000E+00 -0.00000000000E+00 -0.11483834044E+03  0.11483834044E+03  0.00000000000E+00 0. -1.
         25    2    1    2    0    0 -0.22896087717E+01  0.26943415935E+02  0.74558513623E+01  0.12819527733E+03  0.12508896610E+03 0.  0.
         23    2    1    2    0    0  0.22896087717E+01 -0.26943415935E+02 -0.12380985630E+02  0.96556269275E+02  0.91862039824E+02 0.  0.
          5    1    3    3  502    0 -0.33140201164E+02  0.12234600770E+02  0.57401852583E+02  0.67530759429E+02  0.41800000000E+01 0. -1.
         -5    1    3    3    0  502  0.30850592392E+02  0.14708815165E+02 -0.49946001221E+02  0.60664517903E+02  0.41800000000E+01 0. -1.
        -11    1    4    4    0    0 -0.30971347855E+02 -0.35011969739E+02  0.18678627217E+02  0.50338390197E+02  0.00000000000E+00 0.  1.
         11    1    4    4    0    0  0.33260956627E+02  0.80685538042E+01 -0.31059612847E+02  0.46217879078E+02  0.00000000000E+00 0. -1.
</event>
<event>
 8    1  0.3528896E-009  0.1363722E+03  0.7561462E-02  0.1218296E+00
         -2   -1    0    0    0  501 -0.00000000000E+00  0.00000000000E+00  0.55793134804E+02  0.55793134804E+02  0.00000000000E+00 0. -1.
          2   -1    0    0  501    0  0.00000000000E+00 -0.00000000000E+00 -0.43696808192E+03  0.43696808192E+03  0.00000000000E+00 0.  1.
         25    2    1    2    0    0  0.11038271441E+03  0.19240535507E+02 -0.20952427112E+03  0.26851975284E+03  0.12509154899E+03 0.  0.
         23    2    1    2    0    0 -0.11038271441E+03 -0.19240535507E+02 -0.17165067600E+03  0.22424146389E+03  0.90916102590E+02 0.  0.
          5    1    3    3  502    0 -0.10260209769E+02  0.53697972262E+01 -0.11210563440E+03  0.11277966258E+03  0.41800000000E+01 0. -1.
         -5    1    3    3    0  502  0.12064292417E+03  0.13870738281E+02 -0.97418636720E+02  0.15574009026E+03  0.41800000000E+01 0. -1.
        -11    1    4    4    0    0 -0.19114598560E+02  0.29731864961E+02 -0.73451282725E+02  0.81513450461E+02  0.00000000000E+00 0.  1.
         11    1    4    4    0    0 -0.91268115846E+02 -0.48972400468E+02 -0.98199393272E+02  0.14272801343E+03  0.00000000000E+00 0. -1.
</event>
<event>
 8    1  0.3528896E-009  0.1766252E+03  0.7561462E-02  0.1171110E+00
         -2   -1    0    0    0  501 -0.00000000000E+00  0.00000000000E+00  0.52221157377E+02  0.52221157377E+02  0.00000000000E+00 0.  1.
          2   -1    0    0  501    0  0.00000000000E+00 -0.00000000000E+00 -0.68617360007E+03  0.68617360007E+03  0.00000000000E+00 0. -1.
         25    2    1    2    0    0  0.93478932424E+02  0.12210493824E+03 -0.31261762827E+03  0.37016962926E+03  0.12509135130E+03 0.  0.
         23    2    1    2    0    0 -0.93478932424E+02 -0.12210493824E+03 -0.32133481442E+03  0.36822512819E+03  0.93197399756E+02 0.  0.
          5    1    3    3  502    0  0.10059332103E+03  0.68541719915E+02 -0.28370568298E+03  0.30874483082E+03  0.41800000000E+01 0. -1.
         -5    1    3    3    0  502 -0.71143886030E+01  0.53563218325E+02 -0.28911945295E+02  0.61424798439E+02  0.41800000000E+01 0. -1.
        -11    1    4    4    0    0  0.17367822943E+01 -0.67448341394E+02 -0.93323858177E+02  0.11515918407E+03  0.00000000000E+00 0.  1.
         11    1    4    4    0    0 -0.95215714718E+02 -0.54656596847E+02 -0.22801095624E+03  0.25306594412E+03  0.00000000000E+00 0. -1.
</event>
<event>
 8    1  0.3528896E-009  0.9819069E+02  0.7561462E-02  0.1284147E+00
         -3   -1    0    0    0  501 -0.00000000000E+00  0.00000000000E+00  0.31071126118E+03  0.31071126118E+03  0.00000000000E+00 0.  1.
          3   -1    0    0  501    0  0.00000000000E+00 -0.00000000000E+00 -0.62191273945E+02  0.62191273945E+02  0.00000000000E+00 0. -1.
         25    2    1    2    0    0 -0.35513728827E+02  0.40722473613E+02  0.47314404525E+02  0.14424012880E+03  0.12508803735E+03 0.  0.
         23    2    1    2    0    0  0.35513728827E+02 -0.40722473613E+02  0.20120558271E+03  0.22866240633E+03  0.94251073000E+02 0.  0.
          5    1    3    3  502    0  0.40422729967E+02 -0.10665242035E+02  0.24736012545E+01  0.42087237837E+02  0.41800000000E+01 0. -1.
         -5    1    3    3    0  502 -0.75936458793E+02  0.51387715648E+02  0.44840803270E+02  0.10215289096E+03  0.41800000000E+01 0. -1.
        -11    1    4    4    0    0 -0.13014244853E+01 -0.20571242884E+02 -0.24224654901E+01  0.20754230377E+02  0.00000000000E+00 0. -1.
         11    1    4    4    0    0  0.36815153312E+02 -0.20151230729E+02  0.20362804820E+03  0.20790817595E+03  0.00000000000E+00 0.  1.
</event>
<event>
 8    1  0.3528896E-009  0.1206789E+03  0.7561462E-02  0.1241981E+00
         -2   -1    0    0    0  501 -0.00000000000E+00  0.00000000000E+00  0.40072883810E+02  0.40072883810E+02  0.00000000000E+00 0.  1.
          2   -1    0    0  501    0  0.00000000000E+00 -0.00000000000E+00 -0.37011452952E+03  0.37011452952E+03  0.00000000000E+00 0. -1.
         25    2    1    2    0    0 -0.51449157986E+02 -0.17208089803E+02 -0.16862610388E+03  0.21685348587E+03  0.12509011636E+03 0.  0.
         23    2    1    2    0    0  0.51449157986E+02  0.17208089803E+02 -0.16141554184E+03  0.19333392747E+03  0.91541772717E+02 0.  0.
          5    1    3    3  502    0  0.24614702384E+02 -0.46944861458E+02 -0.51655256452E+02  0.74131245166E+02  0.41800000000E+01 0.  1.
         -5    1    3    3    0  502 -0.76063860370E+02  0.29736771655E+02 -0.11697084743E+03  0.14272224070E+03  0.41800000000E+01 0.  1.
        -11    1    4    4    0    0  0.36399863416E+02 -0.35951418847E+02 -0.77589099206E+02  0.92938274620E+02  0.00000000000E+00 0.  1.
         11    1    4    4    0    0  0.15049294570E+02  0.53159508650E+02 -0.83826442629E+02  0.10039565285E+03  0.00000000000E+00 0. -1.
</event>
<event>
 8    1  0.3528896E-009  0.3397414E+03  0.7561462E-02  0.1066906E+00
          1   -1    0    0  501    0  0.00000000000E+00  0.00000000000E+00  0.59202736007E+03  0.59202736007E+03  0.00000000000E+00 0. -1.
         -1   -1    0    0    0  501 -0.00000000000E+00 -0.00000000000E+00 -0.23579033249E+03  0.23579033249E+03  0.00000000000E+00 0.  1.
         25    2    1    2    0    0 -0.32606221634E+03 -0.64392745345E+02  0.32564181326E+03  0.48182069599E+03  0.12508236472E+03 0.  0.
         23    2    1    2    0    0  0.32606221634E+03  0.64392745345E+02  0.30595214324E+02  0.34599699657E+03  0.91185853748E+02 0.  0.
          5    1    3    3  502    0 -0.77496435909E+02  0.25721494965E+02  0.12720611529E+03  0.15121561113E+03  0.41800000000E+01 0. -1.
         -5    1    3    3    0  502 -0.24856578043E+03 -0.90114240310E+02  0.19843569797E+03  0.33060508486E+03  0.41800000000E+01 0. -1.
        -11    1    4    4    0    0  0.30910690098E+03  0.55170906538E+02  0.51170878130E+01  0.31403358060E+03  0.00000000000E+00 0.  1.
         11    1    4    4    0    0  0.16955315359E+02  0.92218388069E+01  0.25478126511E+02  0.31963415969E+02  0.00000000000E+00 0. -1.
</event>
<event>
 8    1  0.3528896E-009  0.9865775E+02  0.7561462E-02  0.1283144E+00
         -2   -1    0    0    0  501 -0.00000000000E+00  0.00000000000E+00  0.15321966174E+02  0.15321966174E+02  0.00000000000E+00 0.  1.
          2   -1    0    0  501    0  0.00000000000E+00 -0.00000000000E+00 -0.76024511290E+03  0.76024511290E+03  0.00000000000E+00 0. -1.
         25    2    1    2    0    0 -0.10882282926E+02 -0.11383255203E+02 -0.43073406472E+03  0.44880648960E+03  0.12508967991E+03 0.  0.
         23    2    1    2    0    0  0.10882282926E+02  0.11383255203E+02 -0.31418908201E+03  0.32676058948E+03  0.88372512688E+02 0.  0.
          5    1    3    3  502    0 -0.32247627278E+02  0.44408111991E+02 -0.30000840352E+03  0.30501558069E+03  0.41800000000E+01 0.  1.
         -5    1    3    3    0  502  0.21365344352E+02 -0.55791367193E+02 -0.13072566119E+03  0.14379090892E+03  0.41800000000E+01 0.  1.
        -11    1    4    4    0    0 -0.29393885803E+02 -0.16207600519E+02 -0.19651661653E+03  0.19936265299E+03  0.00000000000E+00 0. -1.
         11    1    4    4    0    0  0.40276168729E+02  0.27590855722E+02 -0.11767246548E+03  0.12739793648E+03  0.00000000000E+00 0.  1.
</event>
<event>
 8    1  0.3528896E-009  0.2032867E+03  0.7561462E-02  0.1146995E+00
         -2   -1    0    0    0  501 -0.00000000000E+00  0.00000000000E+00  0.81446246801E+02  0.81446246801E+02  0.00000000000E+00 0.  1.
          2   -1    0    0  501    0  0.00000000000E+00 -0.00000000000E+00 -0.62682580087E+03  0.62682580087E+03  0.00000000000E+00 0. -1.
         25    2    1    2    0    0  0.86957117049E+01  0.18369819719E+03 -0.16898590117E+03  0.27932861306E+03  0.12509035226E+03 0.  0.
         23    2    1    2    0    0 -0.86957117049E+01 -0.18369819719E+03 -0.37639365289E+03  0.42894343461E+03  0.92193519842E+02 0.  0.
          5    1    3    3  502    0 -0.48071781322E+02  0.11244450222E+03 -0.57226883168E+02  0.13508164492E+03  0.41800000000E+01 0.  1.
         -5    1    3    3    0  502  0.56767493027E+02  0.71253694971E+02 -0.11175901800E+03  0.14424696814E+03  0.41800000000E+01 0.  1.
        -11    1    4    4    0    0 -0.17017573583E+02 -0.11326788733E+02 -0.76704058350E+01  0.21834126484E+02  0.00000000000E+00 0.  1.
         11    1    4    4    0    0  0.83218618783E+01 -0.17237140846E+03 -0.36872324706E+03  0.40710930812E+03  0.00000000000E+00 0. -1.
</event>
<event>
 8    1  0.3528896E-009  0.1277010E+03  0.7561462E-02  0.1230907E+00
         -1   -1    0    0    0  501 -0.00000000000E+00  0.00000000000E+00  0.50113103316E+02  0.50113103316E+02  0.00000000000E+00 0.  1.
          1   -1    0    0  501    0  0.00000000000E+00 -0.00000000000E+00 -0.42386071467E+03  0.42386071467E+03  0.00000000000E+00 0. -1.
         25    2    1    2    0    0 -0.35021728360E+01  0.96611632286E+02 -0.19390024948E+03  0.25018262819E+03  0.12509183823E+03 0.  0.
         23    2    1    2    0    0  0.35021728360E+01 -0.96611632286E+02 -0.17984736187E+03  0.22379118979E+03  0.91604314033E+02 0.  0.
          5    1    3    3  502    0  0.34358647394E+02  0.14798063021E+02 -0.15046237173E+01  0.37672743627E+02  0.41800000000E+01 0. -1.
         -5    1    3    3    0  502 -0.37860820230E+02  0.81813569266E+02 -0.19239562576E+03  0.21250988457E+03  0.41800000000E+01 0. -1.
        -11    1    4    4    0    0 -0.38726997498E+02 -0.31567258652E+02 -0.40491790356E+02  0.64310630849E+02  0.00000000000E+00 0.  1.
         11    1    4    4    0    0  0.42229170334E+02 -0.65044373634E+02 -0.13935557152E+03  0.15948055894E+03  0.00000000000E+00 0. -1.
</event>
<event>
 8    1  0.3528896E-009  0.6221921E+02  0.7561462E-02  0.1388748E+00
          3   -1    0    0  501    0  0.00000000000E+00  0.00000000000E+00  0.28148714730E+03  0.28148714730E+03  0.00000000000E+00 0. -1.
         -3   -1    0    0    0  501 -0.00000000000E+00 -0.00000000000E+00 -0.47289716135E+02  0.47289716135E+02  0.00000000000E+00 0.  1.
         25    2    1    2    0    0 -0.15506935800E+02  0.21719495225E+02  0.17831623975E+03  0.21944628859E+03  0.12509112952E+03 0.  0.
         23    2    1    2    0    0  0.15506935800E+02 -0.21719495225E+02  0.55881191412E+02  0.10933057485E+03  0.90101417924E+02 0.  0.
          5    1    3    3  502    0 -0.32860943559E+02 -0.51146826327E+01 -0.44927946907E+01  0.33818030608E+02  0.41800000000E+01 0. -1.
         -5    1    3    3    0  502  0.17354007759E+02  0.26834177858E+02  0.18280903444E+03  0.18562825798E+03  0.41800000000E+01 0. -1.
        -11    1    4    4    0    0 -0.15974984465E+02 -0.22024144594E+02  0.69794273853E+02  0.74909970874E+02  0.00000000000E+00 0. -1.
         11    1    4    4    0    0  0.31481920265E+02  0.30464936902E+00 -0.13913082441E+02  0.34420603972E+02  0.00000000000E+00 0.  1.
</event>
<event>
 8    1  0.3528896E-009  0.1324424E+03  0.7561462E-02  0.1223876E+00
          1   -1    0    0  501    0  0.00000000000E+00  0.00000000000E+00  0.45504979455E+03  0.45504979455E+03  0.00000000000E+00 0. -1.
         -1   -1    0    0    0  501 -0.00000000000E+00 -0.00000000000E+00 -0.51017451095E+02  0.51017451095E+02  0.00000000000E+00 0.  1.
         25    2    1    2    0    0 -0.92964084756E+02 -0.31094260120E+02  0.29386522010E+03  0.33408800099E+03  0.12509536663E+03 0.  0.
         23    2    1    2    0    0  0.92964084756E+02  0.31094260120E+02  0.11016712335E+03  0.17197924465E+03  0.88492324285E+02 0.  0.
          5    1    3    3  502    0  0.12987400562E+02 -0.49303362530E+02  0.87282529925E+02  0.10116919769E+03  0.41800000000E+01 0. -1.
         -5    1    3    3    0  502 -0.10595148532E+03  0.18209102410E+02  0.20658269018E+03  0.23291880331E+03  0.41800000000E+01 0. -1.
        -11    1    4    4    0    0  0.74037408682E+01 -0.89997092205E+01  0.67159810531E+02  0.68163408773E+02  0.00000000000E+00 0. -1.
         11    1    4    4    0    0  0.85560343888E+02  0.40093969341E+02  0.43007312818E+02  0.10381583588E+03  0.00000000000E+00 0.  1.
</event>
<event>
 8    1  0.3528896E-009  0.1082082E+03  0.7561462E-02  0.1263924E+00
         -2   -1    0    0    0  501 -0.00000000000E+00  0.00000000000E+00  0.16427672566E+03  0.16427672566E+03  0.00000000000E+00 0.  1.
          2   -1    0    0  501    0  0.00000000000E+00 -0.00000000000E+00 -0.76750091323E+02  0.76750091323E+02  0.00000000000E+00 0. -1.
         25    2    1    2    0    0  0.12913118069E+02  0.25188476860E+02  0.48689046175E+02  0.13718489235E+03  0.12509142051E+03 0.  0.
         23    2    1    2    0    0 -0.12913118069E+02 -0.25188476860E+02  0.38837588159E+02  0.10384192463E+03  0.92052045456E+02 0.  0.
          5    1    3    3  502    0  0.83213239098E+01 -0.49764537665E+02  0.32771411730E+02  0.60309132537E+02  0.41800000000E+01 0.  1.
         -5    1    3    3    0  502  0.45917941592E+01  0.74953014525E+02  0.15917634444E+02  0.76875759809E+02  0.41800000000E+01 0.  1.
        -11    1    4    4    0    0  0.35832892586E+02 -0.27306033353E+00 -0.14622853522E+01  0.35863756516E+02  0.00000000000E+00 0. -1.
         11    1    4    4    0    0 -0.48746010655E+02 -0.24915416527E+02  0.40299873512E+02  0.67978168117E+02  0.00000000000E+00 0.  1.
</event>
<event>
 8    1  0.3528896E-009  0.1161943E+03  0.7561462E-02  0.1249511E+00
          1   -1    0    0  501    0  0.00000000000E+00  0.00000000000E+00  0.18983333200E+03  0.18983333200E+03  0.00000000000E+00 0. -1.
         -1   -1    0    0    0  501 -0.00000000000E+00 -0.00000000000E+00 -0.91284690936E+02  0.91284690936E+02  0.00000000000E+00 0.  1.
         25    2    1    2    0    0  0.67664298019E+02  0.19870498562E+02  0.27751343476E+02  0.14626758029E+03  0.12510305367E+03 0.  0.
         23    2    1    2    0    0 -0.67664298019E+02 -0.19870498562E+02  0.70797297584E+02  0.13485044265E+03  0.90548829903E+02 0.  0.
          5    1    3    3  502    0  0.89055641050E+02  0.46056024825E+02 -0.29717709908E+01  0.10039107753E+03  0.41800000000E+01 0. -1.
         -5    1    3    3    0  502 -0.21391343031E+02 -0.26185526262E+02  0.30723114467E+02  0.45876502753E+02  0.41800000000E+01 0. -1.
        -11    1    4    4    0    0  0.49788493778E+01 -0.24672805612E+02 -0.90951655006E+01  0.26763002697E+02  0.00000000000E+00 0.  1.
         11    1    4    4    0    0 -0.72643147397E+02  0.48023070498E+01  0.79892463084E+02  0.10808743995E+03  0.00000000000E+00 0. -1.
</event>
<event>
 8    1  0.3528896E-009  0.1102435E+03  0.7561462E-02  0.1260120E+00
         -1   -1    0    0    0  501 -0.00000000000E+00  0.00000000000E+00  0.55797919861E+02  0.55797919861E+02  0.00000000000E+00 0.  1.
          1   -1    0    0  501    0  0.00000000000E+00 -0.00000000000E+00 -0.36961690986E+03  0.36961690986E+03  0.00000000000E+00 0. -1.
         25    2    1    2    0    0 -0.96515586268E+01  0.79866400040E+02 -0.23709764480E+03  0.27988443974E+03  0.12509281353E+03 0.  0.
         23    2    1    2    0    0  0.96515586268E+01 -0.79866400040E+02 -0.76721345196E+02  0.14553038998E+03  0.93920898424E+02 0.  0.
          5    1    3    3  502    0  0.41408675503E+02  0.29446675616E+02 -0.18286843849E+03  0.18984236436E+03  0.41800000000E+01 0. -1.
         -5    1    3    3    0  502 -0.51060234130E+02  0.50419724424E+02 -0.54229206316E+02  0.90042075376E+02  0.41800000000E+01 0. -1.
        -11    1    4    4    0    0 -0.23054644620E+02 -0.27531419146E+02  0.11641890073E+02  0.37749560040E+02  0.00000000000E+00 0.  1.
         11    1    4    4    0    0  0.32706203247E+02 -0.52334980894E+02 -0.88363235270E+02  0.10778082994E+03  0.00000000000E+00 0. -1.
</event>
<event>
 8    1  0.3528896E-009  0.1285237E+03  0.7561462E-02  0.1229663E+00
         -1   -1    0    0    0  501 -0.00000000000E+00  0.00000000000E+00  0.12746664402E+03  0.12746664402E+03  0.00000000000E+00 0.  1.
          1   -1    0    0  501    0  0.00000000000E+00 -0.00000000000E+00 -0.17415761698E+03  0.17415761698E+03  0.00000000000E+00 0. -1.
         25    2    1    2    0    0 -0.22587649820E+01 -0.99038607915E+02 -0.10388871599E+01  0.15957435648E+03  0.12509655504E+03 0.  0.
         23    2    1    2    0    0  0.22587649820E+01  0.99038607915E+02 -0.45652085798E+02  0.14204990451E+03  0.90996233754E+02 0.  0.
          5    1    3    3  502    0  0.34458014872E+02 -0.76164583628E+02 -0.47266682535E+02  0.96124972125E+02  0.41800000000E+01 0.  1.
         -5    1    3    3    0  502 -0.36716779854E+02 -0.22874024287E+02  0.46227795375E+02  0.63449384356E+02  0.41800000000E+01 0.  1.
        -11    1    4    4    0    0  0.84090797644E+01  0.11368752419E+03 -0.51538194345E+02  0.12510695926E+03  0.00000000000E+00 0. -1.
         11    1    4    4    0    0 -0.61503147825E+01 -0.14648916276E+02  0.58861085467E+01  0.16942945252E+02  0.00000000000E+00 0.  1.
</event>
<event>
 8    1  0.3528896E-009  0.6814422E+02  0.7561462E-02  0.1366520E+00
          2   -1    0    0  501    0  0.00000000000E+00  0.00000000000E+00  0.40892461987E+03  0.40892461987E+03  0.00000000000E+00 0. -1.
         -2   -1    0    0    0  501 -0.00000000000E+00 -0.00000000000E+00 -0.31105156835E+02  0.31105156835E+02  0.00000000000E+00 0.  1.
         25    2    1    2    0    0  0.12261153787E+02 -0.22080810859E+02  0.27105547333E+03  0.29959205192E+03  0.12508569004E+03 0.  0.
         23    2    1    2    0    0 -0.12261153787E+02  0.22080810859E+02  0.10676398970E+03  0.14043772478E+03  0.87671585727E+02 0.  0.
          5    1    3    3  502    0  0.24003024135E+02 -0.35363975344E+02  0.19136217702E+02  0.47015137432E+02  0.41800000000E+01 0. -1.
         -5    1    3    3    0  502 -0.11741870347E+02  0.13283164486E+02  0.25191925563E+03  0.25257691449E+03  0.41800000000E+01 0. -1.
        -11    1    4    4    0    0 -0.39774387146E+01 -0.26018894719E+02  0.39354999269E+01  0.26613738197E+02  0.00000000000E+00 0.  1.
         11    1    4    4    0    0 -0.82837150726E+01  0.48099705578E+02  0.10282848978E+03  0.11382398658E+03  0.00000000000E+00 0. -1.
</event>
<event>
 8    1  0.3528896E-009  0.9270820E+02  0.7561462E-02  0.1296423E+00
          2   -1    0    0  501    0  0.00000000000E+00  0.00000000000E+00  0.37392690370E+03  0.37392690370E+03  0.00000000000E+00 0.  1.
         -2   -1    0    0    0  501 -0.00000000000E+00 -0.00000000000E+00 -0.53658848227E+02  0.53658848227E+02  0.00000000000E+00 0. -1.
         25    2    1    2    0    0  0.87078300781E+02  0.24959289895E+02  0.20490045220E+03  0.25659538876E+03  0.12510556184E+03 0.  0.
         23    2    1    2    0    0 -0.87078300781E+02 -0.24959289895E+02  0.11536760327E+03  0.17099036316E+03  0.87877322390E+02 0.  0.
          5    1    3    3  502    0  0.60227640064E+00 -0.48650059494E+00  0.15186669433E+03  0.15192618164E+03  0.41800000000E+01 0. -1.
         -5    1    3    3    0  502  0.86476024380E+02  0.25445790490E+02  0.53033757863E+02  0.10466920712E+03  0.41800000000E+01 0. -1.
        -11    1    4    4    0    0 -0.69828641302E+02 -0.23225363023E+02  0.23132251913E+02  0.77139858130E+02  0.00000000000E+00 0. -1.
         11    1    4    4    0    0 -0.17249659479E+02 -0.17339268714E+01  0.92235351357E+02  0.93850505031E+02  0.00000000000E+00 0.  1.
</event>
<event>
 8    1  0.3528896E-009  0.9429227E+02  0.7561462E-02  0.1292778E+00
          2   -1    0    0  501    0  0.00000000000E+00  0.00000000000E+00  0.10870771777E+03  0.10870771777E+03  0.00000000000E+00 0.  1.
         -2   -1    0    0    0  501 -0.00000000000E+00 -0.00000000000E+00 -0.15756085207E+03  0.15756085207E+03  0.00000000000E+00 0. -1.
         25    2    1    2    0    0  0.11401663077E+02 -0.71328049216E+02 -0.92427175082E+01  0.14474139784E+03  0.12508779275E+03 0.  0.
         23    2    1    2    0    0 -0.11401663077E+02  0.71328049216E+02 -0.39610416789E+02  0.12152717199E+03  0.89343046113E+02 0.  0.
          5    1    3    3  502    0 -0.24397160068E+02 -0.32062259567E+02 -0.59172651068E+02  0.71708332447E+02  0.41800000000E+01 0.  1.
         -5    1    3    3    0  502  0.35798823145E+02 -0.39265789649E+02  0.49929933560E+02  0.73033065392E+02  0.41800000000E+01 0.  1.
        -11    1    4    4    0    0  0.24953585640E+02  0.37993738700E+02  0.15068859770E+02  0.47888162957E+02  0.00000000000E+00 0. -1.
         11    1    4    4    0    0 -0.36355248717E+02  0.33334310516E+02 -0.54679276559E+02  0.73639009037E+02  0.00000000000E+00 0.  1.
</event>
<event>
 8    1  0.3528896E-009  0.1623128E+03  0.7561462E-02  0.1186110E+00
         -2   -1    0    0    0  501 -0.00000000000E+00  0.00000000000E+00  0.19725652054E+02  0.19725652054E+02  0.00000000000E+00 0.  1.
          2   -1    0    0  501    0  0.00000000000E+00 -0.00000000000E+00 -0.14740882395E+04  0.14740882395E+04  0.00000000000E+00 0. -1.
         25    2    1    2    0    0 -0.12471925718E+03 -0.34601451502E+02 -0.65678921080E+03  0.68100827293E+03  0.12509215330E+03 0.  0.
         23    2    1    2    0    0  0.12471925718E+03  0.34601451502E+02 -0.79757337669E+03  0.81280561867E+03  0.88190299773E+02 0.  0.
          5    1    3    3  502    0 -0.14609369152E+01  0.29113964503E+02 -0.23793099992E+03  0.23974651278E+03  0.41800000000E+01 0. -1.
         -5    1    3    3    0  502 -0.12325832027E+03 -0.63715416004E+02 -0.41885821088E+03  0.44126176015E+03  0.41800000000E+01 0. -1.
        -11    1    4    4    0    0  0.12083196967E+02 -0.25845430556E+02 -0.12832321734E+03  0.13145660135E+03  0.00000000000E+00 0.  1.
         11    1    4    4    0    0  0.11263606022E+03  0.60446882058E+02 -0.66925015935E+03  0.68134901732E+03  0.00000000000E+00 0. -1.
</event>
<event>
 8    1  0.3528896E-009  0.1080990E+03  0.7561462E-02  0.1264131E+00
          2   -1    0    0  501    0  0.00000000000E+00  0.00000000000E+00  0.47254436555E+03  0.47254436555E+03  0.00000000000E+00 0.  1.
         -2   -1    0    0    0  501 -0.00000000000E+00 -0.00000000000E+00 -0.38573516762E+02  0.38573516762E+02  0.00000000000E+00 0. -1.
         25    2    1    2    0    0  0.78077737724E+02  0.10367310532E+02  0.27648227848E+03  0.31351673768E+03  0.12508669087E+03 0.  0.
         23    2    1    2    0    0 -0.78077737724E+02 -0.10367310532E+02  0.15748857030E+03  0.19760114463E+03  0.89665758952E+02 0.  0.
          5    1    3    3  502    0 -0.18589638136E+02  0.18665515814E+02  0.15840007395E+03  0.16063010911E+03  0.41800000000E+01 0.  1.
         -5    1    3    3    0  502  0.96667375860E+02 -0.82982052814E+01  0.11808220454E+03  0.15288662857E+03  0.41800000000E+01 0.  1.
        -11    1    4    4    0    0 -0.80476980219E+02  0.13133239543E+01  0.16494655500E+03  0.18353646823E+03  0.00000000000E+00 0.  1.
         11    1    4    4    0    0  0.23992424951E+01 -0.11680634487E+02 -0.74579846957E+01  0.14064676402E+02  0.00000000000E+00 0. -1.
</event>
<event>
 8    1  0.3528896E-009  0.8700275E+02  0.7561462E-02  0.1310277E+00
         -2   -1    0    0    0  501 -0.00000000000E+00  0.00000000000E+00  0.41143052945E+02  0.41143052945E+02  0.00000000000E+00 0.  1.
          2   -1    0    0  501    0  0.00000000000E+00 -0.00000000000E+00 -0.33627451583E+03  0.33627451583E+03  0.00000000000E+00 0. -1.
         25    2    1    2    0    0 -0.27729446117E+02 -0.89750735690E+01 -0.11060748931E+03  0.16949301303E+03  0.12507753854E+03 0.  0.
         23    2    1    2    0    0  0.27729446117E+02  0.89750735690E+01 -0.18452397357E+03  0.20792455574E+03  0.91291017797E+02 0.  0.
          5    1    3    3  502    0  0.28105928654E+02 -0.18270445368E+02 -0.10746327291E+03  0.11264803515E+03  0.41800000000E+01 0. -1.
         -5    1    3    3    0  502 -0.55835374771E+02  0.92953717989E+01 -0.31442163987E+01  0.56844977874E+02  0.41800000000E+01 0. -1.
        -11    1    4    4    0    0 -0.24984103197E+02  0.16894983265E+02 -0.12242277355E+03  0.12608323186E+03  0.00000000000E+00 0. -1.
         11    1    4    4    0    0  0.52713549314E+02 -0.79199096956E+01 -0.62101200019E+02  0.81841323882E+02  0.00000000000E+00 0.  1.
</event>
<event>
 8    1  0.3528896E-009  0.1441184E+03  0.7561462E-02  0.1207892E+00
          2   -1    0    0  501    0  0.00000000000E+00  0.00000000000E+00  0.85059624617E+03  0.85059624617E+03  0.00000000000E+00 0. -1.
         -2   -1    0    0    0  501 -0.00000000000E+00 -0.00000000000E+00 -0.34917554111E+02  0.34917554111E+02  0.00000000000E+00 0.  1.
         25    2    1    2    0    0 -0.10697645047E+03 -0.24725113659E+02  0.23446998383E+03  0.28753878736E+03  0.12508832368E+03 0.  0.
         23    2    1    2    0    0  0.10697645047E+03  0.24725113659E+02  0.58120870823E+03  0.59797501292E+03  0.87836560454E+02 0.  0.
          5    1    3    3  502    0 -0.10589307058E+03  0.16142016826E+02  0.21863138452E+03  0.24349756015E+03  0.41800000000E+01 0. -1.
         -5    1    3    3    0  502 -0.10833798905E+01 -0.40867130486E+02  0.15838599308E+02  0.44041227210E+02  0.41800000000E+01 0. -1.
        -11    1    4    4    0    0  0.11621035133E+03  0.29004561167E+01  0.50282119257E+03  0.51608372393E+03  0.00000000000E+00 0.  1.
         11    1    4    4    0    0 -0.92339008594E+01  0.21824657542E+02  0.78387515656E+02  0.81891288992E+02  0.00000000000E+00 0. -1.
</event>
<event>
 8    1  0.3528896E-009  0.1253228E+03  0.7561462E-02  0.1234566E+00
         -1   -1    0    0    0  501 -0.00000000000E+00  0.00000000000E+00  0.89622093902E+01  0.89622093902E+01  0.00000000000E+00 0.  1.
          1   -1    0    0  501    0  0.00000000000E+00 -0.00000000000E+00 -0.18402048440E+04  0.18402048440E+04  0.00000000000E+00 0. -1.
         25    2    1    2    0    0 -0.53803021657E+02 -0.35012592022E+02 -0.12072900136E+04  0.12154441347E+04  0.12503847821E+03 0.  0.
         23    2    1    2    0    0  0.53803021657E+02  0.35012592022E+02 -0.62395262107E+03  0.63372291869E+03  0.90372659579E+02 0.  0.
          5    1    3    3  502    0  0.31085923051E+02 -0.45128332624E+02 -0.47646921299E+03  0.47962827726E+03  0.41800000000E+01 0. -1.
         -5    1    3    3    0  502 -0.84888944708E+02  0.10115740602E+02 -0.73082080058E+03  0.73581585747E+03  0.41800000000E+01 0. -1.
        -11    1    4    4    0    0  0.75851811554E+02  0.42331120332E+02 -0.52006626240E+03  0.52727065000E+03  0.00000000000E+00 0.  1.
         11    1    4    4    0    0 -0.22048789898E+02 -0.73185283098E+01 -0.10388635867E+03  0.10645226869E+03  0.00000000000E+00 0. -1.
</event>
<event>
 8    1  0.3528896E-009  0.1581250E+03  0.7561462E-02  0.1190830E+00
         -2   -1    0    0    0  501 -0.00000000000E+00  0.00000000000E+00  0.87341567153E+02  0.87341567153E+02  0.00000000000E+00 0. -1.
          2   -1    0    0  501    0  0.00000000000E+00 -0.00000000000E+00 -0.45914091576E+03  0.45914091576E+03  0.00000000000E+00 0.  1.
         25    2    1    2    0    0 -0.97452178846E+02  0.11678848808E+03 -0.29454006784E+03  0.35431373911E+03  0.12509155068E+03 0.  0.
         23    2    1    2    0    0  0.97452178846E+02 -0.11678848808E+03 -0.77259280772E+02  0.19216874381E+03  0.88449711818E+02 0.  0.
          5    1    3    3  502    0 -0.68775536890E+02  0.91698535027E+02 -0.88864626517E+02  0.14509682990E+03  0.41800000000E+01 0.  1.
         -5    1    3    3    0  502 -0.28676641957E+02  0.25089953053E+02 -0.20567544132E+03  0.20921690921E+03  0.41800000000E+01 0.  1.
        -11    1    4    4    0    0  0.22800667245E+02 -0.73429375804E+02 -0.72545891260E+02  0.10571021709E+03  0.00000000000E+00 0.  1.
         11    1    4    4    0    0  0.74651511602E+02 -0.43359112275E+02 -0.47133895122E+01  0.86458526719E+02  0.00000000000E+00 0. -1.
</event>
<event>
 8    1  0.3528896E-009  0.1089132E+03  0.7561462E-02  0.1262596E+00
          1   -1    0    0  501    0  0.00000000000E+00  0.00000000000E+00  0.10886232361E+04  0.10886232361E+04  0.00000000000E+00 0. -1.
         -1   -1    0    0    0  501 -0.00000000000E+00 -0.00000000000E+00 -0.19083403034E+02  0.19083403034E+02  0.00000000000E+00 0.  1.
         25    2    1    2    0    0 -0.20932558064E+02 -0.54926885917E+02  0.87116212448E+03  0.88205810275E+03  0.12509162527E+03 0.  0.
         23    2    1    2    0    0  0.20932558064E+02  0.54926885917E+02  0.19837770862E+03  0.22564853642E+03  0.90046720801E+02 0.  0.
          5    1    3    3  502    0  0.37782883579E+02 -0.17595367868E+02  0.61969791915E+03  0.62111200814E+03  0.41800000000E+01 0.  1.
         -5    1    3    3    0  502 -0.58715441644E+02 -0.37331518049E+02  0.25146420533E+03  0.26094609460E+03  0.41800000000E+01 0.  1.
        -11    1    4    4    0    0  0.55855713942E+02  0.36783353240E+02  0.14117442444E+03  0.15621489677E+03  0.00000000000E+00 0. -1.
         11    1    4    4    0    0 -0.34923155878E+02  0.18143532677E+02  0.57203284179E+02  0.69433639652E+02  0.00000000000E+00 0.  1.
</event>
<event>
 8    1  0.3528896E-009  0.8063815E+02  0.7561462E-02  0.1327250E+00
          2   -1    0    0  501    0  0.00000000000E+00  0.00000000000E+00  0.25143924020E+03  0.25143924020E+03  0.00000000000E+00 0. -1.
         -2   -1    0    0    0  501 -0.00000000000E+00 -0.00000000000E+00 -0.80295008757E+02  0.80295008757E+02  0.00000000000E+00 0.  1.
         25    2    1    2    0    0 -0.61166272853E+01 -0.45240429867E+02 -0.13174218758E+01  0.13316414622E+03  0.12508734793E+03 0.  0.
         23    2    1    2    0    0  0.61166272853E+01  0.45240429867E+02  0.17246165332E+03  0.19857010274E+03  0.87194920799E+02 0.  0.
          5    1    3    3  502    0  0.29877794074E+02 -0.46812933194E+02  0.46912779962E+02  0.72817680660E+02  0.41800000000E+01 0. -1.
         -5    1    3    3    0  502 -0.35994421360E+02  0.15725033265E+01 -0.48230201838E+02  0.60346465555E+02  0.41800000000E+01 0. -1.
        -11    1    4    4    0    0  0.28998549984E+02  0.19893137493E+02  0.16374788489E+02  0.38791577934E+02  0.00000000000E+00 0.  1.
         11    1    4    4    0    0 -0.22881922699E+02  0.25347292374E+02  0.15608686483E+03  0.15977852481E+03  0.00000000000E+00 0. -1.
</event>
<event>
 8    1  0.3528896E-009  0.7074783E+02  0.7561462E-02  0.1357568E+00
         -2   -1    0    0    0  501 -0.00000000000E+00  0.00000000000E+00  0.23210459519E+03  0.23210459519E+03  0.00000000000E+00 0.  1.
          2   -1    0    0  501    0  0.00000000000E+00 -0.00000000000E+00 -0.52389910460E+02  0.52389910460E+02  0.00000000000E+00 0. -1.
         25    2    1    2    0    0 -0.16364516566E+02 -0.20628695653E+02  0.15208462741E+03  0.19866974580E+03  0.12508634424E+03 0.  0.
         23    2    1    2    0    0  0.16364516566E+02  0.20628695653E+02  0.27630057321E+02  0.85824759850E+02  0.76870858255E+02 0.  0.
          5    1    3    3  502    0  0.38309138893E+02  0.15299986037E+01  0.12990036493E+03  0.13550464282E+03  0.41800000000E+01 0.  1.
         -5    1    3    3    0  502 -0.54673655459E+02 -0.22158694257E+02  0.22184262486E+02  0.63165102980E+02  0.41800000000E+01 0.  1.
        -11    1    4    4    0    0  0.26823889133E+02  0.19712340921E+02 -0.18794752624E+02  0.38227478847E+02  0.00000000000E+00 0. -1.
         11    1    4    4    0    0 -0.10459372567E+02  0.91635473241E+00  0.46424809944E+02  0.47597281003E+02  0.00000000000E+00 0.  1.
</event>
<event>
 8    1  0.3528896E-009  0.1032668E+03  0.7561462E-02  0.1273573E+00
         -2   -1    0    0    0  501 -0.00000000000E+00  0.00000000000E+00  0.19760126091E+02  0.19760126091E+02  0.00000000000E+00 0.  1.
          2   -1    0    0  501    0  0.00000000000E+00 -0.00000000000E+00 -0.94729871157E+03  0.94729871157E+03  0.00000000000E+00 0. -1.
         25    2    1    2    0    0  0.20384969228E+02  0.24353150585E+02 -0.69554618928E+03  0.70741719794E+03  0.12508384230E+03 0.  0.
         23    2    1    2    0    0 -0.20384969228E+02 -0.24353150585E+02 -0.23199239619E+03  0.25964163971E+03  0.11218148808E+03 0.  0.
          5    1    3    3  502    0 -0.44605253779E+02 -0.20682006377E+02 -0.23657092075E+03  0.24166225811E+03  0.41800000000E+01 0. -1.
         -5    1    3    3    0  502  0.64990223007E+02  0.45035156961E+02 -0.45897526854E+03  0.46575493983E+03  0.41800000000E+01 0. -1.
        -11    1    4    4    0    0 -0.41853074379E+02  0.44473486414E+01 -0.21644632982E+03  0.22050050440E+03  0.00000000000E+00 0. -1.
         11    1    4    4    0    0  0.21468105151E+02 -0.28800499226E+02 -0.15546066368E+02  0.39141135318E+02  0.00000000000E+00 0.  1.
</event>
<event>
 8    1  0.3528896E-009  0.1622727E+03  0.7561462E-02  0.1186154E+00
          2   -1    0    0  501    0  0.00000000000E+00  0.00000000000E+00  0.11399672883E+03  0.11399672883E+03  0.00000000000E+00 0. -1.
         -2   -1    0    0    0  501 -0.00000000000E+00 -0.00000000000E+00 -0.28018239358E+03  0.28018239358E+03  0.00000000000E+00 0.  1.
         25    2    1    2    0    0  0.10897854234E+03 -0.82172283521E+02 -0.45643176880E+02  0.19068299857E+03  0.12509236380E+03 0.  0.
         23    2    1    2    0    0 -0.10897854234E+03  0.82172283521E+02 -0.12054248787E+03  0.20349612384E+03  0.90838175703E+02 0.  0.
          5    1    3    3  502    0 -0.20462110482E+02  0.12270559869E+02 -0.77549634195E+00  0.24235065494E+02  0.41800000000E+01 0.  1.
         -5    1    3    3    0  502  0.12944065282E+03 -0.94442843390E+02 -0.44867680538E+02  0.16644793308E+03  0.41800000000E+01 0.  1.
        -11    1    4    4    0    0 -0.88955266591E+02  0.80450831079E+02 -0.49649024427E+02  0.12980909561E+03  0.00000000000E+00 0. -1.
         11    1    4    4    0    0 -0.20023275746E+02  0.17214524423E+01 -0.70893463446E+02  0.73687028231E+02  0.00000000000E+00 0.  1.
</event>
<event>
 8    1  0.3528896E-009  0.8451203E+02  0.7561462E-02  0.1316714E+00
          2   -1    0    0  501    0  0.00000000000E+00  0.00000000000E+00  0.40237612761E+03  0.40237612761E+03  0.00000000000E+00 0.  1.
         -2   -1    0    0    0  501 -0.00000000000E+00 -0.00000000000E+00 -0.46218450277E+02  0.46218450277E+02  0.00000000000E+00 0. -1.
         25    2    1    2    0    0  0.80776083910E+02  0.19593484043E+02  0.19574892685E+03  0.24672737176E+03  0.12509225902E+03 0.  0.
         23    2    1    2    0    0 -0.80776083910E+02 -0.19593484043E+02  0.16040875048E+03  0.20186720612E+03  0.90059543228E+02 0.  0.
          5    1    3    3  502    0  0.70442971132E+02  0.19683211358E+02  0.27720614839E+02  0.78329725381E+02  0.41800000000E+01 0. -1.
         -5    1    3    3    0  502  0.10333112778E+02 -0.89727314821E-01  0.16802831201E+03  0.16839764638E+03  0.41800000000E+01 0. -1.
        -11    1    4    4    0    0 -0.40636886128E+02 -0.18002061639E+02  0.91666815724E+01  0.45381260323E+02  0.00000000000E+00 0. -1.
         11    1    4    4    0    0 -0.40139197782E+02 -0.15914224042E+01  0.15124206891E+03  0.15648594580E+03  0.00000000000E+00 0.  1.
</event>
<event>
 8    1  0.3528896E-009  0.1627677E+03  0.7561462E-02  0.1185607E+00
         -2   -1    0    0    0  501 -0.00000000000E+00  0.00000000000E+00  0.66447338314E+02  0.66447338314E+02  0.00000000000E+00 0.  1.
          2   -1    0    0  501    0  0.00000000000E+00 -0.00000000000E+00 -0.48305680986E+03  0.48305680986E+03  0.00000000000E+00 0. -1.
         25    2    1    2    0    0  0.60902475258E+02  0.12763886018E+03 -0.23863317320E+03  0.30429238615E+03  0.12508906745E+03 0.  0.
         23    2    1    2    0    0 -0.60902475258E+02 -0.12763886018E+03 -0.17797629834E+03  0.24521176202E+03  0.91937235892E+02 0.  0.
          5    1    3    3  502    0  0.58948246657E+02  0.29401398114E+01 -0.11105667752E+03  0.12583560001E+03  0.41800000000E+01 0.  1.
         -5    1    3    3    0  502  0.19542286007E+01  0.12469872037E+03 -0.12757649568E+03  0.17845678614E+03  0.41800000000E+01 0.  1.
        -11    1    4    4    0    0 -0.46039423094E+02 -0.89451203570E+02 -0.53045406360E+02  0.11373197191E+03  0.00000000000E+00 0.  1.
         11    1    4    4    0    0 -0.14863052164E+02 -0.38187656608E+02 -0.12493089198E+03  0.13147979011E+03  0.00000000000E+00 0. -1.
</event>
<event>
 7    1  0.3528896E-009  0.1447431E+03  0.7561462E-02  0.1207086E+00
          2   -1    0    0  501    0  0.00000000000E+00  0.00000000000E+00  0.28466371879E+03  0.28466371879E+03  0.00000000000E+00 0. -1.
         -2   -1    0    0    0  501 -0.00000000000E+00 -0.00000000000E+00 -0.98547393280E+02  0.98547393280E+02  0.00000000000E+00 0.  1.
         25    2    1    2    0    0 -0.10057562584E+02  0.32687883225E+02  0.76556462333E+02  0.15059409342E+03  0.12509211315E+03 0.  0.
          5    1    3    3  502    0 -0.41852027689E+02  0.65733435797E+02  0.68520085020E+02  0.10385061990E+03  0.41800000000E+01 0. -1.
         -5    1    3    3    0  502  0.31794465105E+02 -0.33045552572E+02  0.80363773133E+01  0.46743473517E+02  0.41800000000E+01 0. -1.
        -11    1    1    2    0    0 -0.30673413921E+02 -0.90003266095E+02  0.12844499038E+03  0.15981101896E+03  0.00000000000E+00 0. -1.
         11    1    1    2    0    0  0.40730976505E+02  0.57315382870E+02 -0.18885127201E+02  0.72805999684E+02  0.00000000000E+00 0.  1.
</event>
<event>
 8    1  0.3528896E-009  0.1742377E+03  0.7561462E-02  0.1173499E+00
          4   -1    0    0  501    0  0.00000000000E+00  0.00000000000E+00  0.10482500388E+04  0.10482500388E+04  0.00000000000E+00 0. -1.
         -4   -1    0    0    0  501 -0.00000000000E+00 -0.00000000000E+00 -0.29734539895E+02  0.29734539895E+02  0.00000000000E+00 0.  1.
         25    2    1    2    0    0  0.11235178904E+03 -0.81081910756E+02  0.58062560728E+03  0.60989346822E+03  0.12508695377E+03 0.  0.
         23    2    1    2    0    0 -0.11235178904E+03  0.81081910756E+02  0.43788989160E+03  0.46809111044E+03  0.90357787480E+02 0.  0.
          5    1    3    3  502    0 -0.15596208232E+02 -0.49221469320E+02  0.21637608065E+03  0.22249061875E+03  0.41800000000E+01 0.  1.
         -5    1    3    3    0  502  0.12794799727E+03 -0.31860441436E+02  0.36424952662E+03  0.38740284947E+03  0.41800000000E+01 0.  1.
        -11    1    4    4    0    0 -0.87612006373E+02  0.10048130855E+03  0.33676668767E+03  0.36219353798E+03  0.00000000000E+00 0.  1.
         11    1    4    4    0    0 -0.24739782665E+02 -0.19399397793E+02  0.10112320393E+03  0.10589757246E+03  0.00000000000E+00 0. -1.
</event>
<event>
 8    1  0.3528896E-009  0.6742702E+02  0.7561462E-02  0.1369068E+00
         -1   -1    0    0    0  501 -0.00000000000E+00  0.00000000000E+00  0.23255851575E+02  0.23255851575E+02  0.00000000000E+00 0.  1.
          1   -1    0    0  501    0  0.00000000000E+00 -0.00000000000E+00 -0.57426991184E+03  0.57426991184E+03  0.00000000000E+00 0. -1.
         25    2    1    2    0    0  0.26052063517E+02 -0.26491966526E+02 -0.27812519681E+03  0.30721692346E+03  0.12509228056E+03 0.  0.
         23    2    1    2    0    0 -0.26052063517E+02  0.26491966526E+02 -0.27288886345E+03  0.29030883995E+03  0.91816972578E+02 0.  0.
          5    1    3    3  502    0  0.22338952787E+02 -0.27647104655E+02 -0.29096881642E+03  0.29316158640E+03  0.41800000000E+01 0.  1.
         -5    1    3    3    0  502  0.37131107304E+01  0.11551381298E+01  0.12843619611E+02  0.14055337068E+02  0.41800000000E+01 0.  1.
        -11    1    4    4    0    0 -0.42730272434E+02 -0.17601465539E+02 -0.18374298290E+03  0.18946548904E+03  0.00000000000E+00 0.  1.
         11    1    4    4    0    0  0.16678208916E+02  0.44093432065E+02 -0.89145880549E+02  0.10084335091E+03  0.00000000000E+00 0. -1.
</event>
<event>
 8    1  0.3528896E-009  0.9735442E+02  0.7561462E-02  0.1285960E+00
          1   -1    0    0  501    0  0.00000000000E+00  0.00000000000E+00  0.25486343785E+03  0.25486343785E+03  0.00000000000E+00 0. -1.
         -1   -1    0    0    0  501 -0.00000000000E+00 -0.00000000000E+00 -0.56195266088E+02  0.56195266088E+02  0.00000000000E+00 0.  1.
         25    2    1    2    0    0  0.34205775131E+01  0.11115375735E+02  0.48434854796E+02  0.13464363849E+03  0.12509085617E+03 0.  0.
         23    2    1    2    0    0 -0.34205775131E+01 -0.11115375735E+02  0.15023331697E+03  0.17641506545E+03  0.91744067183E+02 0.  0.
          5    1    3    3  502    0  0.46447766813E+02 -0.36375944333E+02  0.35973753974E+02  0.69225629235E+02  0.41800000000E+01 0. -1.
         -5    1    3    3    0  502 -0.43027189300E+02  0.47491320068E+02  0.12461100823E+02  0.65418009253E+02  0.41800000000E+01 0. -1.
        -11    1    4    4    0    0  0.33328438442E+02 -0.90585653866E+01  0.12980149604E+03  0.13431779774E+03  0.00000000000E+00 0. -1.
         11    1    4    4    0    0 -0.36749015956E+02 -0.20568103484E+01  0.20431820932E+02  0.42097267716E+02  0.00000000000E+00 0.  1.
</event>
<event>
 8    1  0.3528896E-009  0.1459593E+03  0.7561462E-02  0.1205528E+00
          1   -1    0    0  501    0  0.00000000000E+00  0.00000000000E+00  0.92679595253E+02  0.92679595253E+02  0.00000000000E+00 0. -1.
         -1   -1    0    0    0  501 -0.00000000000E+00 -0.00000000000E+00 -0.32527996678E+03  0.32527996678E+03  0.00000000000E+00 0.  1.
         25    2    1    2    0    0  0.10427001177E+02  0.12987599019E+03 -0.16611993234E+03  0.24539705568E+03  0.12508951929E+03 0.  0.
         23    2    1    2    0    0 -0.10427001177E+02 -0.12987599019E+03 -0.66480439189E+02  0.17256250635E+03  0.91551486172E+02 0.  0.
          5    1    3    3  502    0  0.53047164973E+02  0.71537044150E+02 -0.35294870484E+02  0.95889262590E+02  0.41800000000E+01 0. -1.
         -5    1    3    3    0  502 -0.42620163797E+02  0.58338946040E+02 -0.13082506185E+03  0.14950779309E+03  0.41800000000E+01 0. -1.
        -11    1    4    4    0    0 -0.30302207270E+01 -0.69208437352E+02 -0.84098850813E+02  0.10895690316E+03  0.00000000000E+00 0.  1.
         11    1    4    4    0    0 -0.73967804499E+01 -0.60667552839E+02  0.17618411624E+02  0.63605603186E+02  0.00000000000E+00 0. -1.
</event>
<event>
 8    1  0.3528896E-009  0.1486336E+03  0.7561462E-02  0.1202162E+00
         -2   -1    0    0    0  501 -0.00000000000E+00  0.00000000000E+00  0.11987107411E+02  0.11987107411E+02  0.00000000000E+00 0. -1.
          2   -1    0    0  501    0  0.00000000000E+00 -0.00000000000E+00 -0.19611442151E+04  0.19611442151E+04  0.00000000000E+00 0.  1.
         25    2    1    2    0    0 -0.36906830101E+02 -0.96856004094E+02 -0.12611971948E+04  0.12716168583E+04  0.12509144899E+03 0.  0.
         23    2    1    2    0    0  0.36906830101E+02  0.96856004094E+02 -0.68795991293E+03  0.70151446421E+03  0.89947218182E+02 0.  0.
          5    1    3    3  502    0  0.43026248590E+01 -0.11530636259E+03 -0.81856466798E+03  0.82666780384E+03  0.41800000000E+01 0.  1.
         -5    1    3    3    0  502 -0.41209454960E+02  0.18450358494E+02 -0.44263252683E+03  0.44494905451E+03  0.41800000000E+01 0.  1.
        -11    1    4    4    0    0  0.51935406786E+02  0.16180935920E+02 -0.23856201414E+03  0.24468539751E+03  0.00000000000E+00 0.  1.
         11    1    4    4    0    0 -0.15028576685E+02  0.80675068174E+02 -0.44939789879E+03  0.45682906670E+03  0.00000000000E+00 0. -1.
</event>
<event>
 8    1  0.3528896E-009  0.1156144E+03  0.7561462E-02  0.1250512E+00
         -2   -1    0    0    0  501 -0.00000000000E+00  0.00000000000E+00  0.10013995843E+02  0.10013995843E+02  0.00000000000E+00 0.  1.
          2   -1    0    0  501    0  0.00000000000E+00 -0.00000000000E+00 -0.14506969675E+04  0.14506969675E+04  0.00000000000E+00 0. -1.
         25    2    1    2    0    0  0.21267515680E+02 -0.94108164308E+01 -0.85654105285E+03  0.86593921107E+03  0.12508905370E+03 0.  0.
         23    2    1    2    0    0 -0.21267515680E+02  0.94108164308E+01 -0.58414191877E+03  0.59477175224E+03  0.10950244431E+03 0.  0.
          5    1    3    3  502    0 -0.29771495904E+02  0.39367102620E+02 -0.50027941363E+03  0.50272564570E+03  0.41800000000E+01 0. -1.
         -5    1    3    3    0  502  0.51039011584E+02 -0.48777919051E+02 -0.35626163922E+03  0.36321356537E+03  0.41800000000E+01 0. -1.
        -11    1    4    4    0    0 -0.12633717065E+02 -0.49676264897E+02 -0.30920509854E+03  0.31342484756E+03  0.00000000000E+00 0. -1.
         11    1    4    4    0    0 -0.86337986153E+01  0.59087081328E+02 -0.27493682023E+03  0.28134690469E+03  0.00000000000E+00 0.  1.
</event>
<event>
 8    1  0.3528896E-009  0.1221636E+03  0.7561462E-02  0.1239570E+00
         -1   -1    0    0    0  501 -0.00000000000E+00  0.00000000000E+00  0.16102330108E+03  0.16102330108E+03  0.00000000000E+00 0.  1.
          1   -1    0    0  501    0  0.00000000000E+00 -0.00000000000E+00 -0.11180579225E+03  0.11180579225E+03  0.00000000000E+00 0. -1.
         25    2    1    2    0    0  0.62210499089E+02  0.36200948551E+02  0.49126361045E+02  0.15245129091E+03  0.12508933559E+03 0.  0.
         23    2    1    2    0    0 -0.62210499089E+02 -0.36200948551E+02  0.91147790315E-01  0.12037780241E+03  0.96489129611E+02 0.  0.
          5    1    3    3  502    0 -0.18256494834E+02 -0.21005733534E+02  0.45581738303E+02  0.53569652898E+02  0.41800000000E+01 0. -1.
         -5    1    3    3    0  502  0.80466993923E+02  0.57206682085E+02  0.35446227416E+01  0.98881638015E+02  0.41800000000E+01 0. -1.
        -11    1    4    4    0    0 -0.99319131572E+01 -0.59361950815E+02 -0.13327482365E+02  0.61644998903E+02  0.00000000000E+00 0.  1.
         11    1    4    4    0    0 -0.52278585931E+02  0.23161002264E+02  0.13418630155E+02  0.58732803510E+02  0.00000000000E+00 0. -1.
</event>
<event>
 8    1  0.3528896E-009  0.1157549E+03  0.7561462E-02  0.1250269E+00
          2   -1    0    0  501    0  0.00000000000E+00  0.00000000000E+00  0.37518468871E+03  0.37518468871E+03  0.00000000000E+00 0. -1.
         -2   -1    0    0    0  501 -0.00000000000E+00 -0.00000000000E+00 -0.82278839702E+02  0.82278839702E+02  0.00000000000E+00 0.  1.
         25    2    1    2    0    0 -0.53089419240E+02  0.95538316789E+02  0.44500422397E+02  0.17196869530E+03  0.12508752200E+03 0.  0.
         23    2    1    2    0    0  0.53089419240E+02 -0.95538316789E+02  0.24840542662E+03  0.28549483311E+03  0.88634007878E+02 0.  0.
          5    1    3    3  502    0 -0.52338081345E+02  0.62096905476E+02  0.86096015994E+02  0.11842844590E+03  0.41800000000E+01 0.  1.
         -5    1    3    3    0  502 -0.75133789552E+00  0.33441411313E+02 -0.41595593597E+02  0.53540249401E+02  0.41800000000E+01 0.  1.
        -11    1    4    4    0    0  0.13718276177E+02 -0.65602274036E+02  0.21650194324E+03  0.22663834823E+03  0.00000000000E+00 0. -1.
         11    1    4    4    0    0  0.39371143063E+02 -0.29936042753E+02  0.31903483375E+02  0.58856484887E+02  0.00000000000E+00 0.  1.
</event>
<event>
 8    1  0.3528896E-009  0.1479614E+03  0.7561462E-02  0.1203001E+00
          2   -1    0    0  501    0  0.00000000000E+00  0.00000000000E+00  0.19460358903E+02  0.19460358903E+02  0.00000000000E+00 0. -1.
         -2   -1    0    0    0  501 -0.00000000000E+00 -0.00000000000E+00 -0.15639255630E+04  0.15639255630E+04  0.00000000000E+00 0.  1.
         25    2    1    2    0    0 -0.22270290898E+01  0.11071117786E+03 -0.11818724124E+04  0.11936222887E+04  0.12509933751E+03 0.  0.
         23    2    1    2    0    0  0.22270290898E+01 -0.11071117786E+03 -0.36259279164E+03  0.38976363318E+03  0.90444638530E+02 0.  0.
          5    1    3    3  502    0  0.36728951824E+02 -0.11116292577E+01 -0.51337588437E+03  0.51470624891E+03  0.41800000000E+01 0.  1.
         -5    1    3    3    0  502 -0.38955980914E+02  0.11182280711E+03 -0.66849652806E+03  0.67891603978E+03  0.41800000000E+01 0.  1.
        -11    1    4    4    0    0  0.43420925092E+02 -0.42446473701E+02 -0.12148540567E+03  0.13581525561E+03  0.00000000000E+00 0.  1.
         11    1    4    4    0    0 -0.41193896002E+02 -0.68264704156E+02 -0.24110738596E+03  0.25394837756E+03  0.00000000000E+00 0. -1.
</event>
<event>
 8    1  0.3528896E-009  0.1748013E+03  0.7561462E-02  0.1172931E+00
         -1   -1    0    0    0  501 -0.00000000000E+00  0.00000000000E+00  0.62789436020E+02  0.62789436020E+02  0.00000000000E+00 0.  1.
          1   -1    0    0  501    0  0.00000000000E+00 -0.00000000000E+00 -0.58848123880E+03  0.58848123880E+03  0.00000000000E+00 0. -1.
         25    2    1    2    0    0  0.84251203724E+02  0.12642386699E+03 -0.19663370949E+03  0.27819580587E+03  0.12508729442E+03 0.  0.
         23    2    1    2    0    0 -0.84251203724E+02 -0.12642386699E+03 -0.32905809329E+03  0.37307486894E+03  0.88455466784E+02 0.  0.
          5    1    3    3  502    0 -0.19351191624E+02  0.61496461960E+02 -0.29369859809E+02  0.70967207329E+02  0.41800000000E+01 0. -1.
         -5    1    3    3    0  502  0.10360239535E+03  0.64927405029E+02 -0.16726384968E+03  0.20722859854E+03  0.41800000000E+01 0. -1.
        -11    1    4    4    0    0 -0.86871635149E+02 -0.86301999638E+02 -0.29828818835E+03  0.32244466106E+03  0.00000000000E+00 0. -1.
         11    1    4    4    0    0  0.26204314254E+01 -0.40121867351E+02 -0.30769904939E+02  0.50630207886E+02  0.00000000000E+00 0.  1.
</event>
<event>
 8    1  0.3528896E-009  0.1480431E+03  0.7561462E-02  0.1202898E+00
          2   -1    0    0  501    0  0.00000000000E+00  0.00000000000E+00  0.50387139207E+02  0.50387139207E+02  0.00000000000E+00 0. -1.
         -2   -1    0    0    0  501 -0.00000000000E+00 -0.00000000000E+00 -0.56822525018E+03  0.56822525018E+03  0.00000000000E+00 0.  1.
         25    2    1    2    0    0  0.64367736434E+02 -0.10525858071E+03 -0.18806574467E+03  0.25736916023E+03  0.12509031142E+03 0.  0.
         23    2    1    2    0    0 -0.64367736434E+02  0.10525858071E+03 -0.32977236630E+03  0.36124322916E+03  0.80773032185E+02 0.  0.
          5    1    3    3  502    0  0.73442043087E+02 -0.11792871048E+03 -0.19528135595E+03  0.23969396077E+03  0.41800000000E+01 0. -1.
         -5    1    3    3    0  502 -0.90743066536E+01  0.12670129769E+02  0.72156112801E+01  0.17675199455E+02  0.41800000000E+01 0. -1.
        -11    1    4    4    0    0 -0.11287645009E+02  0.82396541564E+02 -0.24427680626E+03  0.25804604060E+03  0.00000000000E+00 0.  1.
         11    1    4    4    0    0 -0.53080091424E+02  0.22862039151E+02 -0.85495560037E+02  0.10319718856E+03  0.00000000000E+00 0. -1.
</event>
<event>
 8    1  0.3528896E-009  0.1429079E+03  0.7561462E-02  0.1209469E+00
         -1   -1    0    0    0  501 -0.00000000000E+00  0.00000000000E+00  0.29611569228E+02  0.29611569228E+02  0.00000000000E+00 0.  1.
          1   -1    0    0  501    0  0.00000000000E+00 -0.00000000000E+00 -0.14214122508E+04  0.14214122508E+04  0.00000000000E+00 0. -1.
         25    2    1    2    0    0  0.53140056527E+02  0.99879021083E+02 -0.12061191579E+04  0.12178551805E+04  0.12509249827E+03 0.  0.
         23    2    1    2    0    0 -0.53140056527E+02 -0.99879021083E+02 -0.18568152369E+03  0.23316863955E+03  0.84203929680E+02 0.  0.
          5    1    3    3  502    0  0.57418596570E+02 -0.68095704071E+01 -0.30865095158E+03  0.31404800237E+03  0.41800000000E+01 0.  1.
         -5    1    3    3    0  502 -0.42785400425E+01  0.10668859149E+03 -0.89746820632E+03  0.90380717812E+03  0.41800000000E+01 0.  1.
        -11    1    4    4    0    0 -0.64551913007E+01 -0.57733563839E+02 -0.30256391503E+02  0.65500252786E+02  0.00000000000E+00 0.  1.
         11    1    4    4    0    0 -0.46684865227E+02 -0.42145457243E+02 -0.15542513218E+03  0.16766838677E+03  0.00000000000E+00 0. -1.
</event>
<event>
 8    1  0.3528896E-009  0.1319724E+03  0.7561462E-02  0.1224558E+00
          2   -1    0    0  501    0  0.00000000000E+00  0.00000000000E+00  0.61403288262E+03  0.61403288262E+03  0.00000000000E+00 0.  1.
         -2   -1    0    0    0  501 -0.00000000000E+00 -0.00000000000E+00 -0.48219756194E+02  0.48219756194E+02  0.00000000000E+00 0. -1.
         25    2    1    2    0    0  0.10251930227E+02 -0.11186638510E+03  0.16265898580E+03  0.23393629232E+03  0.12509617506E+03 0.  0.
         23    2    1    2    0    0 -0.10251930227E+02  0.11186638510E+03  0.40315414063E+03  0.42831634650E+03  0.91117733624E+02 0.  0.
          5    1    3    3  502    0  0.45065626644E+02 -0.92854324911E+02  0.16423453880E+03  0.19401879418E+03  0.41800000000E+01 0.  1.
         -5    1    3    3    0  502 -0.34813696417E+02 -0.19012060189E+02 -0.15755529989E+01  0.39917498144E+02  0.41800000000E+01 0.  1.
        -11    1    4    4    0    0  0.10102556862E+02  0.91186982457E+02  0.38077728915E+03  0.39167393500E+03  0.00000000000E+00 0.  1.
         11    1    4    4    0    0 -0.20354487088E+02  0.20679402642E+02  0.22376851481E+02  0.36642411499E+02  0.00000000000E+00 0. -1.
</event>
<event>
 8    1  0.3528896E-009  0.9905461E+02  0.7561462E-02  0.1282297E+00
          1   -1    0    0  501    0  0.00000000000E+00  0.00000000000E+00  0.12034905608E+03  0.12034905608E+03  0.00000000000E+00 0. -1.
         -1   -1    0    0    0  501 -0.00000000000E+00 -0.00000000000E+00 -0.10630085293E+03  0.10630085293E+03  0.00000000000E+00 0.  1.
         25    2    1    2    0    0  0.18406285149E+01  0.19187787341E+02  0.32860150980E+02  0.13076298329E+03  0.12509040403E+03 0.  0.
         23    2    1    2    0    0 -0.18406285149E+01 -0.19187787341E+02 -0.18811947827E+02  0.95886925717E+02  0.92026376903E+02 0.  0.
          5    1    3    3  502    0 -0.47175708403E+02 -0.17148745877E+02  0.45994112168E+02  0.68209659892E+02  0.41800000000E+01 0.  1.
         -5    1    3    3    0  502  0.49016336918E+02  0.36336533217E+02 -0.13133961189E+02  0.62553323394E+02  0.41800000000E+01 0.  1.
        -11    1    4    4    0    0 -0.35230829250E+02  0.15449873001E+02  0.10078659746E+02  0.39767942965E+02  0.00000000000E+00 0. -1.
         11    1    4    4    0    0  0.33390200735E+02 -0.34637660342E+02 -0.28890607574E+02  0.56118982751E+02  0.00000000000E+00 0.  1.
</event>
<event>
 8    1  0.3528896E-009  0.1795438E+03  0.7561462E-02  0.1168245E+00
          1   -1    0    0  501    0  0.00000000000E+00  0.00000000000E+00  0.75990450046E+02  0.75990450046E+02  0.00000000000E+00 0. -1.
         -1   -1    0    0    0  501 -0.00000000000E+00 -0.00000000000E+00 -0.68870408928E+03  0.68870408928E+03  0.00000000000E+00 0.  1.
         25    2    1    2    0    0 -0.14499185871E+03 -0.88429743800E+02 -0.13637075398E+03  0.25119412219E+03  0.12513610909E+03 0.  0.
         23    2    1    2    0    0  0.14499185871E+03  0.88429743800E+02 -0.47634288525E+03  0.51350041713E+03  0.89093632694E+02 0.  0.
          5    1    3    3  502    0 -0.12744598660E+03 -0.65532572326E+02 -0.37606542266E+02  0.14821849398E+03  0.41800000000E+01 0. -1.
         -5    1    3    3    0  502 -0.17545872114E+02 -0.22897171474E+02 -0.98764211714E+02  0.10297562821E+03  0.41800000000E+01 0. -1.
        -11    1    4    4    0    0  0.10688296077E+03  0.10038352167E+03 -0.41646409947E+03  0.44152368552E+03  0.00000000000E+00 0.  1.
         11    1    4    4    0    0  0.38108897940E+02 -0.11953777868E+02 -0.59878785776E+02  0.71976731612E+02  0.00000000000E+00 0. -1.
</event>
<event>
 8    1  0.3528896E-009  0.2844262E+03  0.7561462E-02  0.1093296E+00
         -2   -1    0    0    0  501 -0.00000000000E+00  0.00000000000E+00  0.65442070711E+03  0.65442070711E+03  0.00000000000E+00 0.  1.
          2   -1    0    0  501    0  0.00000000000E+00 -0.00000000000E+00 -0.12589934615E+03  0.12589934615E+03  0.00000000000E+00 0. -1.
         25    2    1    2    0    0  0.71799575844E+02 -0.25548799920E+03  0.27608060327E+03  0.40286084841E+03  0.12508823627E+03 0.  0.
         23    2    1    2    0    0 -0.71799575844E+02  0.25548799920E+03  0.25244075768E+03  0.37745920485E+03  0.91213038315E+02 0.  0.
          5    1    3    3  502    0  0.11412735517E+01 -0.20799077637E+03  0.20081844910E+03  0.28914872896E+03  0.41800000000E+01 0. -1.
         -5    1    3    3    0  502  0.70658302292E+02 -0.47497222827E+02  0.75262154174E+02  0.11371211945E+03  0.41800000000E+01 0. -1.
        -11    1    4    4    0    0  0.14288960348E+02  0.18106113926E+02  0.43592640971E+01  0.23473579463E+02  0.00000000000E+00 0.  1.
         11    1    4    4    0    0 -0.86088536192E+02  0.23738188527E+03  0.24808149359E+03  0.35398562538E+03  0.00000000000E+00 0. -1.
</event>
<event>
 8    1  0.3528896E-009  0.1164481E+03  0.7561462E-02  0.1249074E+00
          2   -1    0    0  501    0  0.00000000000E+00  0.00000000000E+00  0.21658819891E+03  0.21658819891E+03  0.00000000000E+00 0. -1.
         -2   -1    0    0    0  501 -0.00000000000E+00 -0.00000000000E+00 -0.89160801564E+02  0.89160801564E+02  0.00000000000E+00 0.  1.
         25    2    1    2    0    0 -0.44432458728E+02 -0.69546595681E+02  0.42632296455E+02  0.15580211969E+03  0.12508323405E+03 0.  0.
         23    2    1    2    0    0  0.44432458728E+02  0.69546595681E+02  0.84795100890E+02  0.14994688078E+03  0.92102581734E+02 0.  0.
          5    1    3    3  502    0  0.36592560725E+02 -0.56601012820E+02  0.22905704458E+02  0.71308020933E+02  0.41800000000E+01 0.  1.
         -5    1    3    3    0  502 -0.81025019453E+02 -0.12945582862E+02  0.19726591997E+02  0.84494098757E+02  0.41800000000E+01 0.  1.
        -11    1    4    4    0    0  0.31168148766E+02  0.39137494555E+02 -0.86616811847E+01  0.50776192241E+02  0.00000000000E+00 0.  1.
         11    1    4    4    0    0  0.13264309963E+02  0.30409101126E+02  0.93456782075E+02  0.99170688542E+02  0.00000000000E+00 0. -1.
</event>
<event>
 8    1  0.3528896E-009  0.1191661E+03  0.7561462E-02  0.1244479E+00
         -1   -1    0    0    0  501 -0.00000000000E+00  0.00000000000E+00  0.15592975956E+03  0.15592975956E+03  0.00000000000E+00 0.  1.
          1   -1    0    0  501    0  0.00000000000E+00 -0.00000000000E+00 -0.12143389446E+03  0.12143389446E+03  0.00000000000E+00 0. -1.
         25    2    1    2    0    0 -0.66520577791E+02  0.49345196462E+02  0.35282284517E+02  0.15411918677E+03  0.12509176010E+03 0.  0.
         23    2    1    2    0    0  0.66520577791E+02 -0.49345196462E+02 -0.78641941970E+00  0.12324446725E+03  0.91261407886E+02 0.  0.
          5    1    3    3  502    0 -0.89912548555E+02 -0.45739170255E+01  0.12696397524E+02  0.91015702023E+02  0.41800000000E+01 0. -1.
         -5    1    3    3    0  502  0.23391970764E+02  0.53919113488E+02  0.22585886993E+02  0.63103484744E+02  0.41800000000E+01 0. -1.
        -11    1    4    4    0    0  0.16821918322E+02 -0.32871084327E+02  0.41785638565E+02  0.55763112459E+02  0.00000000000E+00 0.  1.
         11    1    4    4    0    0  0.49698659470E+02 -0.16474112136E+02 -0.42572057985E+02  0.67481354794E+02  0.00000000000E+00 0. -1.
</event>
<event>
 8    1  0.3528896E-009  0.2109903E+03  0.7561462E-02  0.1140784E+00
          1   -1    0    0  501    0  0.00000000000E+00  0.00000000000E+00  0.29835184043E+03  0.29835184043E+03  0.00000000000E+00 0. -1.
         -1   -1    0    0    0  501 -0.00000000000E+00 -0.00000000000E+00 -0.20325829547E+03  0.20325829547E+03  0.00000000000E+00 0.  1.
         25    2    1    2    0    0  0.11073161884E+03  0.17281544788E+03 -0.31518340168E+02  0.24242009829E+03  0.12508967923E+03 0.  0.
         23    2    1    2    0    0 -0.11073161884E+03 -0.17281544788E+03  0.12661188513E+03  0.25919003762E+03  0.94985449980E+02 0.  0.
          5    1    3    3  502    0  0.12491665223E+02 -0.30719064859E+01  0.29019006658E+02  0.32016456033E+02  0.41800000000E+01 0.  1.
         -5    1    3    3    0  502  0.98239953615E+02  0.17588735437E+03 -0.60537346826E+02  0.21040364225E+03  0.41800000000E+01 0.  1.
        -11    1    4    4    0    0 -0.70804826304E+02 -0.86041658216E+02  0.15238822068E+02  0.11246649312E+03  0.00000000000E+00 0.  1.
         11    1    4    4    0    0 -0.39926792534E+02 -0.86773789665E+02  0.11137306306E+03  0.14672354450E+03  0.00000000000E+00 0. -1.
</event>
<event>
 8    1  0.3528896E-009  0.8617641E+02  0.7561462E-02  0.1312384E+00
         -2   -1    0    0    0  501 -0.00000000000E+00  0.00000000000E+00  0.52087469506E+02  0.52087469506E+02  0.00000000000E+00 0.  1.
          2   -1    0    0  501    0  0.00000000000E+00 -0.00000000000E+00 -0.24802267060E+03  0.24802267060E+03  0.00000000000E+00 0. -1.
         25    2    1    2    0    0  0.27380511975E+02  0.12876943768E+02 -0.13581436101E+03  0.18710621875E+03  0.12509072036E+03 0.  0.
         23    2    1    2    0    0 -0.27380511975E+02 -0.12876943768E+02 -0.60120840076E+02  0.11300392135E+03  0.90773689538E+02 0.  0.
          5    1    3    3  502    0 -0.24709199620E+02 -0.22266465316E+02 -0.11651267696E+03  0.12123949981E+03  0.41800000000E+01 0. -1.
         -5    1    3    3    0  502  0.52089711595E+02  0.35143409084E+02 -0.19301684057E+02  0.65866718937E+02  0.41800000000E+01 0. -1.
        -11    1    4    4    0    0 -0.12238299916E+02  0.28917949391E+02  0.73081758717E+01  0.32240242188E+02  0.00000000000E+00 0.  1.
         11    1    4    4    0    0 -0.15142212059E+02 -0.41794893159E+02 -0.67429015948E+02  0.80763679162E+02  0.00000000000E+00 0. -1.
</event>
<event>
 8    1  0.3528896E-009  0.1596310E+03  0.7561462E-02  0.1189114E+00
         -2   -1    0    0    0  501 -0.00000000000E+00  0.00000000000E+00  0.34896097691E+02  0.34896097691E+02  0.00000000000E+00 0.  1.
          2   -1    0    0  501    0  0.00000000000E+00 -0.00000000000E+00 -0.85196839905E+03  0.85196839905E+03  0.00000000000E+00 0. -1.
         25    2    1    2    0    0  0.31624997333E+02  0.11710162104E+03 -0.58101553062E+03  0.60658066513E+03  0.12509247130E+03 0.  0.
         23    2    1    2    0    0 -0.31624997333E+02 -0.11710162104E+03 -0.23605677073E+03  0.28028383161E+03  0.90129335659E+02 0.  0.
          5    1    3    3  502    0  0.16988408081E+02 -0.23741947050E+02 -0.15031068193E+03  0.15317656336E+03  0.41800000000E+01 0.  1.
         -5    1    3    3    0  502  0.14636589252E+02  0.14084356809E+03 -0.43070484868E+03  0.45340410177E+03  0.41800000000E+01 0.  1.
        -11    1    4    4    0    0  0.17197751096E+02 -0.91260841354E+02 -0.17378638070E+03  0.19704316766E+03  0.00000000000E+00 0.  1.
         11    1    4    4    0    0 -0.48822748429E+02 -0.25840779688E+02 -0.62270390040E+02  0.83240663950E+02  0.00000000000E+00 0. -1.
</event>
<event>
 8    1  0.3528896E-009  0.1189152E+03  0.7561462E-02  0.1244898E+00
         -1   -1    0    0    0  501 -0.00000000000E+00  0.00000000000E+00  0.24899463115E+03  0.24899463115E+03  0.00000000000E+00 0.  1.
          1   -1    0    0  501    0  0.00000000000E+00 -0.00000000000E+00 -0.10677511791E+03  0.10677511791E+03  0.00000000000E+00 0. -1.
         25    2    1    2    0    0  0.31538960212E+02  0.70833818311E+02 -0.25835890130E+02  0.14942158533E+03  0.12508869299E+03 0.  0.
         23    2    1    2    0    0 -0.31538960212E+02 -0.70833818311E+02  0.16805540337E+03  0.20634816372E+03  0.91240398089E+02 0.  0.
          5    1    3    3  502    0 -0.30581928475E+02 -0.36067524932E+01 -0.40738494139E+02  0.51238270048E+02  0.41800000000E+01 0. -1.
         -5    1    3    3    0  502  0.62120888687E+02  0.74440570804E+02  0.14902604009E+02  0.98183315279E+02  0.41800000000E+01 0. -1.
        -11    1    4    4    0    0 -0.11205341596E+02 -0.84480088610E+02  0.87455316321E+02  0.12211010361E+03  0.00000000000E+00 0. -1.
         11    1    4    4    0    0 -0.20333618616E+02  0.13646270299E+02  0.80600087048E+02  0.84238060110E+02  0.00000000000E+00 0.  1.
</event>
<event>
 8    1  0.3528896E-009  0.1447996E+03  0.7561462E-02  0.1207013E+00
          2   -1    0    0  501    0  0.00000000000E+00  0.00000000000E+00  0.47671801261E+03  0.47671801261E+03  0.00000000000E+00 0. -1.
         -2   -1    0    0    0  501 -0.00000000000E+00 -0.00000000000E+00 -0.48972617281E+02  0.48972617281E+02  0.00000000000E+00 0.  1.
         25    2    1    2    0    0  0.56340725837E+02  0.76603653308E+02  0.30012279291E+03  0.33876848557E+03  0.12509196177E+03 0.  0.
         23    2    1    2    0    0 -0.56340725837E+02 -0.76603653308E+02  0.12762260241E+03  0.18692214432E+03  0.98030415192E+02 0.  0.
          5    1    3    3  502    0  0.40067502862E+02  0.10967501613E+03  0.25396258717E+03  0.27955049996E+03  0.41800000000E+01 0. -1.
         -5    1    3    3    0  502  0.16273222974E+02 -0.33071362819E+02  0.46160205745E+02  0.59217985605E+02  0.41800000000E+01 0. -1.
        -11    1    4    4    0    0  0.79028198117E+00 -0.78498617428E+02  0.63085022539E+02  0.10070937172E+03  0.00000000000E+00 0.  1.
         11    1    4    4    0    0 -0.57131007818E+02  0.18949641201E+01  0.64537579871E+02  0.86212772597E+02  0.00000000000E+00 0. -1.
</event>
<event>
 8    1  0.3528896E-009  0.9536843E+02  0.7561462E-02  0.1290348E+00
         -1   -1    0    0    0  501 -0.00000000000E+00  0.00000000000E+00  0.12532200855E+03  0.12532200855E+03  0.00000000000E+00 0.  1.
          1   -1    0    0  501    0  0.00000000000E+00 -0.00000000000E+00 -0.12730715336E+03  0.12730715336E+03  0.00000000000E+00 0. -1.
         25    2    1    2    0    0  0.11304116878E+02 -0.10870627461E+02  0.63403634041E+02  0.14112125204E+03  0.12509689591E+03 0.  0.
         23    2    1    2    0    0 -0.11304116878E+02  0.10870627461E+02 -0.65388778850E+02  0.11150790988E+03  0.88951492211E+02 0.  0.
          5    1    3    3  502    0  0.62807996588E+02  0.18335920026E+02  0.23722796183E+02  0.69722979406E+02  0.41800000000E+01 0.  1.
         -5    1    3    3    0  502 -0.51503879709E+02 -0.29206547488E+02  0.39680837859E+02  0.71398272629E+02  0.41800000000E+01 0.  1.
        -11    1    4    4    0    0  0.45533608144E+01 -0.25624695836E+02  0.86732276862E+01  0.27433246434E+02  0.00000000000E+00 0.  1.
         11    1    4    4    0    0 -0.15857477693E+02  0.36495323298E+02 -0.74062006536E+02  0.84074663446E+02  0.00000000000E+00 0. -1.
</event>
<event>
 7    1  0.3528896E-009  0.1799615E+03  0.7561462E-02  0.1167840E+00
         -2   -1    0    0    0  501 -0.00000000000E+00  0.00000000000E+00  0.18131434068E+03  0.18131434068E+03  0.00000000000E+00 0.  1.
          2   -1    0    0  501    0  0.00000000000E+00 -0.00000000000E+00 -0.18398931985E+03  0.18398931985E+03  0.00000000000E+00 0. -1.
         25    2    1    2    0    0 -0.13835449948E+02  0.10526177140E+03 -0.24944403491E+02  0.16595247311E+03  0.12508612981E+03 0.  0.
          5    1    3    3  502    0 -0.69697271200E+02  0.58189370141E+02 -0.13104882987E+02  0.91830946681E+02  0.41800000000E+01 0. -1.
         -5    1    3    3    0  502  0.55861821252E+02  0.47072401257E+02 -0.11839520504E+02  0.74121526424E+02  0.41800000000E+01 0. -1.
        -11    1    1    2    0    0  0.40947783000E+02 -0.14336467140E+03  0.40196955523E+01  0.14915196241E+03  0.00000000000E+00 0. -1.
         11    1    1    2    0    0 -0.27112333052E+02  0.38102900001E+02  0.18249728772E+02  0.50199225017E+02  0.00000000000E+00 0.  1.
</event>
<event>
 8    1  0.3528896E-009  0.1000168E+03  0.7561462E-02  0.1280261E+00
         -1   -1    0    0    0  501 -0.00000000000E+00  0.00000000000E+00  0.47152535805E+02  0.47152535805E+02  0.00000000000E+00 0.  1.
          1   -1    0    0  501    0  0.00000000000E+00 -0.00000000000E+00 -0.34948779225E+03  0.34948779225E+03  0.00000000000E+00 0. -1.
         25    2    1    2    0    0  0.49859898398E+02 -0.33318539248E+02 -0.22752586116E+03  0.26647985651E+03  0.12508941562E+03 0.  0.
         23    2    1    2    0    0 -0.49859898398E+02  0.33318539248E+02 -0.74809395283E+02  0.13016047155E+03  0.88029359902E+02 0.  0.
          5    1    3    3  502    0  0.62532477287E+02  0.32968577357E+02 -0.12497939158E+03  0.14364734083E+03  0.41800000000E+01 0.  1.
         -5    1    3    3    0  502 -0.12672578889E+02 -0.66287116605E+02 -0.10254646958E+03  0.12283251567E+03  0.41800000000E+01 0.  1.
        -11    1    4    4    0    0 -0.34073373247E+02  0.14477239269E+02  0.12797162665E+02  0.39170813031E+02  0.00000000000E+00 0.  1.
         11    1    4    4    0    0 -0.15786525151E+02  0.18841299979E+02 -0.87606557948E+02  0.90989658515E+02  0.00000000000E+00 0. -1.
</event>
<event>
 8    1  0.3528896E-009  0.3078910E+03  0.7561462E-02  0.1081361E+00
         -1   -1    0    0    0  501 -0.00000000000E+00  0.00000000000E+00  0.40676204757E+03  0.40676204757E+03  0.00000000000E+00 0.  1.
          1   -1    0    0  501    0  0.00000000000E+00 -0.00000000000E+00 -0.24768189403E+03  0.24768189403E+03  0.00000000000E+00 0. -1.
         25    2    1    2    0    0  0.28041119446E+03 -0.96411302833E+02  0.50696056383E+02  0.32579804151E+03  0.12509474979E+03 0.  0.
         23    2    1    2    0    0 -0.28041119446E+03  0.96411302833E+02  0.10838409715E+03  0.32864590009E+03  0.91298619038E+02 0.  0.
          5    1    3    3  502    0  0.19144895010E+03 -0.10760271256E+02 -0.11460291885E+01  0.19180007746E+03  0.41800000000E+01 0.  1.
         -5    1    3    3    0  502  0.88962244364E+02 -0.85651031577E+02  0.51842085572E+02  0.13399796405E+03  0.41800000000E+01 0.  1.
        -11    1    4    4    0    0 -0.80956804554E+02  0.52629161340E+01 -0.59314013425E+01  0.81344231582E+02  0.00000000000E+00 0. -1.
         11    1    4    4    0    0 -0.19945438991E+03  0.91148386699E+02  0.11431549850E+03  0.24730166851E+03  0.00000000000E+00 0.  1.
</event>
<event>
 8    1  0.3528896E-009  0.1157140E+03  0.7561462E-02  0.1250340E+00
          3   -1    0    0  501    0  0.00000000000E+00  0.00000000000E+00  0.36746725080E+03  0.36746725080E+03  0.00000000000E+00 0. -1.
         -3   -1    0    0    0  501 -0.00000000000E+00 -0.00000000000E+00 -0.96987691923E+02  0.96987691923E+02  0.00000000000E+00 0.  1.
         25    2    1    2    0    0  0.28916343678E+02  0.57762333515E+02 -0.30335042392E+02  0.14402098464E+03  0.12509671105E+03 0.  0.
         23    2    1    2    0    0 -0.28916343678E+02 -0.57762333515E+02  0.30081460127E+03  0.32043395808E+03  0.89531307653E+02 0.  0.
          5    1    3    3  502    0  0.61177022410E+02  0.79809057254E+02 -0.28835054220E+02  0.10469501632E+03  0.41800000000E+01 0. -1.
         -5    1    3    3    0  502 -0.32260678732E+02 -0.22046723739E+02 -0.14999881722E+01  0.39325968321E+02  0.41800000000E+01 0. -1.
        -11    1    4    4    0    0  0.17276678081E+02  0.31200080281E+00  0.93002988864E+01  0.19623366414E+02  0.00000000000E+00 0.  1.
         11    1    4    4    0    0 -0.46193021759E+02 -0.58074334318E+02  0.29151430239E+03  0.30081059167E+03  0.00000000000E+00 0. -1.
</event>
<event>
 8    1  0.3528896E-009  0.1370996E+03  0.7561462E-02  0.1217286E+00
         -1   -1    0    0    0  501 -0.00000000000E+00  0.00000000000E+00  0.14420328164E+03  0.14420328164E+03  0.00000000000E+00 0.  1.
          1   -1    0    0  501    0  0.00000000000E+00 -0.00000000000E+00 -0.22704961201E+03  0.22704961201E+03  0.00000000000E+00 0. -1.
         25    2    1    2    0    0 -0.53357961234E+02 -0.10483181145E+03  0.43797126897E+02  0.17720841596E+03  0.12509138117E+03 0.  0.
         23    2    1    2    0    0  0.53357961234E+02  0.10483181145E+03 -0.12664345726E+03  0.19404447768E+03  0.88192478888E+02 0.  0.
          5    1    3    3  502    0 -0.16482370004E+01 -0.71399098005E+02 -0.32916596014E+02  0.78749746503E+02  0.41800000000E+01 0.  1.
         -5    1    3    3    0  502 -0.51709724233E+02 -0.33432713447E+02  0.76713722911E+02  0.98458669459E+02  0.41800000000E+01 0.  1.
        -11    1    4    4    0    0 -0.13138882701E+02  0.58344641349E+02 -0.27197135800E+02  0.65699403411E+02  0.00000000000E+00 0.  1.
         11    1    4    4    0    0  0.66496843935E+02  0.46487170104E+02 -0.99446321463E+02  0.12834507427E+03  0.00000000000E+00 0. -1.
</event>
<event>
 8    1  0.3528896E-009  0.6398135E+02  0.7561462E-02  0.1381845E+00
         -2   -1    0    0    0  501 -0.00000000000E+00  0.00000000000E+00  0.44246897081E+02  0.44246897081E+02  0.00000000000E+00 0.  1.
          2   -1    0    0  501    0  0.00000000000E+00 -0.00000000000E+00 -0.29457646631E+03  0.29457646631E+03  0.00000000000E+00 0. -1.
         25    2    1    2    0    0  0.12887999989E+02  0.20403491510E+02 -0.18485390427E+03  0.22450192559E+03  0.12509094955E+03 0.  0.
         23    2    1    2    0    0 -0.12887999989E+02 -0.20403491510E+02 -0.65475664951E+02  0.11432143780E+03  0.90553439633E+02 0.  0.
          5    1    3    3  502    0  0.19164254060E+02 -0.36250102555E+00  0.14204891342E+02  0.24220887240E+02  0.41800000000E+01 0.  1.
         -5    1    3    3    0  502 -0.62762540709E+01  0.20765992535E+02 -0.19905879562E+03  0.20028103835E+03  0.41800000000E+01 0.  1.
        -11    1    4    4    0    0 -0.15781671397E+02  0.30989923301E+02 -0.53743930433E+01  0.35189779750E+02  0.00000000000E+00 0.  1.
         11    1    4    4    0    0  0.28936714080E+01 -0.51393414811E+02 -0.60101271908E+02  0.79131658046E+02  0.00000000000E+00 0. -1.
</event>
<event>
 8    1  0.3528896E-009  0.5836307E+02  0.7561462E-02  0.1404832E+00
         -1   -1    0    0    0  501 -0.00000000000E+00  0.00000000000E+00  0.60185172251E+03  0.60185172251E+03  0.00000000000E+00 0.  1.
          1   -1    0    0  501    0  0.00000000000E+00 -0.00000000000E+00 -0.20216929840E+02  0.20216929840E+02  0.00000000000E+00 0. -1.
         25    2    1    2    0    0 -0.11388212646E+02  0.11566766901E+01  0.38719644754E+03  0.40706798501E+03  0.12510885720E+03 0.  0.
         23    2    1    2    0    0  0.11388212646E+02 -0.11566766901E+01  0.19443834513E+03  0.21500066734E+03  0.91038385356E+02 0.  0.
          5    1    3    3  502    0 -0.96781551031E+01  0.10331041516E+02 -0.43499872847E+01  0.15388043878E+02  0.41800000000E+01 0. -1.
         -5    1    3    3    0  502 -0.17100575429E+01 -0.91743648261E+01  0.39154643482E+03  0.39167994114E+03  0.41800000000E+01 0. -1.
        -11    1    4    4    0    0  0.19369369361E+02 -0.44044757990E+02  0.10393136309E+03  0.11452877983E+03  0.00000000000E+00 0.  1.
         11    1    4    4    0    0 -0.79811567147E+01  0.42888081300E+02  0.90506982047E+02  0.10047188751E+03  0.00000000000E+00 0. -1.
</event>
<event>
 8    1  0.3528896E-009  0.1009531E+03  0.7561462E-02  0.1278304E+00
         -1   -1    0    0    0  501 -0.00000000000E+00  0.00000000000E+00  0.78013325605E+02  0.78013325605E+02  0.00000000000E+00 0.  1.
          1   -1    0    0  501    0  0.00000000000E+00 -0.00000000000E+00 -0.24677167358E+03  0.24677167358E+03  0.00000000000E+00 0. -1.
         25    2    1    2    0    0  0.76624547322E+02  0.18098176307E+02 -0.13406154357E+03  0.19953306533E+03  0.12506830718E+03 0.  0.
         23    2    1    2    0    0 -0.76624547322E+02 -0.18098176307E+02 -0.34696804411E+02  0.12525193385E+03  0.91023697242E+02 0.  0.
          5    1    3    3  502    0  0.78607272734E+02  0.79469824475E+01 -0.15600269243E+03  0.17491875343E+03  0.41800000000E+01 0. -1.
         -5    1    3    3    0  502 -0.19827254119E+01  0.10151193859E+02  0.21941148865E+02  0.24614311901E+02  0.41800000000E+01 0. -1.
        -11    1    4    4    0    0  0.71677659350E+01  0.18766584268E+02 -0.26625124142E+02  0.33353542378E+02  0.00000000000E+00 0. -1.
         11    1    4    4    0    0 -0.83792313257E+02 -0.36864760575E+02 -0.80716802682E+01  0.91898391474E+02  0.00000000000E+00 0.  1.
</event>
<event>
 8    1  0.3528896E-009  0.8754429E+02  0.7561462E-02  0.1308910E+00
         -2   -1    0    0    0  501 -0.00000000000E+00  0.00000000000E+00  0.30507222905E+02  0.30507222905E+02  0.00000000000E+00 0.  1.
          2   -1    0    0  501    0  0.00000000000E+00 -0.00000000000E+00 -0.51114813462E+03  0.51114813462E+03  0.00000000000E+00 0. -1.
         25    2    1    2    0    0  0.31841833211E+02 -0.52168772078E+02 -0.24845675856E+03  0.28480639764E+03  0.12509372543E+03 0.  0.
         23    2    1    2    0    0 -0.31841833211E+02  0.52168772078E+02 -0.23218415316E+03  0.25684895989E+03  0.91249241610E+02 0.  0.
          5    1    3    3  502    0  0.36142637333E+02 -0.42203761927E+02 -0.25043983046E+02  0.61091089702E+02  0.41800000000E+01 0.  1.
         -5    1    3    3    0  502 -0.43008041220E+01 -0.99650101507E+01 -0.22341277551E+03  0.22371530794E+03  0.41800000000E+01 0.  1.
        -11    1    4    4    0    0 -0.18941672170E+02  0.77246522159E+02 -0.19136768575E+03  0.20723755278E+03  0.00000000000E+00 0.  1.
         11    1    4    4    0    0 -0.12900161041E+02 -0.25077750081E+02 -0.40816467406E+02  0.49611407111E+02  0.00000000000E+00 0. -1.
</event>
<event>
 8    1  0.3528896E-009  0.2052664E+03  0.7561462E-02  0.1145370E+00
         -3   -1    0    0    0  501 -0.00000000000E+00  0.00000000000E+00  0.29235062818E+03  0.29235062818E+03  0.00000000000E+00 0.  1.
          3   -1    0    0  501    0  0.00000000000E+00 -0.00000000000E+00 -0.17144546850E+03  0.17144546850E+03  0.00000000000E+00 0. -1.
         25    2    1    2    0    0 -0.18414576173E+03 -0.43785888674E+02  0.12453921898E+02  0.22722110166E+03  0.12508982076E+03 0.  0.
         23    2    1    2    0    0  0.18414576173E+03  0.43785888674E+02  0.10845123778E+03  0.23657499502E+03  0.91537924813E+02 0.  0.
          5    1    3    3  502    0 -0.11062115072E+03 -0.82246590277E+02 -0.17260844735E+02  0.13898543003E+03  0.41800000000E+01 0. -1.
         -5    1    3    3    0  502 -0.73524611010E+02  0.38460701603E+02  0.29714766633E+02  0.88235671630E+02  0.41800000000E+01 0. -1.
        -11    1    4    4    0    0  0.12293354786E+03  0.24385884737E+02  0.19452516201E+02  0.12682952712E+03  0.00000000000E+00 0. -1.
         11    1    4    4    0    0  0.61212213875E+02  0.19400003936E+02  0.88998721582E+02  0.10974546789E+03  0.00000000000E+00 0.  1.
</event>
<event>
 8    1  0.3528896E-009  0.1219637E+03  0.7561462E-02  0.1239892E+00
          2   -1    0    0  501    0  0.00000000000E+00  0.00000000000E+00  0.38913691336E+02  0.38913691336E+02  0.00000000000E+00 0. -1.
         -2   -1    0    0    0  501 -0.00000000000E+00 -0.00000000000E+00 -0.40493159207E+03  0.40493159207E+03  0.00000000000E+00 0.  1.
         25    2    1    2    0    0  0.46033251943E+01  0.60258968008E+02 -0.21547357827E+03  0.25637735363E+03  0.12509256849E+03 0.  0.
         23    2    1    2    0    0 -0.46033251943E+01 -0.60258968008E+02 -0.15054432246E+03  0.18746792978E+03  0.93959022139E+02 0.  0.
          5    1    3    3  502    0 -0.55238249936E+02  0.14125867004E+02 -0.56833896712E+02  0.80612459273E+02  0.41800000000E+01 0.  1.
         -5    1    3    3    0  502  0.59841575130E+02  0.46133101004E+02 -0.15863968156E+03  0.17576489436E+03  0.41800000000E+01 0.  1.
        -11    1    4    4    0    0  0.21389471963E+02 -0.77166038220E+02 -0.99190745527E+02  0.12747906088E+03  0.00000000000E+00 0.  1.
         11    1    4    4    0    0 -0.25992797157E+02  0.16907070212E+02 -0.51353576935E+02  0.59988868894E+02  0.00000000000E+00 0. -1.
</event>
<event>
 8    1  0.3528896E-009  0.1182410E+03  0.7561462E-02  0.1246027E+00
          1   -1    0    0  501    0  0.00000000000E+00  0.00000000000E+00  0.18823479053E+03  0.18823479053E+03  0.00000000000E+00 0.  1.
         -1   -1    0    0    0  501 -0.00000000000E+00 -0.00000000000E+00 -0.11679399906E+03  0.11679399906E+03  0.00000000000E+00 0. -1.
         25    2    1    2    0    0 -0.60899627789E+02 -0.68421732204E+02  0.82163270676E+02  0.17546481210E+03  0.12508716615E+03 0.  0.
         23    2    1    2    0    0  0.60899627789E+02  0.68421732204E+02 -0.10722479209E+02  0.12956397749E+03  0.91003047197E+02 0.  0.
          5    1    3    3  502    0 -0.92327371982E+02 -0.51238696584E+02  0.89714160437E+02  0.13862124883E+03  0.41800000000E+01 0.  1.
         -5    1    3    3    0  502  0.31427744193E+02 -0.17183035620E+02 -0.75508897614E+01  0.36843563270E+02  0.41800000000E+01 0.  1.
        -11    1    4    4    0    0  0.11204393029E+01  0.13563805782E+02  0.34209875614E+02  0.36817764748E+02  0.00000000000E+00 0.  1.
         11    1    4    4    0    0  0.59779188486E+02  0.54857926423E+02 -0.44932354823E+02  0.92746212739E+02  0.00000000000E+00 0. -1.
</event>
<event>
 8    1  0.3528896E-009  0.8526639E+02  0.7561462E-02  0.1314737E+00
         -1   -1    0    0    0  501 -0.00000000000E+00  0.00000000000E+00  0.11439719567E+03  0.11439719567E+03  0.00000000000E+00 0.  1.
          1   -1    0    0  501    0  0.00000000000E+00 -0.00000000000E+00 -0.11899371747E+03  0.11899371747E+03  0.00000000000E+00 0. -1.
         25    2    1    2    0    0  0.25078376661E+02  0.29467090292E+02 -0.17814145847E+02  0.13214580440E+03  0.12509170813E+03 0.  0.
         23    2    1    2    0    0 -0.25078376661E+02 -0.29467090292E+02  0.13217624050E+02  0.10124510874E+03  0.92620905154E+02 0.  0.
          5    1    3    3  502    0 -0.25588466025E+02 -0.15992775850E+02 -0.48569228199E+02  0.57332196894E+02  0.41800000000E+01 0. -1.
         -5    1    3    3    0  502  0.50666842685E+02  0.45459866142E+02  0.30755082352E+02  0.74813607505E+02  0.41800000000E+01 0. -1.
        -11    1    4    4    0    0 -0.11145951887E+02  0.18677152095E+02  0.39170958751E+02  0.44804377725E+02  0.00000000000E+00 0.  1.
         11    1    4    4    0    0 -0.13932424774E+02 -0.48144242388E+02 -0.25953334701E+02  0.56440731013E+02  0.00000000000E+00 0. -1.
</event>
<event>
 8    1  0.3528896E-009  0.1198459E+03  0.7561462E-02  0.1243351E+00
         -1   -1    0    0    0  501 -0.00000000000E+00  0.00000000000E+00  0.19768496136E+03  0.19768496136E+03  0.00000000000E+00 0.  1.
          1   -1    0    0  501    0  0.00000000000E+00 -0.00000000000E+00 -0.14804612122E+03  0.14804612122E+03  0.00000000000E+00 0. -1.
         25    2    1    2    0    0 -0.62344992340E+02 -0.75899065427E+02  0.11370954681E+03  0.19551098155E+03  0.12508843538E+03 0.  0.
         23    2    1    2    0    0  0.62344992340E+02  0.75899065427E+02 -0.64070706668E+02  0.15022010103E+03  0.93880014368E+02 0.  0.
          5    1    3    3  502    0 -0.78997957394E+02 -0.19161001502E+02  0.10901016753E+03  0.13604598589E+03  0.41800000000E+01 0.  1.
         -5    1    3    3    0  502  0.16652965054E+02 -0.56738063925E+02  0.46993792829E+01  0.59464995659E+02  0.41800000000E+01 0.  1.
        -11    1    4    4    0    0  0.47470033634E+02  0.48650713871E+02 -0.87877896722E+02  0.11109824835E+03  0.00000000000E+00 0. -1.
         11    1    4    4    0    0  0.14874958706E+02  0.27248351556E+02  0.23807190054E+02  0.39121852682E+02  0.00000000000E+00 0.  1.
</event>
<event>
 8    1  0.3528896E-009  0.1412691E+03  0.7561462E-02  0.1211631E+00
          1   -1    0    0  501    0  0.00000000000E+00  0.00000000000E+00  0.39604045899E+03  0.39604045899E+03  0.00000000000E+00 0. -1.
         -1   -1    0    0    0  501 -0.00000000000E+00 -0.00000000000E+00 -0.59695139152E+02  0.59695139152E+02  0.00000000000E+00 0.  1.
         25    2    1    2    0    0 -0.74618325220E+02 -0.69578346993E+02  0.25066205153E+03  0.29811633962E+03  0.12503138423E+03 0.  0.
         23    2    1    2    0    0  0.74618325220E+02  0.69578346993E+02  0.85683268309E+02  0.15761925852E+03  0.84220943718E+02 0.  0.
          5    1    3    3  502    0 -0.10552835045E+03 -0.75237570804E+02  0.20225467856E+03  0.24025268409E+03  0.41800000000E+01 0.  1.
         -5    1    3    3    0  502  0.30910025233E+02  0.56592238112E+01  0.48407372969E+02  0.57863655535E+02  0.41800000000E+01 0.  1.
        -11    1    4    4    0    0  0.73634482918E+02  0.26773251977E+02  0.83856484631E+02  0.11476390596E+03  0.00000000000E+00 0. -1.
         11    1    4    4    0    0  0.98384230228E+00  0.42805095016E+02  0.18267836774E+01  0.42855352567E+02  0.00000000000E+00 0.  1.
</event>
<event>
 8    1  0.3528896E-009  0.1061023E+03  0.7561462E-02  0.1267963E+00
          1   -1    0    0  501    0  0.00000000000E+00  0.00000000000E+00  0.49974135287E+03  0.49974135287E+03  0.00000000000E+00 0. -1.
         -1   -1    0    0    0  501 -0.00000000000E+00 -0.00000000000E+00 -0.40646540410E+02  0.40646540410E+02  0.00000000000E+00 0.  1.
         25    2    1    2    0    0  0.77959638999E+02 -0.33364064759E+02  0.31352018914E+03  0.34803885130E+03  0.12508104127E+03 0.  0.
         23    2    1    2    0    0 -0.77959638999E+02  0.33364064759E+02  0.14557462332E+03  0.19234904198E+03  0.92818731227E+02 0.  0.
          5    1    3    3  502    0 -0.38449371736E+01 -0.44041713681E+02  0.21468461043E+03  0.21922912772E+03  0.41800000000E+01 0.  1.
         -5    1    3    3    0  502  0.81804576173E+02  0.10677648922E+02  0.98835578714E+02  0.12880972358E+03  0.41800000000E+01 0.  1.
        -11    1    4    4    0    0 -0.27400013346E+02  0.16033719116E+02 -0.53914569810E+01  0.32201066573E+02  0.00000000000E+00 0.  1.
         11    1    4    4    0    0 -0.50559625653E+02  0.17330345643E+02  0.15096608030E+03  0.16014797541E+03  0.00000000000E+00 0. -1.
</event>
<event>
 8    1  0.3528896E-009  0.1052879E+03  0.7561462E-02  0.1269553E+00
         -2   -1    0    0    0  501 -0.00000000000E+00  0.00000000000E+00  0.18930126175E+02  0.18930126175E+02  0.00000000000E+00 0. -1.
          2   -1    0    0  501    0  0.00000000000E+00 -0.00000000000E+00 -0.10664217358E+04  0.10664217358E+04  0.00000000000E+00 0.  1.
         25    2    1    2    0    0  0.19233261468E+02 -0.63866994108E+02 -0.81287097129E+03  0.82513963401E+03  0.12508912174E+03 0.  0.
         23    2    1    2    0    0 -0.19233261468E+02  0.63866994108E+02 -0.23462063839E+03  0.26021222801E+03  0.90634697359E+02 0.  0.
          5    1    3    3  502    0  0.10587368734E+02  0.31041618476E+02 -0.87772625833E+02  0.93793287073E+02  0.41800000000E+01 0.  1.
         -5    1    3    3    0  502  0.86458927342E+01 -0.94908612585E+02 -0.72509834545E+03  0.73134634694E+03  0.41800000000E+01 0.  1.
        -11    1    4    4    0    0 -0.34326537447E+02  0.32317201632E+02 -0.38135060385E+02  0.60638234844E+02  0.00000000000E+00 0. -1.
         11    1    4    4    0    0  0.15093275980E+02  0.31549792477E+02 -0.19648557800E+03  0.19957399317E+03  0.00000000000E+00 0.  1.
</event>
<event>
 8    1  0.3528896E-009  0.1045278E+03  0.7561462E-02  0.1271053E+00
          1   -1    0    0  501    0  0.00000000000E+00  0.00000000000E+00  0.35326614229E+02  0.35326614229E+02  0.00000000000E+00 0. -1.
         -1   -1    0    0    0  501 -0.00000000000E+00 -0.00000000000E+00 -0.38399604360E+03  0.38399604360E+03  0.00000000000E+00 0.  1.
         25    2    1    2    0    0 -0.91851396805E+01  0.30127241646E+02 -0.14689514810E+03  0.19549463885E+03  0.12509177352E+03 0.  0.
         23    2    1    2    0    0  0.91851396805E+01 -0.30127241646E+02 -0.20177428127E+03  0.22382801898E+03  0.91619343034E+02 0.  0.
          5    1    3    3  502    0  0.45411096649E+02 -0.12480919100E+02 -0.20971608756E+02  0.51722546479E+02  0.41800000000E+01 0.  1.
         -5    1    3    3    0  502 -0.54596236329E+02  0.42608160746E+02 -0.12592353934E+03  0.14377209237E+03  0.41800000000E+01 0.  1.
        -11    1    4    4    0    0 -0.36216545519E+02 -0.29944455506E+02 -0.13612753546E+03  0.14401046661E+03  0.00000000000E+00 0. -1.
         11    1    4    4    0    0  0.45401685200E+02 -0.18278614003E+00 -0.65646745818E+02  0.79817552370E+02  0.00000000000E+00 0.  1.
</event>
<event>
 8    1  0.3528896E-009  0.9442370E+02  0.7561462E-02  0.1292479E+00
         -2   -1    0    0    0  501 -0.00000000000E+00  0.00000000000E+00  0.94276650023E+02  0.94276650023E+02  0.00000000000E+00 0.  1.
          2   -1    0    0  501    0  0.00000000000E+00 -0.00000000000E+00 -0.16408017088E+03  0.16408017088E+03  0.00000000000E+00 0. -1.
         25    2    1    2    0    0 -0.50486204761E+02 -0.60727780339E+01 -0.36851648202E+01  0.13507802756E+03  0.12508700006E+03 0.  0.
         23    2    1    2    0    0  0.50486204761E+02  0.60727780339E+01 -0.66118356038E+02  0.12327879335E+03  0.90776034169E+02 0.  0.
          5    1    3    3  502    0 -0.21498806348E+02  0.54962523294E+02 -0.24815374869E+02  0.64158809771E+02  0.41800000000E+01 0. -1.
         -5    1    3    3    0  502 -0.28987398412E+02 -0.61035301328E+02  0.21130210049E+02  0.70919217788E+02  0.41800000000E+01 0. -1.
        -11    1    4    4    0    0  0.14465239733E+02 -0.14516838545E+02 -0.77574623983E+02  0.80235927414E+02  0.00000000000E+00 0. -1.
         11    1    4    4    0    0  0.36020965028E+02  0.20589616578E+02  0.11456267945E+02  0.43042865932E+02  0.00000000000E+00 0.  1.
</event>
<event>
 8    1  0.3528896E-009  0.1350307E+03  0.7561462E-02  0.1220176E+00
          2   -1    0    0  501    0  0.00000000000E+00  0.00000000000E+00  0.86973081945E+03  0.86973081945E+03  0.00000000000E+00 0. -1.
         -2   -1    0    0    0  501 -0.00000000000E+00 -0.00000000000E+00 -0.23207694263E+02  0.23207694263E+02  0.00000000000E+00 0.  1.
         25    2    1    2    0    0 -0.14603733874E+02  0.83049516447E+02  0.56851057144E+03  0.58818557776E+03  0.12509001887E+03 0.  0.
         23    2    1    2    0    0  0.14603733874E+02 -0.83049516447E+02  0.27801255375E+03  0.30475293596E+03  0.92048252050E+02 0.  0.
          5    1    3    3  502    0  0.76727102668E+00  0.11393973474E+03  0.39010664870E+03  0.40642775695E+03  0.41800000000E+01 0.  1.
         -5    1    3    3    0  502 -0.15371004901E+02 -0.30890218292E+02  0.17840392274E+03  0.18175782081E+03  0.41800000000E+01 0.  1.
        -11    1    4    4    0    0 -0.36893594491E+02 -0.35045875373E+02  0.82272743503E+02  0.96737557436E+02  0.00000000000E+00 0. -1.
         11    1    4    4    0    0  0.51497328364E+02 -0.48003641075E+02  0.19573981025E+03  0.20801537852E+03  0.00000000000E+00 0.  1.
</event>
<event>
 8    1  0.3528896E-009  0.1718766E+03  0.7561462E-02  0.1175905E+00
         -3   -1    0    0    0  501 -0.00000000000E+00  0.00000000000E+00  0.41757401540E+02  0.41757401540E+02  0.00000000000E+00 0.  1.
          3   -1    0    0  501    0  0.00000000000E+00 -0.00000000000E+00 -0.81740286546E+03  0.81740286546E+03  0.00000000000E+00 0. -1.
         25    2    1    2    0    0  0.14428074147E+03 -0.37454134163E+02 -0.43927052207E+03  0.48044190551E+03  0.12508432552E+03 0.  0.
         23    2    1    2    0    0 -0.14428074147E+03  0.37454134163E+02 -0.33637494185E+03  0.37871836148E+03  0.89776117619E+02 0.  0.
          5    1    3    3  502    0  0.90559440576E+02 -0.64995804701E+02 -0.16229654942E+03  0.19693427649E+03  0.41800000000E+01 0. -1.
         -5    1    3    3    0  502  0.53721300894E+02  0.27541670539E+02 -0.27697397265E+03  0.28350762902E+03  0.41800000000E+01 0. -1.
        -11    1    4    4    0    0 -0.14871293362E+03  0.15756687551E+02 -0.26869497642E+03  0.30750739858E+03  0.00000000000E+00 0.  1.
         11    1    4    4    0    0  0.44321921522E+01  0.21697446611E+02 -0.67679965430E+02  0.71210962902E+02  0.00000000000E+00 0. -1.
</event>
<event>
 8    1  0.3528896E-009  0.1293521E+03  0.7561462E-02  0.1228420E+00
         -1   -1    0    0    0  501 -0.00000000000E+00  0.00000000000E+00  0.70671612235E+02  0.70671612235E+02  0.00000000000E+00 0.  1.
          1   -1    0    0  501    0  0.00000000000E+00 -0.00000000000E+00 -0.41205712611E+03  0.41205712611E+03  0.00000000000E+00 0. -1.
         25    2    1    2    0    0  0.63751559932E+02  0.91857960140E+02 -0.85834980105E+02  0.18846157668E+03  0.12509186961E+03 0.  0.
         23    2    1    2    0    0 -0.63751559932E+02 -0.91857960140E+02 -0.25555053377E+03  0.29426716166E+03  0.93728015483E+02 0.  0.
          5    1    3    3  502    0  0.13087506778E+02  0.52577492273E+02 -0.10767146788E+03  0.12060801351E+03  0.41800000000E+01 0. -1.
         -5    1    3    3    0  502  0.50664053155E+02  0.39280467867E+02  0.21836487771E+02  0.67853563179E+02  0.41800000000E+01 0. -1.
        -11    1    4    4    0    0 -0.18423181192E+02  0.15183715867E+02 -0.81836213009E+02  0.85247431589E+02  0.00000000000E+00 0. -1.
         11    1    4    4    0    0 -0.45328378740E+02 -0.10704167601E+03 -0.17371432076E+03  0.20901973007E+03  0.00000000000E+00 0.  1.
</event>
<event>
 8    1  0.3528896E-009  0.1423838E+03  0.7561462E-02  0.1210157E+00
         -1   -1    0    0    0  501 -0.00000000000E+00  0.00000000000E+00  0.18303375993E+03  0.18303375993E+03  0.00000000000E+00 0.  1.
          1   -1    0    0  501    0  0.00000000000E+00 -0.00000000000E+00 -0.15233384124E+03  0.15233384124E+03  0.00000000000E+00 0. -1.
         25    2    1    2    0    0 -0.63252350262E+02  0.97463622335E+02 -0.35281583197E+02  0.17429964917E+03  0.12504223325E+03 0.  0.
         23    2    1    2    0    0  0.63252350262E+02 -0.97463622335E+02  0.65981501881E+02  0.16106795200E+03  0.89940586380E+02 0.  0.
          5    1    3    3  502    0 -0.95007811325E+02  0.62099845310E+02 -0.50384998500E+02  0.12425375437E+03  0.41800000000E+01 0. -1.
         -5    1    3    3    0  502  0.31755461063E+02  0.35363777024E+02  0.15103415303E+02  0.50045894802E+02  0.41800000000E+01 0. -1.
        -11    1    4    4    0    0  0.59353504167E+02 -0.55271453895E+02 -0.18101585050E+01  0.81123663294E+02  0.00000000000E+00 0. -1.
         11    1    4    4    0    0  0.38988460955E+01 -0.42192168440E+02  0.67791660386E+02  0.79944288705E+02  0.00000000000E+00 0.  1.
</event>
<event>
 8    1  0.3528896E-009  0.1048761E+03  0.7561462E-02  0.1270364E+00
         -1   -1    0    0    0  501 -0.00000000000E+00  0.00000000000E+00  0.10229413352E+03  0.10229413352E+03  0.00000000000E+00 0.  1.
          1   -1    0    0  501    0  0.00000000000E+00 -0.00000000000E+00 -0.22983072513E+03  0.22983072513E+03  0.00000000000E+00 0. -1.
         25    2    1    2    0    0  0.42282416613E+02  0.79665771534E+02 -0.46693730109E+01  0.15428499825E+03  0.12509044620E+03 0.  0.
         23    2    1    2    0    0 -0.42282416613E+02 -0.79665771534E+02 -0.12286721859E+03  0.17783986040E+03  0.91630915274E+02 0.  0.
          5    1    3    3  502    0  0.19993030515E+02  0.28407645262E+02  0.59535917492E+02  0.69055871945E+02  0.41800000000E+01 0.  1.
         -5    1    3    3    0  502  0.22289386098E+02  0.51258126273E+02 -0.64205290503E+02  0.85229126301E+02  0.41800000000E+01 0.  1.
        -11    1    4    4    0    0 -0.64736115643E+02 -0.51690117990E+02 -0.11394267443E+03  0.14087429156E+03  0.00000000000E+00 0. -1.
         11    1    4    4    0    0  0.22453699030E+02 -0.27975653544E+02 -0.89245441676E+01  0.36965568844E+02  0.00000000000E+00 0.  1.
</event>
<event>
 8    1  0.3528896E-009  0.7567422E+02  0.7561462E-02  0.1341796E+00
          2   -1    0    0  501    0  0.00000000000E+00  0.00000000000E+00  0.46160533254E+03  0.46160533254E+03  0.00000000000E+00 0. -1.
         -2   -1    0    0    0  501 -0.00000000000E+00 -0.00000000000E+00 -0.28937472562E+02  0.28937472562E+02  0.00000000000E+00 0.  1.
         25    2    1    2    0    0  0.19636432172E+02 -0.26314158310E+02  0.19718359841E+03  0.23581044764E+03  0.12508865391E+03 0.  0.
         23    2    1    2    0    0 -0.19636432172E+02  0.26314158310E+02  0.23548426157E+03  0.25473235746E+03  0.91420523390E+02 0.  0.
          5    1    3    3  502    0  0.25085199745E+02 -0.35265695917E+02  0.21243542900E+03  0.21683915801E+03  0.41800000000E+01 0. -1.
         -5    1    3    3    0  502 -0.54487675725E+01  0.89515376068E+01 -0.15251830590E+02  0.18971289622E+02  0.41800000000E+01 0. -1.
        -11    1    4    4    0    0  0.45251189300E+01 -0.32599215067E+02  0.67821166143E+02  0.75384985914E+02  0.00000000000E+00 0.  1.
         11    1    4    4    0    0 -0.24161551102E+02  0.58913373377E+02  0.16766309543E+03  0.17934737155E+03  0.00000000000E+00 0. -1.
</event>
<event>
 8    1  0.3528896E-009  0.1215911E+03  0.7561462E-02  0.1240495E+00
          4   -1    0    0  501    0  0.00000000000E+00  0.00000000000E+00  0.11155475734E+03  0.11155475734E+03  0.00000000000E+00 0. -1.
         -4   -1    0    0    0  501 -0.00000000000E+00 -0.00000000000E+00 -0.25423366458E+03  0.25423366458E+03  0.00000000000E+00 0.  1.
         25    2    1    2    0    0  0.90435748531E+02  0.12071343441E+02 -0.17481978744E+03  0.23352453714E+03  0.12508960555E+03 0.  0.
         23    2    1    2    0    0 -0.90435748531E+02 -0.12071343441E+02  0.32140880205E+02  0.13226388479E+03  0.90201757718E+02 0.  0.
          5    1    3    3  502    0  0.76520437809E+02  0.47777063771E+02 -0.50721464651E+02  0.10357685360E+03  0.41800000000E+01 0. -1.
         -5    1    3    3    0  502  0.13915310721E+02 -0.35705720330E+02 -0.12409832279E+03  0.12994768354E+03  0.41800000000E+01 0. -1.
        -11    1    4    4    0    0 -0.70324830821E+02 -0.39233699045E+02 -0.66647716008E+01  0.80803985986E+02  0.00000000000E+00 0. -1.
         11    1    4    4    0    0 -0.20110917710E+02  0.27162355604E+02  0.38805651806E+02  0.51459898806E+02  0.00000000000E+00 0.  1.
</event>
<event>
 8    1  0.3528896E-009  0.1016867E+03  0.7561462E-02  0.1276789E+00
          1   -1    0    0  501    0  0.00000000000E+00  0.00000000000E+00  0.17041636962E+03  0.17041636962E+03  0.00000000000E+00 0. -1.
         -1   -1    0    0    0  501 -0.00000000000E+00 -0.00000000000E+00 -0.93248200801E+02  0.93248200801E+02  0.00000000000E+00 0.  1.
         25    2    1    2    0    0 -0.12614769610E+02 -0.31570802185E+02 -0.12999923852E+02  0.13027380084E+03  0.12508563947E+03 0.  0.
         23    2    1    2    0    0  0.12614769610E+02  0.31570802185E+02  0.90168092673E+02  0.13339076959E+03  0.92233207205E+02 0.  0.
          5    1    3    3  502    0  0.12197110342E+02 -0.74637012022E+02 -0.23496796500E+02  0.79303372627E+02  0.41800000000E+01 0.  1.
         -5    1    3    3    0  502 -0.24811879953E+02  0.43066209837E+02  0.10496872649E+02  0.50970428210E+02  0.41800000000E+01 0.  1.
        -11    1    4    4    0    0  0.50352134790E+01 -0.22549331775E+02  0.72289831099E+02  0.75892327798E+02  0.00000000000E+00 0. -1.
         11    1    4    4    0    0  0.75795561313E+01  0.54120133961E+02  0.17878261574E+02  0.57498441787E+02  0.00000000000E+00 0.  1.
</event>
<event>
 8    1  0.3528896E-009  0.1839838E+03  0.7561462E-02  0.1164002E+00
         -3   -1    0    0    0  501 -0.00000000000E+00  0.00000000000E+00  0.64393823772E+03  0.64393823772E+03  0.00000000000E+00 0.  1.
          3   -1    0    0  501    0  0.00000000000E+00 -0.00000000000E+00 -0.55407589502E+02  0.55407589502E+02  0.00000000000E+00 0. -1.
         25    2    1    2    0    0 -0.83577275675E+02 -0.12428722004E+03  0.38187229938E+03  0.42884472758E+03  0.12509545663E+03 0.  0.
         23    2    1    2    0    0  0.83577275675E+02  0.12428722004E+03  0.20665834884E+03  0.27050109964E+03  0.89614160064E+02 0.  0.
          5    1    3    3  502    0  0.47905644229E+01 -0.10200304074E+03  0.22988262289E+03  0.25157715026E+03  0.41800000000E+01 0. -1.
         -5    1    3    3    0  502 -0.88367840098E+02 -0.22284179307E+02  0.15198967649E+03  0.17726757732E+03  0.41800000000E+01 0. -1.
        -11    1    4    4    0    0 -0.16875960070E+02  0.39970835675E+02  0.51640535620E+02  0.67447836525E+02  0.00000000000E+00 0. -1.
         11    1    4    4    0    0  0.10045323575E+03  0.84316384370E+02  0.15501781322E+03  0.20305326311E+03  0.00000000000E+00 0.  1.
</event>
<event>
 8    1  0.3528896E-009  0.1221031E+03  0.7561462E-02  0.1239667E+00
          2   -1    0    0  501    0  0.00000000000E+00  0.00000000000E+00  0.44592788626E+03  0.44592788626E+03  0.00000000000E+00 0. -1.
         -2   -1    0    0    0  501 -0.00000000000E+00 -0.00000000000E+00 -0.46852175439E+02  0.46852175439E+02  0.00000000000E+00 0.  1.
         25    2    1    2    0    0 -0.63134855314E+02  0.64188153613E+02  0.16357929087E+03  0.22474804812E+03  0.12508945483E+03 0.  0.
         23    2    1    2    0    0  0.63134855314E+02 -0.64188153613E+02  0.23549641995E+03  0.26803201358E+03  0.90975092622E+02 0.  0.
          5    1    3    3  502    0 -0.93361411889E+02  0.76938195014E+02  0.12846858067E+03  0.17651483706E+03  0.41800000000E+01 0.  1.
         -5    1    3    3    0  502  0.30226556574E+02 -0.12750041401E+02  0.35110710206E+02  0.48233211061E+02  0.41800000000E+01 0.  1.
        -11    1    4    4    0    0  0.29284893510E+02 -0.31920006072E+02  0.21068430562E+03  0.21509153496E+03  0.00000000000E+00 0. -1.
         11    1    4    4    0    0  0.33849961804E+02 -0.32268147540E+02  0.24812114329E+02  0.52940478627E+02  0.00000000000E+00 0.  1.
</event>
<event>
 7    1  0.3528896E-009  0.9193219E+02  0.7561462E-02  0.1298239E+00
          2   -1    0    0  501    0  0.00000000000E+00  0.00000000000E+00  0.48975250915E+03  0.48975250915E+03  0.00000000000E+00 0. -1.
         -2   -1    0    0    0  501 -0.00000000000E+00 -0.00000000000E+00 -0.34749262338E+02  0.34749262338E+02  0.00000000000E+00 0.  1.
         23    2    1    2    0    0  0.15304993274E+02  0.69422585327E+01  0.63405574364E+02  0.11336293059E+03  0.92457824969E+02 0.  0.
          5    1    1    2  502    0  0.35388046488E+02  0.86908597565E+01  0.35355868785E+02  0.50944624202E+02  0.41800000000E+01 0. -1.
         -5    1    1    2    0  502 -0.50693039762E+02 -0.15633118289E+02  0.35624180366E+03  0.36019421670E+03  0.41800000000E+01 0. -1.
        -11    1    3    3    0    0  0.54199096375E+02 -0.13001489905E+01  0.36705963094E+02  0.65471827239E+02  0.00000000000E+00 0. -1.
         11    1    3    3    0    0 -0.38894103101E+02  0.82424075232E+01  0.26699611270E+02  0.47891103347E+02  0.00000000000E+00 0.  1.
</event>
<event>
 8    1  0.3528896E-009  0.1137031E+03  0.7561462E-02  0.1253862E+00
         -2   -1    0    0    0  501 -0.00000000000E+00  0.00000000000E+00  0.79006008665E+03  0.79006008665E+03  0.00000000000E+00 0. -1.
          2   -1    0    0  501    0  0.00000000000E+00 -0.00000000000E+00 -0.18588703853E+02  0.18588703853E+02  0.00000000000E+00 0.  1.
         25    2    1    2    0    0 -0.48601127222E+02 -0.56000850524E+00  0.49072093590E+03  0.50874000879E+03  0.12508787483E+03 0.  0.
         23    2    1    2    0    0  0.48601127222E+02  0.56000850524E+00  0.28075044690E+03  0.29990878172E+03  0.93605986683E+02 0.  0.
          5    1    3    3  502    0 -0.80017778872E+02  0.30106504737E+02  0.25655384803E+03  0.27045627355E+03  0.41800000000E+01 0.  1.
         -5    1    3    3    0  502  0.31416651650E+02 -0.30666513242E+02  0.23416708787E+03  0.23828373524E+03  0.41800000000E+01 0.  1.
        -11    1    4    4    0    0 -0.22434149865E+02 -0.12199517759E+02  0.32228172995E+02  0.41119027813E+02  0.00000000000E+00 0.  1.
         11    1    4    4    0    0  0.71035277087E+02  0.12759526264E+02  0.24852227390E+03  0.25878975391E+03  0.00000000000E+00 0. -1.
</event>
<event>
 8    1  0.3528896E-009  0.8727150E+02  0.7561462E-02  0.1309597E+00
          3   -1    0    0  501    0  0.00000000000E+00  0.00000000000E+00  0.12311715623E+03  0.12311715623E+03  0.00000000000E+00 0. -1.
         -3   -1    0    0    0  501 -0.00000000000E+00 -0.00000000000E+00 -0.14825225808E+03  0.14825225808E+03  0.00000000000E+00 0.  1.
         25    2    1    2    0    0 -0.48498879743E+02  0.13122231687E+02  0.49027337202E+02  0.14343897329E+03  0.12508686967E+03 0.  0.
         23    2    1    2    0    0  0.48498879743E+02 -0.13122231687E+02 -0.74162439046E+02  0.12793044103E+03  0.91333433501E+02 0.  0.
          5    1    3    3  502    0 -0.47472106123E+02  0.47869411405E+02  0.74181869730E+02  0.10032698343E+03  0.41800000000E+01 0.  1.
         -5    1    3    3    0  502 -0.10267736203E+01 -0.34747179718E+02 -0.25154532528E+02  0.43111989854E+02  0.41800000000E+01 0.  1.
        -11    1    4    4    0    0  0.46170599641E+02  0.11232914051E+02 -0.87863310857E+02  0.99889258802E+02  0.00000000000E+00 0.  1.
         11    1    4    4    0    0  0.23282801020E+01 -0.24355145738E+02  0.13700871810E+02  0.28041182224E+02  0.00000000000E+00 0. -1.
</event>
<event>
 8    1  0.3528896E-009  0.1073793E+03  0.7561462E-02  0.1265501E+00
         -2   -1    0    0    0  501 -0.00000000000E+00  0.00000000000E+00  0.27830872523E+02  0.27830872523E+02  0.00000000000E+00 0.  1.
          2   -1    0    0  501    0  0.00000000000E+00 -0.00000000000E+00 -0.58624728619E+03  0.58624728619E+03  0.00000000000E+00 0. -1.
         25    2    1    2    0    0  0.13119946637E+02 -0.51408047931E+02 -0.27876786756E+03  0.31011856908E+03  0.12508829886E+03 0.  0.
         23    2    1    2    0    0 -0.13119946637E+02  0.51408047931E+02 -0.27964854611E+03  0.30395958964E+03  0.10664521742E+03 0.  0.
          5    1    3    3  502    0  0.32192313273E+02 -0.64464809621E+02 -0.27734956502E+03  0.28658735201E+03  0.41800000000E+01 0. -1.
         -5    1    3    3    0  502 -0.19072366635E+02  0.13056761690E+02 -0.14183025434E+01  0.23531217075E+02  0.41800000000E+01 0. -1.
        -11    1    4    4    0    0 -0.54460443124E+02  0.55244288930E+02 -0.18485348445E+03  0.20047115014E+03  0.00000000000E+00 0.  1.
         11    1    4    4    0    0  0.41340496487E+02 -0.38362409995E+01 -0.94795061661E+02  0.10348843950E+03  0.00000000000E+00 0. -1.
</event>
<event>
 8    1  0.3528896E-009  0.8070431E+02  0.7561462E-02  0.1327064E+00
         -2   -1    0    0    0  501 -0.00000000000E+00  0.00000000000E+00  0.23464725847E+02  0.23464725847E+02  0.00000000000E+00 0.  1.
          2   -1    0    0  501    0  0.00000000000E+00 -0.00000000000E+00 -0.54392074435E+03  0.54392074435E+03  0.00000000000E+00 0. -1.
         25    2    1    2    0    0  0.21373993331E+02  0.81495510979E+01 -0.27352296523E+03  0.30163829081E+03  0.12509030020E+03 0.  0.
         23    2    1    2    0    0 -0.21373993331E+02 -0.81495510979E+01 -0.24693305327E+03  0.26574717938E+03  0.95511087194E+02 0.  0.
          5    1    3    3  502    0 -0.15677321067E+02 -0.18447599286E+02 -0.24798526931E+03  0.24919923457E+03  0.41800000000E+01 0.  1.
         -5    1    3    3    0  502  0.37051314398E+02  0.26597150384E+02 -0.25537695924E+02  0.52439056249E+02  0.41800000000E+01 0.  1.
        -11    1    4    4    0    0  0.20098140477E+01 -0.46273219621E+02 -0.17515905712E+03  0.18117931862E+03  0.00000000000E+00 0. -1.
         11    1    4    4    0    0 -0.23383807378E+02  0.38123668523E+02 -0.71773996153E+02  0.84567860756E+02  0.00000000000E+00 0.  1.
</event>
<event>
 8    1  0.3528896E-009  0.7506304E+02  0.7561462E-02  0.1343676E+00
         -1   -1    0    0    0  501 -0.00000000000E+00  0.00000000000E+00  0.19109583579E+03  0.19109583579E+03  0.00000000000E+00 0.  1.
          1   -1    0    0  501    0  0.00000000000E+00 -0.00000000000E+00 -0.88499279661E+02  0.88499279661E+02  0.00000000000E+00 0. -1.
         25    2    1    2    0    0  0.36491188699E+02 -0.10798446253E+02 -0.75429076434E+01  0.13096655452E+03  0.12508848729E+03 0.  0.
         23    2    1    2    0    0 -0.36491188699E+02  0.10798446253E+02  0.11013946377E+03  0.14862856093E+03  0.92257977164E+02 0.  0.
          5    1    3    3  502    0  0.57045990351E+02 -0.37970973871E+01  0.45701503327E+02  0.73312773580E+02  0.41800000000E+01 0.  1.
         -5    1    3    3    0  502 -0.20554801651E+02 -0.70013488659E+01 -0.53244410971E+02  0.57653780938E+02  0.41800000000E+01 0.  1.
        -11    1    4    4    0    0 -0.25098157952E+02 -0.23600565021E+02  0.10682232178E+03  0.11224042334E+03  0.00000000000E+00 0.  1.
         11    1    4    4    0    0 -0.11393030747E+02  0.34399011274E+02  0.33171419928E+01  0.36388137589E+02  0.00000000000E+00 0. -1.
</event>
<event>
 8    1  0.3528896E-009  0.6596824E+02  0.7561462E-02  0.1374366E+00
         -1   -1    0    0    0  501 -0.00000000000E+00  0.00000000000E+00  0.13222273765E+02  0.13222273765E+02  0.00000000000E+00 0.  1.
          1   -1    0    0  501    0  0.00000000000E+00 -0.00000000000E+00 -0.90922027779E+03  0.90922027779E+03  0.00000000000E+00 0. -1.
         25    2    1    2    0    0 -0.18479769963E+02  0.89445889787E+01 -0.52365596437E+03  0.53878104999E+03  0.12509173928E+03 0.  0.
         23    2    1    2    0    0  0.18479769963E+02 -0.89445889787E+01 -0.37234203966E+03  0.38366150157E+03  0.90200031703E+02 0.  0.
          5    1    3    3  502    0 -0.47696893173E+01 -0.15533532731E+02 -0.26296601915E+01  0.16983170729E+02  0.41800000000E+01 0. -1.
         -5    1    3    3    0  502 -0.13710080646E+02  0.24478121710E+02 -0.52102630418E+03  0.52179787926E+03  0.41800000000E+01 0. -1.
        -11    1    4    4    0    0 -0.33796217010E+02 -0.67927606157E+01 -0.87338906218E+02  0.93895742290E+02  0.00000000000E+00 0.  1.
         11    1    4    4    0    0  0.52275986973E+02 -0.21518283631E+01 -0.28500313344E+03  0.28976575928E+03  0.00000000000E+00 0. -1.
</event>
<event>
 8    1  0.3528896E-009  0.8201319E+02  0.7561462E-02  0.1323433E+00
         -2   -1    0    0    0  501 -0.00000000000E+00  0.00000000000E+00  0.18441481200E+03  0.18441481200E+03  0.00000000000E+00 0. -1.
          2   -1    0    0  501    0  0.00000000000E+00 -0.00000000000E+00 -0.11438123725E+03  0.11438123725E+03  0.00000000000E+00 0.  1.
         25    2    1    2    0    0 -0.77150459420E+02 -0.59914482553E+01  0.85162033593E+02  0.16997211360E+03  0.12509938687E+03 0.  0.
         23    2    1    2    0    0  0.77150459420E+02  0.59914482553E+01 -0.15128458846E+02  0.12882393565E+03  0.10187563638E+03 0.  0.
          5    1    3    3  502    0 -0.94569990397E+01 -0.12246855882E+02 -0.31237663003E+02  0.35109604095E+02  0.41800000000E+01 0.  1.
         -5    1    3    3    0  502 -0.67693460380E+02  0.62554076266E+01  0.11639969660E+03  0.13486250951E+03  0.41800000000E+01 0.  1.
        -11    1    4    4    0    0  0.36048887967E+02  0.12744951581E+02 -0.57729717248E+02  0.69243601639E+02  0.00000000000E+00 0.  1.
         11    1    4    4    0    0  0.41101571454E+02 -0.67535033257E+01  0.42601258402E+02  0.59580334009E+02  0.00000000000E+00 0. -1.
</event>
<event>
 8    1  0.3528896E-009  0.1082245E+03  0.7561462E-02  0.1263894E+00
          3   -1    0    0  501    0  0.00000000000E+00  0.00000000000E+00  0.72003259009E+02  0.72003259009E+02  0.00000000000E+00 0. -1.
         -3   -1    0    0    0  501 -0.00000000000E+00 -0.00000000000E+00 -0.20653534501E+03  0.20653534501E+03  0.00000000000E+00 0.  1.
         25    2    1    2    0    0  0.39034676656E+02 -0.16808970330E+02 -0.34874895598E+02  0.13664004987E+03  0.12509195586E+03 0.  0.
         23    2    1    2    0    0 -0.39034676656E+02  0.16808970330E+02 -0.99657190409E+02  0.14189855415E+03  0.91637310113E+02 0.  0.
          5    1    3    3  502    0  0.10001347594E+00  0.43621909721E+02  0.17926719321E+02  0.47346812734E+02  0.41800000000E+01 0. -1.
         -5    1    3    3    0  502  0.38934663180E+02 -0.60430880052E+02 -0.52801614919E+02  0.89293237139E+02  0.41800000000E+01 0. -1.
        -11    1    4    4    0    0 -0.20904183472E+02  0.54729806116E+02 -0.51780933702E+02  0.78189523974E+02  0.00000000000E+00 0. -1.
         11    1    4    4    0    0 -0.18130493185E+02 -0.37920835786E+02 -0.47876256706E+02  0.63709030177E+02  0.00000000000E+00 0.  1.
</event>
<event>
 8    1  0.3528896E-009  0.1324900E+03  0.7561462E-02  0.1223807E+00
          2   -1    0    0  501    0  0.00000000000E+00  0.00000000000E+00  0.61036464895E+02  0.61036464895E+02  0.00000000000E+00 0. -1.
         -2   -1    0    0    0  501 -0.00000000000E+00 -0.00000000000E+00 -0.36091698683E+03  0.36091698683E+03  0.00000000000E+00 0.  1.
         25    2    1    2    0    0 -0.77766357267E+02 -0.62711985375E+02 -0.18477417414E+03  0.24447828391E+03  0.12509091272E+03 0.  0.
         23    2    1    2    0    0  0.77766357267E+02  0.62711985375E+02 -0.11510634780E+03  0.17747516781E+03  0.90926148356E+02 0.  0.
          5    1    3    3  502    0 -0.14035644744E+02  0.38051408408E+02 -0.45556881886E+02  0.61137638917E+02  0.41800000000E+01 0. -1.
         -5    1    3    3    0  502 -0.63730712523E+02 -0.10076339378E+03 -0.13921729225E+03  0.18334064499E+03  0.41800000000E+01 0. -1.
        -11    1    4    4    0    0  0.19275103847E+02  0.35503821719E+02  0.54299429854E+01  0.40761934029E+02  0.00000000000E+00 0. -1.
         11    1    4    4    0    0  0.58491253419E+02  0.27208163656E+02 -0.12053629078E+03  0.13671323378E+03  0.00000000000E+00 0.  1.
</event>
<event>
 8    1  0.3528896E-009  0.1288437E+03  0.7561462E-02  0.1229182E+00
         -2   -1    0    0    0  501 -0.00000000000E+00  0.00000000000E+00  0.42693752170E+03  0.42693752170E+03  0.00000000000E+00 0. -1.
          2   -1    0    0  501    0  0.00000000000E+00 -0.00000000000E+00 -0.67531256727E+02  0.67531256727E+02  0.00000000000E+00 0.  1.
         25    2    1    2    0    0 -0.34044374677E+02 -0.75586503619E+02  0.46283552084E+02  0.15703992020E+03  0.12508809043E+03 0.  0.
         23    2    1    2    0    0  0.34044374677E+02  0.75586503619E+02  0.31312271289E+03  0.33742885822E+03  0.94551901404E+02 0.  0.
          5    1    3    3  502    0  0.37839337872E+02  0.68195153754E+01  0.23517214819E+02  0.45264258233E+02  0.41800000000E+01 0. -1.
         -5    1    3    3    0  502 -0.71883712549E+02 -0.82406018995E+02  0.22766337265E+02  0.11177566197E+03  0.41800000000E+01 0. -1.
        -11    1    4    4    0    0 -0.18386814915E+02  0.10075506645E+01  0.10126878751E+02  0.21015322846E+02  0.00000000000E+00 0.  1.
         11    1    4    4    0    0  0.52431189593E+02  0.74578952955E+02  0.30299583413E+03  0.31641353538E+03  0.00000000000E+00 0. -1.
</event>
<event>
 8    1  0.3528896E-009  0.1088643E+03  0.7561462E-02  0.1262688E+00
          1   -1    0    0  501    0  0.00000000000E+00  0.00000000000E+00  0.60695734636E+03  0.60695734636E+03  0.00000000000E+00 0. -1.
         -1   -1    0    0    0  501 -0.00000000000E+00 -0.00000000000E+00 -0.23441919859E+02  0.23441919859E+02  0.00000000000E+00 0.  1.
         25    2    1    2    0    0  0.21293055551E+02  0.31175576108E+02  0.43149719640E+03  0.45084707312E+03  0.12509173465E+03 0.  0.
         23    2    1    2    0    0 -0.21293055551E+02 -0.31175576108E+02  0.15201823009E+03  0.17955219309E+03  0.87773213476E+02 0.  0.
          5    1    3    3  502    0 -0.42814006930E+02  0.47798541272E+02  0.21262040493E+03  0.22213205246E+03  0.41800000000E+01 0.  1.
         -5    1    3    3    0  502  0.64107062481E+02 -0.16622965164E+02  0.21887679148E+03  0.22871502066E+03  0.41800000000E+01 0.  1.
        -11    1    4    4    0    0  0.29573210080E+01  0.25367872478E+02  0.15664549685E+02  0.29960854768E+02  0.00000000000E+00 0.  1.
         11    1    4    4    0    0 -0.24250376559E+02 -0.56543448586E+02  0.13635368041E+03  0.14959133833E+03  0.00000000000E+00 0. -1.
</event>
<event>
 8    1  0.3528896E-009  0.1880156E+03  0.7561462E-02  0.1160263E+00
         -2   -1    0    0    0  501 -0.00000000000E+00  0.00000000000E+00  0.87033062309E+02  0.87033062309E+02  0.00000000000E+00 0.  1.
          2   -1    0    0  501    0  0.00000000000E+00 -0.00000000000E+00 -0.68682501180E+03  0.68682501180E+03  0.00000000000E+00 0. -1.
         25    2    1    2    0    0 -0.60567422012E+02 -0.17238529054E+03 -0.11747367805E+03  0.25066347390E+03  0.12508801346E+03 0.  0.
         23    2    1    2    0    0  0.60567422012E+02  0.17238529054E+03 -0.48231827144E+03  0.52319460020E+03  0.87844030629E+02 0.  0.
          5    1    3    3  502    0 -0.45821250122E+02 -0.15560500320E+03 -0.14314307609E+03  0.21637910393E+03  0.41800000000E+01 0.  1.
         -5    1    3    3    0  502 -0.14746171889E+02 -0.16780287332E+02  0.25669398042E+02  0.34284369969E+02  0.41800000000E+01 0.  1.
        -11    1    4    4    0    0  0.10773423209E+01  0.86814305695E+02 -0.30890411093E+03  0.32087323679E+03  0.00000000000E+00 0.  1.
         11    1    4    4    0    0  0.59490079691E+02  0.85570984841E+02 -0.17341416051E+03  0.20232136341E+03  0.00000000000E+00 0. -1.
</event>
<event>
 8    1  0.3528896E-009  0.1250151E+03  0.7561462E-02  0.1235046E+00
          2   -1    0    0  501    0  0.00000000000E+00  0.00000000000E+00  0.52795433527E+02  0.52795433527E+02  0.00000000000E+00 0.  1.
         -2   -1    0    0    0  501 -0.00000000000E+00 -0.00000000000E+00 -0.73490231804E+03  0.73490231804E+03  0.00000000000E+00 0. -1.
         25    2    1    2    0    0 -0.67497461630E+02  0.84141286838E+02 -0.60498857011E+03  0.62713177172E+03  0.12508967044E+03 0.  0.
         23    2    1    2    0    0  0.67497461630E+02 -0.84141286838E+02 -0.77118314403E+02  0.16056597985E+03  0.90545767393E+02 0.  0.
          5    1    3    3  502    0 -0.54386155774E+02  0.75046025243E+02 -0.18633836103E+03  0.20815671269E+03  0.41800000000E+01 0.  1.
         -5    1    3    3    0  502 -0.13111305855E+02  0.90952615945E+01 -0.41865020908E+03  0.41897505903E+03  0.41800000000E+01 0.  1.
        -11    1    4    4    0    0  0.23677655334E+02  0.17916427306E+02 -0.18420114412E+02  0.34941813698E+02  0.00000000000E+00 0. -1.
         11    1    4    4    0    0  0.43819806295E+02 -0.10205771414E+03 -0.58698199991E+02  0.12562416616E+03  0.00000000000E+00 0.  1.
</event>
<event>
 8    1  0.3528896E-009  0.1849859E+03  0.7561462E-02  0.1163063E+00
         -1   -1    0    0    0  501 -0.00000000000E+00  0.00000000000E+00  0.15253130712E+03  0.15253130712E+03  0.00000000000E+00 0.  1.
          1   -1    0    0  501    0  0.00000000000E+00 -0.00000000000E+00 -0.27305947389E+03  0.27305947389E+03  0.00000000000E+00 0. -1.
         25    2    1    2    0    0 -0.11585169133E+03 -0.11571658208E+03 -0.11858058935E+03  0.23774057557E+03  0.12508910164E+03 0.  0.
         23    2    1    2    0    0  0.11585169133E+03  0.11571658208E+03 -0.19475774228E+01  0.18785020544E+03  0.92043277187E+02 0.  0.
          5    1    3    3  502    0  0.24233714374E+02 -0.46525064240E+00 -0.13401833294E+02  0.28010192898E+02  0.41800000000E+01 0.  1.
         -5    1    3    3    0  502 -0.14008540570E+03 -0.11525133144E+03 -0.10517875606E+03  0.20973038267E+03  0.41800000000E+01 0.  1.
        -11    1    4    4    0    0  0.49637976179E+02  0.44223619102E+02 -0.46068281711E+02  0.80882283260E+02  0.00000000000E+00 0. -1.
         11    1    4    4    0    0  0.66213715151E+02  0.71492962976E+02  0.44120704288E+02  0.10696792218E+03  0.00000000000E+00 0.  1.
</event>
<event>
 8    1  0.3528896E-009  0.1240610E+03  0.7561462E-02  0.1236544E+00
         -1   -1    0    0    0  501 -0.00000000000E+00  0.00000000000E+00  0.18254971370E+03  0.18254971370E+03  0.00000000000E+00 0.  1.
          1   -1    0    0  501    0  0.00000000000E+00 -0.00000000000E+00 -0.14016955614E+03  0.14016955614E+03  0.00000000000E+00 0. -1.
         25    2    1    2    0    0 -0.11251478185E+03 -0.30660099509E+02  0.10269602009E+02  0.17132551032E+03  0.12508935976E+03 0.  0.
         23    2    1    2    0    0  0.11251478185E+03  0.30660099509E+02  0.32110555558E+02  0.15139375953E+03  0.91045948890E+02 0.  0.
          5    1    3    3  502    0 -0.84648190381E+02 -0.48664472709E+02 -0.44319235852E+02  0.10730896563E+03  0.41800000000E+01 0.  1.
         -5    1    3    3    0  502 -0.27866591465E+02  0.18004373201E+02  0.54588837861E+02  0.64016544683E+02  0.41800000000E+01 0.  1.
        -11    1    4    4    0    0  0.68489301711E+02  0.14160990264E+02  0.63823526605E+02  0.94682419922E+02  0.00000000000E+00 0.  1.
         11    1    4    4    0    0  0.44025480135E+02  0.16499109245E+02 -0.31712971046E+02  0.56711339603E+02  0.00000000000E+00 0. -1.
</event>
<event>
 8    1  0.3528896E-009  0.1903904E+03  0.7561462E-02  0.1158110E+00
         -2   -1    0    0    0  501 -0.00000000000E+00  0.00000000000E+00  0.13927293060E+03  0.13927293060E+03  0.00000000000E+00 0.  1.
          2   -1    0    0  501    0  0.00000000000E+00 -0.00000000000E+00 -0.27347080076E+03  0.27347080076E+03  0.00000000000E+00 0. -1.
         25    2    1    2    0    0  0.14833451503E+03 -0.60612395565E+02 -0.52671342386E+02  0.21000721926E+03  0.12510703812E+03 0.  0.
         23    2    1    2    0    0 -0.14833451503E+03  0.60612395565E+02 -0.81526527775E+02  0.20273651211E+03  0.93693797899E+02 0.  0.
          5    1    3    3  502    0  0.69164888101E+02 -0.87935319594E+02 -0.18842799791E+01  0.11197064387E+03  0.41800000000E+01 0.  1.
         -5    1    3    3    0  502  0.79169626929E+02  0.27322924029E+02 -0.50787062407E+02  0.98036575386E+02  0.41800000000E+01 0.  1.
        -11    1    4    4    0    0  0.11280324547E+01  0.32949772479E+02 -0.82016187068E+01  0.33973909298E+02  0.00000000000E+00 0.  1.
         11    1    4    4    0    0 -0.14946254748E+03  0.27662623086E+02 -0.73324909068E+02  0.16876260281E+03  0.00000000000E+00 0. -1.
</event>
<event>
 8    1  0.3528896E-009  0.1041150E+03  0.7561462E-02  0.1271873E+00
          3   -1    0    0  501    0  0.00000000000E+00  0.00000000000E+00  0.32686348223E+03  0.32686348223E+03  0.00000000000E+00 0. -1.
         -3   -1    0    0    0  501 -0.00000000000E+00 -0.00000000000E+00 -0.50859194434E+02  0.50859194434E+02  0.00000000000E+00 0.  1.
         25    2    1    2    0    0 -0.57723322704E+02 -0.13300876074E+02  0.18708357529E+03  0.23271602166E+03  0.12509031659E+03 0.  0.
         23    2    1    2    0    0  0.57723322704E+02  0.13300876074E+02  0.88920712502E+02  0.14500665500E+03  0.98036429936E+02 0.  0.
          5    1    3    3  502    0 -0.60590758016E+01  0.40047699853E+02  0.13730094486E+03  0.14321156560E+03  0.41800000000E+01 0. -1.
         -5    1    3    3    0  502 -0.51664246902E+02 -0.53348575927E+02  0.49782630434E+02  0.89504456059E+02  0.41800000000E+01 0. -1.
        -11    1    4    4    0    0  0.57244487919E+02 -0.19386513150E+02  0.94170803570E+02  0.11189686561E+03  0.00000000000E+00 0. -1.
         11    1    4    4    0    0  0.47883478529E+00  0.32687389224E+02 -0.52500910689E+01  0.33109789387E+02  0.00000000000E+00 0.  1.
</event>
<event>
 8    1  0.3528896E-009  0.1285473E+03  0.7561462E-02  0.1229627E+00
          2   -1    0    0  501    0  0.00000000000E+00  0.00000000000E+00  0.56927557817E+03  0.56927557817E+03  0.00000000000E+00 0.  1.
         -2   -1    0    0    0  501 -0.00000000000E+00 -0.00000000000E+00 -0.30399959121E+02  0.30399959121E+02  0.00000000000E+00 0. -1.
         25    2    1    2    0    0  0.72509904422E+02 -0.40464468006E+01  0.25134356097E+03  0.28999156201E+03  0.12508980945E+03 0.  0.
         23    2    1    2    0    0 -0.72509904422E+02  0.40464468006E+01  0.28753205808E+03  0.30968397527E+03  0.89193162000E+02 0.  0.
          5    1    3    3  502    0  0.89972594432E+02  0.37884636479E+02  0.15232085107E+03  0.18096802894E+03  0.41800000000E+01 0.  1.
         -5    1    3    3    0  502 -0.17462690010E+02 -0.41931083280E+02  0.99022709898E+02  0.10902353307E+03  0.41800000000E+01 0.  1.
        -11    1    4    4    0    0 -0.68672741801E+02  0.38751038528E+02  0.17703061721E+03  0.19379738874E+03  0.00000000000E+00 0. -1.
         11    1    4    4    0    0 -0.38371626212E+01 -0.34704591727E+02  0.11050144087E+03  0.11588658653E+03  0.00000000000E+00 0.  1.
</event>
<event>
 7    1  0.3528896E-009  0.8986145E+02  0.7561462E-02  0.1303188E+00
          2   -1    0    0  501    0  0.00000000000E+00  0.00000000000E+00  0.41813057549E+03  0.41813057549E+03  0.00000000000E+00 0. -1.
         -2   -1    0    0    0  501 -0.00000000000E+00 -0.00000000000E+00 -0.56551221937E+02  0.56551221937E+02  0.00000000000E+00 0.  1.
         25    2    1    2    0    0 -0.24243664269E+02  0.23417649118E+01  0.21077665054E+03  0.24630698400E+03  0.12508834811E+03 0.  0.
          5    1    3    3  502    0 -0.25768894519E+02  0.23275158555E+02  0.53505570937E+00  0.34978959605E+02  0.41800000000E+01 0.  1.
         -5    1    3    3    0  502  0.15252302499E+01 -0.20933393643E+02  0.21024159483E+03  0.21132802439E+03  0.41800000000E+01 0.  1.
        -11    1    1    2    0    0  0.70915013712E+02  0.16840749004E+02  0.38373305762E+01  0.72988184679E+02  0.00000000000E+00 0.  1.
         11    1    1    2    0    0 -0.46671349443E+02 -0.19182513916E+02  0.14696537243E+03  0.15538662875E+03  0.00000000000E+00 0. -1.
</event>
<event>
 8    1  0.3528896E-009  0.1481817E+03  0.7561462E-02  0.1202725E+00
         -1   -1    0    0    0  501 -0.00000000000E+00  0.00000000000E+00  0.24152680034E+02  0.24152680034E+02  0.00000000000E+00 0.  1.
          1   -1    0    0  501    0  0.00000000000E+00 -0.00000000000E+00 -0.10427838789E+04  0.10427838789E+04  0.00000000000E+00 0. -1.
         25    2    1    2    0    0 -0.91894148317E+02 -0.67768904407E+02 -0.60755911903E+03  0.63072373042E+03  0.12508869692E+03 0.  0.
         23    2    1    2    0    0  0.91894148317E+02  0.67768904407E+02 -0.41107207979E+03  0.43621282847E+03  0.90907744663E+02 0.  0.
          5    1    3    3  502    0 -0.88689452586E+02 -0.98000444093E+02 -0.54792798783E+03  0.56365987820E+03  0.41800000000E+01 0. -1.
         -5    1    3    3    0  502 -0.32046957318E+01  0.30231539686E+02 -0.59631131201E+02  0.67063852222E+02  0.41800000000E+01 0. -1.
        -11    1    4    4    0    0  0.77701475121E+01  0.45850411454E+02 -0.23838515219E+03  0.24287880972E+03  0.00000000000E+00 0.  1.
         11    1    4    4    0    0  0.84124000805E+02  0.21918492953E+02 -0.17268692759E+03  0.19333401875E+03  0.00000000000E+00 0. -1.
</event>
<event>
 8    1  0.3528896E-009  0.2261793E+03  0.7561462E-02  0.1129358E+00
         -2   -1    0    0    0  501 -0.00000000000E+00  0.00000000000E+00  0.51710654791E+03  0.51710654791E+03  0.00000000000E+00 0.  1.
          2   -1    0    0  501    0  0.00000000000E+00 -0.00000000000E+00 -0.15402356479E+03  0.15402356479E+03  0.00000000000E+00 0. -1.
         25    2    1    2    0    0 -0.20425617258E+03  0.30957754531E+02  0.37440019341E+03  0.44553552509E+03  0.12508969856E+03 0.  0.
         23    2    1    2    0    0  0.20425617258E+03 -0.30957754531E+02 -0.11317210296E+02  0.22559458761E+03  0.89921477468E+02 0.  0.
          5    1    3    3  502    0 -0.13740146570E+03  0.69698731073E+02  0.30437979734E+03  0.34117680068E+03  0.41800000000E+01 0.  1.
         -5    1    3    3    0  502 -0.66854706875E+02 -0.38740976541E+02  0.70020396069E+02  0.10435872441E+03  0.41800000000E+01 0.  1.
        -11    1    4    4    0    0  0.15163385902E+03  0.13130888901E+02  0.13021082803E+02  0.15275731093E+03  0.00000000000E+00 0. -1.
         11    1    4    4    0    0  0.52622313552E+02 -0.44088643432E+02 -0.24338293099E+02  0.72837276680E+02  0.00000000000E+00 0.  1.
</event>
<event>
 8    1  0.3528896E-009  0.9819768E+02  0.7561462E-02  0.1284132E+00
          3   -1    0    0  501    0  0.00000000000E+00  0.00000000000E+00  0.84329043865E+02  0.84329043865E+02  0.00000000000E+00 0. -1.
         -3   -1    0    0    0  501 -0.00000000000E+00 -0.00000000000E+00 -0.17675216195E+03  0.17675216195E+03  0.00000000000E+00 0.  1.
         25    2    1    2    0    0 -0.27935932691E+02 -0.43994826381E+02 -0.73172196208E+02  0.15399750618E+03  0.12508037628E+03 0.  0.
         23    2    1    2    0    0  0.27935932691E+02  0.43994826381E+02 -0.19250921880E+02  0.10708369963E+03  0.91544304304E+02 0.  0.
          5    1    3    3  502    0  0.42952063630E+02 -0.46346373946E+02 -0.24629831715E+02  0.67948268251E+02  0.41800000000E+01 0. -1.
         -5    1    3    3    0  502 -0.70887996321E+02  0.23515475650E+01 -0.48542364493E+02  0.86049237933E+02  0.41800000000E+01 0. -1.
        -11    1    4    4    0    0 -0.23680120082E+01  0.27333474345E+02 -0.52420099758E+02  0.59165810730E+02  0.00000000000E+00 0.  1.
         11    1    4    4    0    0  0.30303944699E+02  0.16661352037E+02  0.33169177878E+02  0.47917888905E+02  0.00000000000E+00 0. -1.
</event>
<event>
 8    1  0.3528896E-009  0.1263350E+03  0.7561462E-02  0.1232997E+00
          1   -1    0    0  501    0  0.00000000000E+00  0.00000000000E+00  0.16932879788E+03  0.16932879788E+03  0.00000000000E+00 0. -1.
         -1   -1    0    0    0  501 -0.00000000000E+00 -0.00000000000E+00 -0.10609889049E+03  0.10609889049E+03  0.00000000000E+00 0.  1.
         25    2    1    2    0    0  0.79248519903E+02  0.10478212751E+02  0.17367474188E+02  0.14946318298E+03  0.12508993988E+03 0.  0.
         23    2    1    2    0    0 -0.79248519903E+02 -0.10478212751E+02  0.45862433197E+02  0.12596450538E+03  0.85869511402E+02 0.  0.
          5    1    3    3  502    0 -0.24068807748E+02 -0.15346300080E+02  0.30613699079E+02  0.42065275511E+02  0.41800000000E+01 0. -1.
         -5    1    3    3    0  502  0.10331732765E+03  0.25824512831E+02 -0.13246224891E+02  0.10739790747E+03  0.41800000000E+01 0. -1.
        -11    1    4    4    0    0 -0.56078462420E+02 -0.47551144589E+02  0.26560978616E+02  0.78175385410E+02  0.00000000000E+00 0. -1.
         11    1    4    4    0    0 -0.23170057483E+02  0.37072931837E+02  0.19301454581E+02  0.47789119973E+02  0.00000000000E+00 0.  1.
</event>
<event>
 8    1  0.3528896E-009  0.1031992E+03  0.7561462E-02  0.1273709E+00
         -2   -1    0    0    0  501 -0.00000000000E+00  0.00000000000E+00  0.39595388730E+03  0.39595388730E+03  0.00000000000E+00 0.  1.
          2   -1    0    0  501    0  0.00000000000E+00 -0.00000000000E+00 -0.61206974663E+02  0.61206974663E+02  0.00000000000E+00 0. -1.
         25    2    1    2    0    0  0.19209966886E+02 -0.52284092817E+02  0.38389345698E+02  0.14221162175E+03  0.12509098412E+03 0.  0.
         23    2    1    2    0    0 -0.19209966886E+02  0.52284092817E+02  0.29635756694E+03  0.31494924021E+03  0.90898664665E+02 0.  0.
          5    1    3    3  502    0  0.28262567198E+02 -0.72146061789E+02 -0.19663863565E+02  0.80049777430E+02  0.41800000000E+01 0. -1.
         -5    1    3    3    0  502 -0.90526003117E+01  0.19861968972E+02  0.58053209263E+02  0.62161844323E+02  0.41800000000E+01 0. -1.
        -11    1    4    4    0    0 -0.29513338701E+02 -0.18641100728E+02  0.10064171354E+03  0.10652362321E+03  0.00000000000E+00 0.  1.
         11    1    4    4    0    0  0.10303371814E+02  0.70925193545E+02  0.19571585340E+03  0.20842561700E+03  0.00000000000E+00 0. -1.
</event>
<event>
 8    1  0.3528896E-009  0.1176765E+03  0.7561462E-02  0.1246980E+00
          1   -1    0    0  501    0  0.00000000000E+00  0.00000000000E+00  0.18252647287E+03  0.18252647287E+03  0.00000000000E+00 0. -1.
         -1   -1    0    0    0  501 -0.00000000000E+00 -0.00000000000E+00 -0.12273147936E+03  0.12273147936E+03  0.00000000000E+00 0.  1.
         25    2    1    2    0    0  0.54566042086E+02  0.54970561992E+02  0.99396535854E+02  0.17755730463E+03  0.12509080483E+03 0.  0.
         23    2    1    2    0    0 -0.54566042086E+02 -0.54970561992E+02 -0.39601542338E+02  0.12770064760E+03  0.93487740411E+02 0.  0.
          5    1    3    3  502    0  0.24557210578E+02 -0.32370403441E+02  0.69105641201E+02  0.80274290131E+02  0.41800000000E+01 0. -1.
         -5    1    3    3    0  502  0.30008831508E+02  0.87340965433E+02  0.30290894653E+02  0.97283014499E+02  0.41800000000E+01 0. -1.
        -11    1    4    4    0    0 -0.51976689647E+02 -0.52153529695E+01 -0.54704133232E+02  0.75639396917E+02  0.00000000000E+00 0.  1.
         11    1    4    4    0    0 -0.25893524389E+01 -0.49755209022E+02  0.15102590894E+02  0.52061250683E+02  0.00000000000E+00 0. -1.
</event>
<event>
 8    1  0.3528896E-009  0.1131187E+03  0.7561462E-02  0.1254901E+00
          1   -1    0    0  501    0  0.00000000000E+00  0.00000000000E+00  0.51605275205E+03  0.51605275205E+03  0.00000000000E+00 0. -1.
         -1   -1    0    0    0  501 -0.00000000000E+00 -0.00000000000E+00 -0.34346676624E+02  0.34346676624E+02  0.00000000000E+00 0.  1.
         25    2    1    2    0    0 -0.16207450283E+02 -0.52302368721E+02  0.15246406672E+03  0.20467220928E+03  0.12508877803E+03 0.  0.
         23    2    1    2    0    0  0.16207450283E+02  0.52302368721E+02  0.32924200870E+03  0.34572721940E+03  0.90159806569E+02 0.  0.
          5    1    3    3  502    0 -0.43945071593E+02 -0.74032872825E+02  0.14457976933E+03  0.16832355057E+03  0.41800000000E+01 0. -1.
         -5    1    3    3    0  502  0.27737621310E+02  0.21730504104E+02  0.78842973957E+01  0.36348658709E+02  0.41800000000E+01 0. -1.
        -11    1    4    4    0    0  0.42568174787E+02 -0.36340216069E+01  0.15751795863E+03  0.16320895474E+03  0.00000000000E+00 0.  1.
         11    1    4    4    0    0 -0.26360724504E+02  0.55936390328E+02  0.17172405007E+03  0.18251826466E+03  0.00000000000E+00 0. -1.
</event>
<event>
 8    1  0.3528896E-009  0.1160547E+03  0.7561462E-02  0.1249751E+00
         -2   -1    0    0    0  501 -0.00000000000E+00  0.00000000000E+00  0.37674980335E+02  0.37674980335E+02  0.00000000000E+00 0.  1.
          2   -1    0    0  501    0  0.00000000000E+00 -0.00000000000E+00 -0.46196280941E+03  0.46196280941E+03  0.00000000000E+00 0. -1.
         25    2    1    2    0    0 -0.16268227382E+02  0.62051478017E+02 -0.32998203223E+03  0.35867896029E+03  0.12508962314E+03 0.  0.
         23    2    1    2    0    0  0.16268227382E+02 -0.62051478017E+02 -0.94305796850E+02  0.14095882945E+03  0.82829747890E+02 0.  0.
          5    1    3    3  502    0  0.34446895562E+02  0.72270223091E+02 -0.25634305651E+03  0.26858668765E+03  0.41800000000E+01 0.  1.
         -5    1    3    3    0  502 -0.50715122944E+02 -0.10218745074E+02 -0.73638975715E+02  0.90092272645E+02  0.41800000000E+01 0.  1.
        -11    1    4    4    0    0  0.16630878442E+02  0.15351910567E+02 -0.41459242454E+02  0.47234902991E+02  0.00000000000E+00 0.  1.
         11    1    4    4    0    0 -0.36265106005E+00 -0.77403388584E+02 -0.52846554396E+02  0.93723926463E+02  0.00000000000E+00 0. -1.
</event>
<event>
 8    1  0.3528896E-009  0.9776555E+02  0.7561462E-02  0.1285066E+00
          2   -1    0    0  501    0  0.00000000000E+00  0.00000000000E+00  0.59029366194E+03  0.59029366194E+03  0.00000000000E+00 0. -1.
         -2   -1    0    0    0  501 -0.00000000000E+00 -0.00000000000E+00 -0.28033672539E+02  0.28033672539E+02  0.00000000000E+00 0.  1.
         25    2    1    2    0    0 -0.64830522864E+01 -0.13332642618E+02  0.48242294644E+03  0.49859800529E+03  0.12509309454E+03 0.  0.
         23    2    1    2    0    0  0.64830522864E+01  0.13332642618E+02  0.79837042961E+02  0.11972932919E+03  0.87985052780E+02 0.  0.
          5    1    3    3  502    0 -0.60348707423E+02  0.34847982948E+01  0.33980127327E+03  0.34516153902E+03  0.41800000000E+01 0. -1.
         -5    1    3    3    0  502  0.53865655137E+02 -0.16817440913E+02  0.14262167317E+03  0.15343646626E+03  0.41800000000E+01 0. -1.
        -11    1    4    4    0    0  0.39872264051E+02  0.19522133068E+02  0.15576852755E+02  0.47048373637E+02  0.00000000000E+00 0.  1.
         11    1    4    4    0    0 -0.33389211765E+02 -0.61894904506E+01  0.64260190207E+02  0.72680955550E+02  0.00000000000E+00 0. -1.
</event>
<event>
 8    1  0.3528896E-009  0.1172144E+03  0.7561462E-02  0.1247764E+00
         -1   -1    0    0    0  501 -0.00000000000E+00  0.00000000000E+00  0.91613688019E+02  0.91613688019E+02  0.00000000000E+00 0.  1.
          1   -1    0    0  501    0  0.00000000000E+00 -0.00000000000E+00 -0.23049180860E+03  0.23049180860E+03  0.00000000000E+00 0. -1.
         25    2    1    2    0    0  0.53246260370E+02 -0.30176095414E+02 -0.15879820407E+03  0.21121182385E+03  0.12509118251E+03 0.  0.
         23    2    1    2    0    0 -0.53246260370E+02  0.30176095414E+02  0.19920083483E+02  0.11089367277E+03  0.90304130342E+02 0.  0.
          5    1    3    3  502    0  0.35244097073E+02  0.39611082803E+02 -0.24107624447E+02  0.58393785763E+02  0.41800000000E+01 0.  1.
         -5    1    3    3    0  502  0.18002163297E+02 -0.69787178216E+02 -0.13469057962E+03  0.15281803809E+03  0.41800000000E+01 0.  1.
        -11    1    4    4    0    0 -0.32248331507E+02 -0.30779813754E+02  0.66882231733E+01  0.45078644045E+02  0.00000000000E+00 0.  1.
         11    1    4    4    0    0 -0.20997928863E+02  0.60955909167E+02  0.13231860310E+02  0.65815028726E+02  0.00000000000E+00 0. -1.
</event>
<event>
 8    1  0.3528896E-009  0.1085340E+03  0.7561462E-02  0.1263309E+00
          1   -1    0    0  501    0  0.00000000000E+00  0.00000000000E+00  0.49076492844E+02  0.49076492844E+02  0.00000000000E+00 0. -1.
         -1   -1    0    0    0  501 -0.00000000000E+00 -0.00000000000E+00 -0.39397032190E+03  0.39397032190E+03  0.00000000000E+00 0.  1.
         25    2    1    2    0    0 -0.45703440246E+02 -0.32585466012E+02 -0.84575503272E+02  0.16109645544E+03  0.12509370550E+03 0.  0.
         23    2    1    2    0    0  0.45703440246E+02  0.32585466012E+02 -0.26031832578E+03  0.28195035930E+03  0.92626979491E+02 0.  0.
          5    1    3    3  502    0  0.26418132784E+02  0.55089462816E+01 -0.73833594750E+02  0.78721905101E+02  0.41800000000E+01 0. -1.
         -5    1    3    3    0  502 -0.72121573030E+02 -0.38094412294E+02 -0.10741908522E+02  0.82374550336E+02  0.41800000000E+01 0. -1.
        -11    1    4    4    0    0  0.33967245966E+02 -0.29447740972E+02 -0.99537267465E+02  0.10921818009E+03  0.00000000000E+00 0. -1.
         11    1    4    4    0    0  0.11736194280E+02  0.62033206984E+02 -0.16078105831E+03  0.17273217922E+03  0.00000000000E+00 0.  1.
</event>
<event>
 8    1  0.3528896E-009  0.1166248E+03  0.7561462E-02  0.1248771E+00
          2   -1    0    0  501    0  0.00000000000E+00  0.00000000000E+00  0.83296274499E+03  0.83296274499E+03  0.00000000000E+00 0. -1.
         -2   -1    0    0    0  501 -0.00000000000E+00 -0.00000000000E+00 -0.16700023717E+02  0.16700023717E+02  0.00000000000E+00 0.  1.
         25    2    1    2    0    0  0.35464838672E+02  0.29569919113E+02  0.49811841036E+03  0.51565991074E+03  0.12510418821E+03 0.  0.
         23    2    1    2    0    0 -0.35464838672E+02 -0.29569919113E+02  0.31814431091E+03  0.33400285796E+03  0.90608893961E+02 0.  0.
          5    1    3    3  502    0  0.50682422162E+02 -0.38179646890E+02  0.25198688666E+03  0.25988700775E+03  0.41800000000E+01 0. -1.
         -5    1    3    3    0  502 -0.15217583491E+02  0.67749566004E+02  0.24613152371E+03  0.25577290299E+03  0.41800000000E+01 0. -1.
        -11    1    4    4    0    0 -0.11363086772E+01 -0.56470514520E+02  0.20816604998E+03  0.21569263913E+03  0.00000000000E+00 0.  1.
         11    1    4    4    0    0 -0.34328529994E+02  0.26900595407E+02  0.10997826093E+03  0.11831021884E+03  0.00000000000E+00 0. -1.
</event>
<event>
 8    1  0.3528896E-009  0.1013730E+03  0.7561462E-02  0.1277435E+00
          2   -1    0    0  501    0  0.00000000000E+00  0.00000000000E+00  0.14200063926E+03  0.14200063926E+03  0.00000000000E+00 0. -1.
         -2   -1    0    0    0  501 -0.00000000000E+00 -0.00000000000E+00 -0.15542813411E+03  0.15542813411E+03  0.00000000000E+00 0.  1.
         25    2    1    2    0    0 -0.80351904471E+00  0.87342224464E+02 -0.42114077886E+02  0.15827216842E+03  0.12508866425E+03 0.  0.
         23    2    1    2    0    0  0.80351904471E+00 -0.87342224464E+02  0.28686583039E+02  0.13915660494E+03  0.10446210239E+03 0.  0.
          5    1    3    3  502    0 -0.17880012365E+02  0.70121172243E+02  0.32695841841E+02  0.79518325640E+02  0.41800000000E+01 0.  1.
         -5    1    3    3    0  502  0.17076493320E+02  0.17221052221E+02 -0.74809919727E+02  0.78753842784E+02  0.41800000000E+01 0.  1.
        -11    1    4    4    0    0  0.25954851557E+02 -0.71153839543E+02  0.59423108652E+02  0.96268525712E+02  0.00000000000E+00 0. -1.
         11    1    4    4    0    0 -0.25151332512E+02 -0.16188384922E+02 -0.30736525612E+02  0.42888079232E+02  0.00000000000E+00 0.  1.
</event>
<event>
 8    1  0.3528896E-009  0.2404546E+03  0.7561462E-02  0.1119490E+00
          2   -1    0    0  501    0  0.00000000000E+00  0.00000000000E+00  0.10521146544E+03  0.10521146544E+03  0.00000000000E+00 0. -1.
         -2   -1    0    0    0  501 -0.00000000000E+00 -0.00000000000E+00 -0.85104035370E+03  0.85104035370E+03  0.00000000000E+00 0.  1.
         25    2    1    2    0    0  0.21509068245E+03  0.86010751943E+02 -0.62762184549E+03  0.68060137317E+03  0.12508875687E+03 0.  0.
         23    2    1    2    0    0 -0.21509068245E+03 -0.86010751943E+02 -0.11820704277E+03  0.27565044596E+03  0.91369646337E+02 0.  0.
          5    1    3    3  502    0  0.10203057802E+03 -0.75949741507E+01 -0.37168522739E+03  0.38553249298E+03  0.41800000000E+01 0.  1.
         -5    1    3    3    0  502  0.11306010443E+03  0.93605726094E+02 -0.25593661811E+03  0.29506888019E+03  0.41800000000E+01 0.  1.
        -11    1    4    4    0    0 -0.13388917133E+03 -0.51938662784E+02 -0.22100958569E+02  0.14530102292E+03  0.00000000000E+00 0. -1.
         11    1    4    4    0    0 -0.81201511122E+02 -0.34072089159E+02 -0.96106084197E+02  0.13034942304E+03  0.00000000000E+00 0.  1.
</event>
<event>
 8    1  0.3528896E-009  0.8315183E+02  0.7561462E-02  0.1320338E+00
          1   -1    0    0  501    0  0.00000000000E+00  0.00000000000E+00  0.49394605094E+02  0.49394605094E+02  0.00000000000E+00 0. -1.
         -1   -1    0    0    0  501 -0.00000000000E+00 -0.00000000000E+00 -0.36450513512E+03  0.36450513512E+03  0.00000000000E+00 0.  1.
         25    2    1    2    0    0 -0.10514204322E+02 -0.69622212829E+02 -0.22209728992E+03  0.26444866859E+03  0.12509233038E+03 0.  0.
         23    2    1    2    0    0  0.10514204322E+02  0.69622212829E+02 -0.93013240110E+02  0.14945107163E+03  0.93414982538E+02 0.  0.
          5    1    3    3  502    0 -0.12811894213E+02 -0.37959774480E+02 -0.22891441964E+00  0.40281682111E+02  0.41800000000E+01 0. -1.
         -5    1    3    3    0  502  0.22976898910E+01 -0.31662438349E+02 -0.22186837550E+03  0.22416698648E+03  0.41800000000E+01 0. -1.
        -11    1    4    4    0    0 -0.25236096434E+02  0.41271780973E+02 -0.29212402076E+01  0.48463946520E+02  0.00000000000E+00 0. -1.
         11    1    4    4    0    0  0.35750300756E+02  0.28350431856E+02 -0.90091999903E+02  0.10098712511E+03  0.00000000000E+00 0.  1.
</event>
<event>
 8    1  0.3528896E-009  0.1259110E+03  0.7561462E-02  0.1233652E+00
         -1   -1    0    0    0  501 -0.00000000000E+00  0.00000000000E+00  0.37522421815E+02  0.37522421815E+02  0.00000000000E+00 0.  1.
          1   -1    0    0  501    0  0.00000000000E+00 -0.00000000000E+00 -0.58066769803E+03  0.58066769803E+03  0.00000000000E+00 0. -1.
         25    2    1    2    0    0 -0.60580803968E+02  0.79852021558E+02 -0.28856998115E+03  0.33009976560E+03  0.12508733779E+03 0.  0.
         23    2    1    2    0    0  0.60580803968E+02 -0.79852021558E+02 -0.25457529507E+03  0.28809035425E+03  0.90228001162E+02 0.  0.
          5    1    3    3  502    0 -0.64019315042E+02  0.10653032190E+03 -0.26966373617E+03  0.29695653754E+03  0.41800000000E+01 0. -1.
         -5    1    3    3    0  502  0.34385110734E+01 -0.26678300338E+02 -0.18906244978E+02  0.33143228063E+02  0.41800000000E+01 0. -1.
        -11    1    4    4    0    0  0.23801223836E+02 -0.30144491428E+02 -0.20574600798E+03  0.20930028289E+03  0.00000000000E+00 0. -1.
         11    1    4    4    0    0  0.36779580132E+02 -0.49707530129E+02 -0.48829287092E+02  0.78790071355E+02  0.00000000000E+00 0.  1.
</event>
<event>
 8    1  0.3528896E-009  0.1209361E+03  0.7561462E-02  0.1241561E+00
          2   -1    0    0  501    0  0.00000000000E+00  0.00000000000E+00  0.51877043078E+03  0.51877043078E+03  0.00000000000E+00 0.  1.
         -2   -1    0    0    0  501 -0.00000000000E+00 -0.00000000000E+00 -0.54385287450E+02  0.54385287450E+02  0.00000000000E+00 0. -1.
         25    2    1    2    0    0  0.67602860109E+02  0.40649317525E+02  0.75751484135E+02  0.16615889182E+03  0.12509187132E+03 0.  0.
         23    2    1    2    0    0 -0.67602860109E+02 -0.40649317525E+02  0.38863365920E+03  0.40699682641E+03  0.91584834664E+02 0.  0.
          5    1    3    3  502    0 -0.24218843147E+02 -0.11613630924E+02  0.50651400445E+02  0.57484480981E+02  0.41800000000E+01 0. -1.
         -5    1    3    3    0  502  0.91821703256E+02  0.52262948449E+02  0.25100083691E+02  0.10867441084E+03  0.41800000000E+01 0. -1.
        -11    1    4    4    0    0 -0.55729216553E+02  0.10270371191E+02  0.11260685039E+03  0.12606160738E+03  0.00000000000E+00 0. -1.
         11    1    4    4    0    0 -0.11873643556E+02 -0.50919688715E+02  0.27602680881E+03  0.28093521903E+03  0.00000000000E+00 0.  1.
</event>
<event>
 8    1  0.3528896E-009  0.2117470E+03  0.7561462E-02  0.1140190E+00
          1   -1    0    0  501    0  0.00000000000E+00  0.00000000000E+00  0.16076840582E+04  0.16076840582E+04  0.00000000000E+00 0. -1.
         -1   -1    0    0    0  501 -0.00000000000E+00 -0.00000000000E+00 -0.30669115888E+02  0.30669115888E+02  0.00000000000E+00 0.  1.
         25    2    1    2    0    0 -0.18362652527E+03 -0.53694901751E+02  0.91968148948E+03  0.94766197532E+03  0.12508930464E+03 0.  0.
         23    2    1    2    0    0  0.18362652527E+03  0.53694901751E+02  0.65733345288E+03  0.69069119880E+03  0.91461579804E+02 0.  0.
          5    1    3    3  502    0 -0.70354707666E+02  0.39719923844E+02  0.36544552369E+03  0.37429314772E+03  0.41800000000E+01 0. -1.
         -5    1    3    3    0  502 -0.11327181760E+03 -0.93414825595E+02  0.55423596578E+03  0.57336882760E+03  0.41800000000E+01 0. -1.
        -11    1    4    4    0    0  0.10183636219E+03  0.83148832014E+01  0.47386202022E+03  0.48475251020E+03  0.00000000000E+00 0. -1.
         11    1    4    4    0    0  0.81790163077E+02  0.45380018550E+02  0.18347143266E+03  0.20593868860E+03  0.00000000000E+00 0.  1.
</event>
<event>
 8    1  0.3528896E-009  0.8714987E+02  0.7561462E-02  0.1309904E+00
          3   -1    0    0  501    0  0.00000000000E+00  0.00000000000E+00  0.29136439787E+03  0.29136439787E+03  0.00000000000E+00 0. -1.
         -3   -1    0    0    0  501 -0.00000000000E+00 -0.00000000000E+00 -0.44290255781E+02  0.44290255781E+02  0.00000000000E+00 0.  1.
         25    2    1    2    0    0 -0.24067460730E+01  0.17086456731E+02  0.11035857814E+03  0.16770345809E+03  0.12509074568E+03 0.  0.
         23    2    1    2    0    0  0.24067460730E+01 -0.17086456731E+02  0.13671556395E+03  0.16795119557E+03  0.96014161645E+02 0.  0.
          5    1    3    3  502    0  0.21492948484E+02 -0.27102323311E+02  0.11197058530E+03  0.11726622334E+03  0.41800000000E+01 0.  1.
         -5    1    3    3    0  502 -0.23899694557E+02  0.44188780042E+02 -0.16120071622E+01  0.50437234744E+02  0.41800000000E+01 0.  1.
        -11    1    4    4    0    0  0.44428867383E+02 -0.15288779026E+02  0.10575939349E+03  0.11572692139E+03  0.00000000000E+00 0. -1.
         11    1    4    4    0    0 -0.42022121311E+02 -0.17976777057E+01  0.30956170453E+02  0.52224274180E+02  0.00000000000E+00 0.  1.
</event>
<event>
 8    1  0.3528896E-009  0.8140685E+02  0.7561462E-02  0.1325106E+00
          2   -1    0    0  501    0  0.00000000000E+00  0.00000000000E+00  0.12012213970E+03  0.12012213970E+03  0.00000000000E+00 0. -1.
         -2   -1    0    0    0  501 -0.00000000000E+00 -0.00000000000E+00 -0.11493853736E+03  0.11493853736E+03  0.00000000000E+00 0.  1.
         25    2    1    2    0    0 -0.37761886301E+01  0.19753501606E+02  0.44508866115E+02  0.13428077327E+03  0.12508327818E+03 0.  0.
         23    2    1    2    0    0  0.37761886301E+01 -0.19753501606E+02 -0.39325263775E+02  0.10077990379E+03  0.90585055118E+02 0.  0.
          5    1    3    3  502    0 -0.14260163108E+02  0.53366376404E+02  0.70975392583E+02  0.90034999499E+02  0.41800000000E+01 0. -1.
         -5    1    3    3    0  502  0.10483974478E+02 -0.33612874797E+02 -0.26466526468E+02  0.44245773768E+02  0.41800000000E+01 0. -1.
        -11    1    4    4    0    0  0.15438306483E+02 -0.43144138464E+02 -0.53986674650E+02  0.70811856569E+02  0.00000000000E+00 0.  1.
         11    1    4    4    0    0 -0.11662117853E+02  0.23390636858E+02  0.14661410876E+02  0.29968047222E+02  0.00000000000E+00 0. -1.
</event>
<event>
 8    1  0.3528896E-009  0.1464631E+03  0.7561462E-02  0.1204888E+00
          2   -1    0    0  501    0  0.00000000000E+00  0.00000000000E+00  0.71611254181E+03  0.71611254181E+03  0.00000000000E+00 0. -1.
         -2   -1    0    0    0  501 -0.00000000000E+00 -0.00000000000E+00 -0.38309788658E+02  0.38309788658E+02  0.00000000000E+00 0.  1.
         25    2    1    2    0    0  0.17201177202E+02  0.11268652042E+03  0.24690587573E+03  0.29933886070E+03  0.12508840745E+03 0.  0.
         23    2    1    2    0    0 -0.17201177202E+02 -0.11268652042E+03  0.43089687742E+03  0.45508346976E+03  0.91840694124E+02 0.  0.
          5    1    3    3  502    0 -0.13523326689E+02  0.11462212066E+03  0.11192390931E+03  0.16082768663E+03  0.41800000000E+01 0. -1.
         -5    1    3    3    0  502  0.30724503892E+02 -0.19356002445E+01  0.13498196641E+03  0.13851117408E+03  0.41800000000E+01 0. -1.
        -11    1    4    4    0    0 -0.52106725779E+02 -0.39854166200E+02  0.19690856614E+03  0.20754866623E+03  0.00000000000E+00 0.  1.
         11    1    4    4    0    0  0.34905548577E+02 -0.72832354216E+02  0.23398831129E+03  0.24753480354E+03  0.00000000000E+00 0. -1.
</event>
<event>
 8    1  0.3528896E-009  0.1634586E+03  0.7561462E-02  0.1184846E+00
          1   -1    0    0  501    0  0.00000000000E+00  0.00000000000E+00  0.33202609188E+03  0.33202609188E+03  0.00000000000E+00 0. -1.
         -1   -1    0    0    0  501 -0.00000000000E+00 -0.00000000000E+00 -0.96486700941E+02  0.96486700941E+02  0.00000000000E+00 0.  1.
         25    2    1    2    0    0 -0.87411526811E+02  0.11175119185E+03  0.11128864138E+03  0.21945818325E+03  0.12509048163E+03 0.  0.
         23    2    1    2    0    0  0.87411526811E+02 -0.11175119185E+03  0.12425074956E+03  0.20905460957E+03  0.90202423017E+02 0.  0.
          5    1    3    3  502    0 -0.23994316188E+02  0.97549273139E+02  0.12755961661E+02  0.10134976496E+03  0.41800000000E+01 0. -1.
         -5    1    3    3    0  502 -0.63417210623E+02  0.14201918714E+02  0.98532679722E+02  0.11810841829E+03  0.41800000000E+01 0. -1.
        -11    1    4    4    0    0  0.29244245833E+02  0.60573845033E+01  0.49723448295E+02  0.58002923476E+02  0.00000000000E+00 0.  1.
         11    1    4    4    0    0  0.58167280978E+02 -0.11780857636E+03  0.74527301264E+02  0.15105168610E+03  0.00000000000E+00 0. -1.
</event>
<event>
 8    1  0.3528896E-009  0.8238344E+02  0.7561462E-02  0.1322420E+00
         -1   -1    0    0    0  501 -0.00000000000E+00  0.00000000000E+00  0.64788402178E+02  0.64788402178E+02  0.00000000000E+00 0.  1.
          1   -1    0    0  501    0  0.00000000000E+00 -0.00000000000E+00 -0.21381896479E+03  0.21381896479E+03  0.00000000000E+00 0. -1.
         25    2    1    2    0    0 -0.35819234625E+02  0.32185178161E+02 -0.82081232601E+02  0.15717437047E+03  0.12509017038E+03 0.  0.
         23    2    1    2    0    0  0.35819234625E+02 -0.32185178161E+02 -0.66949330007E+02  0.12143299649E+03  0.89133925005E+02 0.  0.
          5    1    3    3  502    0 -0.37069342292E+02  0.70677122343E+01  0.26071631610E+02  0.46057475712E+02  0.41800000000E+01 0.  1.
         -5    1    3    3    0  502  0.12501076668E+01  0.25117465927E+02 -0.10815286421E+03  0.11111689476E+03  0.41800000000E+01 0.  1.
        -11    1    4    4    0    0 -0.29919614726E+02 -0.58410658720E+01 -0.19604710820E+02  0.36244255851E+02  0.00000000000E+00 0. -1.
         11    1    4    4    0    0  0.65738849351E+02 -0.26344112289E+02 -0.47344619187E+02  0.85188740642E+02  0.00000000000E+00 0.  1.
</event>
<event>
 8    1  0.3528896E-009  0.2286836E+03  0.7561462E-02  0.1127570E+00
          1   -1    0    0  501    0  0.00000000000E+00  0.00000000000E+00  0.14793177254E+03  0.14793177254E+03  0.00000000000E+00 0. -1.
         -1   -1    0    0    0  501 -0.00000000000E+00 -0.00000000000E+00 -0.63904752424E+03  0.63904752424E+03  0.00000000000E+00 0.  1.
         25    2    1    2    0    0 -0.21076877241E+03  0.82664394340E+02 -0.47733396909E+03  0.54291082154E+03  0.12509022578E+03 0.  0.
         23    2    1    2    0    0  0.21076877241E+03 -0.82664394340E+02 -0.13781782617E+02  0.24406847524E+03  0.90125498919E+02 0.  0.
          5    1    3    3  502    0 -0.19989367826E+03  0.87043853187E+02 -0.33302996787E+03  0.39807103247E+03  0.41800000000E+01 0.  1.
         -5    1    3    3    0  502 -0.10875094150E+02 -0.43794588463E+01 -0.14430400122E+03  0.14483978908E+03  0.41800000000E+01 0.  1.
        -11    1    4    4    0    0  0.51122609231E+02 -0.13516641607E+02 -0.42366509753E+02  0.67757965758E+02  0.00000000000E+00 0.  1.
         11    1    4    4    0    0  0.15964616318E+03 -0.69147752733E+02  0.28584727136E+02  0.17631050948E+03  0.00000000000E+00 0. -1.
</event>
<event>
 8    1  0.3528896E-009  0.7545549E+02  0.7561462E-02  0.1342466E+00
         -2   -1    0    0    0  501 -0.00000000000E+00  0.00000000000E+00  0.19692662312E+02  0.19692662312E+02  0.00000000000E+00 0. -1.
          2   -1    0    0  501    0  0.00000000000E+00 -0.00000000000E+00 -0.61176527204E+03  0.61176527204E+03  0.00000000000E+00 0.  1.
         25    2    1    2    0    0 -0.47719461000E+02 -0.11935537219E+02 -0.39897880354E+03  0.42101218703E+03  0.12509025518E+03 0.  0.
         23    2    1    2    0    0  0.47719461000E+02  0.11935537219E+02 -0.19309380619E+03  0.21044574733E+03  0.67694834169E+02 0.  0.
          5    1    3    3  502    0  0.13237237124E+02  0.18908443905E+02 -0.29859813552E+03  0.29951806729E+03  0.41800000000E+01 0.  1.
         -5    1    3    3    0  502 -0.60956698124E+02 -0.30843981124E+02 -0.10038066802E+03  0.12149411973E+03  0.41800000000E+01 0.  1.
        -11    1    4    4    0    0  0.27184127321E+02 -0.99976760355E+01 -0.17026460289E+03  0.17271064038E+03  0.00000000000E+00 0.  1.
         11    1    4    4    0    0  0.20535333679E+02  0.21933213254E+02 -0.22829203301E+02  0.37735106947E+02  0.00000000000E+00 0. -1.
</event>
<event>
 8    1  0.3528896E-009  0.1541435E+03  0.7561462E-02  0.1195472E+00
          1   -1    0    0  501    0  0.00000000000E+00  0.00000000000E+00  0.77762225825E+03  0.77762225825E+03  0.00000000000E+00 0. -1.
         -1   -1    0    0    0  501 -0.00000000000E+00 -0.00000000000E+00 -0.33697728679E+02  0.33697728679E+02  0.00000000000E+00 0.  1.
         25    2    1    2    0    0 -0.10525336059E+03 -0.98596804766E+01  0.36258432770E+03  0.39786330943E+03  0.12510929255E+03 0.  0.
         23    2    1    2    0    0  0.10525336059E+03  0.98596804766E+01  0.38134020187E+03  0.41345667750E+03  0.11979395390E+03 0.  0.
          5    1    3    3  502    0 -0.59412788968E+02 -0.66167480636E+02  0.23023848748E+03  0.24685066033E+03  0.41800000000E+01 0.  1.
         -5    1    3    3    0  502 -0.45840571623E+02  0.56307800159E+02  0.13234584022E+03  0.15101264910E+03  0.41800000000E+01 0.  1.
        -11    1    4    4    0    0  0.30820241842E+02 -0.44664937339E+02  0.69055409395E+02  0.87826496580E+02  0.00000000000E+00 0.  1.
         11    1    4    4    0    0  0.74433118748E+02  0.54524617816E+02  0.31228479247E+03  0.32563018092E+03  0.00000000000E+00 0. -1.
</event>
<event>
 8    1  0.3528896E-009  0.9079510E+02  0.7561462E-02  0.1300938E+00
          2   -1    0    0  501    0  0.00000000000E+00  0.00000000000E+00  0.64690344434E+02  0.64690344434E+02  0.00000000000E+00 0. -1.
         -2   -1    0    0    0  501 -0.00000000000E+00 -0.00000000000E+00 -0.25654591652E+03  0.25654591652E+03  0.00000000000E+00 0.  1.
         25    2    1    2    0    0 -0.52041351931E+02 -0.42526496189E+02 -0.13486794720E+03  0.19584444803E+03  0.12509548134E+03 0.  0.
         23    2    1    2    0    0  0.52041351931E+02  0.42526496189E+02 -0.56987624878E+02  0.12539181292E+03  0.89211614541E+02 0.  0.
          5    1    3    3  502    0 -0.22418329100E+02 -0.34273745732E+02  0.14225173670E+02  0.43555701028E+02  0.41800000000E+01 0. -1.
         -5    1    3    3    0  502 -0.29623022832E+02 -0.82527504572E+01 -0.14909312087E+03  0.15228874700E+03  0.41800000000E+01 0. -1.
        -11    1    4    4    0    0 -0.23397157916E+02  0.19661715958E+02 -0.27861721499E+02  0.41355599353E+02  0.00000000000E+00 0.  1.
         11    1    4    4    0    0  0.75438509847E+02  0.22864780231E+02 -0.29125903379E+02  0.84036213566E+02  0.00000000000E+00 0. -1.
</event>
<event>
 8    1  0.3528896E-009  0.1046655E+03  0.7561462E-02  0.1270780E+00
          1   -1    0    0  501    0  0.00000000000E+00  0.00000000000E+00  0.40263550763E+03  0.40263550763E+03  0.00000000000E+00 0. -1.
         -1   -1    0    0    0  501 -0.00000000000E+00 -0.00000000000E+00 -0.38517762036E+02  0.38517762036E+02  0.00000000000E+00 0.  1.
         25    2    1    2    0    0 -0.19248999499E+02 -0.21148883179E+02  0.10853651725E+03  0.16806364199E+03  0.12508961963E+03 0.  0.
         23    2    1    2    0    0  0.19248999499E+02  0.21148883179E+02  0.25558122834E+03  0.27308962768E+03  0.91860661994E+02 0.  0.
          5    1    3    3  502    0  0.45411210749E+02 -0.18503254237E+02  0.10185033131E+02  0.50256897824E+02  0.41800000000E+01 0. -1.
         -5    1    3    3    0  502 -0.64660210248E+02 -0.26456289422E+01  0.98351484119E+02  0.11780674416E+03  0.41800000000E+01 0. -1.
        -11    1    4    4    0    0  0.36659248543E+02  0.49741979728E+02  0.18324054463E+03  0.19337854650E+03  0.00000000000E+00 0.  1.
         11    1    4    4    0    0 -0.17410249044E+02 -0.28593096549E+02  0.72340683715E+02  0.79711081176E+02  0.00000000000E+00 0. -1.
</event>
<event>
 8    1  0.3528896E-009  0.1199280E+03  0.7561462E-02  0.1243216E+00
         -2   -1    0    0    0  501 -0.00000000000E+00  0.00000000000E+00  0.19429046725E+02  0.19429046725E+02  0.00000000000E+00 0.  1.
          2   -1    0    0  501    0  0.00000000000E+00 -0.00000000000E+00 -0.11631910473E+04  0.11631910473E+04  0.00000000000E+00 0. -1.
         25    2    1    2    0    0  0.38663071510E+02 -0.94122967317E+02 -0.68152890951E+03  0.70034476208E+03  0.12508862942E+03 0.  0.
         23    2    1    2    0    0 -0.38663071510E+02  0.94122967317E+02 -0.46223309106E+03  0.48227533193E+03  0.92607231057E+02 0.  0.
          5    1    3    3  502    0  0.52318920813E+01 -0.63890505461E+01 -0.45500456634E+03  0.45509869309E+03  0.41800000000E+01 0. -1.
         -5    1    3    3    0  502  0.33431179429E+02 -0.87733916771E+02 -0.22652434316E+03  0.24524606899E+03  0.41800000000E+01 0. -1.
        -11    1    4    4    0    0 -0.68554550878E+02  0.58541584164E+02 -0.27691163046E+03  0.29121623342E+03  0.00000000000E+00 0.  1.
         11    1    4    4    0    0  0.29891479368E+02  0.35581383153E+02 -0.18532146059E+03  0.19105909851E+03  0.00000000000E+00 0. -1.
</event>
<event>
 8    1  0.3528896E-009  0.9232244E+02  0.7561462E-02  0.1297323E+00
          1   -1    0    0  501    0  0.00000000000E+00  0.00000000000E+00  0.15580389130E+03  0.15580389130E+03  0.00000000000E+00 0. -1.
         -1   -1    0    0    0  501 -0.00000000000E+00 -0.00000000000E+00 -0.97300923808E+02  0.97300923808E+02  0.00000000000E+00 0.  1.
         25    2    1    2    0    0 -0.56412780218E+02  0.11635152790E+02  0.42201307495E+02  0.14403431025E+03  0.12508858311E+03 0.  0.
         23    2    1    2    0    0  0.56412780218E+02 -0.11635152790E+02  0.16301659998E+02  0.10907050485E+03  0.91174844986E+02 0.  0.
          5    1    3    3  502    0 -0.89147053044E+01  0.57185529527E+02 -0.11301319997E+02  0.59117247835E+02  0.41800000000E+01 0. -1.
         -5    1    3    3    0  502 -0.47498074913E+02 -0.45550376737E+02  0.53502627492E+02  0.84917062419E+02  0.41800000000E+01 0. -1.
        -11    1    4    4    0    0  0.44880856370E+02 -0.85391652551E+00  0.52800983050E+02  0.69303421655E+02  0.00000000000E+00 0. -1.
         11    1    4    4    0    0  0.11531923847E+02 -0.10781236264E+02 -0.36499323052E+02  0.39767083200E+02  0.00000000000E+00 0.  1.
</event>
<event>
 8    1  0.3528896E-009  0.6394728E+02  0.7561462E-02  0.1381976E+00
          2   -1    0    0  501    0  0.00000000000E+00  0.00000000000E+00  0.13623724466E+03  0.13623724466E+03  0.00000000000E+00 0. -1.
         -2   -1    0    0    0  501 -0.00000000000E+00 -0.00000000000E+00 -0.86677821632E+02  0.86677821632E+02  0.00000000000E+00 0.  1.
         25    2    1    2    0    0  0.88499165566E+01 -0.32715783184E+01  0.38623150465E+02  0.13125690619E+03  0.12509038102E+03 0.  0.
         23    2    1    2    0    0 -0.88499165566E+01  0.32715783184E+01  0.10936272563E+02  0.91658160103E+02  0.90512938347E+02 0.  0.
          5    1    3    3  502    0  0.22839617294E+02 -0.45720924976E+02 -0.22019938862E+02  0.55806820428E+02  0.41800000000E+01 0. -1.
         -5    1    3    3    0  502 -0.13989700737E+02  0.42449346657E+02  0.60643089327E+02  0.75450085762E+02  0.41800000000E+01 0. -1.
        -11    1    4    4    0    0  0.11249224458E+02  0.29252310667E+01  0.48057665767E+02  0.49443313670E+02  0.00000000000E+00 0. -1.
         11    1    4    4    0    0 -0.20099141015E+02  0.34634725171E+00 -0.37121393204E+02  0.42214846433E+02  0.00000000000E+00 0.  1.
</event>
<event>
 8    1  0.3528896E-009  0.8532260E+02  0.7561462E-02  0.1314591E+00
         -2   -1    0    0    0  501 -0.00000000000E+00  0.00000000000E+00  0.25803236096E+02  0.25803236096E+02  0.00000000000E+00 0.  1.
          2   -1    0    0  501    0  0.00000000000E+00 -0.00000000000E+00 -0.13611742083E+04  0.13611742083E+04  0.00000000000E+00 0. -1.
         25    2    1    2    0    0 -0.13067464571E+02 -0.14034408316E+02 -0.12625539673E+04  0.12688804315E+04  0.12508919201E+03 0.  0.
         23    2    1    2    0    0  0.13067464571E+02  0.14034408316E+02 -0.72817004966E+02  0.11809701291E+03  0.90977277384E+02 0.  0.
          5    1    3    3  502    0  0.54015161260E+02 -0.16283052654E+02 -0.44856440471E+03  0.45211754337E+03  0.41800000000E+01 0.  1.
         -5    1    3    3    0  502 -0.67082625831E+02  0.22486443373E+01 -0.81398956255E+03  0.81676288813E+03  0.41800000000E+01 0.  1.
        -11    1    4    4    0    0  0.30147033571E+01 -0.15414575606E+02  0.16938749821E+02  0.23100190972E+02  0.00000000000E+00 0.  1.
         11    1    4    4    0    0  0.10052761214E+02  0.29448983922E+02 -0.89755754786E+02  0.94996821943E+02  0.00000000000E+00 0. -1.
</event>
<event>
 8    1  0.3528896E-009  0.8453008E+02  0.7561462E-02  0.1316666E+00
          2   -1    0    0  501    0  0.00000000000E+00  0.00000000000E+00  0.29154929808E+02  0.29154929808E+02  0.00000000000E+00 0. -1.
         -2   -1    0    0    0  501 -0.00000000000E+00 -0.00000000000E+00 -0.52942437691E+03  0.52942437691E+03  0.00000000000E+00 0.  1.
         25    2    1    2    0    0 -0.50871215497E+02  0.32849156884E+01 -0.21555451482E+03  0.25438217381E+03  0.12509144756E+03 0.  0.
         23    2    1    2    0    0  0.50871215497E+02 -0.32849156884E+01 -0.28471493228E+03  0.30419713291E+03  0.94205264035E+02 0.  0.
          5    1    3    3  502    0 -0.84348849806E+01  0.16338026063E+02  0.12097695694E+02  0.22403236851E+02  0.41800000000E+01 0.  1.
         -5    1    3    3    0  502 -0.42436330516E+02 -0.13053110375E+02 -0.22765221052E+03  0.23197893695E+03  0.41800000000E+01 0.  1.
        -11    1    4    4    0    0  0.43493387492E+02 -0.45389033276E+02 -0.14377099429E+03  0.15691379129E+03  0.00000000000E+00 0. -1.
         11    1    4    4    0    0  0.73778280049E+01  0.42104117588E+02 -0.14094393799E+03  0.14728334162E+03  0.00000000000E+00 0.  1.
</event>
<event>
 8    1  0.3528896E-009  0.1140106E+03  0.7561462E-02  0.1253318E+00
          2   -1    0    0  501    0  0.00000000000E+00  0.00000000000E+00  0.59826468145E+03  0.59826468145E+03  0.00000000000E+00 0. -1.
         -2   -1    0    0    0  501 -0.00000000000E+00 -0.00000000000E+00 -0.44605723071E+02  0.44605723071E+02  0.00000000000E+00 0.  1.
         25    2    1    2    0    0 -0.83822910689E+02  0.40610433172E+02  0.45886901757E+03  0.48464568330E+03  0.12508067562E+03 0.  0.
         23    2    1    2    0    0  0.83822910689E+02 -0.40610433172E+02  0.94789940805E+02  0.15822472122E+03  0.85874570675E+02 0.  0.
          5    1    3    3  502    0 -0.68948798139E+02 -0.19447040652E+02  0.36604481215E+03  0.37301260174E+03  0.41800000000E+01 0.  1.
         -5    1    3    3    0  502 -0.14874112550E+02  0.60057473824E+02  0.92824205424E+02  0.11163308156E+03  0.41800000000E+01 0.  1.
        -11    1    4    4    0    0  0.39551053941E+02 -0.11232535222E+02 -0.85783613089E+01  0.42000523783E+02  0.00000000000E+00 0.  1.
         11    1    4    4    0    0  0.44271856748E+02 -0.29377897950E+02  0.10336830211E+03  0.11622419744E+03  0.00000000000E+00 0. -1.
</event>
<event>
 8    1  0.3528896E-009  0.1004673E+03  0.7561462E-02  0.1279316E+00
         -1   -1    0    0    0  501 -0.00000000000E+00  0.00000000000E+00  0.25004405751E+03  0.25004405751E+03  0.00000000000E+00 0.  1.
          1   -1    0    0  501    0  0.00000000000E+00 -0.00000000000E+00 -0.65934081806E+02  0.65934081806E+02  0.00000000000E+00 0. -1.
         25    2    1    2    0    0  0.11051886111E+02 -0.29378773905E+02  0.17508660753E+03  0.21745868918E+03  0.12509078631E+03 0.  0.
         23    2    1    2    0    0 -0.11051886111E+02  0.29378773905E+02  0.90233681729E+01  0.98519450139E+02  0.92948396111E+02 0.  0.
          5    1    3    3  502    0 -0.17120720689E+02  0.41945761896E+02  0.33911198423E+02  0.56745112533E+02  0.41800000000E+01 0. -1.
         -5    1    3    3    0  502  0.28172606799E+02 -0.71324535801E+02  0.14117540911E+03  0.16071357665E+03  0.41800000000E+01 0. -1.
        -11    1    4    4    0    0 -0.11580885906E+02 -0.23265923577E+02  0.31874587179E+02  0.41126748304E+02  0.00000000000E+00 0.  1.
         11    1    4    4    0    0  0.52899979532E+00  0.52644697482E+02 -0.22851219006E+02  0.57392701834E+02  0.00000000000E+00 0. -1.
</event>
<event>
 8    1  0.3528896E-009  0.1021954E+03  0.7561462E-02  0.1275746E+00
         -2   -1    0    0    0  501 -0.00000000000E+00  0.00000000000E+00  0.15484502896E+03  0.15484502896E+03  0.00000000000E+00 0.  1.
          2   -1    0    0  501    0  0.00000000000E+00 -0.00000000000E+00 -0.87790838817E+02  0.87790838817E+02  0.00000000000E+00 0. -1.
         25    2    1    2    0    0 -0.21283188161E+02 -0.41081756400E+02  0.45638079561E+02  0.14096460624E+03  0.12508997201E+03 0.  0.
         23    2    1    2    0    0  0.21283188161E+02  0.41081756400E+02  0.21416110587E+02  0.10167126154E+03  0.87964258788E+02 0.  0.
          5    1    3    3  502    0  0.31180248759E+02  0.30526768093E+02  0.21783931660E+02  0.48950010843E+02  0.41800000000E+01 0. -1.
         -5    1    3    3    0  502 -0.52463436920E+02 -0.71608524493E+02  0.23854147901E+02  0.92014595394E+02  0.41800000000E+01 0. -1.
        -11    1    4    4    0    0  0.51524226178E+01  0.51969902759E+02 -0.19989840367E+02  0.55919692144E+02  0.00000000000E+00 0. -1.
         11    1    4    4    0    0  0.16130765543E+02 -0.10888146359E+02  0.41405950954E+02  0.45751569400E+02  0.00000000000E+00 0.  1.
</event>
<event>
 8    1  0.3528896E-009  0.1004426E+03  0.7561462E-02  0.1279368E+00
          2   -1    0    0  501    0  0.00000000000E+00  0.00000000000E+00  0.72060615715E+02  0.72060615715E+02  0.00000000000E+00 0.  1.
         -2   -1    0    0    0  501 -0.00000000000E+00 -0.00000000000E+00 -0.17479097528E+03  0.17479097528E+03  0.00000000000E+00 0. -1.
         25    2    1    2    0    0  0.20174500548E+02 -0.22424056399E+02 -0.61117781450E+02  0.14245171821E+03  0.12508900844E+03 0.  0.
         23    2    1    2    0    0 -0.20174500548E+02  0.22424056399E+02 -0.41612578113E+02  0.10439987278E+03  0.90872867249E+02 0.  0.
          5    1    3    3  502    0  0.19878411089E+02 -0.62127144653E+02  0.46347885023E+01  0.65527757436E+02  0.41800000000E+01 0. -1.
         -5    1    3    3    0  502  0.29608945938E+00  0.39703088253E+02 -0.65752569953E+02  0.76923960774E+02  0.41800000000E+01 0. -1.
        -11    1    4    4    0    0 -0.56484405517E+02  0.11115555318E+02 -0.22182280074E+02  0.61693574916E+02  0.00000000000E+00 0.  1.
         11    1    4    4    0    0  0.36309904969E+02  0.11308501081E+02 -0.19430298039E+02  0.42706297867E+02  0.00000000000E+00 0. -1.
</event>
<event>
 8    1  0.3528896E-009  0.2725295E+03  0.7561462E-02  0.1099841E+00
          2   -1    0    0  501    0  0.00000000000E+00  0.00000000000E+00  0.13039966787E+04  0.13039966787E+04  0.00000000000E+00 0. -1.
         -2   -1    0    0    0  501 -0.00000000000E+00 -0.00000000000E+00 -0.79770574612E+02  0.79770574612E+02  0.00000000000E+00 0.  1.
         25    2    1    2    0    0 -0.25745222303E+03 -0.72351383718E+00  0.96674136885E+03  0.10082255436E+04  0.12509077459E+03 0.  0.
         23    2    1    2    0    0  0.25745222303E+03  0.72351383718E+00  0.25748473522E+03  0.37554170970E+03  0.91929408994E+02 0.  0.
          5    1    3    3  502    0 -0.16146546106E+03  0.60278787912E+02  0.58885447283E+03  0.61357288887E+03  0.41800000000E+01 0. -1.
         -5    1    3    3    0  502 -0.95986761969E+02 -0.61002301749E+02  0.37788689603E+03  0.39465265472E+03  0.41800000000E+01 0. -1.
        -11    1    4    4    0    0  0.13665374905E+03 -0.13018808810E+02  0.19603006990E+03  0.23931469829E+03  0.00000000000E+00 0.  1.
         11    1    4    4    0    0  0.12079847398E+03  0.13742322648E+02  0.61454665315E+02  0.13622701141E+03  0.00000000000E+00 0. -1.
</event>
<event>
 8    1  0.3528896E-009  0.1617673E+03  0.7561462E-02  0.1186716E+00
          1   -1    0    0  501    0  0.00000000000E+00  0.00000000000E+00  0.21305155862E+02  0.21305155862E+02  0.00000000000E+00 0. -1.
         -1   -1    0    0    0  501 -0.00000000000E+00 -0.00000000000E+00 -0.15644922569E+04  0.15644922569E+04  0.00000000000E+00 0.  1.
         25    2    1    2    0    0 -0.35321833805E+02  0.13265984706E+03 -0.10352766174E+04  0.10518037497E+04  0.12508871459E+03 0.  0.
         23    2    1    2    0    0  0.35321833805E+02 -0.13265984706E+03 -0.50791048370E+03  0.53399366306E+03  0.91268317433E+02 0.  0.
          5    1    3    3  502    0 -0.50458812540E+02  0.13813010012E+03 -0.66169932657E+03  0.67785653902E+03  0.41800000000E+01 0.  1.
         -5    1    3    3    0  502  0.15136978734E+02 -0.54702530529E+01 -0.37357729080E+03  0.37394721070E+03  0.41800000000E+01 0.  1.
        -11    1    4    4    0    0  0.60376451318E+02 -0.70805541519E+02 -0.35807508366E+03  0.36996825016E+03  0.00000000000E+00 0.  1.
         11    1    4    4    0    0 -0.25054617513E+02 -0.61854305546E+02 -0.14983540004E+03  0.16402541290E+03  0.00000000000E+00 0. -1.
</event>
<event>
 8    1  0.3528896E-009  0.1147886E+03  0.7561462E-02  0.1251951E+00
          1   -1    0    0  501    0  0.00000000000E+00  0.00000000000E+00  0.34555854319E+03  0.34555854319E+03  0.00000000000E+00 0. -1.
         -1   -1    0    0    0  501 -0.00000000000E+00 -0.00000000000E+00 -0.41266332660E+02  0.41266332660E+02  0.00000000000E+00 0.  1.
         25    2    1    2    0    0 -0.31478652018E+02  0.34962379146E+02  0.22632689502E+03  0.26284029763E+03  0.12509150714E+03 0.  0.
         23    2    1    2    0    0  0.31478652018E+02 -0.34962379146E+02  0.77965315509E+02  0.12398457822E+03  0.84144588220E+02 0.  0.
          5    1    3    3  502    0  0.29876505399E+02 -0.30831490028E+02  0.83659937827E+02  0.94125681668E+02  0.41800000000E+01 0. -1.
         -5    1    3    3    0  502 -0.61355157418E+02  0.65793869174E+02  0.14266695720E+03  0.16871461596E+03  0.41800000000E+01 0. -1.
        -11    1    4    4    0    0 -0.23527610278E+02 -0.34025738707E+02  0.34751162215E+02  0.54027239567E+02  0.00000000000E+00 0.  1.
         11    1    4    4    0    0  0.55006262296E+02 -0.93664043852E+00  0.43214153294E+02  0.69957338657E+02  0.00000000000E+00 0. -1.
</event>
<event>
 8    1  0.3528896E-009  0.1292719E+03  0.7561462E-02  0.1228540E+00
         -2   -1    0    0    0  501 -0.00000000000E+00  0.00000000000E+00  0.95549849490E+02  0.95549849490E+02  0.00000000000E+00 0. -1.
          2   -1    0    0  501    0  0.00000000000E+00 -0.00000000000E+00 -0.29835697082E+03  0.29835697082E+03  0.00000000000E+00 0.  1.
         25    2    1    2    0    0  0.42887534676E+02 -0.12011753268E+03 -0.11053839091E+03  0.21007978233E+03  0.12508883560E+03 0.  0.
         23    2    1    2    0    0 -0.42887534676E+02  0.12011753268E+03 -0.92268730422E+02  0.18382703798E+03  0.94927862039E+02 0.  0.
          5    1    3    3  502    0  0.21881261938E+01 -0.34928569660E+02  0.26160985106E+02  0.43893762842E+02  0.41800000000E+01 0.  1.
         -5    1    3    3    0  502  0.40699408483E+02 -0.85188963017E+02 -0.13669937601E+03  0.16618601949E+03  0.41800000000E+01 0.  1.
        -11    1    4    4    0    0 -0.23900257448E+02  0.90577721978E+02 -0.11000399964E+03  0.14448676743E+03  0.00000000000E+00 0.  1.
         11    1    4    4    0    0 -0.18987277228E+02  0.29539810699E+02  0.17735269219E+02  0.39340270550E+02  0.00000000000E+00 0. -1.
</event>
<event>
 8    1  0.3528896E-009  0.5708493E+02  0.7561462E-02  0.1410489E+00
          2   -1    0    0  501    0  0.00000000000E+00  0.00000000000E+00  0.25845730793E+03  0.25845730793E+03  0.00000000000E+00 0. -1.
         -2   -1    0    0    0  501 -0.00000000000E+00 -0.00000000000E+00 -0.53035463252E+02  0.53035463252E+02  0.00000000000E+00 0.  1.
         25    2    1    2    0    0  0.31515074850E+01  0.13020573160E+02  0.59292337337E+02  0.13908110411E+03  0.12509398438E+03 0.  0.
         23    2    1    2    0    0 -0.31515074850E+01 -0.13020573160E+02  0.14612950734E+03  0.17241166707E+03  0.90512334537E+02 0.  0.
          5    1    3    3  502    0  0.13140437920E+02  0.22923044420E+02  0.95942831227E+02  0.99602391226E+02  0.41800000000E+01 0. -1.
         -5    1    3    3    0  502 -0.99889304353E+01 -0.99024712601E+01 -0.36650493890E+02  0.39478712880E+02  0.41800000000E+01 0. -1.
        -11    1    4    4    0    0 -0.34493872681E+02 -0.21025911078E+02  0.26089262716E+02  0.48089144495E+02  0.00000000000E+00 0.  1.
         11    1    4    4    0    0  0.31342365196E+02  0.80053379183E+01  0.12004024462E+03  0.12432252258E+03  0.00000000000E+00 0. -1.
</event>
<event>
 8    1  0.3528896E-009  0.2591932E+03  0.7561462E-02  0.1107629E+00
          1   -1    0    0  501    0  0.00000000000E+00  0.00000000000E+00  0.81545128847E+03  0.81545128847E+03  0.00000000000E+00 0.  1.
         -1   -1    0    0    0  501 -0.00000000000E+00 -0.00000000000E+00 -0.10294701439E+03  0.10294701439E+03  0.00000000000E+00 0. -1.
         25    2    1    2    0    0  0.22987237822E+03 -0.85922692311E+02  0.53749485974E+03  0.60396397463E+03  0.12509092323E+03 0.  0.
         23    2    1    2    0    0 -0.22987237822E+03  0.85922692311E+02  0.17500941434E+03  0.31443432824E+03  0.89535648490E+02 0.  0.
          5    1    3    3  502    0  0.65233337264E+02 -0.81632861618E+02  0.27312759545E+03  0.29246447337E+03  0.41800000000E+01 0.  1.
         -5    1    3    3    0  502  0.16463904095E+03 -0.42898306931E+01  0.26436726430E+03  0.31149950126E+03  0.41800000000E+01 0.  1.
        -11    1    4    4    0    0 -0.13234666766E+03  0.71643424978E+02  0.57608452977E+02  0.16114327363E+03  0.00000000000E+00 0. -1.
         11    1    4    4    0    0 -0.97525710560E+02  0.14279267333E+02  0.11740096136E+03  0.15329105461E+03  0.00000000000E+00 0.  1.
</event>
<event>
 8    1  0.3528896E-009  0.9735196E+02  0.7561462E-02  0.1285965E+00
          1   -1    0    0  501    0  0.00000000000E+00  0.00000000000E+00  0.15095769091E+04  0.15095769091E+04  0.00000000000E+00 0. -1.
         -1   -1    0    0    0  501 -0.00000000000E+00 -0.00000000000E+00 -0.12647600069E+02  0.12647600069E+02  0.00000000000E+00 0.  1.
         25    2    1    2    0    0 -0.36219012076E+02 -0.50455701205E+02  0.11410166889E+04  0.11495327196E+04  0.12509514121E+03 0.  0.
         23    2    1    2    0    0  0.36219012076E+02  0.50455701205E+02  0.35591262015E+03  0.37269178964E+03  0.91475582863E+02 0.  0.
          5    1    3    3  502    0  0.14323217700E+02 -0.28433931314E+01  0.14925827960E+02  0.21295356068E+02  0.41800000000E+01 0.  1.
         -5    1    3    3    0  502 -0.50542229775E+02 -0.47612308073E+02  0.11260908609E+04  0.11282373635E+04  0.41800000000E+01 0.  1.
        -11    1    4    4    0    0  0.43526807624E+02 -0.13506378101E+02  0.12850282228E+03  0.13634507900E+03  0.00000000000E+00 0.  1.
         11    1    4    4    0    0 -0.73077955489E+01  0.63962079306E+02  0.22740979787E+03  0.23634671064E+03  0.00000000000E+00 0. -1.
</event>
<event>
 8    1  0.3528896E-009  0.1068462E+03  0.7561462E-02  0.1266524E+00
         -1   -1    0    0    0  501 -0.00000000000E+00  0.00000000000E+00  0.27572164834E+03  0.27572164834E+03  0.00000000000E+00 0.  1.
          1   -1    0    0  501    0  0.00000000000E+00 -0.00000000000E+00 -0.44522922341E+02  0.44522922341E+02  0.00000000000E+00 0. -1.
         25    2    1    2    0    0  0.29397460288E+02  0.57633764166E+01  0.15799623006E+03  0.20373746085E+03  0.12509483226E+03 0.  0.
         23    2    1    2    0    0 -0.29397460288E+02 -0.57633764166E+01  0.73202495942E+02  0.11650710984E+03  0.85544573479E+02 0.  0.
          5    1    3    3  502    0 -0.48214744390E+02  0.13485735256E+02  0.55304417517E+02  0.74716648940E+02  0.41800000000E+01 0. -1.
         -5    1    3    3    0  502  0.77612204678E+02 -0.77223588396E+01  0.10269181254E+03  0.12902081191E+03  0.41800000000E+01 0. -1.
        -11    1    4    4    0    0  0.27875613906E+02 -0.21614803017E+01  0.68595847365E+01  0.28788465581E+02  0.00000000000E+00 0. -1.
         11    1    4    4    0    0 -0.57273074194E+02 -0.36018961149E+01  0.66342911205E+02  0.87718644258E+02  0.00000000000E+00 0.  1.
</event>
<event>
 8    1  0.3528896E-009  0.2430824E+03  0.7561462E-02  0.1117756E+00
          2   -1    0    0  501    0  0.00000000000E+00  0.00000000000E+00  0.41994981065E+03  0.41994981065E+03  0.00000000000E+00 0. -1.
         -2   -1    0    0    0  501 -0.00000000000E+00 -0.00000000000E+00 -0.26614849935E+03  0.26614849935E+03  0.00000000000E+00 0.  1.
         25    2    1    2    0    0  0.18661320524E+03 -0.12708038989E+03 -0.14896994611E+03  0.29801518922E+03  0.12508834598E+03 0.  0.
         23    2    1    2    0    0 -0.18661320524E+03  0.12708038989E+03  0.30277125741E+03  0.38808312078E+03  0.89242145044E+02 0.  0.
          5    1    3    3  502    0  0.97879597966E+02  0.59307913076E+01 -0.58217788172E+02  0.11411561349E+03  0.41800000000E+01 0.  1.
         -5    1    3    3    0  502  0.88733607278E+02 -0.13301118120E+03 -0.90752157933E+02  0.18389957573E+03  0.41800000000E+01 0.  1.
        -11    1    4    4    0    0 -0.12311277964E+03  0.64800885264E+02  0.11571824166E+03  0.18096027932E+03  0.00000000000E+00 0. -1.
         11    1    4    4    0    0 -0.63500425606E+02  0.62279504625E+02  0.18705301576E+03  0.20712284145E+03  0.00000000000E+00 0.  1.
</event>
<event>
 8    1  0.3528896E-009  0.1075694E+03  0.7561462E-02  0.1265138E+00
          1   -1    0    0  501    0  0.00000000000E+00  0.00000000000E+00  0.56171983537E+03  0.56171983537E+03  0.00000000000E+00 0. -1.
         -1   -1    0    0    0  501 -0.00000000000E+00 -0.00000000000E+00 -0.28932748158E+02  0.28932748158E+02  0.00000000000E+00 0.  1.
         25    2    1    2    0    0  0.42498630345E+02  0.28256342239E+02  0.19484385235E+03  0.23710028910E+03  0.12509142991E+03 0.  0.
         23    2    1    2    0    0 -0.42498630345E+02 -0.28256342239E+02  0.33794323487E+03  0.35355229443E+03  0.90493317141E+02 0.  0.
          5    1    3    3  502    0 -0.44175549882E+01 -0.38402565688E+02  0.12078263428E+03  0.12688652011E+03  0.41800000000E+01 0.  1.
         -5    1    3    3    0  502  0.46916185333E+02  0.66658907927E+02  0.74061218070E+02  0.11021376899E+03  0.41800000000E+01 0.  1.
        -11    1    4    4    0    0  0.15010231072E+02  0.16097890451E+02  0.30286281704E+02  0.37439390664E+02  0.00000000000E+00 0.  1.
         11    1    4    4    0    0 -0.57508861417E+02 -0.44354232690E+02  0.30765695316E+03  0.31611290377E+03  0.00000000000E+00 0. -1.
</event>
<event>
 8    1  0.3528896E-009  0.1078588E+03  0.7561462E-02  0.1264587E+00
         -2   -1    0    0    0  501 -0.00000000000E+00  0.00000000000E+00  0.25321349930E+02  0.25321349930E+02  0.00000000000E+00 0.  1.
          2   -1    0    0  501    0  0.00000000000E+00 -0.00000000000E+00 -0.48718007266E+03  0.48718007266E+03  0.00000000000E+00 0. -1.
         25    2    1    2    0    0  0.17276866531E+02  0.10910122158E+02 -0.29403970535E+03  0.32019330378E+03  0.12508749969E+03 0.  0.
         23    2    1    2    0    0 -0.17276866531E+02 -0.10910122158E+02 -0.16781901738E+03  0.19230811882E+03  0.91660619050E+02 0.  0.
          5    1    3    3  502    0  0.69985847186E+02  0.19416939813E+02 -0.15601261339E+03  0.17214076883E+03  0.41800000000E+01 0.  1.
         -5    1    3    3    0  502 -0.52708980655E+02 -0.85068176544E+01 -0.13802709196E+03  0.14805253495E+03  0.41800000000E+01 0.  1.
        -11    1    4    4    0    0 -0.43451806189E+02 -0.33478030470E+02 -0.72468470378E+02  0.90887387376E+02  0.00000000000E+00 0.  1.
         11    1    4    4    0    0  0.26174939658E+02  0.22567908312E+02 -0.95350547005E+02  0.10142073144E+03  0.00000000000E+00 0. -1.
</event>
<event>
 8    1  0.3528896E-009  0.9590653E+02  0.7561462E-02  0.1289147E+00
          1   -1    0    0  501    0  0.00000000000E+00  0.00000000000E+00  0.38137292434E+03  0.38137292434E+03  0.00000000000E+00 0. -1.
         -1   -1    0    0    0  501 -0.00000000000E+00 -0.00000000000E+00 -0.37765113108E+02  0.37765113108E+02  0.00000000000E+00 0.  1.
         25    2    1    2    0    0 -0.42005855042E+02 -0.14529994555E+02  0.14877926677E+03  0.19940791078E+03  0.12511047943E+03 0.  0.
         23    2    1    2    0    0  0.42005855042E+02  0.14529994555E+02  0.19482854447E+03  0.21973012667E+03  0.91364950755E+02 0.  0.
          5    1    3    3  502    0  0.19142170582E+02  0.26403742110E+02 -0.54628600420E+00  0.32883903668E+02  0.41800000000E+01 0. -1.
         -5    1    3    3    0  502 -0.61148025624E+02 -0.40933736665E+02  0.14932555277E+03  0.16652400712E+03  0.41800000000E+01 0. -1.
        -11    1    4    4    0    0  0.62607730632E+02  0.15862062993E+02  0.18667753917E+03  0.19753439349E+03  0.00000000000E+00 0. -1.
         11    1    4    4    0    0 -0.20601875591E+02 -0.13320684372E+01  0.81510052907E+01  0.22195733181E+02  0.00000000000E+00 0.  1.
</event>
<event>
 8    1  0.3528896E-009  0.1356455E+03  0.7561462E-02  0.1219311E+00
          2   -1    0    0  501    0  0.00000000000E+00  0.00000000000E+00  0.53990539843E+03  0.53990539843E+03  0.00000000000E+00 0. -1.
         -2   -1    0    0    0  501 -0.00000000000E+00 -0.00000000000E+00 -0.42710358178E+02  0.42710358178E+02  0.00000000000E+00 0.  1.
         25    2    1    2    0    0 -0.10531234870E+03 -0.41606044093E+01  0.28140399758E+03  0.32549210172E+03  0.12509555153E+03 0.  0.
         23    2    1    2    0    0  0.10531234870E+03  0.41606044093E+01  0.21579104267E+03  0.25712365489E+03  0.91862932592E+02 0.  0.
          5    1    3    3  502    0 -0.22628621575E+02 -0.58866436937E+02  0.91219319580E+02  0.11097634242E+03  0.41800000000E+01 0.  1.
         -5    1    3    3    0  502 -0.82683727129E+02  0.54705832528E+02  0.19018467800E+03  0.21451575931E+03  0.41800000000E+01 0.  1.
        -11    1    4    4    0    0  0.27564698367E+02  0.13240033624E+02  0.15507203996E+03  0.15805837106E+03  0.00000000000E+00 0. -1.
         11    1    4    4    0    0  0.77747650337E+02 -0.90794292151E+01  0.60719002716E+02  0.99065283822E+02  0.00000000000E+00 0.  1.
</event>
<event>
 8    1  0.3528896E-009  0.1131821E+03  0.7561462E-02  0.1254788E+00
          2   -1    0    0  501    0  0.00000000000E+00  0.00000000000E+00  0.75496786392E+03  0.75496786392E+03  0.00000000000E+00 0. -1.
         -2   -1    0    0    0  501 -0.00000000000E+00 -0.00000000000E+00 -0.23725266444E+02  0.23725266444E+02  0.00000000000E+00 0.  1.
         25    2    1    2    0    0 -0.62016743011E+02  0.54694928657E+01  0.53757520323E+03  0.55543907993E+03  0.12509788416E+03 0.  0.
         23    2    1    2    0    0  0.62016743011E+02 -0.54694928657E+01  0.19366739424E+03  0.22325405043E+03  0.91974559932E+02 0.  0.
          5    1    3    3  502    0  0.32773548853E+02  0.13098020469E+02  0.25014026722E+03  0.25265250708E+03  0.41800000000E+01 0.  1.
         -5    1    3    3    0  502 -0.94790291864E+02 -0.76285276038E+01  0.28743493601E+03  0.30278657286E+03  0.41800000000E+01 0.  1.
        -11    1    4    4    0    0 -0.16728092009E+02 -0.13471243195E+01  0.31662377664E+01  0.17078315719E+02  0.00000000000E+00 0. -1.
         11    1    4    4    0    0  0.78744835020E+02 -0.41223685461E+01  0.19050115648E+03  0.20617573471E+03  0.00000000000E+00 0.  1.
</event>
<event>
 8    1  0.3528896E-009  0.9927690E+02  0.7561462E-02  0.1281824E+00
         -1   -1    0    0    0  501 -0.00000000000E+00  0.00000000000E+00  0.16089509305E+03  0.16089509305E+03  0.00000000000E+00 0.  1.
          1   -1    0    0  501    0  0.00000000000E+00 -0.00000000000E+00 -0.84049507364E+02  0.84049507364E+02  0.00000000000E+00 0. -1.
         25    2    1    2    0    0  0.27586427912E+02 -0.25713190484E+02  0.19469415965E+02  0.13210546056E+03  0.12510241957E+03 0.  0.
         23    2    1    2    0    0 -0.27586427912E+02  0.25713190484E+02  0.57376169726E+02  0.11283913985E+03  0.89545895835E+02 0.  0.
          5    1    3    3  502    0  0.72732760573E+02 -0.26520139267E+02 -0.97798643663E+01  0.78144036205E+02  0.41800000000E+01 0.  1.
         -5    1    3    3    0  502 -0.45146332661E+02  0.80694878318E+00  0.29249280331E+02  0.53961424360E+02  0.41800000000E+01 0.  1.
        -11    1    4    4    0    0 -0.27346386834E+02 -0.17498165761E+02  0.61385013381E+02  0.69441562091E+02  0.00000000000E+00 0.  1.
         11    1    4    4    0    0 -0.24004107875E+00  0.43211356245E+02 -0.40088436555E+01  0.43397577763E+02  0.00000000000E+00 0. -1.
</event>
<event>
 8    1  0.3528896E-009  0.1329191E+03  0.7561462E-02  0.1223188E+00
         -2   -1    0    0    0  501 -0.00000000000E+00  0.00000000000E+00  0.66776643696E+02  0.66776643696E+02  0.00000000000E+00 0.  1.
          2   -1    0    0  501    0  0.00000000000E+00 -0.00000000000E+00 -0.34749521167E+03  0.34749521167E+03  0.00000000000E+00 0. -1.
         25    2    1    2    0    0 -0.43548938819E+02  0.96073147196E+02 -0.13227920696E+03  0.21041028232E+03  0.12509252027E+03 0.  0.
         23    2    1    2    0    0  0.43548938819E+02 -0.96073147196E+02 -0.14843936101E+03  0.20386157305E+03  0.91644625502E+02 0.  0.
          5    1    3    3  502    0  0.18099211224E+00  0.92204380884E+02 -0.26843264778E+02  0.96123430423E+02  0.41800000000E+01 0.  1.
         -5    1    3    3    0  502 -0.43729930932E+02  0.38687663126E+01 -0.10543594218E+03  0.11428685190E+03  0.41800000000E+01 0.  1.
        -11    1    4    4    0    0  0.64015137229E+02 -0.58822214102E+02 -0.13248647676E+03  0.15846342540E+03  0.00000000000E+00 0. -1.
         11    1    4    4    0    0 -0.20466198409E+02 -0.37250933094E+02 -0.15952884254E+02  0.45398147646E+02  0.00000000000E+00 0.  1.
</event>
<event>
 8    1  0.3528896E-009  0.1432467E+03  0.7561462E-02  0.1209026E+00
          2   -1    0    0  501    0  0.00000000000E+00  0.00000000000E+00  0.31412000638E+02  0.31412000638E+02  0.00000000000E+00 0. -1.
         -2   -1    0    0    0  501 -0.00000000000E+00 -0.00000000000E+00 -0.84944027859E+03  0.84944027859E+03  0.00000000000E+00 0.  1.
         25    2    1    2    0    0 -0.92283896173E+02  0.33810739150E+02 -0.63646181897E+03  0.65604170763E+03  0.12509033363E+03 0.  0.
         23    2    1    2    0    0  0.92283896173E+02 -0.33810739150E+02 -0.18156645899E+03  0.22481057160E+03  0.88960274847E+02 0.  0.
          5    1    3    3  502    0 -0.23018650104E+02  0.74875772576E+02 -0.31635173857E+03  0.32593271463E+03  0.41800000000E+01 0. -1.
         -5    1    3    3    0  502 -0.69265246069E+02 -0.41065033426E+02 -0.32011008040E+03  0.33010899299E+03  0.41800000000E+01 0. -1.
        -11    1    4    4    0    0  0.81932630431E+02 -0.58480562602E+02 -0.11367799972E+03  0.15184077104E+03  0.00000000000E+00 0. -1.
         11    1    4    4    0    0  0.10351265742E+02  0.24669823452E+02 -0.67888459268E+02  0.72969800558E+02  0.00000000000E+00 0.  1.
</event>
<event>
 8    1  0.3528896E-009  0.1158270E+03  0.7561462E-02  0.1250144E+00
         -4   -1    0    0    0  501 -0.00000000000E+00  0.00000000000E+00  0.16141798314E+03  0.16141798314E+03  0.00000000000E+00 0.  1.
          4   -1    0    0  501    0  0.00000000000E+00 -0.00000000000E+00 -0.97883010224E+02  0.97883010224E+02  0.00000000000E+00 0. -1.
         25    2    1    2    0    0 -0.17338142389E+02 -0.62570083766E+02  0.46028113156E+02  0.14827440842E+03  0.12510430219E+03 0.  0.
         23    2    1    2    0    0  0.17338142389E+02  0.62570083766E+02  0.17506859763E+02  0.11102658495E+03  0.88344699121E+02 0.  0.
          5    1    3    3  502    0 -0.70700112633E+02 -0.23670644200E+02  0.27289594323E+02  0.79504714838E+02  0.41800000000E+01 0.  1.
         -5    1    3    3    0  502  0.53361970245E+02 -0.38899439566E+02  0.18738518832E+02  0.68769693579E+02  0.41800000000E+01 0.  1.
        -11    1    4    4    0    0 -0.15929213961E+02  0.54221745689E+02  0.40681210786E+02  0.69632596346E+02  0.00000000000E+00 0.  1.
         11    1    4    4    0    0  0.33267356349E+02  0.83483380777E+01 -0.23174351023E+02  0.41393988603E+02  0.00000000000E+00 0. -1.
</event>
<event>
 8    1  0.3528896E-009  0.1328439E+03  0.7561462E-02  0.1223296E+00
          2   -1    0    0  501    0  0.00000000000E+00  0.00000000000E+00  0.77480386065E+03  0.77480386065E+03  0.00000000000E+00 0. -1.
         -2   -1    0    0    0  501 -0.00000000000E+00 -0.00000000000E+00 -0.45561097203E+02  0.45561097203E+02  0.00000000000E+00 0.  1.
         25    2    1    2    0    0  0.11741858654E+03  0.61085372326E+02  0.54898882873E+03  0.57840735165E+03  0.12509109960E+03 0.  0.
         23    2    1    2    0    0 -0.11741858654E+03 -0.61085372326E+02  0.18025393472E+03  0.24195760621E+03  0.92376701827E+02 0.  0.
          5    1    3    3  502    0  0.80105819921E+02  0.38266862625E+02  0.13212778968E+03  0.15923730834E+03  0.41800000000E+01 0.  1.
         -5    1    3    3    0  502  0.37312766617E+02  0.22818509701E+02  0.41686103905E+03  0.41917004331E+03  0.41800000000E+01 0.  1.
        -11    1    4    4    0    0 -0.50725224998E+02 -0.32973647309E+02  0.15316044603E+03  0.16467675032E+03  0.00000000000E+00 0. -1.
         11    1    4    4    0    0 -0.66693361539E+02 -0.28111725017E+02  0.27093488696E+02  0.77280855887E+02  0.00000000000E+00 0.  1.
</event>
<event>
 8    1  0.3528896E-009  0.1418634E+03  0.7561462E-02  0.1210843E+00
         -2   -1    0    0    0  501 -0.00000000000E+00  0.00000000000E+00  0.18408123311E+03  0.18408123311E+03  0.00000000000E+00 0. -1.
          2   -1    0    0  501    0  0.00000000000E+00 -0.00000000000E+00 -0.13115470888E+03  0.13115470888E+03  0.00000000000E+00 0.  1.
         25    2    1    2    0    0 -0.10304261172E+03 -0.75950495034E+01 -0.13189149311E+02  0.16278235127E+03  0.12509466663E+03 0.  0.
         23    2    1    2    0    0  0.10304261172E+03  0.75950495034E+01  0.66115673545E+02  0.15245359071E+03  0.90528174767E+02 0.  0.
          5    1    3    3  502    0  0.24005693430E+02  0.17885374969E+02 -0.13578272308E+02  0.33136110721E+02  0.41800000000E+01 0. -1.
         -5    1    3    3    0  502 -0.12704830515E+03 -0.25480424473E+02  0.38912299701E+00  0.12964624055E+03  0.41800000000E+01 0. -1.
        -11    1    4    4    0    0  0.11332609210E+03  0.74410568174E+01  0.77206483577E+02  0.13732812379E+03  0.00000000000E+00 0. -1.
         11    1    4    4    0    0 -0.10283480382E+02  0.15399268593E+00 -0.11090810033E+02  0.15125466925E+02  0.00000000000E+00 0.  1.
</event>
<event>
 8    1  0.3528896E-009  0.8012122E+02  0.7561462E-02  0.1328708E+00
          3   -1    0    0  501    0  0.00000000000E+00  0.00000000000E+00  0.85488938447E+02  0.85488938447E+02  0.00000000000E+00 0. -1.
         -3   -1    0    0    0  501 -0.00000000000E+00 -0.00000000000E+00 -0.23151182747E+03  0.23151182747E+03  0.00000000000E+00 0.  1.
         25    2    1    2    0    0 -0.56324956198E+01  0.19217964401E+01  0.20795341650E+02  0.12694426379E+03  0.12508789536E+03 0.  0.
         23    2    1    2    0    0  0.56324956198E+01 -0.19217964401E+01 -0.16681823067E+03  0.19005650213E+03  0.90872072766E+02 0.  0.
          5    1    3    3  502    0  0.12739355115E+02 -0.38486904532E+02  0.56610687097E+02  0.69755109367E+02  0.41800000000E+01 0.  1.
         -5    1    3    3    0  502 -0.18371850735E+02  0.40408700972E+02 -0.35815345447E+02  0.57189154419E+02  0.41800000000E+01 0.  1.
        -11    1    4    4    0    0 -0.34545008464E+02 -0.32857982773E+01 -0.13321734868E+03  0.13766268946E+03  0.00000000000E+00 0.  1.
         11    1    4    4    0    0  0.40177504083E+02  0.13640018372E+01 -0.33600881991E+02  0.52393812669E+02  0.00000000000E+00 0. -1.
</event>
<event>
 8    1  0.3528896E-009  0.6681083E+02  0.7561462E-02  0.1371286E+00
          2   -1    0    0  501    0  0.00000000000E+00  0.00000000000E+00  0.25330304732E+03  0.25330304732E+03  0.00000000000E+00 0. -1.
         -2   -1    0    0    0  501 -0.00000000000E+00 -0.00000000000E+00 -0.58375652381E+02  0.58375652381E+02  0.00000000000E+00 0.  1.
         25    2    1    2    0    0  0.35869462275E+02 -0.42730528562E+02  0.10735455390E+03  0.17402641444E+03  0.12509067225E+03 0.  0.
         23    2    1    2    0    0 -0.35869462275E+02  0.42730528562E+02  0.87572841036E+02  0.13765228526E+03  0.90369423780E+02 0.  0.
          5    1    3    3  502    0  0.48205033026E+02 -0.28304740697E+02  0.13154759318E+03  0.14299344470E+03  0.41800000000E+01 0. -1.
         -5    1    3    3    0  502 -0.12335570751E+02 -0.14425787866E+02 -0.24193039282E+02  0.31032969742E+02  0.41800000000E+01 0. -1.
        -11    1    4    4    0    0 -0.13110505734E+02  0.28277726391E+02 -0.12819834826E+02  0.33702571644E+02  0.00000000000E+00 0.  1.
         11    1    4    4    0    0 -0.22758956541E+02  0.14452802171E+02  0.10039267586E+03  0.10394971361E+03  0.00000000000E+00 0. -1.
</event>
<event>
 8    1  0.3528896E-009  0.6576515E+02  0.7561462E-02  0.1375116E+00
          1   -1    0    0  501    0  0.00000000000E+00  0.00000000000E+00  0.47683407228E+03  0.47683407228E+03  0.00000000000E+00 0. -1.
         -1   -1    0    0    0  501 -0.00000000000E+00 -0.00000000000E+00 -0.90950383214E+02  0.90950383214E+02  0.00000000000E+00 0.  1.
         25    2    1    2    0    0 -0.12959578955E+02 -0.21255128375E+02  0.44031205606E+03  0.45841201799E+03  0.12508853009E+03 0.  0.
         23    2    1    2    0    0  0.12959578955E+02  0.21255128375E+02 -0.54428366994E+02  0.10937243750E+03  0.91543168955E+02 0.  0.
          5    1    3    3  502    0  0.31475847547E+02 -0.27167031116E+01  0.37902474462E+03  0.38036211547E+03  0.41800000000E+01 0. -1.
         -5    1    3    3    0  502 -0.44435426502E+02 -0.18538425263E+02  0.61287311444E+02  0.78049902522E+02  0.41800000000E+01 0. -1.
        -11    1    4    4    0    0  0.28786943484E+02  0.61118298899E+01  0.17461711981E+02  0.34219204623E+02  0.00000000000E+00 0. -1.
         11    1    4    4    0    0 -0.15827364529E+02  0.15143298485E+02 -0.71890078975E+02  0.75153232877E+02  0.00000000000E+00 0.  1.
</event>
<event>
 8    1  0.3528896E-009  0.1294913E+03  0.7561462E-02  0.1228212E+00
          2   -1    0    0  501    0  0.00000000000E+00  0.00000000000E+00  0.29636524245E+04  0.29636524245E+04  0.00000000000E+00 0. -1.
         -2   -1    0    0    0  501 -0.00000000000E+00 -0.00000000000E+00 -0.88287579243E+01  0.88287579243E+01  0.00000000000E+00 0.  1.
         25    2    1    2    0    0 -0.60769092657E+02  0.41041533717E+02  0.24478810487E+04  0.24521722260E+04  0.12509879035E+03 0.  0.
         23    2    1    2    0    0  0.60769092657E+02 -0.41041533717E+02  0.50694261784E+03  0.52030895637E+03  0.91396401390E+02 0.  0.
          5    1    3    3  502    0  0.16584545490E+02  0.62020071191E+02  0.99780926404E+03  0.99988116103E+03  0.41800000000E+01 0. -1.
         -5    1    3    3    0  502 -0.77353638147E+02 -0.20978537474E+02  0.14500717847E+04  0.14522910650E+04  0.41800000000E+01 0. -1.
        -11    1    4    4    0    0  0.19420634705E+02 -0.64148466935E+02  0.35058236050E+03  0.35693161579E+03  0.00000000000E+00 0. -1.
         11    1    4    4    0    0  0.41348457953E+02  0.23106933218E+02  0.15636025734E+03  0.16337734058E+03  0.00000000000E+00 0.  1.
</event>
<event>
 8    1  0.3528896E-009  0.1625400E+03  0.7561462E-02  0.1185859E+00
         -1   -1    0    0    0  501 -0.00000000000E+00  0.00000000000E+00  0.20249314928E+02  0.20249314928E+02  0.00000000000E+00 0.  1.
          1   -1    0    0  501    0  0.00000000000E+00 -0.00000000000E+00 -0.14016163068E+04  0.14016163068E+04  0.00000000000E+00 0. -1.
         25    2    1    2    0    0 -0.11075323871E+03 -0.64740156615E+02 -0.69258003619E+03  0.71538241452E+03  0.12508926697E+03 0.  0.
         23    2    1    2    0    0  0.11075323871E+03  0.64740156615E+02 -0.68878695567E+03  0.70648320720E+03  0.90738547416E+02 0.  0.
          5    1    3    3  502    0 -0.10614948893E+03 -0.93364825257E+02 -0.63748036863E+03  0.65298039586E+03  0.41800000000E+01 0.  1.
         -5    1    3    3    0  502 -0.46037497750E+01  0.28624668642E+02 -0.55099667560E+02  0.62402018654E+02  0.41800000000E+01 0.  1.
        -11    1    4    4    0    0  0.21266450211E+01  0.43652320942E+02 -0.26004439276E+03  0.26369136115E+03  0.00000000000E+00 0. -1.
         11    1    4    4    0    0  0.10862659368E+03  0.21087835672E+02 -0.42874256292E+03  0.44279184605E+03  0.00000000000E+00 0.  1.
</event>
<event>
 8    1  0.3528896E-009  0.1593278E+03  0.7561462E-02  0.1189458E+00
         -1   -1    0    0    0  501 -0.00000000000E+00  0.00000000000E+00  0.23088430620E+03  0.23088430620E+03  0.00000000000E+00 0.  1.
          1   -1    0    0  501    0  0.00000000000E+00 -0.00000000000E+00 -0.12921622461E+03  0.12921622461E+03  0.00000000000E+00 0. -1.
         25    2    1    2    0    0  0.10934116661E+03 -0.75308634309E+02  0.79658059458E+02  0.19904724764E+03  0.12509004452E+03 0.  0.
         23    2    1    2    0    0 -0.10934116661E+03  0.75308634309E+02  0.22010022127E+02  0.16105328317E+03  0.88469417475E+02 0.  0.
          5    1    3    3  502    0  0.12190660798E+03 -0.36953730578E+02  0.91362370763E+02  0.15681630803E+03  0.41800000000E+01 0. -1.
         -5    1    3    3    0  502 -0.12565441369E+02 -0.38354903731E+02 -0.11704311305E+02  0.42230939607E+02  0.41800000000E+01 0. -1.
        -11    1    4    4    0    0 -0.12911471642E+02  0.48999119748E+02  0.33040522503E+02  0.60492114885E+02  0.00000000000E+00 0.  1.
         11    1    4    4    0    0 -0.96429694969E+02  0.26309514561E+02 -0.11030500376E+02  0.10056116828E+03  0.00000000000E+00 0. -1.
</event>
<event>
 8    1  0.3528896E-009  0.9175761E+02  0.7561462E-02  0.1298650E+00
         -2   -1    0    0    0  501 -0.00000000000E+00  0.00000000000E+00  0.16023947621E+03  0.16023947621E+03  0.00000000000E+00 0.  1.
          2   -1    0    0  501    0  0.00000000000E+00 -0.00000000000E+00 -0.12449065378E+03  0.12449065378E+03  0.00000000000E+00 0. -1.
         25    2    1    2    0    0  0.34932776495E+02  0.38143352424E+02 -0.52905933130E+02  0.14533515170E+03  0.12509218341E+03 0.  0.
         23    2    1    2    0    0 -0.34932776495E+02 -0.38143352424E+02  0.88654755560E+02  0.13939497828E+03  0.94319033497E+02 0.  0.
          5    1    3    3  502    0 -0.32696353593E+02  0.39865572020E+02  0.10201947580E+02  0.52724448837E+02  0.41800000000E+01 0. -1.
         -5    1    3    3    0  502  0.67629130088E+02 -0.17222195951E+01 -0.63107880710E+02  0.92610702862E+02  0.41800000000E+01 0. -1.
        -11    1    4    4    0    0 -0.41505153025E+02 -0.22891278983E+02  0.10554968680E+03  0.11570403953E+03  0.00000000000E+00 0.  1.
         11    1    4    4    0    0  0.65723765301E+01 -0.15252073442E+02 -0.16894931236E+02  0.23690938753E+02  0.00000000000E+00 0. -1.
</event>
<event>
 8    1  0.3528896E-009  0.1072423E+03  0.7561462E-02  0.1265764E+00
          3   -1    0    0  501    0  0.00000000000E+00  0.00000000000E+00  0.33518434751E+02  0.33518434751E+02  0.00000000000E+00 0. -1.
         -3   -1    0    0    0  501 -0.00000000000E+00 -0.00000000000E+00 -0.51223925118E+03  0.51223925118E+03  0.00000000000E+00 0.  1.
         25    2    1    2    0    0 -0.27707387239E+02  0.59736429925E+02 -0.32036535473E+03  0.35016735394E+03  0.12508826838E+03 0.  0.
         23    2    1    2    0    0  0.27707387239E+02 -0.59736429925E+02 -0.15835546170E+03  0.19559033199E+03  0.94037148775E+02 0.  0.
          5    1    3    3  502    0 -0.57543756346E+02  0.14194469883E+02 -0.61145373237E+02  0.85258406846E+02  0.41800000000E+01 0. -1.
         -5    1    3    3    0  502  0.29836369107E+02  0.45541960042E+02 -0.25921998149E+03  0.26490894710E+03  0.41800000000E+01 0. -1.
        -11    1    4    4    0    0  0.54129255433E+02 -0.36582218358E+02 -0.14306335116E+03  0.15727478323E+03  0.00000000000E+00 0. -1.
         11    1    4    4    0    0 -0.26421868194E+02 -0.23154211567E+02 -0.15292110537E+02  0.38315548761E+02  0.00000000000E+00 0.  1.
</event>
<event>
 7    1  0.3528896E-009  0.1364685E+03  0.7561462E-02  0.1218161E+00
         -1   -1    0    0    0  501 -0.00000000000E+00  0.00000000000E+00  0.28626241691E+02  0.28626241691E+02  0.00000000000E+00 0.  1.
          1   -1    0    0  501    0  0.00000000000E+00 -0.00000000000E+00 -0.82396360563E+03  0.82396360563E+03  0.00000000000E+00 0. -1.
         23    2    1    2    0    0 -0.45149104586E+02 -0.98205937880E+02 -0.39056976276E+03  0.41534556264E+03  0.91018398926E+02 0.  0.
          5    1    1    2  502    0  0.43779643281E+02 -0.12430655266E+02 -0.19230496329E+03  0.19766094623E+03  0.41800000000E+01 0. -1.
         -5    1    1    2    0  502  0.13694613055E+01  0.11063659315E+03 -0.21246263788E+03  0.23958333845E+03  0.41800000000E+01 0. -1.
        -11    1    3    3    0    0 -0.16883330543E+02 -0.29361051058E+01 -0.60202370312E+01  0.18163447286E+02  0.00000000000E+00 0.  1.
         11    1    3    3    0    0 -0.28265774044E+02 -0.95269832774E+02 -0.38454952573E+03  0.39718211536E+03  0.00000000000E+00 0. -1.
</event>
<event>
 7    1  0.3528896E-009  0.8814758E+02  0.7561462E-02  0.1307401E+00
          1   -1    0    0  501    0  0.00000000000E+00  0.00000000000E+00  0.33805459776E+02  0.33805459776E+02  0.00000000000E+00 0. -1.
         -1   -1    0    0    0  501 -0.00000000000E+00 -0.00000000000E+00 -0.45007264676E+03  0.45007264676E+03  0.00000000000E+00 0.  1.
         23    2    1    2    0    0  0.32599430971E+02 -0.48283196181E+02 -0.18398990796E+03  0.21363286975E+03  0.91611827159E+02 0.  0.
          5    1    1    2  502    0 -0.37032302658E+02  0.26387611491E+02 -0.99190853188E+01  0.46728558013E+02  0.41800000000E+01 0.  1.
         -5    1    1    2    0  502  0.44328716876E+01  0.21895584690E+02 -0.22235819371E+03  0.22351667877E+03  0.41800000000E+01 0.  1.
        -11    1    3    3    0    0 -0.84475522846E+00  0.26222601125E+02 -0.55443266413E+02  0.61337543248E+02  0.00000000000E+00 0.  1.
         11    1    3    3    0    0  0.33444186199E+02 -0.74505797306E+02 -0.12854664155E+03  0.15229532651E+03  0.00000000000E+00 0. -1.
</event>
<event>
 8    1  0.3528896E-009  0.9001916E+02  0.7561462E-02  0.1302805E+00
          1   -1    0    0  501    0  0.00000000000E+00  0.00000000000E+00  0.38844397420E+03  0.38844397420E+03  0.00000000000E+00 0. -1.
         -1   -1    0    0    0  501 -0.00000000000E+00 -0.00000000000E+00 -0.58647017417E+02  0.58647017417E+02  0.00000000000E+00 0.  1.
         25    2    1    2    0    0 -0.21768030592E-01 -0.44935438184E+01  0.32955763998E+03  0.35252753138E+03  0.12508888801E+03 0.  0.
         23    2    1    2    0    0  0.21768030592E-01  0.44935438184E+01  0.23931680371E+00  0.94563460236E+02  0.94456330276E+02 0.  0.
          5    1    3    3  502    0  0.38854064719E+02  0.36428318068E+02  0.24512837939E+03  0.25088255317E+03  0.41800000000E+01 0.  1.
         -5    1    3    3    0  502 -0.38875832749E+02 -0.40921861886E+02  0.84429260588E+02  0.10164497821E+03  0.41800000000E+01 0.  1.
        -11    1    4    4    0    0  0.25955397745E+02 -0.21197228229E+02 -0.31647826097E+02  0.46093275576E+02  0.00000000000E+00 0.  1.
         11    1    4    4    0    0 -0.25933629714E+02  0.25690772048E+02  0.31887142901E+02  0.48470184659E+02  0.00000000000E+00 0. -1.
</event>
<event>
 8    1  0.3528896E-009  0.8187254E+02  0.7561462E-02  0.1323820E+00
          2   -1    0    0  501    0  0.00000000000E+00  0.00000000000E+00  0.10110773662E+04  0.10110773662E+04  0.00000000000E+00 0. -1.
         -2   -1    0    0    0  501 -0.00000000000E+00 -0.00000000000E+00 -0.18645819359E+02  0.18645819359E+02  0.00000000000E+00 0.  1.
         25    2    1    2    0    0 -0.18257956160E+02  0.26394316025E+02  0.83120224873E+03  0.84117459163E+03  0.12508997730E+03 0.  0.
         23    2    1    2    0    0  0.18257956160E+02 -0.26394316025E+02  0.16122929812E+03  0.18854859394E+03  0.92334570036E+02 0.  0.
          5    1    3    3  502    0 -0.27751809671E+02  0.66989589378E+02  0.69205482110E+03  0.69585567169E+03  0.41800000000E+01 0.  1.
         -5    1    3    3    0  502  0.94938535116E+01 -0.40595273354E+02  0.13914742763E+03  0.14531891993E+03  0.41800000000E+01 0.  1.
        -11    1    4    4    0    0  0.15913161373E+02  0.57983436853E+01 -0.62004051801E+01  0.18035923009E+02  0.00000000000E+00 0.  1.
         11    1    4    4    0    0  0.23447947863E+01 -0.32192659710E+02  0.16742970330E+03  0.17051267093E+03  0.00000000000E+00 0. -1.
</event>
<event>
 8    1  0.3528896E-009  0.1537572E+03  0.7561462E-02  0.1195931E+00
         -1   -1    0    0    0  501 -0.00000000000E+00  0.00000000000E+00  0.43776973200E+03  0.43776973200E+03  0.00000000000E+00 0.  1.
          1   -1    0    0  501    0  0.00000000000E+00 -0.00000000000E+00 -0.74080583551E+02  0.74080583551E+02  0.00000000000E+00 0. -1.
         25    2    1    2    0    0  0.37108301196E+02 -0.11580739718E+03  0.83771359048E+02  0.19353290080E+03  0.12509581862E+03 0.  0.
         23    2    1    2    0    0 -0.37108301196E+02  0.11580739718E+03  0.27991778941E+03  0.31831741476E+03  0.90463409468E+02 0.  0.
          5    1    3    3  502    0  0.16027564593E+02  0.19770947304E+02  0.43335195273E+02  0.50429998349E+02  0.41800000000E+01 0. -1.
         -5    1    3    3    0  502  0.21080736602E+02 -0.13557834448E+03  0.40436163775E+02  0.14310290245E+03  0.41800000000E+01 0. -1.
        -11    1    4    4    0    0 -0.13965336352E+02  0.12010340840E+03  0.26258472019E+03  0.28908579108E+03  0.00000000000E+00 0.  1.
         11    1    4    4    0    0 -0.23142964844E+02 -0.42960112191E+01  0.17333069213E+02  0.29231623672E+02  0.00000000000E+00 0. -1.
</event>
<event>
 8    1  0.3528896E-009  0.1193428E+03  0.7561462E-02  0.1244185E+00
          1   -1    0    0  501    0  0.00000000000E+00  0.00000000000E+00  0.20909802970E+04  0.20909802970E+04  0.00000000000E+00 0. -1.
         -1   -1    0    0    0  501 -0.00000000000E+00 -0.00000000000E+00 -0.85194872176E+01  0.85194872176E+01  0.00000000000E+00 0.  1.
         25    2    1    2    0    0  0.43818743878E+02 -0.32790799721E+02  0.15642949160E+04  0.15702424416E+04  0.12508965704E+03 0.  0.
         23    2    1    2    0    0 -0.43818743878E+02  0.32790799721E+02  0.51816589374E+03  0.52925734258E+03  0.92855384227E+02 0.  0.
          5    1    3    3  502    0  0.18765103985E+02 -0.79917837983E+02  0.86215221350E+03  0.86606171927E+03  0.41800000000E+01 0.  1.
         -5    1    3    3    0  502  0.25053639892E+02  0.47127038262E+02  0.70214270255E+03  0.70418072236E+03  0.41800000000E+01 0.  1.
        -11    1    4    4    0    0 -0.67093996238E+02  0.58490712913E+01  0.40684240958E+03  0.41237914860E+03  0.00000000000E+00 0.  1.
         11    1    4    4    0    0  0.23275252360E+02  0.26941728429E+02  0.11132348416E+03  0.11687819398E+03  0.00000000000E+00 0. -1.
</event>
<event>
 8    1  0.3528896E-009  0.1127797E+03  0.7561462E-02  0.1255507E+00
         -2   -1    0    0    0  501 -0.00000000000E+00  0.00000000000E+00  0.11672389091E+02  0.11672389091E+02  0.00000000000E+00 0.  1.
          2   -1    0    0  501    0  0.00000000000E+00 -0.00000000000E+00 -0.17415777603E+04  0.17415777603E+04  0.00000000000E+00 0. -1.
         25    2    1    2    0    0 -0.32098485762E+02  0.14207276506E+02 -0.14771577121E+04  0.14828602628E+04  0.12508994057E+03 0.  0.
         23    2    1    2    0    0  0.32098485762E+02 -0.14207276506E+02 -0.25274765910E+03  0.27038988653E+03  0.89426797233E+02 0.  0.
          5    1    3    3  502    0 -0.78621550103E+02 -0.60898524400E+01 -0.91190933285E+03  0.91532209532E+03  0.41800000000E+01 0. -1.
         -5    1    3    3    0  502  0.46523064341E+02  0.20297128946E+02 -0.56524837923E+03  0.56753816751E+03  0.41800000000E+01 0. -1.
        -11    1    4    4    0    0 -0.18122445811E+02 -0.36472400632E+02 -0.95460988108E+02  0.10378564111E+03  0.00000000000E+00 0.  1.
         11    1    4    4    0    0  0.50220931573E+02  0.22265124126E+02 -0.15728667100E+03  0.16660424543E+03  0.00000000000E+00 0. -1.
</event>
<event>
 8    1  0.3528896E-009  0.1635334E+03  0.7561462E-02  0.1184764E+00
          1   -1    0    0  501    0  0.00000000000E+00  0.00000000000E+00  0.58720548270E+03  0.58720548270E+03  0.00000000000E+00 0. -1.
         -1   -1    0    0    0  501 -0.00000000000E+00 -0.00000000000E+00 -0.60016840926E+02  0.60016840926E+02  0.00000000000E+00 0.  1.
         25    2    1    2    0    0 -0.14276348432E+03  0.46543972742E+02  0.32651007043E+03  0.38052911027E+03  0.12508326753E+03 0.  0.
         23    2    1    2    0    0  0.14276348432E+03 -0.46543972742E+02  0.20067857134E+03  0.26669321335E+03  0.91135213823E+02 0.  0.
          5    1    3    3  502    0 -0.83133542981E+02  0.36719351241E+02  0.30161065136E+03  0.31503325878E+03  0.41800000000E+01 0. -1.
         -5    1    3    3    0  502 -0.59629941343E+02  0.98246215009E+01  0.24899419067E+02  0.65495851488E+02  0.41800000000E+01 0. -1.
        -11    1    4    4    0    0  0.45506372325E+02 -0.62129803994E+02  0.93370975395E+02  0.12103339007E+03  0.00000000000E+00 0.  1.
         11    1    4    4    0    0  0.97257111998E+02  0.15585831253E+02  0.10730759595E+03  0.14565982328E+03  0.00000000000E+00 0. -1.
</event>
<event>
 8    1  0.3528896E-009  0.1234794E+03  0.7561462E-02  0.1237465E+00
          1   -1    0    0  501    0  0.00000000000E+00  0.00000000000E+00  0.26691246497E+02  0.26691246497E+02  0.00000000000E+00 0. -1.
         -1   -1    0    0    0  501 -0.00000000000E+00 -0.00000000000E+00 -0.82791400977E+03  0.82791400977E+03  0.00000000000E+00 0.  1.
         25    2    1    2    0    0  0.42817268372E+02  0.72188242879E+02 -0.26945176242E+03  0.30870102102E+03  0.12509039623E+03 0.  0.
         23    2    1    2    0    0 -0.42817268372E+02 -0.72188242879E+02 -0.53177100085E+03  0.54590423524E+03  0.90479698433E+02 0.  0.
          5    1    3    3  502    0  0.44218751404E+02  0.92638751264E+02 -0.26880719624E+03  0.28777077226E+03  0.41800000000E+01 0. -1.
         -5    1    3    3    0  502 -0.14014830314E+01 -0.20450508385E+02 -0.64456617506E+00  0.20930248767E+02  0.41800000000E+01 0. -1.
        -11    1    4    4    0    0  0.24868566360E+02 -0.42824822131E+02 -0.22504917184E+03  0.23043337590E+03  0.00000000000E+00 0. -1.
         11    1    4    4    0    0 -0.67685834732E+02 -0.29363420747E+02 -0.30672182901E+03  0.31547085934E+03  0.00000000000E+00 0.  1.
</event>
<event>
 8    1  0.3528896E-009  0.1086423E+03  0.7561462E-02  0.1263105E+00
         -2   -1    0    0    0  501 -0.00000000000E+00  0.00000000000E+00  0.36081164867E+02  0.36081164867E+02  0.00000000000E+00 0.  1.
          2   -1    0    0  501    0  0.00000000000E+00 -0.00000000000E+00 -0.53270326303E+03  0.53270326303E+03  0.00000000000E+00 0. -1.
         25    2    1    2    0    0 -0.67771000399E+02  0.27453489466E+02 -0.38037240349E+03  0.40703375243E+03  0.12508680066E+03 0.  0.
         23    2    1    2    0    0  0.67771000399E+02 -0.27453489466E+02 -0.11624969467E+03  0.16175067546E+03  0.85455760039E+02 0.  0.
          5    1    3    3  502    0 -0.66808856683E+02  0.49807004791E+02 -0.37428543056E+03  0.38347257658E+03  0.41800000000E+01 0. -1.
         -5    1    3    3    0  502 -0.96214371604E+00 -0.22353515325E+02 -0.60869729268E+01  0.23561175848E+02  0.41800000000E+01 0. -1.
        -11    1    4    4    0    0  0.48852235750E+02  0.25320522190E+02 -0.44954993675E+02  0.71053650421E+02  0.00000000000E+00 0.  1.
         11    1    4    4    0    0  0.18918764650E+02 -0.52774011656E+02 -0.71294700993E+02  0.90697025044E+02  0.00000000000E+00 0. -1.
</event>
<event>
 8    1  0.3528896E-009  0.1026123E+03  0.7561462E-02  0.1274897E+00
          2   -1    0    0  501    0  0.00000000000E+00  0.00000000000E+00  0.16607597294E+04  0.16607597294E+04  0.00000000000E+00 0. -1.
         -2   -1    0    0    0  501 -0.00000000000E+00 -0.00000000000E+00 -0.11552622190E+02  0.11552622190E+02  0.00000000000E+00 0.  1.
         25    2    1    2    0    0  0.23137253067E+02  0.55349258255E+02  0.12772095529E+04  0.12847219860E+04  0.12508983349E+03 0.  0.
         23    2    1    2    0    0 -0.23137253067E+02 -0.55349258255E+02  0.37199755429E+03  0.38759036556E+03  0.90803294046E+02 0.  0.
          5    1    3    3  502    0 -0.45155076967E+02  0.29697205290E+02  0.30573507546E+03  0.31050332324E+03  0.41800000000E+01 0.  1.
         -5    1    3    3    0  502  0.68292330034E+02  0.25652052965E+02  0.97147447745E+03  0.97421866277E+03  0.41800000000E+01 0.  1.
        -11    1    4    4    0    0 -0.96189462978E+01  0.84059719428E+01  0.33227838273E+01  0.13199446373E+02  0.00000000000E+00 0.  1.
         11    1    4    4    0    0 -0.13518306770E+02 -0.63755230198E+02  0.36867477046E+03  0.37439091918E+03  0.00000000000E+00 0. -1.
</event>
<event>
 8    1  0.3528896E-009  0.9298537E+02  0.7561462E-02  0.1295779E+00
          3   -1    0    0  501    0  0.00000000000E+00  0.00000000000E+00  0.44058632685E+03  0.44058632685E+03  0.00000000000E+00 0. -1.
         -3   -1    0    0    0  501 -0.00000000000E+00 -0.00000000000E+00 -0.32466202825E+02  0.32466202825E+02  0.00000000000E+00 0.  1.
         25    2    1    2    0    0  0.16445157161E+02  0.51155885220E+02  0.23230267423E+03  0.26925826484E+03  0.12509241761E+03 0.  0.
         23    2    1    2    0    0 -0.16445157161E+02 -0.51155885220E+02  0.17581744979E+03  0.20379426483E+03  0.87937244335E+02 0.  0.
          5    1    3    3  502    0 -0.13608661091E+02  0.51357982112E+02  0.23288863351E+03  0.23890882361E+03  0.41800000000E+01 0. -1.
         -5    1    3    3    0  502  0.30053818252E+02 -0.20209689195E+00 -0.58595927277E+00  0.30349441230E+02  0.41800000000E+01 0. -1.
        -11    1    4    4    0    0 -0.52460679447E+02 -0.27370420312E+02  0.89571315535E+02  0.10735121500E+03  0.00000000000E+00 0.  1.
         11    1    4    4    0    0  0.36015522286E+02 -0.23785464908E+02  0.86246134255E+02  0.96443049829E+02  0.00000000000E+00 0. -1.
</event>
<event>
 8    1  0.3528896E-009  0.7603056E+02  0.7561462E-02  0.1340709E+00
          2   -1    0    0  501    0  0.00000000000E+00  0.00000000000E+00  0.19009721624E+03  0.19009721624E+03  0.00000000000E+00 0. -1.
         -2   -1    0    0    0  501 -0.00000000000E+00 -0.00000000000E+00 -0.69572982221E+02  0.69572982221E+02  0.00000000000E+00 0.  1.
         25    2    1    2    0    0  0.21391105233E+02  0.15494880554E+02  0.10443105872E+03  0.16507930511E+03  0.12509060814E+03 0.  0.
         23    2    1    2    0    0 -0.21391105233E+02 -0.15494880554E+02  0.16093175297E+02  0.94590893346E+02  0.89391141095E+02 0.  0.
          5    1    3    3  502    0  0.48371608062E+02 -0.48881689532E+01 -0.63207713277E+01  0.49204991743E+02  0.41800000000E+01 0.  1.
         -5    1    3    3    0  502 -0.26980502829E+02  0.20383049507E+02  0.11075183005E+03  0.11587431337E+03  0.41800000000E+01 0.  1.
        -11    1    4    4    0    0  0.77054639853E+01  0.21086373858E+02  0.37085575154E+02  0.43351461593E+02  0.00000000000E+00 0. -1.
         11    1    4    4    0    0 -0.29096569219E+02 -0.36581254412E+02 -0.20992399857E+02  0.51239431753E+02  0.00000000000E+00 0.  1.
</event>
<event>
 8    1  0.3528896E-009  0.7037959E+02  0.7561462E-02  0.1358807E+00
         -2   -1    0    0    0  501 -0.00000000000E+00  0.00000000000E+00  0.12758007990E+03  0.12758007990E+03  0.00000000000E+00 0.  1.
          2   -1    0    0  501    0  0.00000000000E+00 -0.00000000000E+00 -0.96639751841E+02  0.96639751841E+02  0.00000000000E+00 0. -1.
         25    2    1    2    0    0  0.42434886552E+01 -0.30542232203E+02  0.28824408301E+02  0.13202056943E+03  0.12509096328E+03 0.  0.
         23    2    1    2    0    0 -0.42434886552E+01  0.30542232203E+02  0.21159197603E+01  0.92199262318E+02  0.86864214218E+02 0.  0.
          5    1    3    3  502    0  0.16093932626E+02 -0.32243730078E+02 -0.44609888503E+02  0.57499455206E+02  0.41800000000E+01 0.  1.
         -5    1    3    3    0  502 -0.11850443971E+02  0.17014978751E+01  0.73434296804E+02  0.74521114219E+02  0.41800000000E+01 0.  1.
        -11    1    4    4    0    0  0.59170780531E+01 -0.29915048491E+02 -0.32105637731E+01  0.30663164525E+02  0.00000000000E+00 0.  1.
         11    1    4    4    0    0 -0.10160566708E+02  0.60457280695E+02  0.53264835333E+01  0.61536097793E+02  0.00000000000E+00 0. -1.
</event>
<event>
 8    1  0.3528896E-009  0.9703907E+02  0.7561462E-02  0.1286649E+00
         -2   -1    0    0    0  501 -0.00000000000E+00  0.00000000000E+00  0.31070147212E+02  0.31070147212E+02  0.00000000000E+00 0.  1.
          2   -1    0    0  501    0  0.00000000000E+00 -0.00000000000E+00 -0.46593636657E+03  0.46593636657E+03  0.00000000000E+00 0. -1.
         25    2    1    2    0    0  0.18007038227E+02 -0.49485590455E+02 -0.26532747544E+03  0.29802501755E+03  0.12508862768E+03 0.  0.
         23    2    1    2    0    0 -0.18007038227E+02  0.49485590455E+02 -0.16953874392E+03  0.19898149623E+03  0.89873094221E+02 0.  0.
          5    1    3    3  502    0  0.29769275745E+02  0.21583356827E+02 -0.19508027885E+02  0.41834036648E+02  0.41800000000E+01 0. -1.
         -5    1    3    3    0  502 -0.11762237518E+02 -0.71068947281E+02 -0.24581944755E+03  0.25619098090E+03  0.41800000000E+01 0. -1.
        -11    1    4    4    0    0 -0.40344750792E+02  0.13470371383E+02 -0.27247588993E+02  0.50513175782E+02  0.00000000000E+00 0.  1.
         11    1    4    4    0    0  0.22337712564E+02  0.36015219071E+02 -0.14229115492E+03  0.14846832045E+03  0.00000000000E+00 0. -1.
</event>
<event>
 8    1  0.3528896E-009  0.8706870E+02  0.7561462E-02  0.1310110E+00
         -3   -1    0    0    0  501 -0.00000000000E+00  0.00000000000E+00  0.51092129392E+03  0.51092129392E+03  0.00000000000E+00 0.  1.
          3   -1    0    0  501    0  0.00000000000E+00 -0.00000000000E+00 -0.25492839754E+02  0.25492839754E+02  0.00000000000E+00 0. -1.
         25    2    1    2    0    0  0.14425694043E+02  0.24471952108E+02  0.30715010359E+03  0.33285825167E+03  0.12508578047E+03 0.  0.
         23    2    1    2    0    0 -0.14425694043E+02 -0.24471952108E+02  0.17827835057E+03  0.20355588200E+03  0.94047061241E+02 0.  0.
          5    1    3    3  502    0 -0.36636212037E+02 -0.33380465890E-01  0.23833870292E+02  0.43906023730E+02  0.41800000000E+01 0. -1.
         -5    1    3    3    0  502  0.51061906080E+02  0.24505332574E+02  0.28331623330E+03  0.28895222794E+03  0.41800000000E+01 0. -1.
        -11    1    4    4    0    0 -0.43459319195E+02 -0.15613951265E+01  0.15222861770E+03  0.15831835783E+03  0.00000000000E+00 0.  1.
         11    1    4    4    0    0  0.29033625152E+02 -0.22910556982E+02  0.26049732870E+02  0.45237524173E+02  0.00000000000E+00 0. -1.
</event>
<event>
 8    1  0.3528896E-009  0.9047294E+02  0.7561462E-02  0.1301710E+00
          1   -1    0    0  501    0  0.00000000000E+00  0.00000000000E+00  0.12036965423E+03  0.12036965423E+03  0.00000000000E+00 0. -1.
         -1   -1    0    0    0  501 -0.00000000000E+00 -0.00000000000E+00 -0.11578493956E+03  0.11578493956E+03  0.00000000000E+00 0.  1.
         25    2    1    2    0    0 -0.15871720884E+02 -0.15702777803E+02 -0.38532797297E+02  0.13279069769E+03  0.12510037638E+03 0.  0.
         23    2    1    2    0    0  0.15871720884E+02  0.15702777803E+02  0.43117511965E+02  0.10336389610E+03  0.91249583151E+02 0.  0.
          5    1    3    3  502    0  0.68244079790E+01 -0.62165752834E+02  0.78908887530E+01  0.63173506274E+02  0.41800000000E+01 0.  1.
         -5    1    3    3    0  502 -0.22696128863E+02  0.46462975030E+02 -0.46423686050E+02  0.69617191415E+02  0.41800000000E+01 0.  1.
        -11    1    4    4    0    0 -0.82791686796E+01  0.34692005210E+02  0.58875504982E+02  0.68836073002E+02  0.00000000000E+00 0. -1.
         11    1    4    4    0    0  0.24150889564E+02 -0.18989227407E+02 -0.15757993017E+02  0.34527823102E+02  0.00000000000E+00 0.  1.
</event>
<event>
 8    1  0.3528896E-009  0.9020546E+02  0.7561462E-02  0.1302355E+00
         -2   -1    0    0    0  501 -0.00000000000E+00  0.00000000000E+00  0.45295554570E+02  0.45295554570E+02  0.00000000000E+00 0.  1.
          2   -1    0    0  501    0  0.00000000000E+00 -0.00000000000E+00 -0.31805730716E+03  0.31805730716E+03  0.00000000000E+00 0. -1.
         25    2    1    2    0    0 -0.20275534117E+02 -0.79631042279E+01 -0.22715416449E+03  0.26023213782E+03  0.12508893955E+03 0.  0.
         23    2    1    2    0    0  0.20275534117E+02  0.79631042279E+01 -0.45607588105E+02  0.10312072391E+03  0.89885056015E+02 0.  0.
          5    1    3    3  502    0 -0.22721073095E+02 -0.59627706155E+02 -0.17645614293E+03  0.18768578338E+03  0.41800000000E+01 0.  1.
         -5    1    3    3    0  502  0.24455389780E+01  0.51664601927E+02 -0.50698021558E+02  0.72546354443E+02  0.41800000000E+01 0.  1.
        -11    1    4    4    0    0  0.13197779279E+02 -0.26385906157E+02  0.15000664036E+02  0.33097089648E+02  0.00000000000E+00 0.  1.
         11    1    4    4    0    0  0.70777548377E+01  0.34349010385E+02 -0.60608252142E+02  0.70023634265E+02  0.00000000000E+00 0. -1.
</event>
<event>
 8    1  0.3528896E-009  0.1699846E+03  0.7561462E-02  0.1177864E+00
         -1   -1    0    0    0  501 -0.00000000000E+00  0.00000000000E+00  0.10163443310E+03  0.10163443310E+03  0.00000000000E+00 0.  1.
          1   -1    0    0  501    0  0.00000000000E+00 -0.00000000000E+00 -0.39089893845E+03  0.39089893845E+03  0.00000000000E+00 0. -1.
         25    2    1    2    0    0  0.18280123573E+02 -0.16229439094E+03 -0.10990349977E+03  0.23323941879E+03  0.12509282541E+03 0.  0.
         23    2    1    2    0    0 -0.18280123573E+02  0.16229439094E+03 -0.17936100558E+03  0.25929395276E+03  0.91593402407E+02 0.  0.
          5    1    3    3  502    0 -0.24535345109E+02 -0.76121505442E+02  0.85827157488E+01  0.80545652645E+02  0.41800000000E+01 0. -1.
         -5    1    3    3    0  502  0.42815468682E+02 -0.86172885501E+02 -0.11848621551E+03  0.15269376615E+03  0.41800000000E+01 0. -1.
        -11    1    4    4    0    0 -0.75131137716E+01  0.10515388432E+03 -0.17052430564E+03  0.20048023614E+03  0.00000000000E+00 0. -1.
         11    1    4    4    0    0 -0.10767009801E+02  0.57140506624E+02 -0.88366999405E+01  0.58813716624E+02  0.00000000000E+00 0.  1.
</event>
<event>
 8    1  0.3528896E-009  0.9458202E+02  0.7561462E-02  0.1292120E+00
         -2   -1    0    0    0  501 -0.00000000000E+00  0.00000000000E+00  0.20252147649E+02  0.20252147649E+02  0.00000000000E+00 0.  1.
          2   -1    0    0  501    0  0.00000000000E+00 -0.00000000000E+00 -0.66741944870E+03  0.66741944870E+03  0.00000000000E+00 0. -1.
         25    2    1    2    0    0 -0.15037775384E+02 -0.35204547599E+02 -0.30884725889E+03  0.33540960353E+03  0.12508987952E+03 0.  0.
         23    2    1    2    0    0  0.15037775384E+02  0.35204547599E+02 -0.33832004217E+03  0.35226199282E+03  0.90346919121E+02 0.  0.
          5    1    3    3  502    0  0.31067513717E+02  0.38910136538E+01 -0.24632669666E+03  0.24834380258E+03  0.41800000000E+01 0.  1.
         -5    1    3    3    0  502 -0.46105289101E+02 -0.39095561252E+02 -0.62520562228E+02  0.87065800944E+02  0.41800000000E+01 0.  1.
        -11    1    4    4    0    0  0.28613804054E+02  0.61253694379E+02 -0.20964424465E+03  0.22027590466E+03  0.00000000000E+00 0.  1.
         11    1    4    4    0    0 -0.13576028670E+02 -0.26049146780E+02 -0.12867579751E+03  0.13198608816E+03  0.00000000000E+00 0. -1.
</event>
<event>
 8    1  0.3528896E-009  0.1752896E+03  0.7561462E-02  0.1172441E+00
         -1   -1    0    0    0  501 -0.00000000000E+00  0.00000000000E+00  0.11535412232E+03  0.11535412232E+03  0.00000000000E+00 0.  1.
          1   -1    0    0  501    0  0.00000000000E+00 -0.00000000000E+00 -0.31654421752E+03  0.31654421752E+03  0.00000000000E+00 0. -1.
         25    2    1    2    0    0  0.89649677745E+02  0.12388353319E+03 -0.14665448919E+03  0.24604891377E+03  0.12509330218E+03 0.  0.
         23    2    1    2    0    0 -0.89649677745E+02 -0.12388353319E+03 -0.54535606010E+02  0.18584942607E+03  0.90452652432E+02 0.  0.
          5    1    3    3  502    0 -0.21496935026E+02  0.71174411054E+02 -0.53735113258E+02  0.91830549390E+02  0.41800000000E+01 0. -1.
         -5    1    3    3    0  502  0.11114661277E+03  0.52709122138E+02 -0.92919375931E+02  0.15421836438E+03  0.41800000000E+01 0. -1.
        -11    1    4    4    0    0 -0.78128445422E+02 -0.11109269743E+03 -0.78098139610E+02  0.15666831466E+03  0.00000000000E+00 0. -1.
         11    1    4    4    0    0 -0.11521232323E+02 -0.12790835762E+02  0.23562533601E+02  0.29181111415E+02  0.00000000000E+00 0.  1.
</event>
<event>
 8    1  0.3528896E-009  0.2819335E+03  0.7561462E-02  0.1094638E+00
          2   -1    0    0  501    0  0.00000000000E+00  0.00000000000E+00  0.22580586785E+04  0.22580586785E+04  0.00000000000E+00 0. -1.
         -2   -1    0    0    0  501 -0.00000000000E+00 -0.00000000000E+00 -0.38174079565E+02  0.38174079565E+02  0.00000000000E+00 0.  1.
         25    2    1    2    0    0  0.13726254945E+03 -0.22402284150E+03  0.14166426899E+04  0.14462196978E+04  0.12509061679E+03 0.  0.
         23    2    1    2    0    0 -0.13726254945E+03  0.22402284150E+03  0.80324190903E+03  0.85001306027E+03  0.91090050084E+02 0.  0.
          5    1    3    3  502    0 -0.17969843653E+02 -0.19759037973E+00  0.10048389404E+03  0.10216378852E+03  0.41800000000E+01 0. -1.
         -5    1    3    3    0  502  0.15523239310E+03 -0.22382525112E+03  0.13161587959E+04  0.13440559093E+04  0.41800000000E+01 0. -1.
        -11    1    4    4    0    0 -0.57162015899E+02  0.16170210982E+03  0.42267256172E+03  0.45614379620E+03  0.00000000000E+00 0.  1.
         11    1    4    4    0    0 -0.80100533548E+02  0.62320731684E+02  0.38056934731E+03  0.39386926407E+03  0.00000000000E+00 0. -1.
</event>
<event>
 8    1  0.3528896E-009  0.1277387E+03  0.7561462E-02  0.1230850E+00
         -1   -1    0    0    0  501 -0.00000000000E+00  0.00000000000E+00  0.27598288845E+02  0.27598288845E+02  0.00000000000E+00 0.  1.
          1   -1    0    0  501    0  0.00000000000E+00 -0.00000000000E+00 -0.72149967813E+03  0.72149967813E+03  0.00000000000E+00 0. -1.
         25    2    1    2    0    0  0.79306734318E+02  0.19836275439E+02 -0.28186905650E+03  0.31902913166E+03  0.12508551437E+03 0.  0.
         23    2    1    2    0    0 -0.79306734318E+02 -0.19836275439E+02 -0.41203233279E+03  0.43006883532E+03  0.92225397342E+02 0.  0.
          5    1    3    3  502    0  0.18969899025E+02  0.58964231739E+02 -0.20269579456E+03  0.21198984699E+03  0.41800000000E+01 0. -1.
         -5    1    3    3    0  502  0.60336835293E+02 -0.39127956300E+02 -0.79173261933E+02  0.10703928467E+03  0.41800000000E+01 0. -1.
        -11    1    4    4    0    0 -0.99477014286E+02 -0.14802176243E+02 -0.30882767698E+03  0.32479118656E+03  0.00000000000E+00 0.  1.
         11    1    4    4    0    0  0.20170279968E+02 -0.50340991956E+01 -0.10320465581E+03  0.10527764876E+03  0.00000000000E+00 0. -1.
</event>
<event>
 8    1  0.3528896E-009  0.1299809E+03  0.7561462E-02  0.1227484E+00
         -2   -1    0    0    0  501 -0.00000000000E+00  0.00000000000E+00  0.19184933541E+03  0.19184933541E+03  0.00000000000E+00 0.  1.
          2   -1    0    0  501    0  0.00000000000E+00 -0.00000000000E+00 -0.10898515103E+03  0.10898515103E+03  0.00000000000E+00 0. -1.
         25    2    1    2    0    0  0.31014941916E+02  0.89861650466E+02  0.31725103017E+02  0.16028444086E+03  0.12509027530E+03 0.  0.
         23    2    1    2    0    0 -0.31014941916E+02 -0.89861650466E+02  0.51139081363E+02  0.14055004558E+03  0.90011481613E+02 0.  0.
          5    1    3    3  502    0  0.66642049180E+02  0.81144771003E+02 -0.88149031910E+01  0.10545525828E+03  0.41800000000E+01 0. -1.
         -5    1    3    3    0  502 -0.35627107264E+02  0.87168794629E+01  0.40540006208E+02  0.54829182585E+02  0.41800000000E+01 0. -1.
        -11    1    4    4    0    0  0.88920032365E+01 -0.74766895692E+02  0.60831289182E+02  0.96796705298E+02  0.00000000000E+00 0.  1.
         11    1    4    4    0    0 -0.39906945152E+02 -0.15094754773E+02 -0.96922078185E+01  0.43753340278E+02  0.00000000000E+00 0. -1.
</event>
<event>
 7    1  0.3528896E-009  0.1140983E+03  0.7561462E-02  0.1253163E+00
         -2   -1    0    0    0  501 -0.00000000000E+00  0.00000000000E+00  0.30246266204E+03  0.30246266204E+03  0.00000000000E+00 0. -1.
          2   -1    0    0  501    0  0.00000000000E+00 -0.00000000000E+00 -0.62860912596E+02  0.62860912596E+02  0.00000000000E+00 0.  1.
         23    2    1    2    0    0 -0.33174682998E+02  0.77861595226E+02  0.95208317730E+02  0.15642135388E+03  0.90774603170E+02 0.  0.
          5    1    1    2  502    0  0.32254829107E+02 -0.68910017247E+01 -0.13388209773E+02  0.35840988636E+02  0.41800000000E+01 0. -1.
         -5    1    1    2    0  502  0.91985389077E+00 -0.70970593502E+02  0.15778164149E+03  0.17306123212E+03  0.41800000000E+01 0. -1.
        -11    1    3    3    0    0 -0.48540969805E+02  0.43336797675E+01  0.32576554934E+02  0.58619437573E+02  0.00000000000E+00 0.  1.
         11    1    3    3    0    0  0.15366286807E+02  0.73527915459E+02  0.62631762796E+02  0.97801916305E+02  0.00000000000E+00 0. -1.
</event>
<event>
 8    1  0.3528896E-009  0.1736804E+03  0.7561462E-02  0.1174063E+00
         -1   -1    0    0    0  501 -0.00000000000E+00  0.00000000000E+00  0.49241992655E+02  0.49241992655E+02  0.00000000000E+00 0.  1.
          1   -1    0    0  501    0  0.00000000000E+00 -0.00000000000E+00 -0.78303128581E+03  0.78303128581E+03  0.00000000000E+00 0. -1.
         25    2    1    2    0    0  0.13075251297E+03  0.84421739391E+02 -0.29142955556E+03  0.35327408446E+03  0.12509253841E+03 0.  0.
         23    2    1    2    0    0 -0.13075251297E+03 -0.84421739391E+02 -0.44235973760E+03  0.47899919401E+03  0.97646508824E+02 0.  0.
          5    1    3    3  502    0  0.13351289270E+03  0.41452808670E+02 -0.27199817383E+03  0.30585046482E+03  0.41800000000E+01 0. -1.
         -5    1    3    3    0  502 -0.27603797275E+01  0.42968930721E+02 -0.19431381729E+02  0.47423619637E+02  0.41800000000E+01 0. -1.
        -11    1    4    4    0    0 -0.83348608454E+02 -0.81767876053E+02 -0.19629556709E+03  0.22839642236E+03  0.00000000000E+00 0.  1.
         11    1    4    4    0    0 -0.47403904518E+02 -0.26538633382E+01 -0.24606417050E+03  0.25060277165E+03  0.00000000000E+00 0. -1.
</event>
<event>
 8    1  0.3528896E-009  0.9902578E+02  0.7561462E-02  0.1282358E+00
          2   -1    0    0  501    0  0.00000000000E+00  0.00000000000E+00  0.13018377933E+03  0.13018377933E+03  0.00000000000E+00 0. -1.
         -2   -1    0    0    0  501 -0.00000000000E+00 -0.00000000000E+00 -0.99457944901E+02  0.99457944901E+02  0.00000000000E+00 0.  1.
         25    2    1    2    0    0  0.14991325609E+02  0.25676150895E+02  0.22225465945E+02  0.13049183672E+03  0.12510053375E+03 0.  0.
         23    2    1    2    0    0 -0.14991325609E+02 -0.25676150895E+02  0.85003684845E+01  0.99149887513E+02  0.94204242798E+02 0.  0.
          5    1    3    3  502    0 -0.42784724524E+02  0.26572545193E+02  0.45552611297E+02  0.68037824823E+02  0.41800000000E+01 0. -1.
         -5    1    3    3    0  502  0.57776050133E+02 -0.89639429799E+00 -0.23327145352E+02  0.62454011896E+02  0.41800000000E+01 0. -1.
        -11    1    4    4    0    0  0.27445893448E+02 -0.36610714800E+02  0.25219028754E+02  0.52245774151E+02  0.00000000000E+00 0. -1.
         11    1    4    4    0    0 -0.42437219057E+02  0.10934563904E+02 -0.16718660269E+02  0.46904113362E+02  0.00000000000E+00 0.  1.
</event>
<event>
 8    1  0.3528896E-009  0.9420706E+02  0.7561462E-02  0.1292972E+00
         -2   -1    0    0    0  501 -0.00000000000E+00  0.00000000000E+00  0.17347217679E+02  0.17347217679E+02  0.00000000000E+00 0.  1.
          2   -1    0    0  501    0  0.00000000000E+00 -0.00000000000E+00 -0.83439790699E+03  0.83439790699E+03  0.00000000000E+00 0. -1.
         25    2    1    2    0    0  0.15594437051E+02  0.49955209319E+02 -0.43265049080E+03  0.45340102103E+03  0.12508928521E+03 0.  0.
         23    2    1    2    0    0 -0.15594437051E+02 -0.49955209319E+02 -0.38440019851E+03  0.39834410364E+03  0.90420146467E+02 0.  0.
          5    1    3    3  502    0 -0.28949908091E+02 -0.13086499159E+02 -0.28446127523E+03  0.28626044635E+03  0.41800000000E+01 0. -1.
         -5    1    3    3    0  502  0.44544345142E+02  0.63041708478E+02 -0.14818921557E+03  0.16714057468E+03  0.41800000000E+01 0. -1.
        -11    1    4    4    0    0 -0.35887525715E+01  0.13764677337E+02 -0.78403290160E+01  0.16242421196E+02  0.00000000000E+00 0.  1.
         11    1    4    4    0    0 -0.12005684480E+02 -0.63719886656E+02 -0.37655986949E+03  0.38210168244E+03  0.00000000000E+00 0. -1.
</event>
<event>
 8    1  0.3528896E-009  0.9826015E+02  0.7561462E-02  0.1283998E+00
         -2   -1    0    0    0  501 -0.00000000000E+00  0.00000000000E+00  0.16374978621E+02  0.16374978621E+02  0.00000000000E+00 0.  1.
          2   -1    0    0  501    0  0.00000000000E+00 -0.00000000000E+00 -0.16976072500E+04  0.16976072500E+04  0.00000000000E+00 0. -1.
         25    2    1    2    0    0  0.44068812711E+02  0.10316215726E+02 -0.14983099661E+04  0.15042036289E+04  0.12508924095E+03 0.  0.
         23    2    1    2    0    0 -0.44068812711E+02 -0.10316215726E+02 -0.18292230534E+03  0.20977859975E+03  0.92184633010E+02 0.  0.
          5    1    3    3  502    0 -0.24482149222E+02  0.36115211280E+01 -0.10760391723E+04  0.10763318221E+04  0.41800000000E+01 0. -1.
         -5    1    3    3    0  502  0.68550961934E+02  0.67046945980E+01 -0.42227079379E+03  0.42787180674E+03  0.41800000000E+01 0. -1.
        -11    1    4    4    0    0 -0.18352285408E+02  0.41054496331E+02 -0.88036351808E+02  0.98856852511E+02  0.00000000000E+00 0.  1.
         11    1    4    4    0    0 -0.25716527303E+02 -0.51370712057E+02 -0.94885953533E+02  0.11092174724E+03  0.00000000000E+00 0. -1.
</event>
<event>
 8    1  0.3528896E-009  0.1003976E+03  0.7561462E-02  0.1279462E+00
         -1   -1    0    0    0  501 -0.00000000000E+00  0.00000000000E+00  0.16806788122E+02  0.16806788122E+02  0.00000000000E+00 0.  1.
          1   -1    0    0  501    0  0.00000000000E+00 -0.00000000000E+00 -0.94292330623E+03  0.94292330623E+03  0.00000000000E+00 0. -1.
         25    2    1    2    0    0  0.62622886894E+02  0.14788206785E+02 -0.53661470670E+03  0.55474531247E+03  0.12508677483E+03 0.  0.
         23    2    1    2    0    0 -0.62622886894E+02 -0.14788206785E+02 -0.38950181141E+03  0.40498478189E+03  0.90336567585E+02 0.  0.
          5    1    3    3  502    0  0.70179112322E+02  0.35149677404E+02 -0.16811132465E+03  0.18557881750E+03  0.41800000000E+01 0. -1.
         -5    1    3    3    0  502 -0.75562254274E+01 -0.20361470620E+02 -0.36850338205E+03  0.36916649497E+03  0.41800000000E+01 0. -1.
        -11    1    4    4    0    0 -0.40424106717E+02  0.29832154103E+02 -0.10810637785E+03  0.11921012857E+03  0.00000000000E+00 0.  1.
         11    1    4    4    0    0 -0.22198780177E+02 -0.44620360888E+02 -0.28139543356E+03  0.28577465331E+03  0.00000000000E+00 0. -1.
</event>
<event>
 8    1  0.3528896E-009  0.9114902E+02  0.7561462E-02  0.1300093E+00
         -2   -1    0    0    0  501 -0.00000000000E+00  0.00000000000E+00  0.32432275908E+02  0.32432275908E+02  0.00000000000E+00 0. -1.
          2   -1    0    0  501    0  0.00000000000E+00 -0.00000000000E+00 -0.49147717557E+03  0.49147717557E+03  0.00000000000E+00 0.  1.
         25    2    1    2    0    0 -0.24562613659E+02 -0.36301369890E+02 -0.34944110509E+03  0.37372638017E+03  0.12506482265E+03 0.  0.
         23    2    1    2    0    0  0.24562613659E+02  0.36301369890E+02 -0.10960379457E+03  0.15018307131E+03  0.92848541599E+02 0.  0.
          5    1    3    3  502    0 -0.65820370033E+02  0.28887436040E+01 -0.25482790252E+03  0.26324019119E+03  0.41800000000E+01 0. -1.
         -5    1    3    3    0  502  0.41257756373E+02 -0.39190113494E+02 -0.94613202567E+02  0.11048618899E+03  0.41800000000E+01 0. -1.
        -11    1    4    4    0    0 -0.65438968948E+01  0.25452739200E+02 -0.11396113627E+03  0.11695214876E+03  0.00000000000E+00 0.  1.
         11    1    4    4    0    0  0.31106510554E+02  0.10848630690E+02  0.43573416983E+01  0.33230922548E+02  0.00000000000E+00 0. -1.
</event>
<event>
 8    1  0.3528896E-009  0.5797823E+02  0.7561462E-02  0.1406517E+00
          2   -1    0    0  501    0  0.00000000000E+00  0.00000000000E+00  0.29799270769E+03  0.29799270769E+03  0.00000000000E+00 0. -1.
         -2   -1    0    0    0  501 -0.00000000000E+00 -0.00000000000E+00 -0.48425599517E+02  0.48425599517E+02  0.00000000000E+00 0.  1.
         25    2    1    2    0    0  0.26155243830E+01  0.18062218034E+02  0.21106274436E+03  0.24602513507E+03  0.12509116813E+03 0.  0.
         23    2    1    2    0    0 -0.26155243830E+01 -0.18062218034E+02  0.38504363811E+02  0.10039317213E+03  0.90901695749E+02 0.  0.
          5    1    3    3  502    0  0.78278281424E+01 -0.52237213563E+01 -0.15260132961E+02  0.18409405646E+02  0.41800000000E+01 0. -1.
         -5    1    3    3    0  502 -0.52123037595E+01  0.23285939390E+02  0.22632287732E+03  0.22761572943E+03  0.41800000000E+01 0. -1.
        -11    1    4    4    0    0  0.35548335900E+02  0.63762576646E+01 -0.63057032671E+01  0.36662006775E+02  0.00000000000E+00 0.  1.
         11    1    4    4    0    0 -0.38163860283E+02 -0.24438475698E+02  0.44810067078E+02  0.63731165357E+02  0.00000000000E+00 0. -1.
</event>
<event>
 8    1  0.3528896E-009  0.1349684E+03  0.7561462E-02  0.1220264E+00
          2   -1    0    0  501    0  0.00000000000E+00  0.00000000000E+00  0.66024429867E+03  0.66024429867E+03  0.00000000000E+00 0. -1.
         -2   -1    0    0    0  501 -0.00000000000E+00 -0.00000000000E+00 -0.34957817977E+02  0.34957817977E+02  0.00000000000E+00 0.  1.
         25    2    1    2    0    0 -0.66036968280E+02  0.55587061712E+02  0.19750268306E+03  0.24921145340E+03  0.12509290980E+03 0.  0.
         23    2    1    2    0    0  0.66036968280E+02 -0.55587061712E+02  0.42778379764E+03  0.44599066324E+03  0.91966796030E+02 0.  0.
          5    1    3    3  502    0 -0.81676713058E+02 -0.42768410555E+01  0.15071193070E+03  0.17152531965E+03  0.41800000000E+01 0.  1.
         -5    1    3    3    0  502  0.15639744778E+02  0.59863902768E+02  0.46790752358E+02  0.77686133753E+02  0.41800000000E+01 0.  1.
        -11    1    4    4    0    0 -0.15676277515E+01 -0.58345377878E+02  0.20710239006E+03  0.21516979468E+03  0.00000000000E+00 0. -1.
         11    1    4    4    0    0  0.67604596031E+02  0.27583161651E+01  0.22068140758E+03  0.23082086856E+03  0.00000000000E+00 0.  1.
</event>
<event>
 8    1  0.3528896E-009  0.1023629E+03  0.7561462E-02  0.1275404E+00
          1   -1    0    0  501    0  0.00000000000E+00  0.00000000000E+00  0.30875830832E+03  0.30875830832E+03  0.00000000000E+00 0. -1.
         -1   -1    0    0    0  501 -0.00000000000E+00 -0.00000000000E+00 -0.61414495259E+02  0.61414495259E+02  0.00000000000E+00 0.  1.
         25    2    1    2    0    0 -0.80936812468E+02  0.22728857286E+02  0.14638080193E+03  0.21010032318E+03  0.12508972005E+03 0.  0.
         23    2    1    2    0    0  0.80936812468E+02 -0.22728857286E+02  0.10096301113E+03  0.16007248040E+03  0.91445616614E+02 0.  0.
          5    1    3    3  502    0 -0.62774420144E+02  0.10594377281E+02  0.18057495656E+01  0.63824774076E+02  0.41800000000E+01 0.  1.
         -5    1    3    3    0  502 -0.18162392324E+02  0.12134480005E+02  0.14457505236E+03  0.14627554910E+03  0.41800000000E+01 0.  1.
        -11    1    4    4    0    0  0.13540664955E+01 -0.37686654596E+02  0.55815419029E+02  0.67360807834E+02  0.00000000000E+00 0. -1.
         11    1    4    4    0    0  0.79582745972E+02  0.14957797310E+02  0.45147592103E+02  0.92711672564E+02  0.00000000000E+00 0.  1.
</event>
<event>
 8    1  0.3528896E-009  0.1188344E+03  0.7561462E-02  0.1245032E+00
         -2   -1    0    0    0  501 -0.00000000000E+00  0.00000000000E+00  0.11655082748E+03  0.11655082748E+03  0.00000000000E+00 0.  1.
          2   -1    0    0  501    0  0.00000000000E+00 -0.00000000000E+00 -0.17708254811E+03  0.17708254811E+03  0.00000000000E+00 0. -1.
         25    2    1    2    0    0 -0.77094742458E+02 -0.82080666853E+01  0.21757063865E+02  0.14876968181E+03  0.12509227284E+03 0.  0.
         23    2    1    2    0    0  0.77094742458E+02  0.82080666853E+01 -0.82288784499E+02  0.14486369378E+03  0.90570823382E+02 0.  0.
          5    1    3    3  502    0 -0.47387720763E+02 -0.59314130223E+02  0.41100626469E+02  0.86432031212E+02  0.41800000000E+01 0.  1.
         -5    1    3    3    0  502 -0.29707021695E+02  0.51106063538E+02 -0.19343562604E+02  0.62337650602E+02  0.41800000000E+01 0.  1.
        -11    1    4    4    0    0  0.61532404658E+02  0.35440087094E+02 -0.17882004510E+02  0.73225696866E+02  0.00000000000E+00 0.  1.
         11    1    4    4    0    0  0.15562337801E+02 -0.27232020409E+02 -0.64406779990E+02  0.71637996915E+02  0.00000000000E+00 0. -1.
</event>
<event>
 8    1  0.3528896E-009  0.1923031E+03  0.7561462E-02  0.1156400E+00
          1   -1    0    0  501    0  0.00000000000E+00  0.00000000000E+00  0.15842153619E+03  0.15842153619E+03  0.00000000000E+00 0. -1.
         -1   -1    0    0    0  501 -0.00000000000E+00 -0.00000000000E+00 -0.23900724302E+03  0.23900724302E+03  0.00000000000E+00 0.  1.
         25    2    1    2    0    0 -0.15917223313E+03 -0.23833703803E+01 -0.53278917600E+02  0.20934816140E+03  0.12508608783E+03 0.  0.
         23    2    1    2    0    0  0.15917223313E+03  0.23833703803E+01 -0.27306789238E+02  0.18808061781E+03  0.96370004688E+02 0.  0.
          5    1    3    3  502    0 -0.10369270787E+03  0.56029315510E+02 -0.11481266879E+02  0.11849368655E+03  0.41800000000E+01 0. -1.
         -5    1    3    3    0  502 -0.55479525256E+02 -0.58412685890E+02 -0.41797650721E+02  0.90854474855E+02  0.41800000000E+01 0. -1.
        -11    1    4    4    0    0  0.99184891980E+02  0.48431284033E+02 -0.13381729729E+02  0.11118589281E+03  0.00000000000E+00 0.  1.
         11    1    4    4    0    0  0.59987341147E+02 -0.46047913653E+02 -0.13925059509E+02  0.76894724995E+02  0.00000000000E+00 0. -1.
</event>
<event>
 8    1  0.3528896E-009  0.1916384E+03  0.7561462E-02  0.1156992E+00
          2   -1    0    0  501    0  0.00000000000E+00  0.00000000000E+00  0.46616007641E+03  0.46616007641E+03  0.00000000000E+00 0.  1.
         -2   -1    0    0    0  501 -0.00000000000E+00 -0.00000000000E+00 -0.10268957209E+03  0.10268957209E+03  0.00000000000E+00 0. -1.
         25    2    1    2    0    0  0.13882340862E+03  0.88020328136E+02  0.66713140828E+02  0.21706763141E+03  0.12509275159E+03 0.  0.
         23    2    1    2    0    0 -0.13882340862E+03 -0.88020328136E+02  0.29675736349E+03  0.35178201708E+03  0.93092093172E+02 0.  0.
          5    1    3    3  502    0  0.30693767815E+02  0.86894420881E+02  0.56945839216E+02  0.10841147894E+03  0.41800000000E+01 0.  1.
         -5    1    3    3    0  502  0.10812964081E+03  0.11259072551E+01  0.97673016119E+01  0.10865615247E+03  0.41800000000E+01 0.  1.
        -11    1    4    4    0    0 -0.10219062862E+03 -0.10125527866E+03  0.26498285822E+03  0.30151529180E+03  0.00000000000E+00 0.  1.
         11    1    4    4    0    0 -0.36632779998E+02  0.13234950528E+02  0.31774505264E+02  0.50266725283E+02  0.00000000000E+00 0. -1.
</event>
<event>
 8    1  0.3528896E-009  0.8379751E+02  0.7561462E-02  0.1318607E+00
          2   -1    0    0  501    0  0.00000000000E+00  0.00000000000E+00  0.87373173137E+03  0.87373173137E+03  0.00000000000E+00 0. -1.
         -2   -1    0    0    0  501 -0.00000000000E+00 -0.00000000000E+00 -0.17902296576E+02  0.17902296576E+02  0.00000000000E+00 0.  1.
         25    2    1    2    0    0  0.55512341228E+02  0.27784075864E+02  0.53992759118E+03  0.55769444874E+03  0.12509084515E+03 0.  0.
         23    2    1    2    0    0 -0.55512341228E+02 -0.27784075864E+02  0.31590184362E+03  0.33393957921E+03  0.88702270885E+02 0.  0.
          5    1    3    3  502    0  0.32358756914E+02  0.30513444470E+02  0.53021689026E+03  0.53209546376E+03  0.41800000000E+01 0. -1.
         -5    1    3    3    0  502  0.23153584314E+02 -0.27293686062E+01  0.97107009229E+01  0.25598984980E+02  0.41800000000E+01 0. -1.
        -11    1    4    4    0    0 -0.43941332216E+02  0.21282766260E+02  0.22257607908E+03  0.22786818075E+03  0.00000000000E+00 0.  1.
         11    1    4    4    0    0 -0.11571009012E+02 -0.49066842124E+02  0.93325764531E+02  0.10607139846E+03  0.00000000000E+00 0. -1.
</event>
<event>
 8    1  0.3528896E-009  0.1046083E+03  0.7561462E-02  0.1270893E+00
          1   -1    0    0  501    0  0.00000000000E+00  0.00000000000E+00  0.34876838940E+02  0.34876838940E+02  0.00000000000E+00 0. -1.
         -1   -1    0    0    0  501 -0.00000000000E+00 -0.00000000000E+00 -0.39068663599E+03  0.39068663599E+03  0.00000000000E+00 0.  1.
         25    2    1    2    0    0 -0.21043760266E+01  0.15706671063E+02 -0.24386310106E+03  0.27451640809E+03  0.12505566096E+03 0.  0.
         23    2    1    2    0    0  0.21043760266E+01 -0.15706671063E+02 -0.11194669600E+03  0.15104706685E+03  0.10016000072E+03 0.  0.
          5    1    3    3  502    0  0.37937989924E+02 -0.41308176802E+02 -0.11109516723E+03  0.12452013946E+03  0.41800000000E+01 0. -1.
         -5    1    3    3    0  502 -0.40042365951E+02  0.57014847865E+02 -0.13276793383E+03  0.14999626863E+03  0.41800000000E+01 0. -1.
        -11    1    4    4    0    0  0.36415935095E+02  0.12769068201E+02 -0.10133375736E+02  0.39898054281E+02  0.00000000000E+00 0. -1.
         11    1    4    4    0    0 -0.34311559068E+02 -0.28475739264E+02 -0.10181332026E+03  0.11114901257E+03  0.00000000000E+00 0.  1.
</event>
<event>
 8    1  0.3528896E-009  0.1154578E+03  0.7561462E-02  0.1250784E+00
         -1   -1    0    0    0  501 -0.00000000000E+00  0.00000000000E+00  0.75685729755E+02  0.75685729755E+02  0.00000000000E+00 0.  1.
          1   -1    0    0  501    0  0.00000000000E+00 -0.00000000000E+00 -0.18743448052E+03  0.18743448052E+03  0.00000000000E+00 0. -1.
         25    2    1    2    0    0  0.49728566848E+01  0.51331246469E+02 -0.71257311090E+02  0.15292289406E+03  0.12509268955E+03 0.  0.
         23    2    1    2    0    0 -0.49728566848E+01 -0.51331246469E+02 -0.40491439678E+02  0.11019731621E+03  0.88567858989E+02 0.  0.
          5    1    3    3  502    0  0.56623921751E+02 -0.52393664309E+01 -0.19012160947E+02  0.60105358654E+02  0.41800000000E+01 0. -1.
         -5    1    3    3    0  502 -0.51651065066E+02  0.56570612900E+02 -0.52245150143E+02  0.92817535411E+02  0.41800000000E+01 0. -1.
        -11    1    4    4    0    0 -0.42271850206E+02 -0.14314813590E+02 -0.36214092998E+02  0.57474200644E+02  0.00000000000E+00 0. -1.
         11    1    4    4    0    0  0.37298993521E+02 -0.37016432879E+02 -0.42773466793E+01  0.52723115570E+02  0.00000000000E+00 0.  1.
</event>
<event>
 8    1  0.3528896E-009  0.3323582E+03  0.7561462E-02  0.1070098E+00
          2   -1    0    0  501    0  0.00000000000E+00  0.00000000000E+00  0.87361202257E+03  0.87361202257E+03  0.00000000000E+00 0. -1.
         -2   -1    0    0    0  501 -0.00000000000E+00 -0.00000000000E+00 -0.13663299690E+03  0.13663299690E+03  0.00000000000E+00 0.  1.
         25    2    1    2    0    0  0.28463071668E+03 -0.15611900855E+03  0.30691868572E+03  0.46392644545E+03  0.12506349364E+03 0.  0.
         23    2    1    2    0    0 -0.28463071668E+03  0.15611900855E+03  0.43006033995E+03  0.54631857402E+03  0.90134891202E+02 0.  0.
          5    1    3    3  502    0  0.13171404724E+03 -0.12922180375E+03  0.21536510053E+03  0.28363085821E+03  0.41800000000E+01 0.  1.
         -5    1    3    3    0  502  0.15291666944E+03 -0.26897204801E+02  0.91553585190E+02  0.18029558724E+03  0.41800000000E+01 0.  1.
        -11    1    4    4    0    0 -0.10410860077E+03  0.63330206426E+02  0.94745582047E+02  0.15435686288E+03  0.00000000000E+00 0. -1.
         11    1    4    4    0    0 -0.18052211590E+03  0.92788802126E+02  0.33531475790E+03  0.39196171114E+03  0.00000000000E+00 0.  1.
</event>
<event>
 8    1  0.3528896E-009  0.9437790E+02  0.7561462E-02  0.1292583E+00
          2   -1    0    0  501    0  0.00000000000E+00  0.00000000000E+00  0.10354069741E+03  0.10354069741E+03  0.00000000000E+00 0. -1.
         -2   -1    0    0    0  501 -0.00000000000E+00 -0.00000000000E+00 -0.12903747721E+03  0.12903747721E+03  0.00000000000E+00 0.  1.
         25    2    1    2    0    0  0.24628142305E+02  0.30473802154E+02 -0.72207088004E+01  0.13128033534E+03  0.12508872771E+03 0.  0.
         23    2    1    2    0    0 -0.24628142305E+02 -0.30473802154E+02 -0.18276070997E+02  0.10129783928E+03  0.91608075304E+02 0.  0.
          5    1    3    3  502    0  0.64491280445E+02  0.31296798889E+02 -0.37530120703E+02  0.81022202106E+02  0.41800000000E+01 0.  1.
         -5    1    3    3    0  502 -0.39863138140E+02 -0.82299673525E+00  0.30309411903E+02  0.50258133231E+02  0.41800000000E+01 0.  1.
        -11    1    4    4    0    0  0.11266037426E+02 -0.38469988310E+02  0.22839763511E+02  0.46135868877E+02  0.00000000000E+00 0. -1.
         11    1    4    4    0    0 -0.35894179730E+02  0.79961861561E+01 -0.41115834509E+02  0.55161970404E+02  0.00000000000E+00 0.  1.
</event>
<event>
 8    1  0.3528896E-009  0.1123912E+03  0.7561462E-02  0.1256205E+00
          2   -1    0    0  501    0  0.00000000000E+00  0.00000000000E+00  0.19387278581E+03  0.19387278581E+03  0.00000000000E+00 0. -1.
         -2   -1    0    0    0  501 -0.00000000000E+00 -0.00000000000E+00 -0.10470100348E+03  0.10470100348E+03  0.00000000000E+00 0.  1.
         25    2    1    2    0    0  0.56017338212E+02 -0.63588315094E+02  0.85124903020E+02  0.17342173909E+03  0.12508970573E+03 0.  0.
         23    2    1    2    0    0 -0.56017338212E+02  0.63588315094E+02  0.40468793094E+01  0.12515205019E+03  0.92006752130E+02 0.  0.
          5    1    3    3  502    0  0.30450008455E+02 -0.69820756067E+02  0.11204158947E+03  0.13554678588E+03  0.41800000000E+01 0. -1.
         -5    1    3    3    0  502  0.25567329757E+02  0.62324409725E+01 -0.26916686447E+02  0.37874953211E+02  0.41800000000E+01 0. -1.
        -11    1    4    4    0    0 -0.23044199006E+02 -0.20928236525E+02  0.13519020542E+02  0.33938033359E+02  0.00000000000E+00 0.  1.
         11    1    4    4    0    0 -0.32973139207E+02  0.84516551619E+02 -0.94721412331E+01  0.91214016830E+02  0.00000000000E+00 0. -1.
</event>
<event>
 8    1  0.3528896E-009  0.9033466E+02  0.7561462E-02  0.1302043E+00
         -2   -1    0    0    0  501 -0.00000000000E+00  0.00000000000E+00  0.31288693941E+03  0.31288693941E+03  0.00000000000E+00 0.  1.
          2   -1    0    0  501    0  0.00000000000E+00 -0.00000000000E+00 -0.60312908794E+02  0.60312908794E+02  0.00000000000E+00 0. -1.
         25    2    1    2    0    0  0.90536319789E+01 -0.52551609521E+02  0.22688674920E+03  0.26451737247E+03  0.12509277942E+03 0.  0.
         23    2    1    2    0    0 -0.90536319789E+01  0.52551609521E+02  0.25687281411E+02  0.10868247573E+03  0.91150448098E+02 0.  0.
          5    1    3    3  502    0 -0.11953574074E+02 -0.52743279872E+02  0.22032135372E+02  0.58545955401E+02  0.41800000000E+01 0. -1.
         -5    1    3    3    0  502  0.21007206053E+02  0.19167035109E+00  0.20485461383E+03  0.20597141707E+03  0.41800000000E+01 0. -1.
        -11    1    4    4    0    0  0.13432312096E+02  0.73234195793E+02  0.12909898736E+02  0.75566791166E+02  0.00000000000E+00 0.  1.
         11    1    4    4    0    0 -0.22485944075E+02 -0.20682586272E+02  0.12777382676E+02  0.33115684560E+02  0.00000000000E+00 0. -1.
</event>
<event>
 8    1  0.3528896E-009  0.1089588E+03  0.7561462E-02  0.1262510E+00
         -1   -1    0    0    0  501 -0.00000000000E+00  0.00000000000E+00  0.39843439765E+02  0.39843439765E+02  0.00000000000E+00 0.  1.
          1   -1    0    0  501    0  0.00000000000E+00 -0.00000000000E+00 -0.40421342959E+03  0.40421342959E+03  0.00000000000E+00 0. -1.
         25    2    1    2    0    0 -0.57078117066E+02 -0.31682791129E+02 -0.17955982238E+03  0.22836755916E+03  0.12509317152E+03 0.  0.
         23    2    1    2    0    0  0.57078117066E+02  0.31682791129E+02 -0.18481016744E+03  0.21568931020E+03  0.90029827510E+02 0.  0.
          5    1    3    3  502    0  0.23788594231E+02  0.18271340772E+02 -0.66458988304E+01  0.31006120047E+02  0.41800000000E+01 0.  1.
         -5    1    3    3    0  502 -0.80866711297E+02 -0.49954131901E+02 -0.17291392355E+03  0.19736143911E+03  0.41800000000E+01 0.  1.
        -11    1    4    4    0    0  0.13330204720E+02 -0.20462917941E+02 -0.71662667555E+01  0.25451537238E+02  0.00000000000E+00 0.  1.
         11    1    4    4    0    0  0.43747912346E+02  0.52145709070E+02 -0.17764390069E+03  0.19023777296E+03  0.00000000000E+00 0. -1.
</event>
<event>
 8    1  0.3528896E-009  0.1422173E+03  0.7561462E-02  0.1210376E+00
         -3   -1    0    0    0  501 -0.00000000000E+00  0.00000000000E+00  0.73017424141E+02  0.73017424141E+02  0.00000000000E+00 0.  1.
          3   -1    0    0  501    0  0.00000000000E+00 -0.00000000000E+00 -0.35926209948E+03  0.35926209948E+03  0.00000000000E+00 0. -1.
         25    2    1    2    0    0 -0.93690816783E+02 -0.25922434441E+02 -0.24720935960E+03  0.29361520622E+03  0.12508988805E+03 0.  0.
         23    2    1    2    0    0  0.93690816783E+02  0.25922434441E+02 -0.39035315735E+02  0.13866431740E+03  0.90852051645E+02 0.  0.
          5    1    3    3  502    0 -0.11978695321E+03 -0.34817545797E+02 -0.22742589884E+03  0.25942472418E+03  0.41800000000E+01 0. -1.
         -5    1    3    3    0  502  0.26096136425E+02  0.88951113560E+01 -0.19783460766E+02  0.34190482042E+02  0.41800000000E+01 0. -1.
        -11    1    4    4    0    0  0.10432505546E+03  0.41996843600E+02 -0.40009981989E+02  0.11936603674E+03  0.00000000000E+00 0. -1.
         11    1    4    4    0    0 -0.10634238674E+02 -0.16074409159E+02  0.97466625482E+00  0.19298280657E+02  0.00000000000E+00 0.  1.
</event>
<event>
 8    1  0.3528896E-009  0.9142870E+02  0.7561462E-02  0.1299428E+00
         -2   -1    0    0    0  501 -0.00000000000E+00  0.00000000000E+00  0.25419261033E+02  0.25419261033E+02  0.00000000000E+00 0.  1.
          2   -1    0    0  501    0  0.00000000000E+00 -0.00000000000E+00 -0.64008756980E+03  0.64008756980E+03  0.00000000000E+00 0. -1.
         25    2    1    2    0    0  0.18074917260E+02  0.96009974419E+01 -0.51033058813E+03  0.52583571274E+03  0.12508799233E+03 0.  0.
         23    2    1    2    0    0 -0.18074917260E+02 -0.96009974419E+01 -0.10433772064E+03  0.13967111809E+03  0.90569197279E+02 0.  0.
          5    1    3    3  502    0  0.38916299260E+02 -0.40532352505E+02 -0.38617017830E+03  0.39025918177E+03  0.41800000000E+01 0.  1.
         -5    1    3    3    0  502 -0.20841382000E+02  0.50133349947E+02 -0.12416040983E+03  0.13557653097E+03  0.41800000000E+01 0.  1.
        -11    1    4    4    0    0 -0.25847036137E+02  0.25379878604E+02 -0.82960472482E+01  0.37162237755E+02  0.00000000000E+00 0.  1.
         11    1    4    4    0    0  0.77721188772E+01 -0.34980876046E+02 -0.96041673391E+02  0.10250888034E+03  0.00000000000E+00 0. -1.
</event>
<event>
 7    1  0.3528896E-009  0.1572311E+03  0.7561462E-02  0.1191859E+00
         -2   -1    0    0    0  501 -0.00000000000E+00  0.00000000000E+00  0.30676214606E+02  0.30676214606E+02  0.00000000000E+00 0.  1.
          2   -1    0    0  501    0  0.00000000000E+00 -0.00000000000E+00 -0.10418384746E+04  0.10418384746E+04  0.00000000000E+00 0. -1.
         23    2    1    2    0    0 -0.15383152597E+01  0.12453899245E+03 -0.27494908799E+03  0.31545247326E+03  0.91656613744E+02 0.  0.
          5    1    1    2  502    0  0.33591535317E+02 -0.23936188619E+01 -0.58151816394E+02  0.67329241835E+02  0.41800000000E+01 0.  1.
         -5    1    1    2    0  502 -0.32053220057E+02 -0.12214537359E+03 -0.67806135561E+03  0.68973297411E+03  0.41800000000E+01 0.  1.
        -11    1    3    3    0    0  0.43959990864E+02  0.74846899770E+02 -0.14260226455E+03  0.16694293952E+03  0.00000000000E+00 0.  1.
         11    1    3    3    0    0 -0.45498306124E+02  0.49692092683E+02 -0.13234682344E+03  0.14850953374E+03  0.00000000000E+00 0. -1.
</event>
<event>
 8    1  0.3528896E-009  0.1079259E+03  0.7561462E-02  0.1264460E+00
         -1   -1    0    0    0  501 -0.00000000000E+00  0.00000000000E+00  0.24439753347E+02  0.24439753347E+02  0.00000000000E+00 0.  1.
          1   -1    0    0  501    0  0.00000000000E+00 -0.00000000000E+00 -0.10224321514E+04  0.10224321514E+04  0.00000000000E+00 0. -1.
         25    2    1    2    0    0 -0.71664779202E+02  0.37356891220E+02 -0.79962872535E+03  0.81337569542E+03  0.12507016271E+03 0.  0.
         23    2    1    2    0    0  0.71664779202E+02 -0.37356891220E+02 -0.19836367269E+03  0.23349620931E+03  0.92956738434E+02 0.  0.
          5    1    3    3  502    0 -0.61846368670E+02 -0.28258886833E+02 -0.22988662150E+03  0.23976836561E+03  0.41800000000E+01 0.  1.
         -5    1    3    3    0  502 -0.98184105318E+01  0.65615778053E+02 -0.56974210385E+03  0.57360732981E+03  0.41800000000E+01 0.  1.
        -11    1    4    4    0    0  0.53568092105E+02 -0.31901647000E+02 -0.20436601042E+03  0.21366497557E+03  0.00000000000E+00 0. -1.
         11    1    4    4    0    0  0.18096687097E+02 -0.54552442201E+01  0.60023377271E+01  0.19831233738E+02  0.00000000000E+00 0.  1.
</event>
<event>
 7    1  0.3528896E-009  0.1484958E+03  0.7561462E-02  0.1202334E+00
         -1   -1    0    0    0  501 -0.00000000000E+00  0.00000000000E+00  0.32250165073E+03  0.32250165073E+03  0.00000000000E+00 0.  1.
          1   -1    0    0  501    0  0.00000000000E+00 -0.00000000000E+00 -0.10242359052E+03  0.10242359052E+03  0.00000000000E+00 0. -1.
         23    2    1    2    0    0 -0.42990496918E+02  0.13524838170E+03  0.61663508323E+02  0.18001719860E+03  0.91997260588E+02 0.  0.
          5    1    1    2  502    0  0.39490911785E+02 -0.10470055738E+03  0.17647538723E+03  0.20900424285E+03  0.41800000000E+01 0.  1.
         -5    1    1    2    0  502  0.34995851329E+01 -0.30547824315E+02 -0.18060835345E+02  0.35903799797E+02  0.41800000000E+01 0.  1.
        -11    1    3    3    0    0 -0.48764364429E+01  0.10555370435E+03  0.53282924780E+01  0.10580054270E+03  0.00000000000E+00 0. -1.
         11    1    3    3    0    0 -0.38114060475E+02  0.29694677346E+02  0.56335215845E+02  0.74216655899E+02  0.00000000000E+00 0.  1.
</event>
<event>
 8    1  0.3528896E-009  0.1099729E+03  0.7561462E-02  0.1260620E+00
          2   -1    0    0  501    0  0.00000000000E+00  0.00000000000E+00  0.93614284107E+03  0.93614284107E+03  0.00000000000E+00 0.  1.
         -2   -1    0    0    0  501 -0.00000000000E+00 -0.00000000000E+00 -0.16435711927E+02  0.16435711927E+02  0.00000000000E+00 0. -1.
         25    2    1    2    0    0  0.22242003038E+02  0.10401902436E+02  0.73247074901E+03  0.74348093029E+03  0.12509032444E+03 0.  0.
         23    2    1    2    0    0 -0.22242003038E+02 -0.10401902436E+02  0.18723638013E+03  0.20909762271E+03  0.89785564013E+02 0.  0.
          5    1    3    3  502    0  0.10319499355E+02 -0.57389937466E+02  0.34729782058E+03  0.35218368158E+03  0.41800000000E+01 0. -1.
         -5    1    3    3    0  502  0.11922503683E+02  0.67791839902E+02  0.38517292843E+03  0.39129724871E+03  0.41800000000E+01 0. -1.
        -11    1    4    4    0    0 -0.31624010985E+02  0.34415024507E+02  0.83160864962E+02  0.95394975989E+02  0.00000000000E+00 0.  1.
         11    1    4    4    0    0  0.93820079476E+01 -0.44816926944E+02  0.10407551517E+03  0.11370264672E+03  0.00000000000E+00 0. -1.
</event>
<event>
 8    1  0.3528896E-009  0.1182225E+03  0.7561462E-02  0.1246058E+00
         -2   -1    0    0    0  501 -0.00000000000E+00  0.00000000000E+00  0.30510307359E+02  0.30510307359E+02  0.00000000000E+00 0. -1.
          2   -1    0    0  501    0  0.00000000000E+00 -0.00000000000E+00 -0.56642792433E+03  0.56642792433E+03  0.00000000000E+00 0.  1.
         25    2    1    2    0    0  0.66885130791E+02  0.25385808647E+01 -0.22140461880E+03  0.26296154003E+03  0.12509476886E+03 0.  0.
         23    2    1    2    0    0 -0.66885130791E+02 -0.25385808647E+01 -0.31451299817E+03  0.33397669166E+03  0.90232696060E+02 0.  0.
          5    1    3    3  502    0  0.94824135453E+02  0.16228256797E+02 -0.10531079662E+03  0.14269831558E+03  0.41800000000E+01 0.  1.
         -5    1    3    3    0  502 -0.27939004662E+02 -0.13689675933E+02 -0.11609382218E+03  0.12026322446E+03  0.41800000000E+01 0.  1.
        -11    1    4    4    0    0 -0.11161880494E+02 -0.40056685819E+02 -0.81810067685E+02  0.91771525157E+02  0.00000000000E+00 0. -1.
         11    1    4    4    0    0 -0.55723250297E+02  0.37518104954E+02 -0.23270293049E+03  0.24220516650E+03  0.00000000000E+00 0.  1.
</event>
<event>
 8    1  0.3528896E-009  0.8929971E+02  0.7561462E-02  0.1304556E+00
          2   -1    0    0  501    0  0.00000000000E+00  0.00000000000E+00  0.89097387671E+03  0.89097387671E+03  0.00000000000E+00 0.  1.
         -2   -1    0    0    0  501 -0.00000000000E+00 -0.00000000000E+00 -0.19286172571E+02  0.19286172571E+02  0.00000000000E+00 0. -1.
         25    2    1    2    0    0  0.17832914809E+02 -0.41502856259E+02  0.69162498410E+03  0.70429623112E+03  0.12509021787E+03 0.  0.
         23    2    1    2    0    0 -0.17832914809E+02  0.41502856259E+02  0.18006272004E+03  0.20596381817E+03  0.89207686419E+02 0.  0.
          5    1    3    3  502    0 -0.20739084303E+00 -0.69948053533E+02  0.63048114269E+03  0.63436323735E+03  0.41800000000E+01 0.  1.
         -5    1    3    3    0  502  0.18040305652E+02  0.28445197274E+02  0.61143841405E+02  0.69932993771E+02  0.41800000000E+01 0.  1.
        -11    1    4    4    0    0  0.17768613791E+02 -0.25428192871E+01  0.79994714001E+00  0.17967456175E+02  0.00000000000E+00 0. -1.
         11    1    4    4    0    0 -0.35601528601E+02  0.44045675546E+02  0.17926277290E+03  0.18799636199E+03  0.00000000000E+00 0.  1.
</event>
<event>
 8    1  0.3528896E-009  0.8757702E+02  0.7561462E-02  0.1308828E+00
          1   -1    0    0  501    0  0.00000000000E+00  0.00000000000E+00  0.94353026880E+02  0.94353026880E+02  0.00000000000E+00 0. -1.
         -1   -1    0    0    0  501 -0.00000000000E+00 -0.00000000000E+00 -0.24462768602E+03  0.24462768602E+03  0.00000000000E+00 0.  1.
         25    2    1    2    0    0 -0.66097118168E+01 -0.29047094202E+02 -0.19431918549E+03  0.23301348743E+03  0.12509163643E+03 0.  0.
         23    2    1    2    0    0  0.66097118168E+01  0.29047094202E+02  0.44044526353E+02  0.10596722547E+03  0.91660845508E+02 0.  0.
          5    1    3    3  502    0  0.32290238694E+02 -0.37377678731E+02 -0.18555697214E+03  0.19206408486E+03  0.41800000000E+01 0. -1.
         -5    1    3    3    0  502 -0.38899950511E+02  0.83305845282E+01 -0.87622133485E+01  0.40949402573E+02  0.41800000000E+01 0. -1.
        -11    1    4    4    0    0 -0.35210084993E+02  0.99184559775E+00  0.43016442071E+02  0.55598094673E+02  0.00000000000E+00 0. -1.
         11    1    4    4    0    0  0.41819796809E+02  0.28055248605E+02  0.10280842821E+01  0.50369130792E+02  0.00000000000E+00 0.  1.
</event>
<event>
 8    1  0.3528896E-009  0.9432711E+02  0.7561462E-02  0.1292699E+00
          1   -1    0    0  501    0  0.00000000000E+00  0.00000000000E+00  0.41323171504E+03  0.41323171504E+03  0.00000000000E+00 0. -1.
         -1   -1    0    0    0  501 -0.00000000000E+00 -0.00000000000E+00 -0.33106705698E+02  0.33106705698E+02  0.00000000000E+00 0.  1.
         25    2    1    2    0    0  0.15178136817E+02  0.30314407691E+02  0.23555458491E+03  0.26885238217E+03  0.12508517807E+03 0.  0.
         23    2    1    2    0    0 -0.15178136817E+02 -0.30314407691E+02  0.14457042443E+03  0.17748603857E+03  0.97218039052E+02 0.  0.
          5    1    3    3  502    0  0.64573789492E+02  0.95259332179E+01  0.74875347015E+02  0.99419855581E+02  0.41800000000E+01 0.  1.
         -5    1    3    3    0  502 -0.49395652675E+02  0.20788474473E+02  0.16067923790E+03  0.16943252659E+03  0.41800000000E+01 0.  1.
        -11    1    4    4    0    0  0.23502960653E+02 -0.15053357320E+02  0.90647567504E+00  0.27925157551E+02  0.00000000000E+00 0.  1.
         11    1    4    4    0    0 -0.38681097471E+02 -0.15261050371E+02  0.14366394876E+03  0.14956088102E+03  0.00000000000E+00 0. -1.
</event>
<event>
 8    1  0.3528896E-009  0.1194867E+03  0.7561462E-02  0.1243946E+00
          1   -1    0    0  501    0  0.00000000000E+00  0.00000000000E+00  0.57242662910E+02  0.57242662910E+02  0.00000000000E+00 0. -1.
         -1   -1    0    0    0  501 -0.00000000000E+00 -0.00000000000E+00 -0.41914680137E+03  0.41914680137E+03  0.00000000000E+00 0.  1.
         25    2    1    2    0    0  0.63402614395E+02  0.80878240013E+02 -0.25164395301E+03  0.29921755944E+03  0.12508112395E+03 0.  0.
         23    2    1    2    0    0 -0.63402614395E+02 -0.80878240013E+02 -0.11026018545E+03  0.17717190484E+03  0.93120320822E+02 0.  0.
          5    1    3    3  502    0  0.54296763221E+02  0.89675241405E+01 -0.23833884988E+02  0.60117230967E+02  0.41800000000E+01 0. -1.
         -5    1    3    3    0  502  0.91058511746E+01  0.71910715873E+02 -0.22781006802E+03  0.23910032847E+03  0.41800000000E+01 0. -1.
        -11    1    4    4    0    0 -0.89334075621E+01 -0.45174173705E+02 -0.10149975255E+03  0.11145721829E+03  0.00000000000E+00 0.  1.
         11    1    4    4    0    0 -0.54469206833E+02 -0.35704066308E+02 -0.87604328966E+01  0.65714686551E+02  0.00000000000E+00 0. -1.
</event>
<event>
 8    1  0.3528896E-009  0.1125215E+03  0.7561462E-02  0.1255970E+00
         -1   -1    0    0    0  501 -0.00000000000E+00  0.00000000000E+00  0.94160057760E+02  0.94160057760E+02  0.00000000000E+00 0.  1.
          1   -1    0    0  501    0  0.00000000000E+00 -0.00000000000E+00 -0.27681870417E+03  0.27681870417E+03  0.00000000000E+00 0. -1.
         25    2    1    2    0    0  0.71533123470E+02 -0.29044649749E+02 -0.20206223680E+03  0.24988153808E+03  0.12510418098E+03 0.  0.
         23    2    1    2    0    0 -0.71533123470E+02  0.29044649749E+02  0.19403590387E+02  0.12109722385E+03  0.91254911500E+02 0.  0.
          5    1    3    3  502    0  0.87093480639E+02 -0.15407031888E+02 -0.20954590019E+03  0.22748540105E+03  0.41800000000E+01 0. -1.
         -5    1    3    3    0  502 -0.15560357169E+02 -0.13637617862E+02  0.74836633930E+01  0.22396137032E+02  0.41800000000E+01 0. -1.
        -11    1    4    4    0    0 -0.14086555150E+02 -0.29918356956E+02  0.20241710012E+02  0.38771973681E+02  0.00000000000E+00 0.  1.
         11    1    4    4    0    0 -0.57446568321E+02  0.58963006705E+02 -0.83811962493E+00  0.82325250173E+02  0.00000000000E+00 0. -1.
</event>
<event>
 8    1  0.3528896E-009  0.1359501E+03  0.7561462E-02  0.1218885E+00
         -2   -1    0    0    0  501 -0.00000000000E+00  0.00000000000E+00  0.10233023902E+03  0.10233023902E+03  0.00000000000E+00 0.  1.
          2   -1    0    0  501    0  0.00000000000E+00 -0.00000000000E+00 -0.20385455574E+03  0.20385455574E+03  0.00000000000E+00 0. -1.
         25    2    1    2    0    0  0.59009582099E+02  0.68338447987E+02 -0.88606138474E+02  0.17790503037E+03  0.12508748059E+03 0.  0.
         23    2    1    2    0    0 -0.59009582099E+02 -0.68338447987E+02 -0.12918178250E+02  0.12827976440E+03  0.90202795813E+02 0.  0.
          5    1    3    3  502    0 -0.27929781222E+02  0.56437455267E+02 -0.19256918271E+02  0.65981515119E+02  0.41800000000E+01 0.  1.
         -5    1    3    3    0  502  0.86939363321E+02  0.11900992720E+02 -0.69349220202E+02  0.11192351525E+03  0.41800000000E+01 0.  1.
        -11    1    4    4    0    0 -0.48405035764E+02  0.33049908912E+01  0.14812197423E+02  0.50728410626E+02  0.00000000000E+00 0.  1.
         11    1    4    4    0    0 -0.10604546335E+02 -0.71643438878E+02 -0.27730375673E+02  0.77551353774E+02  0.00000000000E+00 0. -1.
</event>
<event>
 8    1  0.3528896E-009  0.1147593E+03  0.7561462E-02  0.1252002E+00
         -1   -1    0    0    0  501 -0.00000000000E+00  0.00000000000E+00  0.31779013161E+02  0.31779013161E+02  0.00000000000E+00 0.  1.
          1   -1    0    0  501    0  0.00000000000E+00 -0.00000000000E+00 -0.48854391898E+03  0.48854391898E+03  0.00000000000E+00 0. -1.
         25    2    1    2    0    0 -0.34806912765E+01  0.50478859036E+02 -0.18319606027E+03  0.22752611186E+03  0.12508838739E+03 0.  0.
         23    2    1    2    0    0  0.34806912765E+01 -0.50478859036E+02 -0.27356884555E+03  0.29279682028E+03  0.91267925844E+02 0.  0.
          5    1    3    3  502    0 -0.35094316086E+02 -0.30315518570E+02 -0.48343217649E+02  0.67120643474E+02  0.41800000000E+01 0.  1.
         -5    1    3    3    0  502  0.31613624810E+02  0.80794377607E+02 -0.13485284262E+03  0.16040546839E+03  0.41800000000E+01 0.  1.
        -11    1    4    4    0    0  0.42416909036E+02 -0.21469137508E+02 -0.78479598870E+02  0.91756010573E+02  0.00000000000E+00 0.  1.
         11    1    4    4    0    0 -0.38936217759E+02 -0.29009721528E+02 -0.19508924668E+03  0.20104080971E+03  0.00000000000E+00 0. -1.
</event>
<event>
 8    1  0.3528896E-009  0.1072071E+03  0.7561462E-02  0.1265831E+00
          1   -1    0    0  501    0  0.00000000000E+00  0.00000000000E+00  0.14447089793E+03  0.14447089793E+03  0.00000000000E+00 0. -1.
         -1   -1    0    0    0  501 -0.00000000000E+00 -0.00000000000E+00 -0.10923792138E+03  0.10923792138E+03  0.00000000000E+00 0.  1.
         25    2    1    2    0    0 -0.47617049156E+01 -0.38648663950E+02 -0.31363491679E+02  0.13471147164E+03  0.12508844440E+03 0.  0.
         23    2    1    2    0    0  0.47617049156E+01  0.38648663950E+02  0.66596468229E+02  0.11899734767E+03  0.90602903448E+02 0.  0.
          5    1    3    3  502    0 -0.52154707016E+02 -0.46362527937E+02 -0.46770795447E+02  0.84110505690E+02  0.41800000000E+01 0. -1.
         -5    1    3    3    0  502  0.47393002100E+02  0.77138639871E+01  0.15407303768E+02  0.50600965950E+02  0.41800000000E+01 0. -1.
        -11    1    4    4    0    0 -0.41136982726E+02  0.26125821657E+02  0.20881974593E+02  0.53017608093E+02  0.00000000000E+00 0. -1.
         11    1    4    4    0    0  0.45898687641E+02  0.12522842292E+02  0.45714493635E+02  0.65979739577E+02  0.00000000000E+00 0.  1.
</event>
<event>
 8    1  0.3528896E-009  0.6005233E+02  0.7561462E-02  0.1397612E+00
         -2   -1    0    0    0  501 -0.00000000000E+00  0.00000000000E+00  0.87486036018E+02  0.87486036018E+02  0.00000000000E+00 0. -1.
          2   -1    0    0  501    0  0.00000000000E+00 -0.00000000000E+00 -0.13681448898E+03  0.13681448898E+03  0.00000000000E+00 0.  1.
         25    2    1    2    0    0  0.52155105410E+01  0.12951522430E+02 -0.19842001764E+02  0.12742318557E+03  0.12509204492E+03 0.  0.
         23    2    1    2    0    0 -0.52155105410E+01 -0.12951522430E+02 -0.29486451202E+02  0.96877339434E+02  0.91218554076E+02 0.  0.
          5    1    3    3  502    0  0.84962674320E+01  0.24619674603E+02  0.49937271271E+02  0.56475821373E+02  0.41800000000E+01 0. -1.
         -5    1    3    3    0  502 -0.32807568910E+01 -0.11668152173E+02 -0.69779273034E+02  0.70947364194E+02  0.41800000000E+01 0. -1.
        -11    1    4    4    0    0 -0.46961902101E+01 -0.46809152268E+02 -0.39648654996E+02  0.61523709100E+02  0.00000000000E+00 0.  1.
         11    1    4    4    0    0 -0.51932033089E+00  0.33857629837E+02  0.10162203794E+02  0.35353630333E+02  0.00000000000E+00 0. -1.
</event>
<event>
 8    1  0.3528896E-009  0.1123210E+03  0.7561462E-02  0.1256331E+00
         -1   -1    0    0    0  501 -0.00000000000E+00  0.00000000000E+00  0.14101773062E+03  0.14101773062E+03  0.00000000000E+00 0.  1.
          1   -1    0    0  501    0  0.00000000000E+00 -0.00000000000E+00 -0.15988522552E+03  0.15988522552E+03  0.00000000000E+00 0. -1.
         25    2    1    2    0    0  0.27099507387E+02 -0.77226120317E+02 -0.73345015114E+02  0.16651057372E+03  0.12509205794E+03 0.  0.
         23    2    1    2    0    0 -0.27099507387E+02  0.77226120317E+02  0.54477520215E+02  0.13439238241E+03  0.91625625682E+02 0.  0.
          5    1    3    3  502    0 -0.45150351314E+02 -0.43719134319E+02 -0.81690315601E+01  0.63514741643E+02  0.41800000000E+01 0.  1.
         -5    1    3    3    0  502  0.72249858701E+02 -0.33506985997E+02 -0.65175983554E+02  0.10299583208E+03  0.41800000000E+01 0.  1.
        -11    1    4    4    0    0 -0.31722526440E+01  0.12513247070E+02  0.63510238650E+02  0.64808911057E+02  0.00000000000E+00 0.  1.
         11    1    4    4    0    0 -0.23927254743E+02  0.64712873247E+02 -0.90327184345E+01  0.69583471354E+02  0.00000000000E+00 0. -1.
</event>
<event>
 8    1  0.3528896E-009  0.1539097E+03  0.7561462E-02  0.1195749E+00
         -1   -1    0    0    0  501 -0.00000000000E+00  0.00000000000E+00  0.10228604445E+03  0.10228604445E+03  0.00000000000E+00 0.  1.
          1   -1    0    0  501    0  0.00000000000E+00 -0.00000000000E+00 -0.34145498853E+03  0.34145498853E+03  0.00000000000E+00 0. -1.
         25    2    1    2    0    0  0.80821158029E+02 -0.11041433788E+03 -0.48943982006E+02  0.19175071205E+03  0.12509770823E+03 0.  0.
         23    2    1    2    0    0 -0.80821158029E+02  0.11041433788E+03 -0.19022496208E+03  0.25199032093E+03  0.92683332087E+02 0.  0.
          5    1    3    3  502    0  0.10409648210E+03 -0.76200220554E+02 -0.20772313404E+01  0.12909042756E+03  0.41800000000E+01 0. -1.
         -5    1    3    3    0  502 -0.23275324069E+02 -0.34214117327E+02 -0.46866750666E+02  0.62660284494E+02  0.41800000000E+01 0. -1.
        -11    1    4    4    0    0 -0.56628139847E+02  0.69817943091E+02 -0.18339267325E+03  0.20424045633E+03  0.00000000000E+00 0. -1.
         11    1    4    4    0    0 -0.24193018182E+02  0.40596394789E+02 -0.68322888366E+01  0.47749864601E+02  0.00000000000E+00 0.  1.
</event>
<event>
 8    1  0.3528896E-009  0.1005263E+03  0.7561462E-02  0.1279193E+00
          3   -1    0    0  501    0  0.00000000000E+00  0.00000000000E+00  0.40909537731E+02  0.40909537731E+02  0.00000000000E+00 0. -1.
         -3   -1    0    0    0  501 -0.00000000000E+00 -0.00000000000E+00 -0.33873410936E+03  0.33873410936E+03  0.00000000000E+00 0.  1.
         25    2    1    2    0    0  0.27462012437E+01 -0.37937772933E+02 -0.20212855600E+03  0.24072798597E+03  0.12508874385E+03 0.  0.
         23    2    1    2    0    0 -0.27462012437E+01  0.37937772933E+02 -0.95696015620E+02  0.13891566112E+03  0.93236351618E+02 0.  0.
          5    1    3    3  502    0  0.53086636249E+02 -0.20879745655E+02 -0.39314199887E+02  0.69406292507E+02  0.41800000000E+01 0. -1.
         -5    1    3    3    0  502 -0.50340435006E+02 -0.17058027279E+02 -0.16281435612E+03  0.17132169346E+03  0.41800000000E+01 0. -1.
        -11    1    4    4    0    0 -0.42432478772E+02  0.21691746545E+02 -0.19519172616E+02  0.51498011831E+02  0.00000000000E+00 0. -1.
         11    1    4    4    0    0  0.39686277528E+02  0.16246026388E+02 -0.76176843004E+02  0.87417649291E+02  0.00000000000E+00 0.  1.
</event>
<event>
 8    1  0.3528896E-009  0.1538210E+03  0.7561462E-02  0.1195855E+00
         -2   -1    0    0    0  501 -0.00000000000E+00  0.00000000000E+00  0.57880124177E+03  0.57880124177E+03  0.00000000000E+00 0.  1.
          2   -1    0    0  501    0  0.00000000000E+00 -0.00000000000E+00 -0.61227301784E+02  0.61227301784E+02  0.00000000000E+00 0. -1.
         25    2    1    2    0    0 -0.53995768689E+02  0.12535018125E+03  0.39249360565E+03  0.43396729905E+03  0.12509266643E+03 0.  0.
         23    2    1    2    0    0  0.53995768689E+02 -0.12535018125E+03  0.12508033434E+03  0.20606124450E+03  0.90487211658E+02 0.  0.
          5    1    3    3  502    0 -0.36825224062E+02  0.27817848851E+02  0.28095215286E+03  0.28474815968E+03  0.41800000000E+01 0.  1.
         -5    1    3    3    0  502 -0.17170544626E+02  0.97532332396E+02  0.11154145279E+03  0.14921913937E+03  0.41800000000E+01 0.  1.
        -11    1    4    4    0    0 -0.39252225647E+01 -0.98085834771E+02  0.89397585057E+02  0.13277110593E+03  0.00000000000E+00 0.  1.
         11    1    4    4    0    0  0.57920991253E+02 -0.27264346477E+02  0.35682749279E+02  0.73290138577E+02  0.00000000000E+00 0. -1.
</event>
<event>
 8    1  0.3528896E-009  0.1265091E+03  0.7561462E-02  0.1232729E+00
          2   -1    0    0  501    0  0.00000000000E+00  0.00000000000E+00  0.14269877080E+03  0.14269877080E+03  0.00000000000E+00 0. -1.
         -2   -1    0    0    0  501 -0.00000000000E+00 -0.00000000000E+00 -0.15594699549E+03  0.15594699549E+03  0.00000000000E+00 0.  1.
         25    2    1    2    0    0 -0.17465349176E+02  0.89523420374E+02 -0.53610186674E+02  0.16383181469E+03  0.12508928880E+03 0.  0.
         23    2    1    2    0    0  0.17465349176E+02 -0.89523420374E+02  0.40361961982E+02  0.13481395159E+03  0.90698579656E+02 0.  0.
          5    1    3    3  502    0 -0.11821297226E+02 -0.31033312704E+02 -0.58949794518E+01  0.33985772732E+02  0.41800000000E+01 0.  1.
         -5    1    3    3    0  502 -0.56440519501E+01  0.12055673308E+03 -0.47715207222E+02  0.12984604196E+03  0.41800000000E+01 0.  1.
        -11    1    4    4    0    0 -0.86468260566E+01 -0.54057658322E+02  0.64492613070E+02  0.84594888526E+02  0.00000000000E+00 0.  1.
         11    1    4    4    0    0  0.26112175233E+02 -0.35465762052E+02 -0.24130651088E+02  0.50219063066E+02  0.00000000000E+00 0. -1.
</event>
<event>
 8    1  0.3528896E-009  0.1094007E+03  0.7561462E-02  0.1261684E+00
          2   -1    0    0  501    0  0.00000000000E+00  0.00000000000E+00  0.48446217579E+03  0.48446217579E+03  0.00000000000E+00 0. -1.
         -2   -1    0    0    0  501 -0.00000000000E+00 -0.00000000000E+00 -0.33495849056E+02  0.33495849056E+02  0.00000000000E+00 0.  1.
         25    2    1    2    0    0  0.33950891100E+02  0.92590694425E+01  0.13536415632E+03  0.18764071722E+03  0.12508873079E+03 0.  0.
         23    2    1    2    0    0 -0.33950891100E+02 -0.92590694425E+01  0.31560217041E+03  0.33031730762E+03  0.90919746874E+02 0.  0.
          5    1    3    3  502    0  0.62188252024E+02  0.46321000416E+02  0.10933380209E+03  0.13410580319E+03  0.41800000000E+01 0.  1.
         -5    1    3    3    0  502 -0.28237360925E+02 -0.37061930974E+02  0.26030354232E+02  0.53534914037E+02  0.41800000000E+01 0.  1.
        -11    1    4    4    0    0 -0.32145553749E+02  0.36461633392E+02  0.12078890380E+03  0.13020271355E+03  0.00000000000E+00 0.  1.
         11    1    4    4    0    0 -0.18053373501E+01 -0.45720702835E+02  0.19481326661E+03  0.20011459407E+03  0.00000000000E+00 0. -1.
</event>
<event>
 8    1  0.3528896E-009  0.1060051E+03  0.7561462E-02  0.1268152E+00
          2   -1    0    0  501    0  0.00000000000E+00  0.00000000000E+00  0.42031997410E+02  0.42031997410E+02  0.00000000000E+00 0. -1.
         -2   -1    0    0    0  501 -0.00000000000E+00 -0.00000000000E+00 -0.31588706456E+03  0.31588706456E+03  0.00000000000E+00 0.  1.
         25    2    1    2    0    0  0.33071148711E+02  0.20440741878E+02 -0.17484734131E+03  0.21847352344E+03  0.12509021895E+03 0.  0.
         23    2    1    2    0    0 -0.33071148711E+02 -0.20440741878E+02 -0.99007725840E+02  0.13944553853E+03  0.90172077909E+02 0.  0.
          5    1    3    3  502    0  0.66456091369E+02  0.51445421877E+02 -0.99362527544E+02  0.13020532935E+03  0.41800000000E+01 0.  1.
         -5    1    3    3    0  502 -0.33384942658E+02 -0.31004679999E+02 -0.75484813770E+02  0.88268194090E+02  0.41800000000E+01 0.  1.
        -11    1    4    4    0    0 -0.30175904888E+02 -0.46750302347E+02 -0.98313815703E+02  0.11296805904E+03  0.00000000000E+00 0.  1.
         11    1    4    4    0    0 -0.28952438227E+01  0.26309560469E+02 -0.69391013689E+00  0.26477479490E+02  0.00000000000E+00 0. -1.
</event>
<event>
 8    1  0.3528896E-009  0.1139926E+03  0.7561462E-02  0.1253350E+00
          1   -1    0    0  501    0  0.00000000000E+00  0.00000000000E+00  0.29067042475E+02  0.29067042475E+02  0.00000000000E+00 0. -1.
         -1   -1    0    0    0  501 -0.00000000000E+00 -0.00000000000E+00 -0.66704812624E+03  0.66704812624E+03  0.00000000000E+00 0.  1.
         25    2    1    2    0    0  0.60205543225E+02 -0.40123703740E+02 -0.47083786711E+03  0.49251484286E+03  0.12509178346E+03 0.  0.
         23    2    1    2    0    0 -0.60205543225E+02  0.40123703740E+02 -0.16714321665E+03  0.20360032586E+03  0.91003399828E+02 0.  0.
          5    1    3    3  502    0  0.93661599704E+02 -0.12920960446E+02 -0.38373454144E+03  0.39523299100E+03  0.41800000000E+01 0. -1.
         -5    1    3    3    0  502 -0.33456056479E+02 -0.27202743294E+02 -0.87103325669E+02  0.97281851855E+02  0.41800000000E+01 0. -1.
        -11    1    4    4    0    0  0.15495398683E+01 -0.10226361800E+02  0.67297236025E+01  0.12339721603E+02  0.00000000000E+00 0. -1.
         11    1    4    4    0    0 -0.61755083093E+02  0.50350065540E+02 -0.17387294025E+03  0.19126060425E+03  0.00000000000E+00 0.  1.
</event>
<event>
 8    1  0.3528896E-009  0.1116489E+03  0.7561462E-02  0.1257546E+00
          4   -1    0    0  501    0  0.00000000000E+00  0.00000000000E+00  0.33067071457E+03  0.33067071457E+03  0.00000000000E+00 0. -1.
         -4   -1    0    0    0  501 -0.00000000000E+00 -0.00000000000E+00 -0.47491594126E+02  0.47491594126E+02  0.00000000000E+00 0.  1.
         25    2    1    2    0    0 -0.40399061261E+02 -0.46246850382E+02  0.17173484897E+03  0.22116047556E+03  0.12509293456E+03 0.  0.
         23    2    1    2    0    0  0.40399061261E+02  0.46246850382E+02  0.11144427147E+03  0.15700183313E+03  0.91972249313E+02 0.  0.
          5    1    3    3  502    0 -0.65216286906E+02 -0.57974282890E+02  0.59881125832E+02  0.10591224285E+03  0.41800000000E+01 0.  1.
         -5    1    3    3    0  502  0.24817225645E+02  0.11727432507E+02  0.11185372314E+03  0.11524823271E+03  0.41800000000E+01 0.  1.
        -11    1    4    4    0    0  0.35976621485E+02  0.72826608467E+02  0.96690905029E+02  0.12628207834E+03  0.00000000000E+00 0. -1.
         11    1    4    4    0    0  0.44224397760E+01 -0.26579758085E+02  0.14753366436E+02  0.30719754794E+02  0.00000000000E+00 0.  1.
</event>
<event>
 8    1  0.3528896E-009  0.1331132E+03  0.7561462E-02  0.1222908E+00
         -2   -1    0    0    0  501 -0.00000000000E+00  0.00000000000E+00  0.11070708770E+03  0.11070708770E+03  0.00000000000E+00 0.  1.
          2   -1    0    0  501    0  0.00000000000E+00 -0.00000000000E+00 -0.17410591093E+03  0.17410591093E+03  0.00000000000E+00 0. -1.
         25    2    1    2    0    0 -0.52308091414E+01 -0.86634532500E+02 -0.31890401441E+02  0.15555327261E+03  0.12508764659E+03 0.  0.
         23    2    1    2    0    0  0.52308091414E+01  0.86634532500E+02 -0.31508421789E+02  0.12925972601E+03  0.90456578200E+02 0.  0.
          5    1    3    3  502    0 -0.43465914166E+02  0.93774874441E+01 -0.26611142449E+02  0.51988924469E+02  0.41800000000E+01 0.  1.
         -5    1    3    3    0  502  0.38235105024E+02 -0.96012019944E+02 -0.52792589913E+01  0.10356434814E+03  0.41800000000E+01 0.  1.
        -11    1    4    4    0    0 -0.33275834595E+02  0.67231757837E+02  0.13819854541E+01  0.75028663281E+02  0.00000000000E+00 0. -1.
         11    1    4    4    0    0  0.38506643736E+02  0.19402774662E+02 -0.32890407243E+02  0.54231062732E+02  0.00000000000E+00 0.  1.
</event>
<event>
 8    1  0.3528896E-009  0.7652137E+02  0.7561462E-02  0.1339224E+00
          1   -1    0    0  501    0  0.00000000000E+00  0.00000000000E+00  0.33952219126E+03  0.33952219126E+03  0.00000000000E+00 0. -1.
         -1   -1    0    0    0  501 -0.00000000000E+00 -0.00000000000E+00 -0.79887227316E+02  0.79887227316E+02  0.00000000000E+00 0.  1.
         25    2    1    2    0    0 -0.28982511732E+02  0.44641934700E+02 -0.62779155180E+01  0.13606578020E+03  0.12506636637E+03 0.  0.
         23    2    1    2    0    0  0.28982511732E+02 -0.44641934700E+02  0.26591287946E+03  0.28334363837E+03  0.82104017105E+02 0.  0.
          5    1    3    3  502    0 -0.22357693612E+02  0.12664945807E+02  0.58151108333E+02  0.63712566392E+02  0.41800000000E+01 0.  1.
         -5    1    3    3    0  502 -0.66248181198E+01  0.31976988893E+02 -0.64429023851E+02  0.72353213807E+02  0.41800000000E+01 0.  1.
        -11    1    4    4    0    0 -0.25659368460E+02 -0.25536795755E+02  0.66695658472E+02  0.75887034375E+02  0.00000000000E+00 0. -1.
         11    1    4    4    0    0  0.54641880192E+02 -0.19105138945E+02  0.19921722099E+03  0.20745660400E+03  0.00000000000E+00 0.  1.
</event>
<event>
 8    1  0.3528896E-009  0.2029430E+03  0.7561462E-02  0.1147279E+00
         -2   -1    0    0    0  501 -0.00000000000E+00  0.00000000000E+00  0.11541193046E+03  0.11541193046E+03  0.00000000000E+00 0.  1.
          2   -1    0    0  501    0  0.00000000000E+00 -0.00000000000E+00 -0.69428566335E+03  0.69428566335E+03  0.00000000000E+00 0. -1.
         25    2    1    2    0    0  0.19720483795E+03 -0.58426387619E+01 -0.51530541994E+02  0.23922161867E+03  0.12509077322E+03 0.  0.
         23    2    1    2    0    0 -0.19720483795E+03  0.58426387619E+01 -0.52734319089E+03  0.57047597514E+03  0.91804753121E+02 0.  0.
          5    1    3    3  502    0  0.32979004719E+02 -0.19229081394E+02 -0.63234855848E+02  0.73983050205E+02  0.41800000000E+01 0. -1.
         -5    1    3    3    0  502  0.16422583323E+03  0.13386442632E+02  0.11704313854E+02  0.16523856846E+03  0.41800000000E+01 0. -1.
        -11    1    4    4    0    0 -0.11127101782E+03 -0.19716894404E+02 -0.18673292670E+03  0.21826401730E+03  0.00000000000E+00 0.  1.
         11    1    4    4    0    0 -0.85933820126E+02  0.25559533166E+02 -0.34061026419E+03  0.35221195784E+03  0.00000000000E+00 0. -1.
</event>
<event>
 7    1  0.3528896E-009  0.9526372E+02  0.7561462E-02  0.1290583E+00
         -2   -1    0    0    0  501 -0.00000000000E+00  0.00000000000E+00  0.95117900345E+03  0.95117900345E+03  0.00000000000E+00 0.  1.
          2   -1    0    0  501    0  0.00000000000E+00 -0.00000000000E+00 -0.21988133388E+02  0.21988133388E+02  0.00000000000E+00 0. -1.
         23    2    1    2    0    0 -0.15288302333E+02 -0.52915595460E+02  0.15684676602E+03  0.18881095225E+03  0.89525835645E+02 0.  0.
          5    1    1    2  502    0  0.30621052010E+02 -0.18563973501E+02  0.75397917505E+02  0.83573849393E+02  0.41800000000E+01 0. -1.
         -5    1    1    2    0  502 -0.15332749677E+02  0.71479568961E+02  0.69694618653E+03  0.70078233519E+03  0.41800000000E+01 0. -1.
        -11    1    3    3    0    0 -0.30401985726E+02 -0.57849666873E+02  0.15979416508E+03  0.17264136204E+03  0.00000000000E+00 0.  1.
         11    1    3    3    0    0  0.15113683393E+02  0.49340714139E+01 -0.29473990582E+01  0.16169590212E+02  0.00000000000E+00 0. -1.
</event>
<event>
 8    1  0.3528896E-009  0.8742799E+02  0.7561462E-02  0.1309202E+00
          1   -1    0    0  501    0  0.00000000000E+00  0.00000000000E+00  0.41159184913E+03  0.41159184913E+03  0.00000000000E+00 0. -1.
         -1   -1    0    0    0  501 -0.00000000000E+00 -0.00000000000E+00 -0.31445796278E+02  0.31445796278E+02  0.00000000000E+00 0.  1.
         25    2    1    2    0    0 -0.31012002727E+02  0.21741086067E+02  0.22725343831E+03  0.26215575158E+03  0.12508834369E+03 0.  0.
         23    2    1    2    0    0  0.31012002727E+02 -0.21741086067E+02  0.15289261454E+03  0.18088189382E+03  0.88925186513E+02 0.  0.
          5    1    3    3  502    0 -0.25597271113E+02  0.46647074491E+02  0.26211734735E+02  0.59461729582E+02  0.41800000000E+01 0. -1.
         -5    1    3    3    0  502 -0.54147316142E+01 -0.24905988425E+02  0.20104170358E+03  0.20269402200E+03  0.41800000000E+01 0. -1.
        -11    1    4    4    0    0 -0.19316103551E+02 -0.38115156591E+02  0.81367478152E+02  0.91905078854E+02  0.00000000000E+00 0.  1.
         11    1    4    4    0    0  0.50328106278E+02  0.16374070524E+02  0.71525136385E+02  0.88976814969E+02  0.00000000000E+00 0. -1.
</event>
<event>
 8    1  0.3528896E-009  0.2146534E+03  0.7561462E-02  0.1137933E+00
          4   -1    0    0  501    0  0.00000000000E+00  0.00000000000E+00  0.11669807171E+03  0.11669807171E+03  0.00000000000E+00 0. -1.
         -4   -1    0    0    0  501 -0.00000000000E+00 -0.00000000000E+00 -0.43370626289E+03  0.43370626289E+03  0.00000000000E+00 0.  1.
         25    2    1    2    0    0  0.17732974709E+03 -0.84688934450E+02 -0.17160421641E+03  0.28933278264E+03  0.12508955671E+03 0.  0.
         23    2    1    2    0    0 -0.17732974709E+03  0.84688934450E+02 -0.14540397476E+03  0.26107155196E+03  0.91640518038E+02 0.  0.
          5    1    3    3  502    0 -0.13718035793E+02 -0.24265061639E+02 -0.48225776455E+01  0.28595583182E+02  0.41800000000E+01 0.  1.
         -5    1    3    3    0  502  0.19104778289E+03 -0.60423872811E+02 -0.16678163877E+03  0.26073719946E+03  0.41800000000E+01 0.  1.
        -11    1    4    4    0    0 -0.11694563898E+03  0.76549627053E+02 -0.14319354688E+03  0.20010127372E+03  0.00000000000E+00 0.  1.
         11    1    4    4    0    0 -0.60384108113E+02  0.81393073969E+01 -0.22104278860E+01  0.60970278242E+02  0.00000000000E+00 0. -1.
</event>
<event>
 8    1  0.3528896E-009  0.8620864E+02  0.7561462E-02  0.1312302E+00
          2   -1    0    0  501    0  0.00000000000E+00  0.00000000000E+00  0.48859810817E+02  0.48859810817E+02  0.00000000000E+00 0.  1.
         -2   -1    0    0    0  501 -0.00000000000E+00 -0.00000000000E+00 -0.25609830418E+03  0.25609830418E+03  0.00000000000E+00 0. -1.
         25    2    1    2    0    0 -0.26578023680E+02 -0.16029546013E+01 -0.11314855303E+03  0.17076329504E+03  0.12509415284E+03 0.  0.
         23    2    1    2    0    0  0.26578023680E+02  0.16029546013E+01 -0.94089940335E+02  0.13419481996E+03  0.91904145857E+02 0.  0.
          5    1    3    3  502    0  0.13936024052E+02 -0.49898611695E+02 -0.15103570203E+02  0.54126467171E+02  0.41800000000E+01 0.  1.
         -5    1    3    3    0  502 -0.40514047732E+02  0.48295657094E+02 -0.98044982829E+02  0.11663682787E+03  0.41800000000E+01 0.  1.
        -11    1    4    4    0    0  0.43758630960E+01  0.24782956211E+02  0.86080445883E+01  0.26597772990E+02  0.00000000000E+00 0.  1.
         11    1    4    4    0    0  0.22202160584E+02 -0.23180001610E+02 -0.10269798492E+03  0.10759704697E+03  0.00000000000E+00 0. -1.
</event>
<event>
 8    1  0.3528896E-009  0.1069195E+03  0.7561462E-02  0.1266383E+00
         -1   -1    0    0    0  501 -0.00000000000E+00  0.00000000000E+00  0.17616860493E+02  0.17616860493E+02  0.00000000000E+00 0.  1.
          1   -1    0    0  501    0  0.00000000000E+00 -0.00000000000E+00 -0.68266398828E+03  0.68266398828E+03  0.00000000000E+00 0. -1.
         25    2    1    2    0    0 -0.79959029813E+01 -0.15577997128E+02 -0.40986961990E+03  0.42889111042E+03  0.12509144983E+03 0.  0.
         23    2    1    2    0    0  0.79959029813E+01  0.15577997128E+02 -0.25517750789E+03  0.27138973836E+03  0.90720565992E+02 0.  0.
          5    1    3    3  502    0  0.47297658040E+02 -0.39972027859E+02 -0.15600304777E+03  0.16789655976E+03  0.41800000000E+01 0.  1.
         -5    1    3    3    0  502 -0.55293561021E+02  0.24394030731E+02 -0.25386657213E+03  0.26099455065E+03  0.41800000000E+01 0.  1.
        -11    1    4    4    0    0 -0.82780142944E+01 -0.36087269544E+02 -0.82779526742E+02  0.90682228642E+02  0.00000000000E+00 0.  1.
         11    1    4    4    0    0  0.16273917276E+02  0.51665266673E+02 -0.17239798115E+03  0.18070750972E+03  0.00000000000E+00 0. -1.
</event>
<event>
 8    1  0.3528896E-009  0.1541293E+03  0.7561462E-02  0.1195489E+00
          2   -1    0    0  501    0  0.00000000000E+00  0.00000000000E+00  0.67273966840E+03  0.67273966840E+03  0.00000000000E+00 0. -1.
         -2   -1    0    0    0  501 -0.00000000000E+00 -0.00000000000E+00 -0.62947730338E+02  0.62947730338E+02  0.00000000000E+00 0.  1.
         25    2    1    2    0    0 -0.74086289440E+02  0.10585718725E+03  0.11112413210E+03  0.21140114626E+03  0.12508936616E+03 0.  0.
         23    2    1    2    0    0  0.74086289440E+02 -0.10585718725E+03  0.49866780596E+03  0.52428625248E+03  0.97529336440E+02 0.  0.
          5    1    3    3  502    0 -0.89392363498E+02  0.20522751478E+02  0.44772973879E+02  0.10214827248E+03  0.41800000000E+01 0. -1.
         -5    1    3    3    0  502  0.15306074058E+02  0.85334435770E+02  0.66351158225E+02  0.10925287378E+03  0.41800000000E+01 0. -1.
        -11    1    4    4    0    0  0.69933790264E+02 -0.94549886935E+02  0.49855739340E+03  0.51224007131E+03  0.00000000000E+00 0. -1.
         11    1    4    4    0    0  0.41524991751E+01 -0.11307300314E+02  0.11041255254E+00  0.12046181167E+02  0.00000000000E+00 0.  1.
</event>
<event>
 8    1  0.3528896E-009  0.7411018E+02  0.7561462E-02  0.1346649E+00
          3   -1    0    0  501    0  0.00000000000E+00  0.00000000000E+00  0.76577570892E+03  0.76577570892E+03  0.00000000000E+00 0. -1.
         -3   -1    0    0    0  501 -0.00000000000E+00 -0.00000000000E+00 -0.20535784543E+02  0.20535784543E+02  0.00000000000E+00 0.  1.
         25    2    1    2    0    0  0.51192267452E+02  0.39465985289E+01  0.52122036949E+03  0.53847639587E+03  0.12509968607E+03 0.  0.
         23    2    1    2    0    0 -0.51192267452E+02 -0.39465985289E+01  0.22401955489E+03  0.24783509759E+03  0.92742928239E+02 0.  0.
          5    1    3    3  502    0  0.28478011669E+02 -0.26974219590E+01  0.16704385626E+02  0.33388353254E+02  0.41800000000E+01 0.  1.
         -5    1    3    3    0  502  0.22714255782E+02  0.66440204879E+01  0.50451598386E+03  0.50508804262E+03  0.41800000000E+01 0.  1.
        -11    1    4    4    0    0 -0.21619494460E+02  0.38139881803E+02  0.50614211228E+02  0.66961567357E+02  0.00000000000E+00 0.  1.
         11    1    4    4    0    0 -0.29572772991E+02 -0.42086480332E+02  0.17340534366E+03  0.18087353023E+03  0.00000000000E+00 0. -1.
</event>
<event>
 8    1  0.3528896E-009  0.1141939E+03  0.7561462E-02  0.1252995E+00
         -1   -1    0    0    0  501 -0.00000000000E+00  0.00000000000E+00  0.70447267032E+02  0.70447267032E+02  0.00000000000E+00 0.  1.
          1   -1    0    0  501    0  0.00000000000E+00 -0.00000000000E+00 -0.23821534809E+03  0.23821534809E+03  0.00000000000E+00 0. -1.
         25    2    1    2    0    0  0.41923586383E+02 -0.36541230890E+02 -0.40376605945E+02  0.14272254267E+03  0.12508639106E+03 0.  0.
         23    2    1    2    0    0 -0.41923586383E+02  0.36541230890E+02 -0.12739147511E+03  0.16594007245E+03  0.90634822582E+02 0.  0.
          5    1    3    3  502    0 -0.43991286558E+02 -0.15325714715E+02 -0.24207744774E+02  0.52664961138E+02  0.41800000000E+01 0.  1.
         -5    1    3    3    0  502  0.85914872942E+02 -0.21215516175E+02 -0.16168861171E+02  0.90057581528E+02  0.41800000000E+01 0.  1.
        -11    1    4    4    0    0  0.21437303406E+02  0.40513666950E+01 -0.73416978299E+02  0.76589974879E+02  0.00000000000E+00 0. -1.
         11    1    4    4    0    0 -0.63360889789E+02  0.32489864195E+02 -0.53974496811E+02  0.89350097573E+02  0.00000000000E+00 0.  1.
</event>
<event>
 8    1  0.3528896E-009  0.9956200E+02  0.7561462E-02  0.1281220E+00
          2   -1    0    0  501    0  0.00000000000E+00  0.00000000000E+00  0.12728996438E+04  0.12728996438E+04  0.00000000000E+00 0.  1.
         -2   -1    0    0    0  501 -0.00000000000E+00 -0.00000000000E+00 -0.15314607775E+02  0.15314607775E+02  0.00000000000E+00 0. -1.
         25    2    1    2    0    0 -0.68727740380E+02 -0.54217460173E+02  0.72276888076E+03  0.73872005461E+03  0.12509767706E+03 0.  0.
         23    2    1    2    0    0  0.68727740380E+02  0.54217460173E+02  0.53481615527E+03  0.54949419697E+03  0.90843366737E+02 0.  0.
          5    1    3    3  502    0 -0.42764643389E+02 -0.56404228110E+02  0.15624047649E+03  0.17157741858E+03  0.41800000000E+01 0.  1.
         -5    1    3    3    0  502 -0.25963096991E+02  0.21867679374E+01  0.56652840427E+03  0.56714263603E+03  0.41800000000E+01 0.  1.
        -11    1    4    4    0    0 -0.84551925789E+01  0.91227437554E+01  0.72266121944E+01  0.14385362664E+02  0.00000000000E+00 0.  1.
         11    1    4    4    0    0  0.77182932959E+02  0.45094716417E+02  0.52758954308E+03  0.53510883431E+03  0.00000000000E+00 0. -1.
</event>
<event>
 8    1  0.3528896E-009  0.1229026E+03  0.7561462E-02  0.1238384E+00
         -4   -1    0    0    0  501 -0.00000000000E+00  0.00000000000E+00  0.46261334067E+03  0.46261334067E+03  0.00000000000E+00 0.  1.
          4   -1    0    0  501    0  0.00000000000E+00 -0.00000000000E+00 -0.49833249636E+02  0.49833249636E+02  0.00000000000E+00 0. -1.
         25    2    1    2    0    0  0.10135846095E+03  0.14939278668E+02  0.27235893032E+03  0.31673990762E+03  0.12509221598E+03 0.  0.
         23    2    1    2    0    0 -0.10135846095E+03 -0.14939278668E+02  0.14042116072E+03  0.19570668269E+03  0.89923765597E+02 0.  0.
          5    1    3    3  502    0  0.86998638771E+02 -0.12858005127E+02  0.27122193587E+03  0.28515417293E+03  0.41800000000E+01 0.  1.
         -5    1    3    3    0  502  0.14359822181E+02  0.27797283796E+02  0.11369944536E+01  0.31585734689E+02  0.41800000000E+01 0.  1.
        -11    1    4    4    0    0 -0.15482546891E+01  0.20292145060E+02  0.58268278285E+02  0.61720016996E+02  0.00000000000E+00 0.  1.
         11    1    4    4    0    0 -0.99810206263E+02 -0.35231423728E+02  0.82152882433E+02  0.13398666570E+03  0.00000000000E+00 0. -1.
</event>
<event>
 8    1  0.3528896E-009  0.1014349E+03  0.7561462E-02  0.1277307E+00
         -2   -1    0    0    0  501 -0.00000000000E+00  0.00000000000E+00  0.35468970488E+03  0.35468970488E+03  0.00000000000E+00 0.  1.
          2   -1    0    0  501    0  0.00000000000E+00 -0.00000000000E+00 -0.37089380444E+02  0.37089380444E+02  0.00000000000E+00 0. -1.
         25    2    1    2    0    0  0.63304555552E+01 -0.12048881182E+02  0.12215769696E+03  0.17537232873E+03  0.12509076926E+03 0.  0.
         23    2    1    2    0    0 -0.63304555552E+01  0.12048881182E+02  0.19544262748E+03  0.21640675659E+03  0.91917427394E+02 0.  0.
          5    1    3    3  502    0  0.69809922759E+01 -0.66331935671E+02  0.90130663396E+02  0.11220369347E+03  0.41800000000E+01 0.  1.
         -5    1    3    3    0  502 -0.65053672070E+00  0.54283054489E+02  0.32027033565E+02  0.63168635268E+02  0.41800000000E+01 0.  1.
        -11    1    4    4    0    0 -0.39487346159E+02 -0.11261995359E+02  0.14998268687E+03  0.15550205596E+03  0.00000000000E+00 0.  1.
         11    1    4    4    0    0  0.33156890603E+02  0.23310876541E+02  0.45459940607E+02  0.60904700637E+02  0.00000000000E+00 0. -1.
</event>
<event>
 8    1  0.3528896E-009  0.1193711E+03  0.7561462E-02  0.1244138E+00
          1   -1    0    0  501    0  0.00000000000E+00  0.00000000000E+00  0.12764878411E+03  0.12764878411E+03  0.00000000000E+00 0. -1.
         -1   -1    0    0    0  501 -0.00000000000E+00 -0.00000000000E+00 -0.16776628465E+03  0.16776628465E+03  0.00000000000E+00 0.  1.
         25    2    1    2    0    0 -0.93280047475E+02  0.27317657131E+02 -0.82080765987E+01  0.15862982318E+03  0.12509447084E+03 0.  0.
         23    2    1    2    0    0  0.93280047475E+02 -0.27317657131E+02 -0.31909423940E+02  0.13678524558E+03  0.90799616871E+02 0.  0.
          5    1    3    3  502    0 -0.86025014198E+02  0.40113028788E+01 -0.57383968208E+02  0.10357019758E+03  0.41800000000E+01 0.  1.
         -5    1    3    3    0  502 -0.72550332772E+01  0.23306354253E+02  0.49175891610E+02  0.55059625607E+02  0.41800000000E+01 0.  1.
        -11    1    4    4    0    0  0.10897943438E+03 -0.21966706169E+02 -0.40233125073E+02  0.11822756722E+03  0.00000000000E+00 0. -1.
         11    1    4    4    0    0 -0.15699386907E+02 -0.53509509620E+01  0.83237011324E+01  0.18557678357E+02  0.00000000000E+00 0.  1.
</event>
<event>
 8    1  0.3528896E-009  0.9348662E+02  0.7561462E-02  0.1294621E+00
          2   -1    0    0  501    0  0.00000000000E+00  0.00000000000E+00  0.79168307362E+02  0.79168307362E+02  0.00000000000E+00 0. -1.
         -2   -1    0    0    0  501 -0.00000000000E+00 -0.00000000000E+00 -0.19593493954E+03  0.19593493954E+03  0.00000000000E+00 0.  1.
         25    2    1    2    0    0  0.60215604764E+02  0.96054868249E+01 -0.61022674934E+02  0.15195076673E+03  0.12508830568E+03 0.  0.
         23    2    1    2    0    0 -0.60215604764E+02 -0.96054868249E+01 -0.55743957240E+02  0.12315248017E+03  0.91328857263E+02 0.  0.
          5    1    3    3  502    0  0.45697991918E+02 -0.19090446957E+02  0.28111351515E+02  0.57100543906E+02  0.41800000000E+01 0. -1.
         -5    1    3    3    0  502  0.14517612846E+02  0.28695933782E+02 -0.89134026449E+02  0.94850222822E+02  0.41800000000E+01 0. -1.
        -11    1    4    4    0    0  0.14256342934E+02  0.20118345885E+02 -0.30220925347E+02  0.39003788071E+02  0.00000000000E+00 0. -1.
         11    1    4    4    0    0 -0.74471947698E+02 -0.29723832710E+02 -0.25523031893E+02  0.84148692099E+02  0.00000000000E+00 0.  1.
</event>
<event>
 8    1  0.3528896E-009  0.1019366E+03  0.7561462E-02  0.1276275E+00
         -1   -1    0    0    0  501 -0.00000000000E+00  0.00000000000E+00  0.27751959813E+03  0.27751959813E+03  0.00000000000E+00 0.  1.
          1   -1    0    0  501    0  0.00000000000E+00 -0.00000000000E+00 -0.69149121260E+02  0.69149121260E+02  0.00000000000E+00 0. -1.
         25    2    1    2    0    0 -0.53464004795E+01  0.67638449902E+02  0.48599332006E+02  0.15037584941E+03  0.12508979619E+03 0.  0.
         23    2    1    2    0    0  0.53464004795E+01 -0.67638449902E+02  0.15977114486E+03  0.19629286998E+03  0.91654395268E+02 0.  0.
          5    1    3    3  502    0  0.50256503496E+02  0.91167380345E+01 -0.77644764487E+01  0.51832331132E+02  0.41800000000E+01 0.  1.
         -5    1    3    3    0  502 -0.55602903976E+02  0.58521711867E+02  0.56363808455E+02  0.98543518275E+02  0.41800000000E+01 0.  1.
        -11    1    4    4    0    0  0.14639129729E+02 -0.45007413081E+02  0.15263141141E+02  0.49728611774E+02  0.00000000000E+00 0. -1.
         11    1    4    4    0    0 -0.92927292492E+01 -0.22631036820E+02  0.14450800372E+03  0.14656425821E+03  0.00000000000E+00 0.  1.
</event>
<event>
 8    1  0.3528896E-009  0.1480453E+03  0.7561462E-02  0.1202896E+00
          1   -1    0    0  501    0  0.00000000000E+00  0.00000000000E+00  0.71561405334E+02  0.71561405334E+02  0.00000000000E+00 0. -1.
         -1   -1    0    0    0  501 -0.00000000000E+00 -0.00000000000E+00 -0.36397460596E+03  0.36397460596E+03  0.00000000000E+00 0.  1.
         25    2    1    2    0    0  0.76782307652E+02 -0.90765653065E+02 -0.16369075472E+03  0.23785678289E+03  0.12508900609E+03 0.  0.
         23    2    1    2    0    0 -0.76782307652E+02  0.90765653065E+02 -0.12872244591E+03  0.19767922840E+03  0.91507828711E+02 0.  0.
          5    1    3    3  502    0 -0.27659020961E+02  0.33139822692E+01 -0.48440234333E+02  0.56035101689E+02  0.41800000000E+01 0. -1.
         -5    1    3    3    0  502  0.10444132861E+03 -0.94079635334E+02 -0.11525052039E+03  0.18182168121E+03  0.41800000000E+01 0. -1.
        -11    1    4    4    0    0 -0.94495041714E+00  0.30264795995E+02  0.67788887790E+01  0.31029085404E+02  0.00000000000E+00 0. -1.
         11    1    4    4    0    0 -0.75837357235E+02  0.60500857070E+02 -0.13550133469E+03  0.16665014300E+03  0.00000000000E+00 0.  1.
</event>
<event>
 8    1  0.3528896E-009  0.1879525E+03  0.7561462E-02  0.1160321E+00
         -2   -1    0    0    0  501 -0.00000000000E+00  0.00000000000E+00  0.10577550803E+03  0.10577550803E+03  0.00000000000E+00 0.  1.
          2   -1    0    0  501    0  0.00000000000E+00 -0.00000000000E+00 -0.56388865963E+03  0.56388865963E+03  0.00000000000E+00 0. -1.
         25    2    1    2    0    0  0.15737646414E+03  0.84021740449E+02 -0.41221056518E+03  0.46625420721E+03  0.12509369032E+03 0.  0.
         23    2    1    2    0    0 -0.15737646414E+03 -0.84021740449E+02 -0.45902586420E+02  0.20340996046E+03  0.86264478433E+02 0.  0.
          5    1    3    3  502    0  0.62057705733E+02  0.68117636061E+02 -0.86393023821E+02  0.12638195341E+03  0.41800000000E+01 0.  1.
         -5    1    3    3    0  502  0.95318758408E+02  0.15904104388E+02 -0.32581754136E+03  0.33987225379E+03  0.41800000000E+01 0.  1.
        -11    1    4    4    0    0 -0.10268119100E+03 -0.23451661234E+02 -0.59047014141E+02  0.12074749388E+03  0.00000000000E+00 0.  1.
         11    1    4    4    0    0 -0.54695273142E+02 -0.60570079215E+02  0.13144427722E+02  0.82662466575E+02  0.00000000000E+00 0. -1.
</event>
<event>
 8    1  0.3528896E-009  0.1284940E+03  0.7561462E-02  0.1229708E+00
         -2   -1    0    0    0  501 -0.00000000000E+00  0.00000000000E+00  0.12970366262E+02  0.12970366262E+02  0.00000000000E+00 0.  1.
          2   -1    0    0  501    0  0.00000000000E+00 -0.00000000000E+00 -0.22359827117E+04  0.22359827117E+04  0.00000000000E+00 0. -1.
         25    2    1    2    0    0 -0.93871368973E+02 -0.62996125090E+02 -0.16183724998E+04  0.16271313867E+04  0.12508659346E+03 0.  0.
         23    2    1    2    0    0  0.93871368973E+02  0.62996125090E+02 -0.60463984569E+03  0.62182169129E+03  0.91063313547E+02 0.  0.
          5    1    3    3  502    0 -0.56891878036E+02 -0.21253383359E+02 -0.14121277966E+04  0.14134393438E+04  0.41800000000E+01 0.  1.
         -5    1    3    3    0  502 -0.36979490937E+02 -0.41742741731E+02 -0.20624470312E+03  0.21369204291E+03  0.41800000000E+01 0.  1.
        -11    1    4    4    0    0  0.10777516842E+03  0.43454424458E+02 -0.55012569687E+03  0.56226511210E+03  0.00000000000E+00 0. -1.
         11    1    4    4    0    0 -0.13903799451E+02  0.19541700632E+02 -0.54514148824E+02  0.59556579190E+02  0.00000000000E+00 0.  1.
</event>
<event>
 8    1  0.3528896E-009  0.1107529E+03  0.7561462E-02  0.1259182E+00
         -2   -1    0    0    0  501 -0.00000000000E+00  0.00000000000E+00  0.38100482404E+02  0.38100482404E+02  0.00000000000E+00 0.  1.
          2   -1    0    0  501    0  0.00000000000E+00 -0.00000000000E+00 -0.48010604092E+03  0.48010604092E+03  0.00000000000E+00 0. -1.
         25    2    1    2    0    0 -0.19280163019E+02 -0.25312783860E+02 -0.38350716409E+03  0.40464485846E+03  0.12508898775E+03 0.  0.
         23    2    1    2    0    0  0.19280163019E+02  0.25312783860E+02 -0.58498394422E+02  0.11356166486E+03  0.91987650600E+02 0.  0.
          5    1    3    3  502    0  0.53288520177E+02 -0.14012020004E+02 -0.15210281815E+03  0.16182936315E+03  0.41800000000E+01 0.  1.
         -5    1    3    3    0  502 -0.72568683196E+02 -0.11300763857E+02 -0.23140434594E+03  0.24281549531E+03  0.41800000000E+01 0.  1.
        -11    1    4    4    0    0  0.40618466726E+02  0.47095854500E+02 -0.54714950761E+02  0.82834806616E+02  0.00000000000E+00 0.  1.
         11    1    4    4    0    0 -0.21338303707E+02 -0.21783070640E+02 -0.37834436612E+01  0.30726858244E+02  0.00000000000E+00 0. -1.
</event>
<event>
 8    1  0.3528896E-009  0.6848975E+02  0.7561462E-02  0.1365305E+00
          1   -1    0    0  501    0  0.00000000000E+00  0.00000000000E+00  0.50811824907E+02  0.50811824907E+02  0.00000000000E+00 0. -1.
         -1   -1    0    0    0  501 -0.00000000000E+00 -0.00000000000E+00 -0.25243977117E+03  0.25243977117E+03  0.00000000000E+00 0.  1.
         25    2    1    2    0    0 -0.94252253825E+01 -0.19103445076E+01 -0.70846459844E+02  0.14408251242E+03  0.12509222686E+03 0.  0.
         23    2    1    2    0    0  0.94252253825E+01  0.19103445076E+01 -0.13078148642E+03  0.15916908366E+03  0.90213722424E+02 0.  0.
          5    1    3    3  502    0 -0.25606736625E+02 -0.29951222766E+02 -0.95356002725E+02  0.10326190179E+03  0.41800000000E+01 0. -1.
         -5    1    3    3    0  502  0.16181511243E+02  0.28040878258E+02  0.24509542881E+02  0.40820610625E+02  0.41800000000E+01 0. -1.
        -11    1    4    4    0    0 -0.23648297821E+02  0.16216617407E+02 -0.11720446341E+03  0.12066112429E+03  0.00000000000E+00 0.  1.
         11    1    4    4    0    0  0.33073523203E+02 -0.14306272900E+02 -0.13577023003E+02  0.38507959372E+02  0.00000000000E+00 0. -1.
</event>
<event>
 8    1  0.3528896E-009  0.2072469E+03  0.7561462E-02  0.1143765E+00
         -1   -1    0    0    0  501 -0.00000000000E+00  0.00000000000E+00  0.38999886232E+03  0.38999886232E+03  0.00000000000E+00 0.  1.
          1   -1    0    0  501    0  0.00000000000E+00 -0.00000000000E+00 -0.13711389778E+03  0.13711389778E+03  0.00000000000E+00 0. -1.
         25    2    1    2    0    0 -0.39731723225E+02  0.17505571266E+03  0.24018942488E+03  0.32490325158E+03  0.12509216880E+03 0.  0.
         23    2    1    2    0    0  0.39731723225E+02 -0.17505571266E+03  0.12695539656E+02  0.20220950852E+03  0.92219283463E+02 0.  0.
          5    1    3    3  502    0 -0.24896781354E+02  0.18986776631E+03  0.23450026502E+03  0.30278286791E+03  0.41800000000E+01 0.  1.
         -5    1    3    3    0  502 -0.14834941871E+02 -0.14812053651E+02  0.56891598655E+01  0.22120383669E+02  0.41800000000E+01 0.  1.
        -11    1    4    4    0    0 -0.80980972676E+01 -0.14470621567E+03  0.13478011790E+02  0.14555797757E+03  0.00000000000E+00 0.  1.
         11    1    4    4    0    0  0.47829820493E+02 -0.30349496991E+02 -0.78247213399E+00  0.56651530947E+02  0.00000000000E+00 0. -1.
</event>
<event>
 8    1  0.3528896E-009  0.6321366E+02  0.7561462E-02  0.1384820E+00
          1   -1    0    0  501    0  0.00000000000E+00  0.00000000000E+00  0.21547765736E+02  0.21547765736E+02  0.00000000000E+00 0. -1.
         -1   -1    0    0    0  501 -0.00000000000E+00 -0.00000000000E+00 -0.66735084424E+03  0.66735084424E+03  0.00000000000E+00 0.  1.
         25    2    1    2    0    0  0.47406351717E+01 -0.11212867435E+02 -0.50337930360E+03  0.51883104714E+03  0.12508689046E+03 0.  0.
         23    2    1    2    0    0 -0.47406351717E+01  0.11212867435E+02 -0.14242377491E+03  0.17006756284E+03  0.92142510568E+02 0.  0.
          5    1    3    3  502    0 -0.28557840210E+02  0.10571195966E+02 -0.27411290166E+02  0.41184361718E+02  0.41800000000E+01 0. -1.
         -5    1    3    3    0  502  0.33298475381E+02 -0.21784063401E+02 -0.47596801343E+03  0.47764668542E+03  0.41800000000E+01 0. -1.
        -11    1    4    4    0    0  0.23842209765E+02  0.12785479545E+02 -0.24141774545E+01  0.27161511490E+02  0.00000000000E+00 0. -1.
         11    1    4    4    0    0 -0.28582844936E+02 -0.15726121103E+01 -0.14000959746E+03  0.14290605135E+03  0.00000000000E+00 0.  1.
</event>
<event>
 8    1  0.3528896E-009  0.1036424E+03  0.7561462E-02  0.1272818E+00
         -1   -1    0    0    0  501 -0.00000000000E+00  0.00000000000E+00  0.19059080550E+03  0.19059080550E+03  0.00000000000E+00 0.  1.
          1   -1    0    0  501    0  0.00000000000E+00 -0.00000000000E+00 -0.98285776344E+02  0.98285776344E+02  0.00000000000E+00 0. -1.
         25    2    1    2    0    0  0.40229251081E+00  0.77224494836E+02  0.79714711432E+02  0.16723176285E+03  0.12509293683E+03 0.  0.
         23    2    1    2    0    0 -0.40229251081E+00 -0.77224494836E+02  0.12590317722E+02  0.12164481899E+03  0.93140546732E+02 0.  0.
          5    1    3    3  502    0  0.43920919207E+02  0.71310275753E+02  0.88857248289E+02  0.12217727099E+03  0.41800000000E+01 0. -1.
         -5    1    3    3    0  502 -0.43518626696E+02  0.59142190829E+01 -0.91425368576E+01  0.45054491864E+02  0.41800000000E+01 0. -1.
        -11    1    4    4    0    0  0.73460794959E+01 -0.59716738699E+02  0.50905410623E+02  0.78812528163E+02  0.00000000000E+00 0.  1.
         11    1    4    4    0    0 -0.77483720067E+01 -0.17507756137E+02 -0.38315092901E+02  0.42832290829E+02  0.00000000000E+00 0. -1.
</event>
<event>
 8    1  0.3528896E-009  0.1416616E+03  0.7561462E-02  0.1211110E+00
         -2   -1    0    0    0  501 -0.00000000000E+00  0.00000000000E+00  0.31023735882E+03  0.31023735882E+03  0.00000000000E+00 0.  1.
          2   -1    0    0  501    0  0.00000000000E+00 -0.00000000000E+00 -0.86279676274E+02  0.86279676274E+02  0.00000000000E+00 0. -1.
         25    2    1    2    0    0 -0.99467097885E+02 -0.69295316891E+02  0.13439249511E+03  0.22001213613E+03  0.12509377601E+03 0.  0.
         23    2    1    2    0    0  0.99467097885E+02  0.69295316891E+02  0.89565187431E+02  0.17650489896E+03  0.91850487497E+02 0.  0.
          5    1    3    3  502    0 -0.37406031059E+02  0.27793511132E+02  0.79641039937E+02  0.92368057590E+02  0.41800000000E+01 0. -1.
         -5    1    3    3    0  502 -0.62061066825E+02 -0.97088828024E+02  0.54751455178E+02  0.12764407854E+03  0.41800000000E+01 0. -1.
        -11    1    4    4    0    0  0.52279594136E+02  0.35792238797E+02 -0.71884944067E+01  0.63764525976E+02  0.00000000000E+00 0. -1.
         11    1    4    4    0    0  0.47187503748E+02  0.33503078095E+02  0.96753681838E+02  0.11274037299E+03  0.00000000000E+00 0.  1.
</event>
<event>
 8    1  0.3528896E-009  0.1125997E+03  0.7561462E-02  0.1255830E+00
          2   -1    0    0  501    0  0.00000000000E+00  0.00000000000E+00  0.28921047882E+03  0.28921047882E+03  0.00000000000E+00 0. -1.
         -2   -1    0    0    0  501 -0.00000000000E+00 -0.00000000000E+00 -0.50796579675E+02  0.50796579675E+02  0.00000000000E+00 0.  1.
         25    2    1    2    0    0  0.49684996800E+02 -0.67273416752E+01  0.10620577074E+03  0.17158554365E+03  0.12509227401E+03 0.  0.
         23    2    1    2    0    0 -0.49684996800E+02  0.67273416752E+01  0.13220812840E+03  0.16842151485E+03  0.91503887434E+02 0.  0.
          5    1    3    3  502    0  0.51072617554E+02  0.51432400166E+02  0.78780324155E+02  0.10713316912E+03  0.41800000000E+01 0.  1.
         -5    1    3    3    0  502 -0.13876207536E+01 -0.58159741841E+02  0.27425446589E+02  0.64452374533E+02  0.41800000000E+01 0.  1.
        -11    1    4    4    0    0  0.20428209959E+02  0.12451450202E+02  0.72076627889E+01  0.24986011629E+02  0.00000000000E+00 0.  1.
         11    1    4    4    0    0 -0.70113206759E+02 -0.57241085269E+01  0.12500046561E+03  0.14343550322E+03  0.00000000000E+00 0. -1.
</event>
<event>
 8    1  0.3528896E-009  0.1182412E+03  0.7561462E-02  0.1246027E+00
         -2   -1    0    0    0  501 -0.00000000000E+00  0.00000000000E+00  0.49962663125E+03  0.49962663125E+03  0.00000000000E+00 0.  1.
          2   -1    0    0  501    0  0.00000000000E+00 -0.00000000000E+00 -0.28370224175E+02  0.28370224175E+02  0.00000000000E+00 0. -1.
         25    2    1    2    0    0 -0.42553421125E+02  0.34252870320E+02  0.26162955988E+03  0.29509628494E+03  0.12509091896E+03 0.  0.
         23    2    1    2    0    0  0.42553421125E+02 -0.34252870320E+02  0.20962684719E+03  0.23290057048E+03  0.85528988618E+02 0.  0.
          5    1    3    3  502    0 -0.82366136466E+02 -0.11781615164E+00  0.17857472558E+03  0.19669926114E+03  0.41800000000E+01 0. -1.
         -5    1    3    3    0  502  0.39812715341E+02  0.34370686472E+02  0.83054834299E+02  0.98397023795E+02  0.41800000000E+01 0. -1.
        -11    1    4    4    0    0  0.17912193020E+02  0.28594942670E+02  0.62515025221E+02  0.71039747913E+02  0.00000000000E+00 0. -1.
         11    1    4    4    0    0  0.24641228105E+02 -0.62847812991E+02  0.14711182197E+03  0.16186082257E+03  0.00000000000E+00 0.  1.
</event>
<event>
 8    1  0.3528896E-009  0.1527778E+03  0.7561462E-02  0.1197101E+00
          2   -1    0    0  501    0  0.00000000000E+00  0.00000000000E+00  0.29840268444E+03  0.29840268444E+03  0.00000000000E+00 0. -1.
         -2   -1    0    0    0  501 -0.00000000000E+00 -0.00000000000E+00 -0.10520865474E+03  0.10520865474E+03  0.00000000000E+00 0.  1.
         25    2    1    2    0    0  0.11430388378E+03  0.55425423908E+02  0.15013694902E+03  0.23307591029E+03  0.12508365614E+03 0.  0.
         23    2    1    2    0    0 -0.11430388378E+03 -0.55425423908E+02  0.43057080676E+02  0.17053542889E+03  0.10531412464E+03 0.  0.
          5    1    3    3  502    0  0.50780233713E+02 -0.39157810383E+02  0.53199543820E+02  0.83424397586E+02  0.41800000000E+01 0. -1.
         -5    1    3    3    0  502  0.63523650066E+02  0.94583234290E+02  0.96937405202E+02  0.14965151270E+03  0.41800000000E+01 0. -1.
        -11    1    4    4    0    0 -0.53604520632E+02 -0.30421984513E+02 -0.33123090168E+02  0.69972000658E+02  0.00000000000E+00 0.  1.
         11    1    4    4    0    0 -0.60699363147E+02 -0.25003439395E+02  0.76180170844E+02  0.10056342823E+03  0.00000000000E+00 0. -1.
</event>
<event>
 8    1  0.3528896E-009  0.3785074E+03  0.7561462E-02  0.1051487E+00
          2   -1    0    0  501    0  0.00000000000E+00  0.00000000000E+00  0.20808503266E+04  0.20808503266E+04  0.00000000000E+00 0. -1.
         -2   -1    0    0    0  501 -0.00000000000E+00 -0.00000000000E+00 -0.73704934965E+02  0.73704934965E+02  0.00000000000E+00 0.  1.
         25    2    1    2    0    0  0.16085412446E+03  0.33521525836E+03  0.11523445957E+04  0.12172882940E+04  0.12509758102E+03 0.  0.
         23    2    1    2    0    0 -0.16085412446E+03 -0.33521525836E+03  0.85480079599E+03  0.93726696758E+03  0.97681364094E+02 0.  0.
          5    1    3    3  502    0  0.88991874804E+01  0.86580907959E+02  0.42291162953E+03  0.43179528478E+03  0.41800000000E+01 0. -1.
         -5    1    3    3    0  502  0.15195493698E+03  0.24863435040E+03  0.72943296615E+03  0.78549300925E+03  0.41800000000E+01 0. -1.
        -11    1    4    4    0    0 -0.10330879927E+03 -0.28101875820E+03  0.73601091383E+03  0.79457933257E+03  0.00000000000E+00 0.  1.
         11    1    4    4    0    0 -0.57545325188E+02 -0.54196500168E+02  0.11878988216E+03  0.14268763501E+03  0.00000000000E+00 0. -1.
</event>
<event>
 8    1  0.3528896E-009  0.1135646E+03  0.7561462E-02  0.1254108E+00
         -2   -1    0    0    0  501 -0.00000000000E+00  0.00000000000E+00  0.52905857303E+02  0.52905857303E+02  0.00000000000E+00 0.  1.
          2   -1    0    0  501    0  0.00000000000E+00 -0.00000000000E+00 -0.25987853822E+03  0.25987853822E+03  0.00000000000E+00 0. -1.
         25    2    1    2    0    0  0.22580341503E+02  0.27332047235E+02 -0.82363599317E+02  0.15391156839E+03  0.12509234894E+03 0.  0.
         23    2    1    2    0    0 -0.22580341503E+02 -0.27332047235E+02 -0.12460908160E+03  0.15887282713E+03  0.91957812909E+02 0.  0.
          5    1    3    3  502    0  0.69516874686E+02  0.39306541585E+02 -0.39955253437E+02  0.89395160690E+02  0.41800000000E+01 0.  1.
         -5    1    3    3    0  502 -0.46936533183E+02 -0.11974494350E+02 -0.42408345880E+02  0.64516407700E+02  0.41800000000E+01 0.  1.
        -11    1    4    4    0    0 -0.49032515324E+01  0.34184400593E+02 -0.42345593314E+02  0.54642148499E+02  0.00000000000E+00 0. -1.
         11    1    4    4    0    0 -0.17677089971E+02 -0.61516447828E+02 -0.82263488282E+02  0.10423067863E+03  0.00000000000E+00 0.  1.
</event>
<event>
 8    1  0.3528896E-009  0.9540973E+02  0.7561462E-02  0.1290256E+00
         -2   -1    0    0    0  501 -0.00000000000E+00  0.00000000000E+00  0.44426076634E+02  0.44426076634E+02  0.00000000000E+00 0.  1.
          2   -1    0    0  501    0  0.00000000000E+00 -0.00000000000E+00 -0.29451134433E+03  0.29451134433E+03  0.00000000000E+00 0. -1.
         25    2    1    2    0    0  0.10806766214E+02 -0.40296262457E+01 -0.19657551703E+03  0.23328603777E+03  0.12508963761E+03 0.  0.
         23    2    1    2    0    0 -0.10806766214E+02  0.40296262457E+01 -0.53509750662E+02  0.10565138319E+03  0.90365354371E+02 0.  0.
          5    1    3    3  502    0 -0.43405279349E+02 -0.19049033948E+02 -0.15784178406E+03  0.16485868241E+03  0.41800000000E+01 0. -1.
         -5    1    3    3    0  502  0.54212045563E+02  0.15019407703E+02 -0.38733732968E+02  0.68427355359E+02  0.41800000000E+01 0. -1.
        -11    1    4    4    0    0 -0.47264000556E+02 -0.89925062750E+01 -0.45290061598E+02  0.66075264640E+02  0.00000000000E+00 0. -1.
         11    1    4    4    0    0  0.36457234343E+02  0.13022132521E+02 -0.82196890639E+01  0.39576118551E+02  0.00000000000E+00 0.  1.
</event>
<event>
 8    1  0.3528896E-009  0.1133739E+03  0.7561462E-02  0.1254447E+00
         -1   -1    0    0    0  501 -0.00000000000E+00  0.00000000000E+00  0.11805084804E+02  0.11805084804E+02  0.00000000000E+00 0.  1.
          1   -1    0    0  501    0  0.00000000000E+00 -0.00000000000E+00 -0.11804126046E+04  0.11804126046E+04  0.00000000000E+00 0. -1.
         25    2    1    2    0    0 -0.92228382768E+01 -0.41296940319E+02 -0.73452993146E+03  0.74630573046E+03  0.12509006792E+03 0.  0.
         23    2    1    2    0    0  0.92228382768E+01  0.41296940319E+02 -0.43407758837E+03  0.44591195897E+03  0.92863471842E+02 0.  0.
          5    1    3    3  502    0  0.42853895458E+02 -0.59411267900E+02 -0.49940407533E+03  0.50476534941E+03  0.41800000000E+01 0.  1.
         -5    1    3    3    0  502 -0.52076733735E+02  0.18114327581E+02 -0.23512585613E+03  0.24154038106E+03  0.41800000000E+01 0.  1.
        -11    1    4    4    0    0  0.19468703032E+02 -0.24610482546E+02 -0.87064593063E+02  0.92547012994E+02  0.00000000000E+00 0.  1.
         11    1    4    4    0    0 -0.10245864755E+02  0.65907422865E+02 -0.34701299531E+03  0.35336494598E+03  0.00000000000E+00 0. -1.
</event>
<event>
 8    1  0.3528896E-009  0.1076404E+03  0.7561462E-02  0.1265003E+00
          1   -1    0    0  501    0  0.00000000000E+00  0.00000000000E+00  0.99169833132E+03  0.99169833132E+03  0.00000000000E+00 0. -1.
         -1   -1    0    0    0  501 -0.00000000000E+00 -0.00000000000E+00 -0.13344998005E+02  0.13344998005E+02  0.00000000000E+00 0.  1.
         25    2    1    2    0    0 -0.33973032422E+02  0.12860595759E+02  0.56773658213E+03  0.58248737030E+03  0.12508856070E+03 0.  0.
         23    2    1    2    0    0  0.33973032422E+02 -0.12860595759E+02  0.41061675119E+03  0.42255595903E+03  0.92886276148E+02 0.  0.
          5    1    3    3  502    0  0.58829896040E+01  0.56570371293E+02  0.14843647144E+03  0.15901470035E+03  0.41800000000E+01 0.  1.
         -5    1    3    3    0  502 -0.39856022026E+02 -0.43709775533E+02  0.41930011069E+03  0.42347266995E+03  0.41800000000E+01 0.  1.
        -11    1    4    4    0    0  0.45772345650E+02  0.29847187238E+02  0.25273186322E+03  0.25857176353E+03  0.00000000000E+00 0.  1.
         11    1    4    4    0    0 -0.11799313228E+02 -0.42707782997E+02  0.15788488797E+03  0.16398419549E+03  0.00000000000E+00 0. -1.
</event>
<event>
 8    1  0.3528896E-009  0.1006299E+03  0.7561462E-02  0.1278977E+00
          2   -1    0    0  501    0  0.00000000000E+00  0.00000000000E+00  0.19888541518E+03  0.19888541518E+03  0.00000000000E+00 0. -1.
         -2   -1    0    0    0  501 -0.00000000000E+00 -0.00000000000E+00 -0.95801146337E+02  0.95801146337E+02  0.00000000000E+00 0.  1.
         25    2    1    2    0    0  0.23329130639E+02 -0.35297340157E+02  0.13629755408E+03  0.18977856222E+03  0.12509487948E+03 0.  0.
         23    2    1    2    0    0 -0.23329130639E+02  0.35297340157E+02 -0.33213285237E+02  0.10490799930E+03  0.90068948265E+02 0.  0.
          5    1    3    3  502    0  0.87240119416E+01 -0.82057190081E+02  0.79566593492E+02  0.11470748026E+03  0.41800000000E+01 0.  1.
         -5    1    3    3    0  502  0.14605118698E+02  0.46759849924E+02  0.56730960588E+02  0.75071081958E+02  0.41800000000E+01 0.  1.
        -11    1    4    4    0    0 -0.35365383867E+02  0.42618268574E+02  0.12753992108E+02  0.56830374863E+02  0.00000000000E+00 0. -1.
         11    1    4    4    0    0  0.12036253228E+02 -0.73209284169E+01 -0.45967277345E+02  0.48077624434E+02  0.00000000000E+00 0.  1.
</event>
<event>
 8    1  0.3528896E-009  0.2133453E+03  0.7561462E-02  0.1138944E+00
         -1   -1    0    0    0  501 -0.00000000000E+00  0.00000000000E+00  0.19267572241E+03  0.19267572241E+03  0.00000000000E+00 0.  1.
          1   -1    0    0  501    0  0.00000000000E+00 -0.00000000000E+00 -0.32597370641E+03  0.32597370641E+03  0.00000000000E+00 0. -1.
         25    2    1    2    0    0  0.92690590211E+02 -0.17977339194E+03 -0.17044792505E+03  0.29260674680E+03  0.12512471840E+03 0.  0.
         23    2    1    2    0    0 -0.92690590211E+02  0.17977339194E+03  0.37149941054E+02  0.22604268202E+03  0.93835803445E+02 0.  0.
          5    1    3    3  502    0  0.44900437134E+02 -0.11770384342E+03 -0.26695504880E+02  0.12884240914E+03  0.41800000000E+01 0. -1.
         -5    1    3    3    0  502  0.47790153076E+02 -0.62069548519E+02 -0.14375242017E+03  0.16376433766E+03  0.41800000000E+01 0. -1.
        -11    1    4    4    0    0 -0.58461777755E+01  0.11169756923E+03  0.93006611432E+01  0.11223647832E+03  0.00000000000E+00 0.  1.
         11    1    4    4    0    0 -0.86844412435E+02  0.68075822709E+02  0.27849279911E+02  0.11380620370E+03  0.00000000000E+00 0. -1.
</event>
<event>
 8    1  0.3528896E-009  0.7179856E+02  0.7561462E-02  0.1354082E+00
         -2   -1    0    0    0  501 -0.00000000000E+00  0.00000000000E+00  0.90683207085E+02  0.90683207085E+02  0.00000000000E+00 0.  1.
          2   -1    0    0  501    0  0.00000000000E+00 -0.00000000000E+00 -0.46261071182E+03  0.46261071182E+03  0.00000000000E+00 0. -1.
         25    2    1    2    0    0 -0.44816622460E+02  0.11677169001E+02 -0.42052417815E+03  0.44116655781E+03  0.12506982609E+03 0.  0.
         23    2    1    2    0    0  0.44816622460E+02 -0.11677169001E+02  0.48596673410E+02  0.11212736110E+03  0.89811037827E+02 0.  0.
          5    1    3    3  502    0  0.23561618247E+02  0.11701393830E+02 -0.16408692263E+02  0.31285620559E+02  0.41800000000E+01 0.  1.
         -5    1    3    3    0  502 -0.68378240707E+02 -0.24224828920E-01 -0.40411548588E+03  0.40988093725E+03  0.41800000000E+01 0.  1.
        -11    1    4    4    0    0  0.23616341970E+02  0.12042750888E+01  0.73359299230E+02  0.77076382051E+02  0.00000000000E+00 0.  1.
         11    1    4    4    0    0  0.21200280489E+02 -0.12881444090E+02 -0.24762625820E+02  0.35050979047E+02  0.00000000000E+00 0. -1.
</event>
<event>
 8    1  0.3528896E-009  0.9191346E+02  0.7561462E-02  0.1298283E+00
          1   -1    0    0  501    0  0.00000000000E+00  0.00000000000E+00  0.28992845793E+03  0.28992845793E+03  0.00000000000E+00 0. -1.
         -1   -1    0    0    0  501 -0.00000000000E+00 -0.00000000000E+00 -0.55558091276E+02  0.55558091276E+02  0.00000000000E+00 0.  1.
         25    2    1    2    0    0 -0.55170124059E+02 -0.33702423862E+02  0.13120646974E+03  0.19246561774E+03  0.12509308672E+03 0.  0.
         23    2    1    2    0    0  0.55170124059E+02  0.33702423862E+02  0.10316389691E+03  0.15302093147E+03  0.92698543026E+02 0.  0.
          5    1    3    3  502    0 -0.22005720637E+02 -0.31147035971E+02 -0.15942974173E+02  0.41545642563E+02  0.41800000000E+01 0. -1.
         -5    1    3    3    0  502 -0.33164403423E+02 -0.25553878917E+01  0.14714944391E+03  0.15091997517E+03  0.41800000000E+01 0. -1.
        -11    1    4    4    0    0  0.24113607258E+02  0.64096979204E+02  0.52614213811E+02  0.86360548244E+02  0.00000000000E+00 0.  1.
         11    1    4    4    0    0  0.31056516802E+02 -0.30394555342E+02  0.50549683102E+02  0.66660383228E+02  0.00000000000E+00 0. -1.
</event>
<event>
 8    1  0.3528896E-009  0.9852221E+02  0.7561462E-02  0.1283435E+00
         -1   -1    0    0    0  501 -0.00000000000E+00  0.00000000000E+00  0.11221370361E+03  0.11221370361E+03  0.00000000000E+00 0.  1.
          1   -1    0    0  501    0  0.00000000000E+00 -0.00000000000E+00 -0.14616658228E+03  0.14616658228E+03  0.00000000000E+00 0. -1.
         25    2    1    2    0    0 -0.37721757437E+02  0.53389368712E+02 -0.17684335306E+02  0.14224357477E+03  0.12508854134E+03 0.  0.
         23    2    1    2    0    0  0.37721757437E+02 -0.53389368712E+02 -0.16268543367E+02  0.11613671112E+03  0.94602930666E+02 0.  0.
          5    1    3    3  502    0 -0.53502736525E+02  0.82411645406E+02 -0.35404361615E+02  0.10452350614E+03  0.41800000000E+01 0.  1.
         -5    1    3    3    0  502  0.15780979088E+02 -0.29022276695E+02  0.17720026309E+02  0.37720068636E+02  0.41800000000E+01 0.  1.
        -11    1    4    4    0    0  0.23677775340E+02 -0.31834893352E+02 -0.56104781242E+02  0.68715674762E+02  0.00000000000E+00 0. -1.
         11    1    4    4    0    0  0.14043982097E+02 -0.21554475360E+02  0.39836237874E+02  0.47421036357E+02  0.00000000000E+00 0.  1.
</event>
<event>
 8    1  0.3528896E-009  0.1046281E+03  0.7561462E-02  0.1270854E+00
          1   -1    0    0  501    0  0.00000000000E+00  0.00000000000E+00  0.16316662725E+03  0.16316662725E+03  0.00000000000E+00 0. -1.
         -1   -1    0    0    0  501 -0.00000000000E+00 -0.00000000000E+00 -0.14930364820E+03  0.14930364820E+03  0.00000000000E+00 0.  1.
         25    2    1    2    0    0 -0.16615280588E+02  0.16001804885E+02 -0.10309288738E+03  0.16373047421E+03  0.12508956570E+03 0.  0.
         23    2    1    2    0    0  0.16615280588E+02 -0.16001804885E+02  0.11695586643E+03  0.14873980125E+03  0.88953518616E+02 0.  0.
          5    1    3    3  502    0 -0.47417732550E+02  0.53998748836E+02 -0.85059201664E+02  0.11143090426E+03  0.41800000000E+01 0.  1.
         -5    1    3    3    0  502  0.30802451963E+02 -0.37996943951E+02 -0.18033685716E+02  0.52299569951E+02  0.41800000000E+01 0.  1.
        -11    1    4    4    0    0  0.12596573578E+02  0.34908114184E+02  0.70648185898E+02  0.79802357562E+02  0.00000000000E+00 0. -1.
         11    1    4    4    0    0  0.40187070100E+01 -0.50909919069E+02  0.46307680529E+02  0.68937443683E+02  0.00000000000E+00 0.  1.
</event>
<event>
 8    1  0.3528896E-009  0.2765982E+02  0.7561462E-02  0.1625497E+00
         -1   -1    0    0    0  501 -0.00000000000E+00  0.00000000000E+00  0.91069653247E+02  0.91069653247E+02  0.00000000000E+00 0.  1.
          1   -1    0    0  501    0  0.00000000000E+00 -0.00000000000E+00 -0.37203576787E+03  0.37203576787E+03  0.00000000000E+00 0. -1.
         25    2    1    2    0    0 -0.39985445562E+01  0.13852944705E+02 -0.33527339356E+03  0.35813862675E+03  0.12508850908E+03 0.  0.
         23    2    1    2    0    0  0.39985445562E+01 -0.13852944705E+02  0.54307278943E+02  0.10496679437E+03  0.88661462529E+02 0.  0.
          5    1    3    3  502    0 -0.10578485190E+02  0.85493903310E+01  0.69149537285E+01  0.15820411152E+02  0.41800000000E+01 0. -1.
         -5    1    3    3    0  502  0.65799406337E+01  0.53035543739E+01 -0.34218834729E+03  0.34231821560E+03  0.41800000000E+01 0. -1.
        -11    1    4    4    0    0 -0.31409021501E+01 -0.21191841154E+02  0.77078117571E+02  0.79999972538E+02  0.00000000000E+00 0.  1.
         11    1    4    4    0    0  0.71394467063E+01  0.73388964492E+01 -0.22770838628E+02  0.24966821828E+02  0.00000000000E+00 0. -1.
</event>
<event>
 8    1  0.3528896E-009  0.1145654E+03  0.7561462E-02  0.1252342E+00
         -1   -1    0    0    0  501 -0.00000000000E+00  0.00000000000E+00  0.34798841847E+02  0.34798841847E+02  0.00000000000E+00 0.  1.
          1   -1    0    0  501    0  0.00000000000E+00 -0.00000000000E+00 -0.48441446548E+03  0.48441446548E+03  0.00000000000E+00 0. -1.
         25    2    1    2    0    0  0.44716441557E+02 -0.10933989515E+02 -0.14170531667E+03  0.19454311708E+03  0.12509002901E+03 0.  0.
         23    2    1    2    0    0 -0.44716441557E+02  0.10933989515E+02 -0.30791030696E+03  0.32467019025E+03  0.92102459407E+02 0.  0.
          5    1    3    3  502    0  0.28432533469E+02  0.56678805186E+02 -0.64410880760E+02  0.90482760110E+02  0.41800000000E+01 0.  1.
         -5    1    3    3    0  502  0.16283908088E+02 -0.67612794701E+02 -0.77294435909E+02  0.10406035697E+03  0.41800000000E+01 0.  1.
        -11    1    4    4    0    0 -0.20082012092E+02 -0.36954123373E+02 -0.78862070663E+02  0.89376286750E+02  0.00000000000E+00 0.  1.
         11    1    4    4    0    0 -0.24634429465E+02  0.47888112888E+02 -0.22904823630E+03  0.23529390350E+03  0.00000000000E+00 0. -1.
</event>
<event>
 8    1  0.3528896E-009  0.8449285E+02  0.7561462E-02  0.1316764E+00
         -1   -1    0    0    0  501 -0.00000000000E+00  0.00000000000E+00  0.96650335246E+02  0.96650335246E+02  0.00000000000E+00 0. -1.
          1   -1    0    0  501    0  0.00000000000E+00 -0.00000000000E+00 -0.12543575270E+03  0.12543575270E+03  0.00000000000E+00 0.  1.
         25    2    1    2    0    0  0.15147926864E+02  0.18568149063E+02 -0.76244705927E+01  0.12759139749E+03  0.12508875374E+03 0.  0.
         23    2    1    2    0    0 -0.15147926864E+02 -0.18568149063E+02 -0.21160946865E+02  0.94494690460E+02  0.88922578714E+02 0.  0.
          5    1    3    3  502    0  0.60633243365E+02  0.40172425080E+02 -0.20040142398E+02  0.75559867953E+02  0.41800000000E+01 0. -1.
         -5    1    3    3    0  502 -0.45485316501E+02 -0.21604276018E+02  0.12415671805E+02  0.52031529535E+02  0.41800000000E+01 0. -1.
        -11    1    4    4    0    0 -0.29561688074E+01  0.12176165339E+02  0.30602030468E+02  0.33067842463E+02  0.00000000000E+00 0. -1.
         11    1    4    4    0    0 -0.12191758056E+02 -0.30744314402E+02 -0.51762977333E+02  0.61426847997E+02  0.00000000000E+00 0.  1.
</event>
<event>
 8    1  0.3528896E-009  0.6560047E+02  0.7561462E-02  0.1375727E+00
          1   -1    0    0  501    0  0.00000000000E+00  0.00000000000E+00  0.28339830573E+03  0.28339830573E+03  0.00000000000E+00 0. -1.
         -1   -1    0    0    0  501 -0.00000000000E+00 -0.00000000000E+00 -0.40851164155E+02  0.40851164155E+02  0.00000000000E+00 0.  1.
         25    2    1    2    0    0 -0.10083639166E+02 -0.13857955606E+01  0.14670058220E+03  0.19306180374E+03  0.12509276173E+03 0.  0.
         23    2    1    2    0    0  0.10083639166E+02  0.13857955606E+01  0.95846559376E+02  0.13118766615E+03  0.88994609930E+02 0.  0.
          5    1    3    3  502    0 -0.10258584590E+02 -0.21196671380E+02 -0.16213418455E+02  0.28894372694E+02  0.41800000000E+01 0. -1.
         -5    1    3    3    0  502  0.17494542360E+00  0.19810875819E+02  0.16291400065E+03  0.16416743104E+03  0.41800000000E+01 0. -1.
        -11    1    4    4    0    0  0.47513545008E+02 -0.86269819091E+01  0.37468437710E+02  0.61121564120E+02  0.00000000000E+00 0.  1.
         11    1    4    4    0    0 -0.37429905841E+02  0.10012777470E+02  0.58378121666E+02  0.70066102027E+02  0.00000000000E+00 0. -1.
</event>
<event>
 8    1  0.3528896E-009  0.6776079E+02  0.7561462E-02  0.1367877E+00
         -2   -1    0    0    0  501 -0.00000000000E+00  0.00000000000E+00  0.31986305192E+02  0.31986305192E+02  0.00000000000E+00 0. -1.
          2   -1    0    0  501    0  0.00000000000E+00 -0.00000000000E+00 -0.11186599626E+04  0.11186599626E+04  0.00000000000E+00 0.  1.
         25    2    1    2    0    0 -0.16433709256E+02 -0.38699982566E+02 -0.10213631327E+04  0.10298530862E+04  0.12508786864E+03 0.  0.
         23    2    1    2    0    0  0.16433709256E+02  0.38699982566E+02 -0.65310524779E+02  0.12079318165E+03  0.92508230104E+02 0.  0.
          5    1    3    3  502    0 -0.30751641390E+02  0.16861177642E+02 -0.89514379392E+02  0.96230240972E+02  0.41800000000E+01 0. -1.
         -5    1    3    3    0  502  0.14317932134E+02 -0.55561160208E+02 -0.93184875326E+03  0.93362284519E+03  0.41800000000E+01 0. -1.
        -11    1    4    4    0    0  0.51790794970E+01  0.21530812952E+02 -0.87678862178E+02  0.90432193623E+02  0.00000000000E+00 0.  1.
         11    1    4    4    0    0  0.11254629759E+02  0.17169169614E+02  0.22368337399E+02  0.30360988031E+02  0.00000000000E+00 0. -1.
</event>
<event>
 8    1  0.3528896E-009  0.2577984E+03  0.7561462E-02  0.1108473E+00
          1   -1    0    0  501    0  0.00000000000E+00  0.00000000000E+00  0.94695703886E+03  0.94695703886E+03  0.00000000000E+00 0. -1.
         -1   -1    0    0    0  501 -0.00000000000E+00 -0.00000000000E+00 -0.82652805633E+02  0.82652805633E+02  0.00000000000E+00 0.  1.
         25    2    1    2    0    0 -0.24136875670E+03  0.77711944272E+01  0.60655911923E+03  0.66474158497E+03  0.12509253170E+03 0.  0.
         23    2    1    2    0    0  0.24136875670E+03 -0.77711944272E+01  0.25774511400E+03  0.36486825953E+03  0.91526142968E+02 0.  0.
          5    1    3    3  502    0 -0.92065691385E+02 -0.41994300694E+02  0.34401033941E+03  0.35860869878E+03  0.41800000000E+01 0. -1.
         -5    1    3    3    0  502 -0.14930306532E+03  0.49765495122E+02  0.26254877982E+03  0.30613288618E+03  0.41800000000E+01 0. -1.
        -11    1    4    4    0    0  0.45796513852E+02 -0.37341050195E+02  0.75859688772E+02  0.96158031860E+02  0.00000000000E+00 0. -1.
         11    1    4    4    0    0  0.19557224285E+03  0.29569855768E+02  0.18188542522E+03  0.26871022767E+03  0.00000000000E+00 0.  1.
</event>
<event>
 8    1  0.3528896E-009  0.9617955E+02  0.7561462E-02  0.1288541E+00
          4   -1    0    0  501    0  0.00000000000E+00  0.00000000000E+00  0.38558061424E+03  0.38558061424E+03  0.00000000000E+00 0. -1.
         -4   -1    0    0    0  501 -0.00000000000E+00 -0.00000000000E+00 -0.59519793526E+02  0.59519793526E+02  0.00000000000E+00 0.  1.
         25    2    1    2    0    0  0.50289637888E+02 -0.50022327592E+02  0.28914288417E+03  0.32293087605E+03  0.12509781093E+03 0.  0.
         23    2    1    2    0    0 -0.50289637888E+02  0.50022327592E+02  0.36917936540E+02  0.12216953172E+03  0.92364384398E+02 0.  0.
          5    1    3    3  502    0  0.73388222067E+02 -0.30292826682E+02  0.27979857382E+03  0.29087488857E+03  0.41800000000E+01 0.  1.
         -5    1    3    3    0  502 -0.23098584179E+02 -0.19729500910E+02  0.93443103473E+01  0.32055987476E+02  0.41800000000E+01 0.  1.
        -11    1    4    4    0    0 -0.53394975810E+02  0.28653288316E+02 -0.17954462174E+02  0.63201242750E+02  0.00000000000E+00 0.  1.
         11    1    4    4    0    0  0.31053379226E+01  0.21369039275E+02  0.54872398714E+02  0.58968288968E+02  0.00000000000E+00 0. -1.
</event>
<event>
 8    1  0.3528896E-009  0.1178878E+03  0.7561462E-02  0.1246623E+00
         -3   -1    0    0    0  501 -0.00000000000E+00  0.00000000000E+00  0.19551047536E+04  0.19551047536E+04  0.00000000000E+00 0.  1.
          3   -1    0    0  501    0  0.00000000000E+00 -0.00000000000E+00 -0.11567625120E+02  0.11567625120E+02  0.00000000000E+00 0. -1.
         25    2    1    2    0    0 -0.94721506891E+02  0.29846347994E+02  0.14158644723E+04  0.14248451496E+04  0.12509407668E+03 0.  0.
         23    2    1    2    0    0  0.94721506891E+02 -0.29846347994E+02  0.52767265620E+03  0.54182722915E+03  0.72631575739E+02 0.  0.
          5    1    3    3  502    0 -0.18245980739E+02  0.34136568381E+02  0.10922697654E+03  0.11595786269E+03  0.41800000000E+01 0. -1.
         -5    1    3    3    0  502 -0.76475526151E+02 -0.42902203873E+01  0.13066374957E+04  0.13088872869E+04  0.41800000000E+01 0. -1.
        -11    1    4    4    0    0  0.80999179732E+02  0.65235261641E+01  0.40751716462E+03  0.41554020620E+03  0.00000000000E+00 0.  1.
         11    1    4    4    0    0  0.13722327159E+02 -0.36369874158E+02  0.12015549158E+03  0.12628702295E+03  0.00000000000E+00 0. -1.
</event>
<event>
 8    1  0.3528896E-009  0.1010252E+03  0.7561462E-02  0.1278155E+00
          1   -1    0    0  501    0  0.00000000000E+00  0.00000000000E+00  0.14932173708E+02  0.14932173708E+02  0.00000000000E+00 0. -1.
         -1   -1    0    0    0  501 -0.00000000000E+00 -0.00000000000E+00 -0.94220127937E+03  0.94220127937E+03  0.00000000000E+00 0.  1.
         25    2    1    2    0    0  0.44517041416E+02  0.14405311607E+02 -0.47876065768E+03  0.49703830261E+03  0.12508407949E+03 0.  0.
         23    2    1    2    0    0 -0.44517041416E+02 -0.14405311607E+02 -0.44850844799E+03  0.46009515047E+03  0.91315056769E+02 0.  0.
          5    1    3    3  502    0 -0.27400533837E+02  0.10763027489E+02 -0.33381600131E+03  0.33513762419E+03  0.41800000000E+01 0.  1.
         -5    1    3    3    0  502  0.71917575253E+02  0.36422841176E+01 -0.14494465637E+03  0.16190067842E+03  0.41800000000E+01 0.  1.
        -11    1    4    4    0    0 -0.23918334101E+02  0.37423160999E+02 -0.24936933384E+03  0.25329359318E+03  0.00000000000E+00 0. -1.
         11    1    4    4    0    0 -0.20598707315E+02 -0.51828472605E+02 -0.19913911414E+03  0.20680155729E+03  0.00000000000E+00 0.  1.
</event>
<event>
 8    1  0.3528896E-009  0.1280290E+03  0.7561462E-02  0.1230410E+00
          2   -1    0    0  501    0  0.00000000000E+00  0.00000000000E+00  0.34418398340E+03  0.34418398340E+03  0.00000000000E+00 0. -1.
         -2   -1    0    0    0  501 -0.00000000000E+00 -0.00000000000E+00 -0.96685224163E+02  0.96685224163E+02  0.00000000000E+00 0.  1.
         25    2    1    2    0    0 -0.46265269016E+02  0.79612061452E+02  0.26555577248E+03  0.30764338832E+03  0.12508409424E+03 0.  0.
         23    2    1    2    0    0  0.46265269016E+02 -0.79612061452E+02 -0.18057013247E+02  0.13322581924E+03  0.94575407687E+02 0.  0.
          5    1    3    3  502    0  0.38069100720E+02  0.54373881291E+02  0.12865966442E+03  0.14483285899E+03  0.41800000000E+01 0.  1.
         -5    1    3    3    0  502 -0.84334369736E+02  0.25238180162E+02  0.13689610807E+03  0.16281052933E+03  0.41800000000E+01 0.  1.
        -11    1    4    4    0    0  0.38633078769E+02 -0.24419379453E+02  0.34007953768E+02  0.56968076916E+02  0.00000000000E+00 0. -1.
         11    1    4    4    0    0  0.76321902469E+01 -0.55192681999E+02 -0.52064967015E+02  0.76257742325E+02  0.00000000000E+00 0.  1.
</event>
<event>
 8    1  0.3528896E-009  0.2086895E+03  0.7561462E-02  0.1142608E+00
          2   -1    0    0  501    0  0.00000000000E+00  0.00000000000E+00  0.20747966311E+04  0.20747966311E+04  0.00000000000E+00 0.  1.
         -2   -1    0    0    0  501 -0.00000000000E+00 -0.00000000000E+00 -0.41043755969E+02  0.41043755969E+02  0.00000000000E+00 0. -1.
         25    2    1    2    0    0 -0.62268756494E+02  0.19725500891E+03  0.16692222172E+04  0.16866347864E+04  0.12508859220E+03 0.  0.
         23    2    1    2    0    0  0.62268756494E+02 -0.19725500891E+03  0.36453065797E+03  0.42920560065E+03  0.92454910417E+02 0.  0.
          5    1    3    3  502    0 -0.49587408393E+02  0.10450387083E+03  0.13197920318E+04  0.13248578979E+04  0.41800000000E+01 0. -1.
         -5    1    3    3    0  502 -0.12681348101E+02  0.92751138071E+02  0.34943018539E+03  0.36177688851E+03  0.41800000000E+01 0. -1.
        -11    1    4    4    0    0  0.26991294879E+02 -0.11996850404E+03  0.12627679940E+03  0.17625777153E+03  0.00000000000E+00 0. -1.
         11    1    4    4    0    0  0.35277461615E+02 -0.77286504870E+02  0.23825385857E+03  0.25294782912E+03  0.00000000000E+00 0.  1.
</event>
<event>
 8    1  0.3528896E-009  0.1384068E+03  0.7561462E-02  0.1215489E+00
         -2   -1    0    0    0  501 -0.00000000000E+00  0.00000000000E+00  0.72677137171E+02  0.72677137171E+02  0.00000000000E+00 0.  1.
          2   -1    0    0  501    0  0.00000000000E+00 -0.00000000000E+00 -0.43334554545E+03  0.43334554545E+03  0.00000000000E+00 0. -1.
         25    2    1    2    0    0  0.92019848609E+02 -0.87176569715E+02 -0.27540442776E+03  0.32796762327E+03  0.12509099184E+03 0.  0.
         23    2    1    2    0    0 -0.92019848609E+02  0.87176569715E+02 -0.85263980525E+02  0.17805505936E+03  0.91467212390E+02 0.  0.
          5    1    3    3  502    0  0.35066529387E+02 -0.85863017683E+02 -0.74311687088E+02  0.11891937826E+03  0.41800000000E+01 0.  1.
         -5    1    3    3    0  502  0.56953319222E+02 -0.13135520313E+01 -0.20109274067E+03  0.20904824501E+03  0.41800000000E+01 0.  1.
        -11    1    4    4    0    0 -0.30788767991E+02  0.26054842812E+02  0.17288783019E+02  0.43882856410E+02  0.00000000000E+00 0.  1.
         11    1    4    4    0    0 -0.61231080618E+02  0.61121726902E+02 -0.10255276354E+03  0.13417220295E+03  0.00000000000E+00 0. -1.
</event>
<event>
 8    1  0.3528896E-009  0.1097057E+03  0.7561462E-02  0.1261116E+00
         -1   -1    0    0    0  501 -0.00000000000E+00  0.00000000000E+00  0.11441198357E+02  0.11441198357E+02  0.00000000000E+00 0.  1.
          1   -1    0    0  501    0  0.00000000000E+00 -0.00000000000E+00 -0.20722548828E+04  0.20722548828E+04  0.00000000000E+00 0. -1.
         25    2    1    2    0    0 -0.21657028980E+02 -0.37999551703E+02 -0.17728437100E+04  0.17777896306E+04  0.12509259716E+03 0.  0.
         23    2    1    2    0    0  0.21657028980E+02  0.37999551703E+02 -0.28796997444E+03  0.30590645052E+03  0.93482926022E+02 0.  0.
          5    1    3    3  502    0  0.23127871038E+02 -0.61871631675E+02 -0.13899217051E+04  0.13914966101E+04  0.41800000000E+01 0.  1.
         -5    1    3    3    0  502 -0.44784900018E+02  0.23872079972E+02 -0.38292200487E+03  0.38629302050E+03  0.41800000000E+01 0.  1.
        -11    1    4    4    0    0  0.38362052532E+02  0.62092283124E+02 -0.18606862065E+03  0.19987153447E+03  0.00000000000E+00 0. -1.
         11    1    4    4    0    0 -0.16705023552E+02 -0.24092731421E+02 -0.10190135379E+03  0.10603491605E+03  0.00000000000E+00 0.  1.
</event>
<event>
 8    1  0.3528896E-009  0.7419177E+02  0.7561462E-02  0.1346392E+00
          1   -1    0    0  501    0  0.00000000000E+00  0.00000000000E+00  0.13328896415E+03  0.13328896415E+03  0.00000000000E+00 0. -1.
         -1   -1    0    0    0  501 -0.00000000000E+00 -0.00000000000E+00 -0.96753595825E+02  0.96753595825E+02  0.00000000000E+00 0.  1.
         25    2    1    2    0    0  0.55554691300E+01 -0.19980972811E+02  0.54904108933E+02  0.13817601226E+03  0.12509215273E+03 0.  0.
         23    2    1    2    0    0 -0.55554691300E+01  0.19980972811E+02 -0.18368740605E+02  0.91866547720E+02  0.87589665183E+02 0.  0.
          5    1    3    3  502    0 -0.20264854526E+02  0.32088442721E+02 -0.20138460374E+02  0.43166682423E+02  0.41800000000E+01 0.  1.
         -5    1    3    3    0  502  0.25820323656E+02 -0.52069415532E+02  0.75042569307E+02  0.95009329835E+02  0.41800000000E+01 0.  1.
        -11    1    4    4    0    0 -0.20545650660E+02  0.28158151463E+02 -0.47009065963E+02  0.58522282402E+02  0.00000000000E+00 0.  1.
         11    1    4    4    0    0  0.14990181530E+02 -0.81771786515E+01  0.28640325358E+02  0.33344265318E+02  0.00000000000E+00 0. -1.
</event>
<event>
 8    1  0.3528896E-009  0.9925543E+02  0.7561462E-02  0.1281870E+00
          4   -1    0    0  501    0  0.00000000000E+00  0.00000000000E+00  0.29696368962E+02  0.29696368962E+02  0.00000000000E+00 0. -1.
         -4   -1    0    0    0  501 -0.00000000000E+00 -0.00000000000E+00 -0.55334680254E+03  0.55334680254E+03  0.00000000000E+00 0.  1.
         25    2    1    2    0    0 -0.15664097464E+02  0.62634860511E+02 -0.34546864106E+03  0.37303189392E+03  0.12504288155E+03 0.  0.
         23    2    1    2    0    0  0.15664097464E+02 -0.62634860511E+02 -0.17818179252E+03  0.21001127759E+03  0.90484782290E+02 0.  0.
          5    1    3    3  502    0  0.32596131168E+02 -0.26806248414E+01 -0.22674241769E+03  0.22912723517E+03  0.41800000000E+01 0. -1.
         -5    1    3    3    0  502 -0.48260228632E+02  0.65315485352E+02 -0.11872622336E+03  0.14390465874E+03  0.41800000000E+01 0. -1.
        -11    1    4    4    0    0 -0.19824723212E+02 -0.30305470953E+02 -0.15007358869E+03  0.15438109742E+03  0.00000000000E+00 0.  1.
         11    1    4    4    0    0  0.35488820676E+02 -0.32329389558E+02 -0.28108203837E+02  0.55630180164E+02  0.00000000000E+00 0. -1.
</event>
<event>
 8    1  0.3528896E-009  0.1240012E+03  0.7561462E-02  0.1236638E+00
          2   -1    0    0  501    0  0.00000000000E+00  0.00000000000E+00  0.16742709050E+03  0.16742709050E+03  0.00000000000E+00 0.  1.
         -2   -1    0    0    0  501 -0.00000000000E+00 -0.00000000000E+00 -0.19008323115E+03  0.19008323115E+03  0.00000000000E+00 0. -1.
         25    2    1    2    0    0 -0.44908451680E+02  0.61776599963E+02 -0.13323846267E+03  0.19806835009E+03  0.12508183736E+03 0.  0.
         23    2    1    2    0    0  0.44908451680E+02 -0.61776599963E+02  0.11058232203E+03  0.15944197156E+03  0.85791462372E+02 0.  0.
          5    1    3    3  502    0 -0.68300301801E+02  0.86473414075E+02 -0.86713274411E+02  0.14028273923E+03  0.41800000000E+01 0. -1.
         -5    1    3    3    0  502  0.23391850121E+02 -0.24696814112E+02 -0.46525188257E+02  0.57785610854E+02  0.41800000000E+01 0. -1.
        -11    1    4    4    0    0  0.19165855824E+02 -0.72927335558E+02  0.44268328959E+02  0.87438042349E+02  0.00000000000E+00 0.  1.
         11    1    4    4    0    0  0.25742595855E+02  0.11150735595E+02  0.66313993067E+02  0.72003929213E+02  0.00000000000E+00 0. -1.
</event>
<event>
 8    1  0.3528896E-009  0.6992516E+02  0.7561462E-02  0.1360348E+00
          1   -1    0    0  501    0  0.00000000000E+00  0.00000000000E+00  0.22134106274E+03  0.22134106274E+03  0.00000000000E+00 0. -1.
         -1   -1    0    0    0  501 -0.00000000000E+00 -0.00000000000E+00 -0.51470861734E+02  0.51470861734E+02  0.00000000000E+00 0.  1.
         25    2    1    2    0    0  0.40348508915E+01  0.65815546735E+01  0.76435054657E+02  0.14680714416E+03  0.12510165111E+03 0.  0.
         23    2    1    2    0    0 -0.40348508915E+01 -0.65815546735E+01  0.93435146348E+02  0.12600478032E+03  0.84187179584E+02 0.  0.
          5    1    3    3  502    0 -0.17008993999E+02 -0.18320790724E+02  0.10204020470E+03  0.10514101495E+03  0.41800000000E+01 0. -1.
         -5    1    3    3    0  502  0.21043844890E+02  0.24902345397E+02 -0.25605150045E+02  0.41666129204E+02  0.41800000000E+01 0. -1.
        -11    1    4    4    0    0  0.23446031146E+02  0.28606120865E+02  0.58940154224E+02  0.69584253300E+02  0.00000000000E+00 0. -1.
         11    1    4    4    0    0 -0.27480882037E+02 -0.35187675538E+02  0.34494992125E+02  0.56420527018E+02  0.00000000000E+00 0.  1.
</event>
<event>
 8    1  0.3528896E-009  0.1372770E+03  0.7561462E-02  0.1217041E+00
         -2   -1    0    0    0  501 -0.00000000000E+00  0.00000000000E+00  0.30741903151E+02  0.30741903151E+02  0.00000000000E+00 0.  1.
          2   -1    0    0  501    0  0.00000000000E+00 -0.00000000000E+00 -0.10009621228E+04  0.10009621228E+04  0.00000000000E+00 0. -1.
         25    2    1    2    0    0 -0.94631704047E+02  0.28200100647E+01 -0.80607366917E+03  0.82119735463E+03  0.12508886147E+03 0.  0.
         23    2    1    2    0    0  0.94631704047E+02 -0.28200100647E+01 -0.16414655047E+03  0.21050667131E+03  0.91683459609E+02 0.  0.
          5    1    3    3  502    0 -0.51980316703E+02  0.60910925208E+02 -0.52054288100E+03  0.52668250161E+03  0.41800000000E+01 0. -1.
         -5    1    3    3    0  502 -0.42651387344E+02 -0.58090915143E+02 -0.28553078816E+03  0.29451485303E+03  0.41800000000E+01 0. -1.
        -11    1    4    4    0    0  0.10220306338E+03  0.14549142622E+02 -0.10040288863E+03  0.14400654069E+03  0.00000000000E+00 0.  1.
         11    1    4    4    0    0 -0.75713593358E+01 -0.17369152686E+02 -0.63743661847E+02  0.66500130623E+02  0.00000000000E+00 0. -1.
</event>
<event>
 8    1  0.3528896E-009  0.1405335E+03  0.7561462E-02  0.1212613E+00
         -1   -1    0    0    0  501 -0.00000000000E+00  0.00000000000E+00  0.64793881842E+02  0.64793881842E+02  0.00000000000E+00 0.  1.
          1   -1    0    0  501    0  0.00000000000E+00 -0.00000000000E+00 -0.37657629620E+03  0.37657629620E+03  0.00000000000E+00 0. -1.
         25    2    1    2    0    0 -0.50574539879E+02 -0.95052726851E+02 -0.18924607144E+03  0.25110532973E+03  0.12508799341E+03 0.  0.
         23    2    1    2    0    0  0.50574539879E+02  0.95052726851E+02 -0.12253634292E+03  0.19026484831E+03  0.97942596464E+02 0.  0.
          5    1    3    3  502    0 -0.11875403669E+01 -0.98750044278E+02 -0.67746953136E+02  0.11983364952E+03  0.41800000000E+01 0.  1.
         -5    1    3    3    0  502 -0.49386999513E+02  0.36973174263E+01 -0.12149911830E+03  0.13127168021E+03  0.41800000000E+01 0.  1.
        -11    1    4    4    0    0  0.25824021615E+02 -0.76053292416E+01  0.19873043717E+01  0.26993897531E+02  0.00000000000E+00 0.  1.
         11    1    4    4    0    0  0.24750518264E+02  0.10265805609E+03 -0.12452364729E+03  0.16327095078E+03  0.00000000000E+00 0. -1.
</event>
<event>
 8    1  0.3528896E-009  0.1379291E+03  0.7561462E-02  0.1216143E+00
         -1   -1    0    0    0  501 -0.00000000000E+00  0.00000000000E+00  0.81711883497E+02  0.81711883497E+02  0.00000000000E+00 0.  1.
          1   -1    0    0  501    0  0.00000000000E+00 -0.00000000000E+00 -0.28201598710E+03  0.28201598710E+03  0.00000000000E+00 0. -1.
         25    2    1    2    0    0  0.25287662135E+02 -0.93880352981E+02 -0.50628058015E+02  0.16632400790E+03  0.12508992291E+03 0.  0.
         23    2    1    2    0    0 -0.25287662135E+02  0.93880352981E+02 -0.14967604559E+03  0.19740386270E+03  0.84334926649E+02 0.  0.
          5    1    3    3  502    0  0.65362496360E+02 -0.24843075816E+02  0.29208820960E+01  0.70110186839E+02  0.41800000000E+01 0.  1.
         -5    1    3    3    0  502 -0.40074834225E+02 -0.69037277165E+02 -0.53548940111E+02  0.96213821063E+02  0.41800000000E+01 0.  1.
        -11    1    4    4    0    0 -0.50664011637E+02  0.34490992839E+02 -0.52377730840E+02  0.80621940873E+02  0.00000000000E+00 0.  1.
         11    1    4    4    0    0  0.25376349502E+02  0.59389360142E+02 -0.97298314751E+02  0.11678192183E+03  0.00000000000E+00 0. -1.
</event>
<event>
 8    1  0.3528896E-009  0.1212823E+03  0.7561462E-02  0.1240997E+00
          3   -1    0    0  501    0  0.00000000000E+00  0.00000000000E+00  0.44145522761E+03  0.44145522761E+03  0.00000000000E+00 0. -1.
         -3   -1    0    0    0  501 -0.00000000000E+00 -0.00000000000E+00 -0.38073053302E+02  0.38073053302E+02  0.00000000000E+00 0.  1.
         25    2    1    2    0    0  0.60188394392E+02  0.36768221539E+02  0.21702055775E+03  0.26023101603E+03  0.12509082414E+03 0.  0.
         23    2    1    2    0    0 -0.60188394392E+02 -0.36768221539E+02  0.18636161656E+03  0.21929726488E+03  0.91575615331E+02 0.  0.
          5    1    3    3  502    0 -0.25635471350E+02  0.46199759384E+02  0.11421843921E+03  0.12591631910E+03  0.41800000000E+01 0.  1.
         -5    1    3    3    0  502  0.85823865743E+02 -0.94315378443E+01  0.10280211853E+03  0.13431469693E+03  0.41800000000E+01 0.  1.
        -11    1    4    4    0    0 -0.26625907747E+02 -0.57714251705E+02  0.61987221075E+02  0.88782258306E+02  0.00000000000E+00 0.  1.
         11    1    4    4    0    0 -0.33562486646E+02  0.20946030165E+02  0.12437439548E+03  0.13051500658E+03  0.00000000000E+00 0. -1.
</event>
<event>
 8    1  0.3528896E-009  0.1689453E+03  0.7561462E-02  0.1178952E+00
          1   -1    0    0  501    0  0.00000000000E+00  0.00000000000E+00  0.61307603281E+02  0.61307603281E+02  0.00000000000E+00 0. -1.
         -1   -1    0    0    0  501 -0.00000000000E+00 -0.00000000000E+00 -0.99968766927E+03  0.99968766927E+03  0.00000000000E+00 0.  1.
         25    2    1    2    0    0  0.23738989848E+02  0.13704263916E+03 -0.85743696614E+03  0.87760435994E+03  0.12508811729E+03 0.  0.
         23    2    1    2    0    0 -0.23738989848E+02 -0.13704263916E+03 -0.80943099848E+02  0.18339091261E+03  0.87955766320E+02 0.  0.
          5    1    3    3  502    0  0.44391604995E+02 -0.10089888086E+01 -0.14888758424E+03  0.15542399362E+03  0.41800000000E+01 0.  1.
         -5    1    3    3    0  502 -0.20652615147E+02  0.13805162797E+03 -0.70854938191E+03  0.72218036632E+03  0.41800000000E+01 0.  1.
        -11    1    4    4    0    0 -0.46346522572E+02 -0.10047329349E+03 -0.26063396923E+02  0.11367578247E+03  0.00000000000E+00 0.  1.
         11    1    4    4    0    0  0.22607532724E+02 -0.36569345668E+02 -0.54879702925E+02  0.69715130148E+02  0.00000000000E+00 0. -1.
</event>
<event>
 8    1  0.3528896E-009  0.1029519E+03  0.7561462E-02  0.1274208E+00
         -1   -1    0    0    0  501 -0.00000000000E+00  0.00000000000E+00  0.18013241089E+03  0.18013241089E+03  0.00000000000E+00 0.  1.
          1   -1    0    0  501    0  0.00000000000E+00 -0.00000000000E+00 -0.11067365812E+03  0.11067365812E+03  0.00000000000E+00 0. -1.
         25    2    1    2    0    0  0.46089829752E+02 -0.68410410869E+02  0.75902999048E+02  0.16796858256E+03  0.12509165736E+03 0.  0.
         23    2    1    2    0    0 -0.46089829752E+02  0.68410410869E+02 -0.64442462773E+01  0.12283748646E+03  0.90792417346E+02 0.  0.
          5    1    3    3  502    0 -0.14706845553E+02 -0.27711507398E+02  0.88160539521E+02  0.93669483168E+02  0.41800000000E+01 0.  1.
         -5    1    3    3    0  502  0.60796675305E+02 -0.40698903471E+02 -0.12257540473E+02  0.74299099391E+02  0.41800000000E+01 0.  1.
        -11    1    4    4    0    0 -0.38067776494E+02  0.65892442157E+01 -0.36927999925E+02  0.53443904470E+02  0.00000000000E+00 0. -1.
         11    1    4    4    0    0 -0.80220532577E+01  0.61821166653E+02  0.30483753647E+02  0.69393581989E+02  0.00000000000E+00 0.  1.
</event>
<event>
 8    1  0.3528896E-009  0.1563284E+03  0.7561462E-02  0.1192905E+00
          2   -1    0    0  501    0  0.00000000000E+00  0.00000000000E+00  0.58649153427E+03  0.58649153427E+03  0.00000000000E+00 0. -1.
         -2   -1    0    0    0  501 -0.00000000000E+00 -0.00000000000E+00 -0.57188122512E+02  0.57188122512E+02  0.00000000000E+00 0.  1.
         25    2    1    2    0    0  0.32173877651E+00  0.12838631997E+03  0.40585282616E+03  0.44367363078E+03  0.12508646401E+03 0.  0.
         23    2    1    2    0    0 -0.32173877651E+00 -0.12838631997E+03  0.12345058560E+03  0.20000602600E+03  0.90990179044E+02 0.  0.
          5    1    3    3  502    0 -0.36146803946E+02  0.10939493244E+03  0.37436883175E+03  0.39171844132E+03  0.41800000000E+01 0. -1.
         -5    1    3    3    0  502  0.36468542723E+02  0.18991387524E+02  0.31483994407E+02  0.51955189464E+02  0.41800000000E+01 0. -1.
        -11    1    4    4    0    0 -0.27597446594E+02 -0.12562947745E+03  0.91191083558E+02  0.15767117169E+03  0.00000000000E+00 0. -1.
         11    1    4    4    0    0  0.27275707817E+02 -0.27568425189E+01  0.32259502041E+02  0.42334854311E+02  0.00000000000E+00 0.  1.
</event>
<event>
 8    1  0.3528896E-009  0.3274164E+03  0.7561462E-02  0.1072286E+00
          1   -1    0    0  501    0  0.00000000000E+00  0.00000000000E+00  0.13006901503E+04  0.13006901503E+04  0.00000000000E+00 0. -1.
         -1   -1    0    0    0  501 -0.00000000000E+00 -0.00000000000E+00 -0.89656904646E+02  0.89656904646E+02  0.00000000000E+00 0.  1.
         25    2    1    2    0    0 -0.25435800591E+03 -0.18954581797E+03  0.48920026170E+03  0.59631388352E+03  0.12509092435E+03 0.  0.
         23    2    1    2    0    0  0.25435800591E+03  0.18954581797E+03  0.72183298396E+03  0.79403317143E+03  0.93915964146E+02 0.  0.
          5    1    3    3  502    0 -0.12661078201E+03 -0.27532373638E+02  0.23988626620E+03  0.27267419172E+03  0.41800000000E+01 0.  1.
         -5    1    3    3    0  502 -0.12774722390E+03 -0.16201344433E+03  0.24931399550E+03  0.32363969180E+03  0.41800000000E+01 0.  1.
        -11    1    4    4    0    0  0.82743688404E+02  0.43464452842E+02  0.12508981022E+03  0.15615100785E+03  0.00000000000E+00 0.  1.
         11    1    4    4    0    0  0.17161431751E+03  0.14608136512E+03  0.59674317374E+03  0.63788216358E+03  0.00000000000E+00 0. -1.
</event>
<event>
 8    1  0.3528896E-009  0.1852578E+03  0.7561462E-02  0.1162809E+00
         -2   -1    0    0    0  501 -0.00000000000E+00  0.00000000000E+00  0.24547905328E+03  0.24547905328E+03  0.00000000000E+00 0. -1.
          2   -1    0    0  501    0  0.00000000000E+00 -0.00000000000E+00 -0.15803066465E+03  0.15803066465E+03  0.00000000000E+00 0.  1.
         25    2    1    2    0    0 -0.12544458149E+03  0.10263422287E+03  0.35761658920E+02  0.20783879450E+03  0.12509173243E+03 0.  0.
         23    2    1    2    0    0  0.12544458149E+03 -0.10263422287E+03  0.51686729717E+02  0.19567092343E+03  0.96671947944E+02 0.  0.
          5    1    3    3  502    0 -0.10562825702E+02 -0.15934377055E+02 -0.25105497344E+02  0.31831369054E+02  0.41800000000E+01 0. -1.
         -5    1    3    3    0  502 -0.11488175579E+03  0.11856859993E+03  0.60867156263E+02  0.17600742545E+03  0.41800000000E+01 0. -1.
        -11    1    4    4    0    0  0.12423317626E+03 -0.51232322574E+02  0.52433166394E+02  0.14424933240E+03  0.00000000000E+00 0. -1.
         11    1    4    4    0    0  0.12114052294E+01 -0.51401900296E+02 -0.74643667758E+00  0.51421591033E+02  0.00000000000E+00 0.  1.
</event>
<event>
 8    1  0.3528896E-009  0.2852973E+03  0.7561462E-02  0.1092830E+00
         -2   -1    0    0    0  501 -0.00000000000E+00  0.00000000000E+00  0.42782722870E+02  0.42782722870E+02  0.00000000000E+00 0.  1.
          2   -1    0    0  501    0  0.00000000000E+00 -0.00000000000E+00 -0.20634333096E+04  0.20634333096E+04  0.00000000000E+00 0. -1.
         25    2    1    2    0    0 -0.12346646722E+03 -0.24444401014E+03 -0.90064947149E+03  0.94963920869E+03  0.12509321953E+03 0.  0.
         23    2    1    2    0    0  0.12346646722E+03  0.24444401014E+03 -0.11200011153E+04  0.11565768238E+04  0.90942886150E+02 0.  0.
          5    1    3    3  502    0 -0.64113883942E+02 -0.21516262977E+03 -0.57468209572E+03  0.61699475760E+03  0.41800000000E+01 0. -1.
         -5    1    3    3    0  502 -0.59352583275E+02 -0.29281380373E+02 -0.32596737577E+03  0.33264445109E+03  0.41800000000E+01 0. -1.
        -11    1    4    4    0    0  0.10688204004E+03  0.23974722293E+03 -0.10961998470E+04  0.11271896939E+04  0.00000000000E+00 0.  1.
         11    1    4    4    0    0  0.16584427174E+02  0.46967872129E+01 -0.23801268231E+02  0.29387129908E+02  0.00000000000E+00 0. -1.
</event>
<event>
 8    1  0.3528896E-009  0.1548048E+03  0.7561462E-02  0.1194690E+00
          3   -1    0    0  501    0  0.00000000000E+00  0.00000000000E+00  0.64469236932E+02  0.64469236932E+02  0.00000000000E+00 0. -1.
         -3   -1    0    0    0  501 -0.00000000000E+00 -0.00000000000E+00 -0.44501979631E+03  0.44501979631E+03  0.00000000000E+00 0.  1.
         25    2    1    2    0    0  0.54022007066E+02 -0.11746651311E+03 -0.17137734034E+03  0.24849351036E+03  0.12514820400E+03 0.  0.
         23    2    1    2    0    0 -0.54022007066E+02  0.11746651311E+03 -0.20917321904E+03  0.26099552288E+03  0.87455522682E+02 0.  0.
          5    1    3    3  502    0  0.77669589649E+02 -0.10463640981E+03 -0.17783765382E+03  0.22051087713E+03  0.41800000000E+01 0. -1.
         -5    1    3    3    0  502 -0.23647582583E+02 -0.12830103294E+02  0.64603134854E+01  0.27982633237E+02  0.41800000000E+01 0. -1.
        -11    1    4    4    0    0  0.60385202640E+01  0.82063019258E+02 -0.83204038516E+02  0.11702014733E+03  0.00000000000E+00 0. -1.
         11    1    4    4    0    0 -0.60060527330E+02  0.35403493851E+02 -0.12596918053E+03  0.14397537554E+03  0.00000000000E+00 0.  1.
</event>
<event>
 8    1  0.3528896E-009  0.6927768E+02  0.7561462E-02  0.1362567E+00
         -1   -1    0    0    0  501 -0.00000000000E+00  0.00000000000E+00  0.12079129817E+03  0.12079129817E+03  0.00000000000E+00 0.  1.
          1   -1    0    0  501    0  0.00000000000E+00 -0.00000000000E+00 -0.15614671743E+03  0.15614671743E+03  0.00000000000E+00 0. -1.
         25    2    1    2    0    0  0.22691312407E+02  0.40264674890E+02  0.51519265946E+02  0.14296091887E+03  0.12508976720E+03 0.  0.
         23    2    1    2    0    0 -0.22691312407E+02 -0.40264674890E+02 -0.86874685211E+02  0.13397709674E+03  0.90920359748E+02 0.  0.
          5    1    3    3  502    0 -0.96358136673E+01  0.12695476729E+01  0.82673572100E+02  0.83347780895E+02  0.41800000000E+01 0.  1.
         -5    1    3    3    0  502  0.32327126074E+02  0.38995127217E+02 -0.31154306155E+02  0.59613137972E+02  0.41800000000E+01 0.  1.
        -11    1    4    4    0    0 -0.49512342618E+01 -0.54303022124E+02 -0.12099341735E+02  0.55854516406E+02  0.00000000000E+00 0.  1.
         11    1    4    4    0    0 -0.17740078145E+02  0.14038347234E+02 -0.74775343476E+02  0.78122580331E+02  0.00000000000E+00 0. -1.
</event>
<event>
 8    1  0.3528896E-009  0.1314895E+03  0.7561462E-02  0.1225262E+00
         -2   -1    0    0    0  501 -0.00000000000E+00  0.00000000000E+00  0.24754469165E+03  0.24754469165E+03  0.00000000000E+00 0. -1.
          2   -1    0    0  501    0  0.00000000000E+00 -0.00000000000E+00 -0.10592153020E+03  0.10592153020E+03  0.00000000000E+00 0.  1.
         25    2    1    2    0    0  0.58410379520E+02  0.64081221353E+02  0.16706880226E+03  0.22600230014E+03  0.12508748784E+03 0.  0.
         23    2    1    2    0    0 -0.58410379520E+02 -0.64081221353E+02 -0.25445640808E+02  0.12746392170E+03  0.89896581325E+02 0.  0.
          5    1    3    3  502    0  0.82173460870E+02  0.86405503319E+02  0.12966042665E+03  0.17620353945E+03  0.41800000000E+01 0.  1.
         -5    1    3    3    0  502 -0.23763081350E+02 -0.22324281966E+02  0.37408375608E+02  0.49798760689E+02  0.41800000000E+01 0.  1.
        -11    1    4    4    0    0 -0.56971236524E+02 -0.11410016338E+02 -0.42605138486E+02  0.72049344822E+02  0.00000000000E+00 0.  1.
         11    1    4    4    0    0 -0.14391429959E+01 -0.52671205015E+02  0.17159497678E+02  0.55414576881E+02  0.00000000000E+00 0. -1.
</event>
<event>
 8    1  0.3528896E-009  0.1551300E+03  0.7561462E-02  0.1194307E+00
         -2   -1    0    0    0  501 -0.00000000000E+00  0.00000000000E+00  0.52064728517E+02  0.52064728517E+02  0.00000000000E+00 0. -1.
          2   -1    0    0  501    0  0.00000000000E+00 -0.00000000000E+00 -0.50642430767E+03  0.50642430767E+03  0.00000000000E+00 0.  1.
         25    2    1    2    0    0 -0.36742689042E+02  0.11497080336E+03 -0.24807465302E+03  0.30291332236E+03  0.12508851493E+03 0.  0.
         23    2    1    2    0    0  0.36742689042E+02 -0.11497080336E+03 -0.20628492613E+03  0.25557571383E+03  0.90538190430E+02 0.  0.
          5    1    3    3  502    0 -0.76407253761E+02  0.66648049492E+02 -0.19880305006E+03  0.22320429217E+03  0.41800000000E+01 0.  1.
         -5    1    3    3    0  502  0.39664564719E+02  0.48322753868E+02 -0.49271602961E+02  0.79709030192E+02  0.41800000000E+01 0.  1.
        -11    1    4    4    0    0 -0.22550623804E+02 -0.64273175809E+02 -0.12835051397E+03  0.14530459800E+03  0.00000000000E+00 0. -1.
         11    1    4    4    0    0  0.59293312846E+02 -0.50697627550E+02 -0.77934412154E+02  0.11027111583E+03  0.00000000000E+00 0.  1.
</event>
<event>
 8    1  0.3528896E-009  0.1170091E+03  0.7561462E-02  0.1248114E+00
         -3   -1    0    0    0  501 -0.00000000000E+00  0.00000000000E+00  0.98805711312E+02  0.98805711312E+02  0.00000000000E+00 0.  1.
          3   -1    0    0  501    0  0.00000000000E+00 -0.00000000000E+00 -0.32631411600E+03  0.32631411600E+03  0.00000000000E+00 0. -1.
         25    2    1    2    0    0 -0.63012986170E+02 -0.22317742813E+02  0.30972542982E+02  0.14517295934E+03  0.12508865510E+03 0.  0.
         23    2    1    2    0    0  0.63012986170E+02  0.22317742813E+02 -0.25848094767E+03  0.27994686797E+03  0.84196974459E+02 0.  0.
          5    1    3    3  502    0 -0.10008296344E+03 -0.93496357384E+01  0.32277855334E+02  0.10565674424E+03  0.41800000000E+01 0.  1.
         -5    1    3    3    0  502  0.37069977265E+02 -0.12968107075E+02 -0.13053123515E+01  0.39516215101E+02  0.41800000000E+01 0.  1.
        -11    1    4    4    0    0  0.55977359256E+02 -0.13362897201E+02 -0.84703023374E+02  0.10240426719E+03  0.00000000000E+00 0.  1.
         11    1    4    4    0    0  0.70356269136E+01  0.35680640014E+02 -0.17377792430E+03  0.17754260078E+03  0.00000000000E+00 0. -1.
</event>
<event>
 7    1  0.3528896E-009  0.1479318E+03  0.7561462E-02  0.1203038E+00
          1   -1    0    0  501    0  0.00000000000E+00  0.00000000000E+00  0.32614330457E+03  0.32614330457E+03  0.00000000000E+00 0. -1.
         -1   -1    0    0    0  501 -0.00000000000E+00 -0.00000000000E+00 -0.74164004597E+02  0.74164004597E+02  0.00000000000E+00 0.  1.
         25    2    1    2    0    0  0.39486340698E+01 -0.32246861112E+02  0.95986594999E+02  0.16098850636E+03  0.12509364892E+03 0.  0.
          5    1    3    3  502    0  0.16813750345E+02  0.45108485761E+02  0.51974375342E+02  0.70966793506E+02  0.41800000000E+01 0.  1.
         -5    1    3    3    0  502 -0.12865116275E+02 -0.77355346873E+02  0.44012219657E+02  0.90021712857E+02  0.41800000000E+01 0.  1.
        -11    1    1    2    0    0 -0.76488402384E+02  0.53595894646E+02  0.41716340878E+02  0.10229002257E+03  0.00000000000E+00 0.  1.
         11    1    1    2    0    0  0.72539768314E+02 -0.21349033535E+02  0.11427636409E+03  0.13702878023E+03  0.00000000000E+00 0. -1.
</event>
<event>
 8    1  0.3528896E-009  0.1091133E+03  0.7561462E-02  0.1262221E+00
          2   -1    0    0  501    0  0.00000000000E+00  0.00000000000E+00  0.61479305234E+03  0.61479305234E+03  0.00000000000E+00 0. -1.
         -2   -1    0    0    0  501 -0.00000000000E+00 -0.00000000000E+00 -0.24317384783E+02  0.24317384783E+02  0.00000000000E+00 0.  1.
         25    2    1    2    0    0  0.66318331166E+01  0.13470325507E+02  0.19796852188E+03  0.23465786858E+03  0.12508936307E+03 0.  0.
         23    2    1    2    0    0 -0.66318331166E+01 -0.13470325507E+02  0.39250714568E+03  0.40445256854E+03  0.96408453509E+02 0.  0.
          5    1    3    3  502    0  0.58777026903E+02 -0.21455957536E+02  0.10790275899E+03  0.12480214262E+03  0.41800000000E+01 0. -1.
         -5    1    3    3    0  502 -0.52145193787E+02  0.34926283043E+02  0.90065762887E+02  0.10985572596E+03  0.41800000000E+01 0. -1.
        -11    1    4    4    0    0 -0.13438218051E+02 -0.51888191093E+02  0.28700483671E+03  0.29196702960E+03  0.00000000000E+00 0. -1.
         11    1    4    4    0    0  0.68063849344E+01  0.38417865585E+02  0.10550230897E+03  0.11248553893E+03  0.00000000000E+00 0.  1.
</event>
<event>
 8    1  0.3528896E-009  0.1087618E+03  0.7561462E-02  0.1262880E+00
         -2   -1    0    0    0  501 -0.00000000000E+00  0.00000000000E+00  0.69463148419E+03  0.69463148419E+03  0.00000000000E+00 0.  1.
          2   -1    0    0  501    0  0.00000000000E+00 -0.00000000000E+00 -0.39767509995E+02  0.39767509995E+02  0.00000000000E+00 0. -1.
         25    2    1    2    0    0  0.79697341110E+01 -0.58286181165E+02  0.59478814612E+03  0.61063805241E+03  0.12508036100E+03 0.  0.
         23    2    1    2    0    0 -0.79697341110E+01  0.58286181165E+02  0.60075828070E+02  0.12376094177E+03  0.90812278979E+02 0.  0.
          5    1    3    3  502    0 -0.56148770202E+02 -0.10563795549E+02  0.21446113460E+03  0.22198046947E+03  0.41800000000E+01 0. -1.
         -5    1    3    3    0  502  0.64118504313E+02 -0.47722385616E+02  0.38032701152E+03  0.38865758294E+03  0.41800000000E+01 0. -1.
        -11    1    4    4    0    0 -0.15190729655E+02  0.67103990360E+02  0.77061273087E+02  0.10330606758E+03  0.00000000000E+00 0.  1.
         11    1    4    4    0    0  0.72209955435E+01 -0.88178091944E+01 -0.16985445018E+02  0.20454874189E+02  0.00000000000E+00 0. -1.
</event>
<event>
 8    1  0.3528896E-009  0.1780412E+03  0.7561462E-02  0.1169712E+00
          2   -1    0    0  501    0  0.00000000000E+00  0.00000000000E+00  0.83485732564E+02  0.83485732564E+02  0.00000000000E+00 0. -1.
         -2   -1    0    0    0  501 -0.00000000000E+00 -0.00000000000E+00 -0.46710996465E+03  0.46710996465E+03  0.00000000000E+00 0.  1.
         25    2    1    2    0    0 -0.16427684189E+03  0.16119014894E+01 -0.18971598772E+03  0.28040908912E+03  0.12509045632E+03 0.  0.
         23    2    1    2    0    0  0.16427684189E+03 -0.16119014894E+01 -0.19390824437E+03  0.27018660809E+03  0.91711051414E+02 0.  0.
          5    1    3    3  502    0 -0.96984827845E+02  0.33783755425E+02 -0.34964376694E+02  0.10856969651E+03  0.41800000000E+01 0. -1.
         -5    1    3    3    0  502 -0.67292014041E+02 -0.32171853936E+02 -0.15475161102E+03  0.17183939261E+03  0.41800000000E+01 0. -1.
        -11    1    4    4    0    0  0.81395213369E+01  0.19408998465E+02 -0.59444837294E+02  0.63060682758E+02  0.00000000000E+00 0.  1.
         11    1    4    4    0    0  0.15613732055E+03 -0.21020899955E+02 -0.13446340708E+03  0.20712592534E+03  0.00000000000E+00 0. -1.
</event>
<event>
 7    1  0.3528896E-009  0.1340154E+03  0.7561462E-02  0.1221616E+00
         -2   -1    0    0    0  501 -0.00000000000E+00  0.00000000000E+00  0.50476803898E+02  0.50476803898E+02  0.00000000000E+00 0.  1.
          2   -1    0    0  501    0  0.00000000000E+00 -0.00000000000E+00 -0.65078667325E+03  0.65078667325E+03  0.00000000000E+00 0. -1.
         25    2    1    2    0    0  0.10003575389E+03  0.55802284686E+02 -0.31078492689E+03  0.35405550033E+03  0.12508788709E+03 0.  0.
          5    1    3    3  502    0  0.85547209645E+02 -0.78234713296E+01 -0.25147588410E+03  0.26577645582E+03  0.41800000000E+01 0. -1.
         -5    1    3    3    0  502  0.14488544240E+02  0.63625756016E+02 -0.59309042789E+02  0.88279044508E+02  0.41800000000E+01 0. -1.
        -11    1    1    2    0    0 -0.56412753014E+02 -0.43720531267E+02 -0.20297112349E+02  0.74201457712E+02  0.00000000000E+00 0.  1.
         11    1    1    2    0    0 -0.43623000872E+02 -0.12081753419E+02 -0.26922783011E+03  0.27300651911E+03  0.00000000000E+00 0. -1.
</event>
<event>
 8    1  0.3528896E-009  0.1596079E+03  0.7561462E-02  0.1189140E+00
          1   -1    0    0  501    0  0.00000000000E+00  0.00000000000E+00  0.54212733807E+03  0.54212733807E+03  0.00000000000E+00 0.  1.
         -1   -1    0    0    0  501 -0.00000000000E+00 -0.00000000000E+00 -0.54597173126E+02  0.54597173126E+02  0.00000000000E+00 0. -1.
         25    2    1    2    0    0  0.10511077502E+03  0.74385760889E+02  0.20090115700E+03  0.26942634213E+03  0.12509101687E+03 0.  0.
         23    2    1    2    0    0 -0.10511077502E+03 -0.74385760889E+02  0.28662900795E+03  0.32729816907E+03  0.91577217853E+02 0.  0.
          5    1    3    3  502    0  0.31287843239E+02 -0.34962327239E+02  0.61175507132E+02  0.77208863049E+02  0.41800000000E+01 0. -1.
         -5    1    3    3    0  502  0.73822931779E+02  0.10934808813E+03  0.13972564986E+03  0.19221747908E+03  0.41800000000E+01 0. -1.
        -11    1    4    4    0    0 -0.58769933058E+02 -0.73042944637E+02  0.25360395547E+03  0.27037777834E+03  0.00000000000E+00 0.  1.
         11    1    4    4    0    0 -0.46340841959E+02 -0.13428162526E+01  0.33025052483E+02  0.56920390726E+02  0.00000000000E+00 0. -1.
</event>
<event>
 8    1  0.3528896E-009  0.3106647E+03  0.7561462E-02  0.1080028E+00
         -1   -1    0    0    0  501 -0.00000000000E+00  0.00000000000E+00  0.41737137644E+02  0.41737137644E+02  0.00000000000E+00 0. -1.
          1   -1    0    0  501    0  0.00000000000E+00 -0.00000000000E+00 -0.25389803211E+04  0.25389803211E+04  0.00000000000E+00 0.  1.
         25    2    1    2    0    0 -0.25755742097E+03 -0.14599815924E+03 -0.15854519825E+04  0.16177009031E+04  0.12508771090E+03 0.  0.
         23    2    1    2    0    0  0.25755742097E+03  0.14599815924E+03 -0.91179120089E+03  0.96301655560E+03  0.91577315614E+02 0.  0.
          5    1    3    3  502    0 -0.21802865156E+03 -0.16605026441E+03 -0.14284398406E+04  0.14544988944E+04  0.41800000000E+01 0.  1.
         -5    1    3    3    0  502 -0.39528769408E+02  0.20052105166E+02 -0.15701214199E+03  0.16320200876E+03  0.41800000000E+01 0.  1.
        -11    1    4    4    0    0  0.16933902594E+03  0.60380096335E+02 -0.43626413779E+03  0.47185576150E+03  0.00000000000E+00 0.  1.
         11    1    4    4    0    0  0.88218395033E+02  0.85618062908E+02 -0.47552706309E+03  0.49116079409E+03  0.00000000000E+00 0. -1.
</event>
<event>
 8    1  0.3528896E-009  0.4681052E+03  0.7561462E-02  0.1022456E+00
          1   -1    0    0  501    0  0.00000000000E+00  0.00000000000E+00  0.17776020855E+04  0.17776020855E+04  0.00000000000E+00 0. -1.
         -1   -1    0    0    0  501 -0.00000000000E+00 -0.00000000000E+00 -0.12888916024E+03  0.12888916024E+03  0.00000000000E+00 0.  1.
         25    2    1    2    0    0 -0.16224821084E+03 -0.42613184501E+03  0.10277577894E+04  0.11313030599E+04  0.12509080066E+03 0.  0.
         23    2    1    2    0    0  0.16224821084E+03  0.42613184501E+03  0.62095513588E+03  0.77518818587E+03  0.86131361788E+02 0.  0.
          5    1    3    3  502    0 -0.12411808531E+02  0.67334845930E+01  0.30652273417E+02  0.34006279882E+02  0.41800000000E+01 0. -1.
         -5    1    3    3    0  502 -0.14983640230E+03 -0.43286532960E+03  0.99710551593E+03  0.10972967800E+04  0.41800000000E+01 0. -1.
        -11    1    4    4    0    0  0.17141853079E+03  0.38797195332E+03  0.55630845588E+03  0.69956103904E+03  0.00000000000E+00 0. -1.
         11    1    4    4    0    0 -0.91703199596E+01  0.38159891689E+02  0.64646680005E+02  0.75627146829E+02  0.00000000000E+00 0.  1.
</event>
<event>
 8    1  0.3528896E-009  0.6298745E+02  0.7561462E-02  0.1385706E+00
          1   -1    0    0  501    0  0.00000000000E+00  0.00000000000E+00  0.90473212249E+02  0.90473212249E+02  0.00000000000E+00 0. -1.
         -1   -1    0    0    0  501 -0.00000000000E+00 -0.00000000000E+00 -0.16883872744E+03  0.16883872744E+03  0.00000000000E+00 0.  1.
         25    2    1    2    0    0 -0.73442852098E+00 -0.31995110256E+02 -0.94829075556E+02  0.16020038264E+03  0.12508949821E+03 0.  0.
         23    2    1    2    0    0  0.73442852098E+00  0.31995110256E+02  0.16463560363E+02  0.99111557047E+02  0.92346225992E+02 0.  0.
          5    1    3    3  502    0  0.15571278771E+02 -0.25961148767E+02  0.24729215785E+02  0.39312243401E+02  0.41800000000E+01 0. -1.
         -5    1    3    3    0  502 -0.16305707292E+02 -0.60339614891E+01 -0.11955829134E+03  0.12088813924E+03  0.41800000000E+01 0. -1.
        -11    1    4    4    0    0  0.27903276608E+02 -0.81404686474E+01 -0.22635054780E+02  0.36840273888E+02  0.00000000000E+00 0.  1.
         11    1    4    4    0    0 -0.27168848087E+02  0.40135578904E+02  0.39098615143E+02  0.62271283160E+02  0.00000000000E+00 0. -1.
</event>
<event>
 8    1  0.3528896E-009  0.1243169E+03  0.7561462E-02  0.1236141E+00
          3   -1    0    0  501    0  0.00000000000E+00  0.00000000000E+00  0.27358151112E+03  0.27358151112E+03  0.00000000000E+00 0. -1.
         -3   -1    0    0    0  501 -0.00000000000E+00 -0.00000000000E+00 -0.98282335219E+02  0.98282335219E+02  0.00000000000E+00 0.  1.
         25    2    1    2    0    0 -0.97876990381E+02  0.72200504115E+02  0.75228655419E+02  0.19000005138E+03  0.12509137016E+03 0.  0.
         23    2    1    2    0    0  0.97876990381E+02 -0.72200504115E+02  0.10007052049E+03  0.18186379496E+03  0.90925864343E+02 0.  0.
          5    1    3    3  502    0 -0.81850861611E+02  0.48545385827E+02 -0.13941465492E+02  0.96270737463E+02  0.41800000000E+01 0.  1.
         -5    1    3    3    0  502 -0.16026128770E+02  0.23655118288E+02  0.89170120911E+02  0.93729313920E+02  0.41800000000E+01 0.  1.
        -11    1    4    4    0    0  0.59895176816E+02 -0.27685418025E+02  0.51197347037E-01  0.65984219312E+02  0.00000000000E+00 0.  1.
         11    1    4    4    0    0  0.37981813565E+02 -0.44515086090E+02  0.10001932314E+03  0.11587957565E+03  0.00000000000E+00 0. -1.
</event>
<event>
 8    1  0.3528896E-009  0.1220994E+03  0.7561462E-02  0.1239673E+00
          2   -1    0    0  501    0  0.00000000000E+00  0.00000000000E+00  0.51254415134E+02  0.51254415134E+02  0.00000000000E+00 0.  1.
         -2   -1    0    0    0  501 -0.00000000000E+00 -0.00000000000E+00 -0.35187857178E+03  0.35187857178E+03  0.00000000000E+00 0. -1.
         25    2    1    2    0    0 -0.66981184157E+02 -0.10081339180E+02 -0.10612120008E+03  0.17747723563E+03  0.12509335566E+03 0.  0.
         23    2    1    2    0    0  0.66981184157E+02  0.10081339180E+02 -0.19450295657E+03  0.22565575129E+03  0.92200897740E+02 0.  0.
          5    1    3    3  502    0 -0.22522108259E+02 -0.66480880476E+02 -0.52140200698E+02  0.87538710055E+02  0.41800000000E+01 0.  1.
         -5    1    3    3    0  502 -0.44459075898E+02  0.56399541296E+02 -0.53980999378E+02  0.89938525571E+02  0.41800000000E+01 0.  1.
        -11    1    4    4    0    0 -0.17217075675E+02  0.78761609263E+00 -0.47878457852E+01  0.17887747236E+02  0.00000000000E+00 0. -1.
         11    1    4    4    0    0  0.84198259832E+02  0.92937230876E+01 -0.18971511079E+03  0.20776800406E+03  0.00000000000E+00 0.  1.
</event>
<event>
 8    1  0.3528896E-009  0.1854952E+03  0.7561462E-02  0.1162588E+00
         -2   -1    0    0    0  501 -0.00000000000E+00  0.00000000000E+00  0.56650721636E+02  0.56650721636E+02  0.00000000000E+00 0.  1.
          2   -1    0    0  501    0  0.00000000000E+00 -0.00000000000E+00 -0.74248795413E+03  0.74248795413E+03  0.00000000000E+00 0. -1.
         25    2    1    2    0    0 -0.75375370057E+02 -0.14217919989E+03 -0.22862594569E+03  0.30629043255E+03  0.12509050620E+03 0.  0.
         23    2    1    2    0    0  0.75375370057E+02  0.14217919989E+03 -0.45721128681E+03  0.49284824322E+03  0.89223644634E+02 0.  0.
          5    1    3    3  502    0 -0.60328720450E+02 -0.18152176057E+02 -0.26161941363E+02  0.68344535866E+02  0.41800000000E+01 0.  1.
         -5    1    3    3    0  502 -0.15046649606E+02 -0.12402702383E+03 -0.20246400432E+03  0.23794589669E+03  0.41800000000E+01 0.  1.
        -11    1    4    4    0    0  0.77527823552E+02  0.15315540899E+03 -0.41321836329E+03  0.44745564974E+03  0.00000000000E+00 0. -1.
         11    1    4    4    0    0 -0.21524534949E+01 -0.10976209101E+02 -0.43992923520E+02  0.45392593472E+02  0.00000000000E+00 0.  1.
</event>
<event>
 8    1  0.3528896E-009  0.1255560E+03  0.7561462E-02  0.1234203E+00
         -2   -1    0    0    0  501 -0.00000000000E+00  0.00000000000E+00  0.51329489202E+02  0.51329489202E+02  0.00000000000E+00 0.  1.
          2   -1    0    0  501    0  0.00000000000E+00 -0.00000000000E+00 -0.83105191200E+03  0.83105191200E+03  0.00000000000E+00 0. -1.
         25    2    1    2    0    0  0.35950395451E+02  0.10659742502E+03 -0.69083180895E+03  0.71102141553E+03  0.12508966040E+03 0.  0.
         23    2    1    2    0    0 -0.35950395451E+02 -0.10659742502E+03 -0.88890613855E+02  0.17135998567E+03  0.93847011166E+02 0.  0.
          5    1    3    3  502    0  0.48773365746E+02  0.59523191275E+02 -0.62081375189E+03  0.62557896259E+03  0.41800000000E+01 0.  1.
         -5    1    3    3    0  502 -0.12822970296E+02  0.47074233745E+02 -0.70018057059E+02  0.85442452939E+02  0.41800000000E+01 0.  1.
        -11    1    4    4    0    0 -0.20766946023E+02 -0.37355154249E+01  0.13807317849E+02  0.25216307199E+02  0.00000000000E+00 0. -1.
         11    1    4    4    0    0 -0.15183449428E+02 -0.10286190959E+03 -0.10269793170E+03  0.14614367847E+03  0.00000000000E+00 0.  1.
</event>
<event>
 8    1  0.3528896E-009  0.1939607E+03  0.7561462E-02  0.1154937E+00
         -2   -1    0    0    0  501 -0.00000000000E+00  0.00000000000E+00  0.30965012371E+02  0.30965012371E+02  0.00000000000E+00 0.  1.
          2   -1    0    0  501    0  0.00000000000E+00 -0.00000000000E+00 -0.16205924472E+04  0.16205924472E+04  0.00000000000E+00 0. -1.
         25    2    1    2    0    0 -0.11409683580E+03  0.13691503654E+03 -0.53014812738E+03  0.57312164542E+03  0.12509024070E+03 0.  0.
         23    2    1    2    0    0  0.11409683580E+03 -0.13691503654E+03 -0.10594793075E+04  0.10784358141E+04  0.93614032869E+02 0.  0.
          5    1    3    3  502    0  0.45777932905E+01  0.30770343863E+02 -0.16735541368E+02  0.35571350800E+02  0.41800000000E+01 0. -1.
         -5    1    3    3    0  502 -0.11867462909E+03  0.10614469268E+03 -0.51341258601E+03  0.53755029462E+03  0.41800000000E+01 0. -1.
        -11    1    4    4    0    0  0.59077367744E+02 -0.11333533802E+02 -0.23183425113E+03  0.23951138672E+03  0.00000000000E+00 0.  1.
         11    1    4    4    0    0  0.55019468057E+02 -0.12558150274E+03 -0.82764505632E+03  0.83892442743E+03  0.00000000000E+00 0. -1.
</event>
<event>
 8    1  0.3528896E-009  0.1514376E+03  0.7561462E-02  0.1198718E+00
          1   -1    0    0  501    0  0.00000000000E+00  0.00000000000E+00  0.56593685336E+02  0.56593685336E+02  0.00000000000E+00 0. -1.
         -1   -1    0    0    0  501 -0.00000000000E+00 -0.00000000000E+00 -0.50127166874E+03  0.50127166874E+03  0.00000000000E+00 0.  1.
         25    2    1    2    0    0 -0.71468455410E+02  0.10250324685E+03 -0.18590304051E+03  0.25656734924E+03  0.12510878663E+03 0.  0.
         23    2    1    2    0    0  0.71468455410E+02 -0.10250324685E+03 -0.25877494289E+03  0.30129800483E+03  0.90561365466E+02 0.  0.
          5    1    3    3  502    0 -0.67937666060E+02  0.23846176611E+02 -0.15667341042E+03  0.17247665506E+03  0.41800000000E+01 0. -1.
         -5    1    3    3    0  502 -0.35307893494E+01  0.78657070241E+02 -0.29229630091E+02  0.84090694179E+02  0.41800000000E+01 0. -1.
        -11    1    4    4    0    0  0.64121134021E+01 -0.84034122810E+02 -0.11671654764E+03  0.14396388953E+03  0.00000000000E+00 0. -1.
         11    1    4    4    0    0  0.65056342008E+02 -0.18469124041E+02 -0.14205839525E+03  0.15733411530E+03  0.00000000000E+00 0.  1.
</event>
<event>
 8    1  0.3528896E-009  0.2523311E+03  0.7561462E-02  0.1111840E+00
         -1   -1    0    0    0  501 -0.00000000000E+00  0.00000000000E+00  0.79900004504E+02  0.79900004504E+02  0.00000000000E+00 0.  1.
          1   -1    0    0  501    0  0.00000000000E+00 -0.00000000000E+00 -0.10455041761E+04  0.10455041761E+04  0.00000000000E+00 0. -1.
         25    2    1    2    0    0 -0.21555158782E+03  0.99243513576E+02 -0.25291015639E+03  0.36867779377E+03  0.12509199183E+03 0.  0.
         23    2    1    2    0    0  0.21555158782E+03 -0.99243513576E+02 -0.71269401524E+03  0.75672638687E+03  0.91598598379E+02 0.  0.
          5    1    3    3  502    0 -0.96092610092E+01  0.35099003089E+02 -0.93538084748E+02  0.10045458483E+03  0.41800000000E+01 0. -1.
         -5    1    3    3    0  502 -0.20594232681E+03  0.64144510487E+02 -0.15937207164E+03  0.26822320894E+03  0.41800000000E+01 0. -1.
        -11    1    4    4    0    0  0.14619687652E+03 -0.20938941387E+02 -0.36868494072E+03  0.39716564741E+03  0.00000000000E+00 0.  1.
         11    1    4    4    0    0  0.69354711292E+02 -0.78304572189E+02 -0.34400907452E+03  0.35956073946E+03  0.00000000000E+00 0. -1.
</event>
<event>
 8    1  0.3528896E-009  0.1091505E+03  0.7561462E-02  0.1262151E+00
         -2   -1    0    0    0  501 -0.00000000000E+00  0.00000000000E+00  0.66288421590E+02  0.66288421590E+02  0.00000000000E+00 0. -1.
          2   -1    0    0  501    0  0.00000000000E+00 -0.00000000000E+00 -0.21226408303E+03  0.21226408303E+03  0.00000000000E+00 0.  1.
         25    2    1    2    0    0 -0.39038190689E+02 -0.11898424427E+02 -0.10443969098E+03  0.16799173768E+03  0.12509205427E+03 0.  0.
         23    2    1    2    0    0  0.39038190689E+02  0.11898424427E+02 -0.41535970452E+02  0.11056076693E+03  0.93983474650E+02 0.  0.
          5    1    3    3  502    0  0.28730329022E+02  0.26203395210E+02 -0.17826182966E+01  0.39149710781E+02  0.41800000000E+01 0. -1.
         -5    1    3    3    0  502 -0.67768519711E+02 -0.38101819637E+02 -0.10265707269E+03  0.12884202690E+03  0.41800000000E+01 0. -1.
        -11    1    4    4    0    0  0.45316614402E+02 -0.32962143372E+02 -0.14787159012E+02  0.57954797111E+02  0.00000000000E+00 0.  1.
         11    1    4    4    0    0 -0.62784237127E+01  0.44860567798E+02 -0.26748811440E+02  0.52605969823E+02  0.00000000000E+00 0. -1.
</event>
<event>
 8    1  0.3528896E-009  0.1247511E+03  0.7561462E-02  0.1235459E+00
          4   -1    0    0  501    0  0.00000000000E+00  0.00000000000E+00  0.24267025369E+03  0.24267025369E+03  0.00000000000E+00 0. -1.
         -4   -1    0    0    0  501 -0.00000000000E+00 -0.00000000000E+00 -0.73641819248E+02  0.73641819248E+02  0.00000000000E+00 0.  1.
         25    2    1    2    0    0 -0.15779750816E+02  0.74848218640E+02  0.86567479010E+02  0.17026766011E+03  0.12508353724E+03 0.  0.
         23    2    1    2    0    0  0.15779750816E+02 -0.74848218640E+02  0.82460955436E+02  0.14604441283E+03  0.93155273483E+02 0.  0.
          5    1    3    3  502    0  0.28516597515E+02  0.89070479454E+02  0.79910090545E+02  0.12308469285E+03  0.41800000000E+01 0.  1.
         -5    1    3    3    0  502 -0.44296348331E+02 -0.14222260813E+02  0.66573884647E+01  0.47182967258E+02  0.41800000000E+01 0.  1.
        -11    1    4    4    0    0  0.47598006231E+02 -0.42748212861E+02  0.77621400811E+02  0.10058857671E+03  0.00000000000E+00 0. -1.
         11    1    4    4    0    0 -0.31818255414E+02 -0.32100005779E+02  0.48395546250E+01  0.45455836123E+02  0.00000000000E+00 0.  1.
</event>
<event>
 8    1  0.3528896E-009  0.9025748E+02  0.7561462E-02  0.1302229E+00
         -1   -1    0    0    0  501 -0.00000000000E+00  0.00000000000E+00  0.32948534880E+02  0.32948534880E+02  0.00000000000E+00 0.  1.
          1   -1    0    0  501    0  0.00000000000E+00 -0.00000000000E+00 -0.57266860720E+03  0.57266860720E+03  0.00000000000E+00 0. -1.
         25    2    1    2    0    0 -0.18156794689E+02  0.51581044447E+02 -0.42860081812E+03  0.44981801119E+03  0.12508920239E+03 0.  0.
         23    2    1    2    0    0  0.18156794689E+02 -0.51581044447E+02 -0.11111925420E+03  0.15579913089E+03  0.94528340689E+02 0.  0.
          5    1    3    3  502    0  0.12981250348E+02 -0.32831021519E+02 -0.54819022531E+02  0.65337481325E+02  0.41800000000E+01 0.  1.
         -5    1    3    3    0  502 -0.31138045037E+02  0.84412065967E+02 -0.37378179559E+03  0.38448052986E+03  0.41800000000E+01 0.  1.
        -11    1    4    4    0    0  0.74266454270E+01 -0.28333237939E+02 -0.12380610974E+03  0.12722374088E+03  0.00000000000E+00 0. -1.
         11    1    4    4    0    0  0.10730149262E+02 -0.23247806509E+02  0.12686855543E+02  0.28575390010E+02  0.00000000000E+00 0.  1.
</event>
<event>
 8    1  0.3528896E-009  0.9710958E+02  0.7561462E-02  0.1286494E+00
          2   -1    0    0  501    0  0.00000000000E+00  0.00000000000E+00  0.15729575163E+03  0.15729575163E+03  0.00000000000E+00 0. -1.
         -2   -1    0    0    0  501 -0.00000000000E+00 -0.00000000000E+00 -0.82806163925E+02  0.82806163925E+02  0.00000000000E+00 0.  1.
         25    2    1    2    0    0 -0.31711687442E+02 -0.15193605775E+02  0.36348580644E+02  0.13492718923E+03  0.12509056840E+03 0.  0.
         23    2    1    2    0    0  0.31711687442E+02  0.15193605775E+02  0.38141007061E+02  0.10517472632E+03  0.91490490548E+02 0.  0.
          5    1    3    3  502    0 -0.74848230690E+02  0.10259372168E+02  0.37937609201E+02  0.84641874663E+02  0.41800000000E+01 0.  1.
         -5    1    3    3    0  502  0.43136543248E+02 -0.25452977944E+02 -0.15890285569E+01  0.50285314569E+02  0.41800000000E+01 0.  1.
        -11    1    4    4    0    0  0.39929704661E+02 -0.10526739953E+02 -0.16308625740E+02  0.44397802219E+02  0.00000000000E+00 0.  1.
         11    1    4    4    0    0 -0.82180172193E+01  0.25720345728E+02  0.54449632801E+02  0.60776924104E+02  0.00000000000E+00 0. -1.
</event>
<event>
 8    1  0.3528896E-009  0.8295463E+02  0.7561462E-02  0.1320870E+00
         -2   -1    0    0    0  501 -0.00000000000E+00  0.00000000000E+00  0.21022715480E+02  0.21022715480E+02  0.00000000000E+00 0.  1.
          2   -1    0    0  501    0  0.00000000000E+00 -0.00000000000E+00 -0.68928177539E+03  0.68928177539E+03  0.00000000000E+00 0. -1.
         25    2    1    2    0    0  0.22432898723E+02 -0.39903863265E+02 -0.29876560727E+03  0.32711427531E+03  0.12508919929E+03 0.  0.
         23    2    1    2    0    0 -0.22432898723E+02  0.39903863265E+02 -0.36949345264E+03  0.38319021556E+03  0.90629887477E+02 0.  0.
          5    1    3    3  502    0 -0.90089503986E+00  0.10280340958E+02  0.90418357753E+01  0.14343089496E+02  0.41800000000E+01 0.  1.
         -5    1    3    3    0  502  0.23333793763E+02 -0.50184204224E+02 -0.30780744304E+03  0.31277118582E+03  0.41800000000E+01 0.  1.
        -11    1    4    4    0    0 -0.14737226348E+02  0.68290479952E+02 -0.21983089116E+03  0.23066511700E+03  0.00000000000E+00 0.  1.
         11    1    4    4    0    0 -0.76956723753E+01 -0.28386616686E+02 -0.14966256148E+03  0.15252509856E+03  0.00000000000E+00 0. -1.
</event>
<event>
 8    1  0.3528896E-009  0.1540103E+03  0.7561462E-02  0.1195630E+00
          2   -1    0    0  501    0  0.00000000000E+00  0.00000000000E+00  0.11473196607E+04  0.11473196607E+04  0.00000000000E+00 0. -1.
         -2   -1    0    0    0  501 -0.00000000000E+00 -0.00000000000E+00 -0.26621796027E+02  0.26621796027E+02  0.00000000000E+00 0.  1.
         25    2    1    2    0    0  0.12389493778E+03  0.48022097287E+02  0.48629185152E+03  0.51940667536E+03  0.12508977620E+03 0.  0.
         23    2    1    2    0    0 -0.12389493778E+03 -0.48022097287E+02  0.63440601313E+03  0.65453478135E+03  0.91042369629E+02 0.  0.
          5    1    3    3  502    0  0.65556260985E+01  0.34046495339E+02  0.24355444723E+02  0.42576991041E+02  0.41800000000E+01 0. -1.
         -5    1    3    3    0  502  0.11733931168E+03  0.13975601948E+02  0.46193640680E+03  0.47682968431E+03  0.41800000000E+01 0. -1.
        -11    1    4    4    0    0 -0.66187406576E+02  0.16579266692E+02  0.19291475065E+03  0.20462586809E+03  0.00000000000E+00 0. -1.
         11    1    4    4    0    0 -0.57707531205E+02 -0.64601363979E+02  0.44149126248E+03  0.44990891326E+03  0.00000000000E+00 0.  1.
</event>
<event>
 8    1  0.3528896E-009  0.9618790E+02  0.7561462E-02  0.1288523E+00
          1   -1    0    0  501    0  0.00000000000E+00  0.00000000000E+00  0.89541869300E+02  0.89541869300E+02  0.00000000000E+00 0. -1.
         -1   -1    0    0    0  501 -0.00000000000E+00 -0.00000000000E+00 -0.15906792640E+03  0.15906792640E+03  0.00000000000E+00 0.  1.
         25    2    1    2    0    0 -0.19632854419E+02  0.43081719345E+02 -0.22535653811E+02  0.13563467123E+03  0.12508966717E+03 0.  0.
         23    2    1    2    0    0  0.19632854419E+02 -0.43081719345E+02 -0.46990403293E+02  0.11297512447E+03  0.91180026503E+02 0.  0.
          5    1    3    3  502    0 -0.25781129588E+02 -0.17298470548E+02 -0.57490348427E+02  0.65471492181E+02  0.41800000000E+01 0.  1.
         -5    1    3    3    0  502  0.61482751690E+01  0.60380189893E+02  0.34954694616E+02  0.70163179053E+02  0.41800000000E+01 0.  1.
        -11    1    4    4    0    0  0.55013559948E+02 -0.28333705746E+02 -0.16630418086E+02  0.64076996381E+02  0.00000000000E+00 0.  1.
         11    1    4    4    0    0 -0.35380705530E+02 -0.14748013599E+02 -0.30359985206E+02  0.48898128089E+02  0.00000000000E+00 0. -1.
</event>
<event>
 8    1  0.3528896E-009  0.8633874E+02  0.7561462E-02  0.1311968E+00
         -1   -1    0    0    0  501 -0.00000000000E+00  0.00000000000E+00  0.47467002845E+02  0.47467002845E+02  0.00000000000E+00 0.  1.
          1   -1    0    0  501    0  0.00000000000E+00 -0.00000000000E+00 -0.28484213570E+03  0.28484213570E+03  0.00000000000E+00 0. -1.
         25    2    1    2    0    0  0.16483675378E+02 -0.16172056809E+02 -0.17608064171E+03  0.21722211240E+03  0.12509119376E+03 0.  0.
         23    2    1    2    0    0 -0.16483675378E+02  0.16172056809E+02 -0.61294491149E+02  0.11508702614E+03  0.94629604068E+02 0.  0.
          5    1    3    3  502    0  0.25958469475E+02  0.44123193002E+02 -0.13250444641E+03  0.14211122059E+03  0.41800000000E+01 0.  1.
         -5    1    3    3    0  502 -0.94747940974E+01 -0.60295249811E+02 -0.43576195300E+02  0.75110891818E+02  0.41800000000E+01 0.  1.
        -11    1    4    4    0    0 -0.20661576302E+02 -0.16966695452E+02  0.15809171743E+02  0.31059610446E+02  0.00000000000E+00 0.  1.
         11    1    4    4    0    0  0.41779009241E+01  0.33138752262E+02 -0.77103662892E+02  0.84027415698E+02  0.00000000000E+00 0. -1.
</event>
<event>
 8    1  0.3528896E-009  0.1330412E+03  0.7561462E-02  0.1223012E+00
         -1   -1    0    0    0  501 -0.00000000000E+00  0.00000000000E+00  0.40809844129E+02  0.40809844129E+02  0.00000000000E+00 0.  1.
          1   -1    0    0  501    0  0.00000000000E+00 -0.00000000000E+00 -0.74565411488E+03  0.74565411488E+03  0.00000000000E+00 0. -1.
         25    2    1    2    0    0  0.13224985125E+02 -0.80570476070E+02 -0.61993236945E+03  0.63767572129E+03  0.12509069106E+03 0.  0.
         23    2    1    2    0    0 -0.13224985125E+02  0.80570476070E+02 -0.84911901304E+02  0.14878823772E+03  0.90892281601E+02 0.  0.
          5    1    3    3  502    0  0.60205524959E+02 -0.13335763686E+02 -0.18483366191E+03  0.19489356788E+03  0.41800000000E+01 0. -1.
         -5    1    3    3    0  502 -0.46980539834E+02 -0.67234712385E+02 -0.43509870754E+03  0.44278215341E+03  0.41800000000E+01 0. -1.
        -11    1    4    4    0    0  0.14283668754E+02 -0.16167845665E+02 -0.16324133727E+02  0.27053646121E+02  0.00000000000E+00 0. -1.
         11    1    4    4    0    0 -0.27508653878E+02  0.96738321735E+02 -0.68587767577E+02  0.12173459160E+03  0.00000000000E+00 0.  1.
</event>
<event>
 8    1  0.3528896E-009  0.7758435E+02  0.7561462E-02  0.1336050E+00
          4   -1    0    0  501    0  0.00000000000E+00  0.00000000000E+00  0.54233159369E+02  0.54233159369E+02  0.00000000000E+00 0. -1.
         -4   -1    0    0    0  501 -0.00000000000E+00 -0.00000000000E+00 -0.26401502696E+03  0.26401502696E+03  0.00000000000E+00 0.  1.
         25    2    1    2    0    0  0.20640166436E+02 -0.45165257708E+02 -0.14381175008E+03  0.19697405598E+03  0.12510412581E+03 0.  0.
         23    2    1    2    0    0 -0.20640166436E+02  0.45165257708E+02 -0.65970117506E+02  0.12127413034E+03  0.88822527056E+02 0.  0.
          5    1    3    3  502    0 -0.27255741683E+02 -0.25418031090E+02  0.63818819976E+01  0.38041458661E+02  0.41800000000E+01 0.  1.
         -5    1    3    3    0  502  0.47895908119E+02 -0.19747226618E+02 -0.15019363208E+03  0.15893259732E+03  0.41800000000E+01 0.  1.
        -11    1    4    4    0    0 -0.10114824636E+02 -0.71118592797E+01 -0.66806781436E+02  0.67941403177E+02  0.00000000000E+00 0.  1.
         11    1    4    4    0    0 -0.10525341800E+02  0.52277116988E+02  0.83666393010E+00  0.53332727167E+02  0.00000000000E+00 0. -1.
</event>
<event>
 8    1  0.3528896E-009  0.2780760E+03  0.7561462E-02  0.1096744E+00
          3   -1    0    0  501    0  0.00000000000E+00  0.00000000000E+00  0.10614937504E+04  0.10614937504E+04  0.00000000000E+00 0. -1.
         -3   -1    0    0    0  501 -0.00000000000E+00 -0.00000000000E+00 -0.84664787781E+02  0.84664787781E+02  0.00000000000E+00 0.  1.
         25    2    1    2    0    0  0.22722399514E+03  0.12546326512E+03  0.30265462241E+03  0.41787451586E+03  0.12509003028E+03 0.  0.
         23    2    1    2    0    0 -0.22722399514E+03 -0.12546326512E+03  0.67417434026E+03  0.72828402237E+03  0.92275681043E+02 0.  0.
          5    1    3    3  502    0  0.12558673638E+03  0.12823660153E+03  0.23475532111E+03  0.29554050063E+03  0.41800000000E+01 0.  1.
         -5    1    3    3    0  502  0.10163725877E+03 -0.27733364071E+01  0.67899301302E+02  0.12233401523E+03  0.41800000000E+01 0.  1.
        -11    1    4    4    0    0 -0.88766127507E+02 -0.10062872692E+03  0.35363993333E+03  0.37824168004E+03  0.00000000000E+00 0.  1.
         11    1    4    4    0    0 -0.13845786764E+03 -0.24834538200E+02  0.32053440692E+03  0.35004234232E+03  0.00000000000E+00 0. -1.
</event>
<event>
 8    1  0.3528896E-009  0.9168982E+02  0.7561462E-02  0.1298810E+00
         -2   -1    0    0    0  501 -0.00000000000E+00  0.00000000000E+00  0.27481296806E+02  0.27481296806E+02  0.00000000000E+00 0.  1.
          2   -1    0    0  501    0  0.00000000000E+00 -0.00000000000E+00 -0.70773267149E+03  0.70773267149E+03  0.00000000000E+00 0. -1.
         25    2    1    2    0    0 -0.52631283395E+02  0.29386276178E+02 -0.20408297702E+03  0.24684124286E+03  0.12508849845E+03 0.  0.
         23    2    1    2    0    0  0.52631283395E+02 -0.29386276178E+02 -0.47616839767E+03  0.48837272544E+03  0.90210702266E+02 0.  0.
          5    1    3    3  502    0 -0.55662031804E+02  0.12468148188E+02 -0.18058198509E+02  0.59977391050E+02  0.41800000000E+01 0.  1.
         -5    1    3    3    0  502  0.30307484094E+01  0.16918127990E+02 -0.18602477851E+03  0.18686385180E+03  0.41800000000E+01 0.  1.
        -11    1    4    4    0    0  0.77867510735E+02 -0.14527100361E+02 -0.34760582535E+03  0.35651675373E+03  0.00000000000E+00 0.  1.
         11    1    4    4    0    0 -0.25236227340E+02 -0.14859175817E+02 -0.12856257231E+03  0.13185597171E+03  0.00000000000E+00 0. -1.
</event>
<event>
 8    1  0.3528896E-009  0.1134508E+03  0.7561462E-02  0.1254310E+00
          2   -1    0    0  501    0  0.00000000000E+00  0.00000000000E+00  0.10646065377E+03  0.10646065377E+03  0.00000000000E+00 0. -1.
         -2   -1    0    0    0  501 -0.00000000000E+00 -0.00000000000E+00 -0.15098595949E+03  0.15098595949E+03  0.00000000000E+00 0.  1.
         25    2    1    2    0    0 -0.64906317394E+02  0.13575062039E+02 -0.67808503084E+01  0.14176264002E+03  0.12511416318E+03 0.  0.
         23    2    1    2    0    0  0.64906317394E+02 -0.13575062039E+02 -0.37744455405E+02  0.11568397324E+03  0.86954156912E+02 0.  0.
          5    1    3    3  502    0 -0.22992747357E+02  0.57444461056E+02 -0.38677307497E+02  0.73088569915E+02  0.41800000000E+01 0.  1.
         -5    1    3    3    0  502 -0.41913570036E+02 -0.43869399017E+02  0.31896457189E+02  0.68674070103E+02  0.41800000000E+01 0.  1.
        -11    1    4    4    0    0  0.79456440905E+02  0.59945131413E+01 -0.12628001673E+02  0.80676679502E+02  0.00000000000E+00 0. -1.
         11    1    4    4    0    0 -0.14550123512E+02 -0.19569575180E+02 -0.25116453732E+02  0.35007293740E+02  0.00000000000E+00 0.  1.
</event>
<event>
 8    1  0.3528896E-009  0.2566568E+03  0.7561462E-02  0.1109169E+00
          3   -1    0    0  501    0  0.00000000000E+00  0.00000000000E+00  0.46192675770E+03  0.46192675770E+03  0.00000000000E+00 0. -1.
         -3   -1    0    0    0  501 -0.00000000000E+00 -0.00000000000E+00 -0.15404144680E+03  0.15404144680E+03  0.00000000000E+00 0.  1.
         25    2    1    2    0    0  0.15148792424E+03  0.17672603080E+03  0.75894806121E+02  0.27494368743E+03  0.12511326271E+03 0.  0.
         23    2    1    2    0    0 -0.15148792424E+03 -0.17672603080E+03  0.23199050478E+03  0.34102451707E+03  0.91090316631E+02 0.  0.
          5    1    3    3  502    0  0.64813544132E+02 -0.24723271007E+01  0.14540555599E+02  0.66601862297E+02  0.41800000000E+01 0. -1.
         -5    1    3    3    0  502  0.86674380106E+02  0.17919835790E+03  0.61354250522E+02  0.20834182513E+03  0.41800000000E+01 0. -1.
        -11    1    4    4    0    0 -0.10675714093E+03 -0.17432918920E+03  0.19994633650E+03  0.28594805616E+03  0.00000000000E+00 0.  1.
         11    1    4    4    0    0 -0.44730783310E+02 -0.23968416027E+01  0.32044168278E+02  0.55076460905E+02  0.00000000000E+00 0. -1.
</event>
<event>
 8    1  0.3528896E-009  0.5395881E+02  0.7561462E-02  0.1425088E+00
          1   -1    0    0  501    0  0.00000000000E+00  0.00000000000E+00  0.43199715574E+02  0.43199715574E+02  0.00000000000E+00 0. -1.
         -1   -1    0    0    0  501 -0.00000000000E+00 -0.00000000000E+00 -0.27688988172E+03  0.27688988172E+03  0.00000000000E+00 0.  1.
         25    2    1    2    0    0 -0.13323231961E+02  0.11582163809E+02 -0.13327886637E+03  0.18363629415E+03  0.12508947709E+03 0.  0.
         23    2    1    2    0    0  0.13323231961E+02 -0.11582163809E+02 -0.10041129978E+03  0.13645330315E+03  0.90694100078E+02 0.  0.
          5    1    3    3  502    0 -0.50380520601E+00  0.11930104609E+02 -0.15637720625E+03  0.15688812654E+03  0.41800000000E+01 0. -1.
         -5    1    3    3    0  502 -0.12819426755E+02 -0.34794080004E+00  0.23098339878E+02  0.26748167605E+02  0.41800000000E+01 0. -1.
        -11    1    4    4    0    0  0.47031149617E+02 -0.38055778327E+01 -0.87720238817E+02  0.99605480548E+02  0.00000000000E+00 0.  1.
         11    1    4    4    0    0 -0.33707917656E+02 -0.77765859758E+01 -0.12691060958E+02  0.36847822600E+02  0.00000000000E+00 0. -1.
</event>
<event>
 8    1  0.3528896E-009  0.1121049E+03  0.7561462E-02  0.1256721E+00
         -1   -1    0    0    0  501 -0.00000000000E+00  0.00000000000E+00  0.69785718178E+02  0.69785718178E+02  0.00000000000E+00 0.  1.
          1   -1    0    0  501    0  0.00000000000E+00 -0.00000000000E+00 -0.35008464292E+03  0.35008464292E+03  0.00000000000E+00 0. -1.
         25    2    1    2    0    0 -0.72410805835E+02 -0.25607022400E+02 -0.28477607002E+03  0.32038082203E+03  0.12508963453E+03 0.  0.
         23    2    1    2    0    0  0.72410805835E+02  0.25607022400E+02  0.44771452817E+01  0.99489539071E+02  0.63079942587E+02 0.  0.
          5    1    3    3  502    0 -0.80617607387E+02 -0.56956486746E+02 -0.26344248353E+03  0.28135858709E+03  0.41800000000E+01 0. -1.
         -5    1    3    3    0  502  0.82068015520E+01  0.31349464347E+02 -0.21333586495E+02  0.39022234934E+02  0.41800000000E+01 0. -1.
        -11    1    4    4    0    0  0.38366578434E+02 -0.13699419733E+02  0.19776493965E+02  0.45285518163E+02  0.00000000000E+00 0.  1.
         11    1    4    4    0    0  0.34044227400E+02  0.39306442133E+02 -0.15299348683E+02  0.54204020907E+02  0.00000000000E+00 0. -1.
</event>
<event>
 8    1  0.3528896E-009  0.1607251E+03  0.7561462E-02  0.1187881E+00
          2   -1    0    0  501    0  0.00000000000E+00  0.00000000000E+00  0.17739046262E+03  0.17739046262E+03  0.00000000000E+00 0. -1.
         -2   -1    0    0    0  501 -0.00000000000E+00 -0.00000000000E+00 -0.27889858164E+03  0.27889858164E+03  0.00000000000E+00 0.  1.
         25    2    1    2    0    0 -0.11888691799E+03  0.55245906101E+02  0.95015911943E+02  0.20459007950E+03  0.12507145036E+03 0.  0.
         23    2    1    2    0    0  0.11888691799E+03 -0.55245906101E+02 -0.19652403096E+03  0.25169896477E+03  0.86858878120E+02 0.  0.
          5    1    3    3  502    0 -0.51281349340E+02 -0.27072724117E+02  0.76985257096E+02  0.96472334850E+02  0.41800000000E+01 0.  1.
         -5    1    3    3    0  502 -0.67605568649E+02  0.82318630218E+02  0.18030654847E+02  0.10811774465E+03  0.41800000000E+01 0.  1.
        -11    1    4    4    0    0  0.52277268330E+02 -0.71086996657E+02 -0.10011564614E+03  0.13345192573E+03  0.00000000000E+00 0.  1.
         11    1    4    4    0    0  0.66609649659E+02  0.15841090556E+02 -0.96408384823E+02  0.11824703904E+03  0.00000000000E+00 0. -1.
</event>
<event>
 8    1  0.3528896E-009  0.9061063E+02  0.7561462E-02  0.1301380E+00
          1   -1    0    0  501    0  0.00000000000E+00  0.00000000000E+00  0.15719691646E+03  0.15719691646E+03  0.00000000000E+00 0. -1.
         -1   -1    0    0    0  501 -0.00000000000E+00 -0.00000000000E+00 -0.87977830367E+02  0.87977830367E+02  0.00000000000E+00 0.  1.
         25    2    1    2    0    0 -0.26899182725E+02 -0.37449463780E+02  0.60305224472E+02  0.14632197490E+03  0.12508945548E+03 0.  0.
         23    2    1    2    0    0  0.26899182725E+02  0.37449463780E+02  0.89138616225E+01  0.98852771926E+02  0.86984971229E+02 0.  0.
          5    1    3    3  502    0 -0.77061635736E+02 -0.26795052900E+02  0.33374260045E+02  0.88248423192E+02  0.41800000000E+01 0. -1.
         -5    1    3    3    0  502  0.50162453011E+02 -0.10654410880E+02  0.26930964427E+02  0.58073551711E+02  0.41800000000E+01 0. -1.
        -11    1    4    4    0    0  0.13754811532E+02  0.29912951898E+02 -0.37574122132E+02  0.49957924151E+02  0.00000000000E+00 0.  1.
         11    1    4    4    0    0  0.13144371193E+02  0.75365118817E+01  0.46487983754E+02  0.48894847775E+02  0.00000000000E+00 0. -1.
</event>
<event>
 8    1  0.3528896E-009  0.1430418E+03  0.7561462E-02  0.1209294E+00
          2   -1    0    0  501    0  0.00000000000E+00  0.00000000000E+00  0.24975632784E+04  0.24975632784E+04  0.00000000000E+00 0. -1.
         -2   -1    0    0    0  501 -0.00000000000E+00 -0.00000000000E+00 -0.22088216386E+02  0.22088216386E+02  0.00000000000E+00 0.  1.
         25    2    1    2    0    0  0.10251000110E+03 -0.27767700515E+02  0.22277526730E+04  0.22337897569E+04  0.12512138211E+03 0.  0.
         23    2    1    2    0    0 -0.10251000110E+03  0.27767700515E+02  0.24772238897E+03  0.28586173788E+03  0.95242877279E+02 0.  0.
          5    1    3    3  502    0  0.10503515670E+03 -0.55382332931E+02  0.20805388393E+04  0.20839287226E+04  0.41800000000E+01 0. -1.
         -5    1    3    3    0  502 -0.25251556011E+01  0.27614632417E+02  0.14721383377E+03  0.14986103425E+03  0.41800000000E+01 0. -1.
        -11    1    4    4    0    0 -0.39477291788E+02  0.57327684447E+02  0.15500381904E+03  0.16991499018E+03  0.00000000000E+00 0.  1.
         11    1    4    4    0    0 -0.63032709314E+02 -0.29559983932E+02  0.92718569924E+02  0.11594674770E+03  0.00000000000E+00 0. -1.
</event>
<event>
 8    1  0.3528896E-009  0.9386914E+02  0.7561462E-02  0.1293744E+00
         -2   -1    0    0    0  501 -0.00000000000E+00  0.00000000000E+00  0.13177781233E+03  0.13177781233E+03  0.00000000000E+00 0.  1.
          2   -1    0    0  501    0  0.00000000000E+00 -0.00000000000E+00 -0.90860865594E+02  0.90860865594E+02  0.00000000000E+00 0. -1.
         25    2    1    2    0    0  0.17375498201E+01 -0.10668667250E+02  0.10932489030E+02  0.12603480294E+03  0.12509361573E+03 0.  0.
         23    2    1    2    0    0 -0.17375498201E+01  0.10668667250E+02  0.29984457708E+02  0.96603874987E+02  0.91194305844E+02 0.  0.
          5    1    3    3  502    0 -0.44971895173E+02 -0.40904841872E+02 -0.17515298946E+02  0.63402961612E+02  0.41800000000E+01 0. -1.
         -5    1    3    3    0  502  0.46709444993E+02  0.30236174622E+02  0.28447787976E+02  0.62631841327E+02  0.41800000000E+01 0. -1.
        -11    1    4    4    0    0  0.33986635988E+02  0.10286823399E+01  0.45229031839E+02  0.56584582125E+02  0.00000000000E+00 0.  1.
         11    1    4    4    0    0 -0.35724185809E+02  0.96399849099E+01 -0.15244574131E+02  0.40019292862E+02  0.00000000000E+00 0. -1.
</event>
<event>
 8    1  0.3528896E-009  0.1131706E+03  0.7561462E-02  0.1254809E+00
         -2   -1    0    0    0  501 -0.00000000000E+00  0.00000000000E+00  0.17704555502E+02  0.17704555502E+02  0.00000000000E+00 0. -1.
          2   -1    0    0  501    0  0.00000000000E+00 -0.00000000000E+00 -0.11470995241E+04  0.11470995241E+04  0.00000000000E+00 0.  1.
         25    2    1    2    0    0 -0.61850796237E+02 -0.66150177298E+02 -0.54067275178E+03  0.56229300296E+03  0.12508009321E+03 0.  0.
         23    2    1    2    0    0  0.61850796237E+02  0.66150177298E+02 -0.58872221678E+03  0.60251107659E+03  0.90688378190E+02 0.  0.
          5    1    3    3  502    0 -0.24138650760E+02 -0.26057905206E+01 -0.42006995890E+03  0.42079176249E+03  0.41800000000E+01 0. -1.
         -5    1    3    3    0  502 -0.37712145476E+02 -0.63544386777E+02 -0.12060279287E+03  0.14150124048E+03  0.41800000000E+01 0. -1.
        -11    1    4    4    0    0  0.84116888673E+02  0.63243223604E+02 -0.46415903814E+03  0.47594008969E+03  0.00000000000E+00 0.  1.
         11    1    4    4    0    0 -0.22266092437E+02  0.29069536942E+01 -0.12456317864E+03  0.12657098690E+03  0.00000000000E+00 0. -1.
</event>
<event>
 8    1  0.3528896E-009  0.1096405E+03  0.7561462E-02  0.1261237E+00
         -2   -1    0    0    0  501 -0.00000000000E+00  0.00000000000E+00  0.33683138736E+02  0.33683138736E+02  0.00000000000E+00 0.  1.
          2   -1    0    0  501    0  0.00000000000E+00 -0.00000000000E+00 -0.58586740746E+03  0.58586740746E+03  0.00000000000E+00 0. -1.
         25    2    1    2    0    0  0.59570970361E+02 -0.26669604108E+02 -0.41874962544E+03  0.44188080446E+03  0.12508968083E+03 0.  0.
         23    2    1    2    0    0 -0.59570970361E+02  0.26669604108E+02 -0.13343464329E+03  0.17766974174E+03  0.97476996302E+02 0.  0.
          5    1    3    3  502    0 -0.38513731187E+02  0.19064725462E+01 -0.10954976250E+03  0.11621344583E+03  0.41800000000E+01 0. -1.
         -5    1    3    3    0  502  0.98084701548E+02 -0.28576076654E+02 -0.30919986294E+03  0.32566735863E+03  0.41800000000E+01 0. -1.
        -11    1    4    4    0    0 -0.57885240940E+02  0.67751182805E+01 -0.14380888675E+03  0.15516958224E+03  0.00000000000E+00 0. -1.
         11    1    4    4    0    0 -0.16857294212E+01  0.19894485827E+02  0.10374243460E+02  0.22500159497E+02  0.00000000000E+00 0.  1.
</event>
<event>
 8    1  0.3528896E-009  0.1256889E+03  0.7561462E-02  0.1233996E+00
         -2   -1    0    0    0  501 -0.00000000000E+00  0.00000000000E+00  0.84126209749E+02  0.84126209749E+02  0.00000000000E+00 0.  1.
          2   -1    0    0  501    0  0.00000000000E+00 -0.00000000000E+00 -0.22795693516E+03  0.22795693516E+03  0.00000000000E+00 0. -1.
         25    2    1    2    0    0 -0.79542232466E+01 -0.83288790289E+02 -0.69101513201E+02  0.16559831658E+03  0.12508993194E+03 0.  0.
         23    2    1    2    0    0  0.79542232466E+01  0.83288790289E+02 -0.74729212214E+02  0.14648482833E+03  0.94196908221E+02 0.  0.
          5    1    3    3  502    0 -0.54378029063E+02 -0.65940302660E+02 -0.67462900923E+01  0.85837511553E+02  0.41800000000E+01 0.  1.
         -5    1    3    3    0  502  0.46423805816E+02 -0.17348487629E+02 -0.62355223109E+02  0.79760805026E+02  0.41800000000E+01 0.  1.
        -11    1    4    4    0    0 -0.14010448081E+01  0.98339326191E+02 -0.37505362847E+02  0.10525796048E+03  0.00000000000E+00 0.  1.
         11    1    4    4    0    0  0.93552680547E+01 -0.15050535901E+02 -0.37223849367E+02  0.41226867853E+02  0.00000000000E+00 0. -1.
</event>
<event>
 8    1  0.3528896E-009  0.2873262E+03  0.7561462E-02  0.1091753E+00
          2   -1    0    0  501    0  0.00000000000E+00  0.00000000000E+00  0.29933635459E+03  0.29933635459E+03  0.00000000000E+00 0. -1.
         -2   -1    0    0    0  501 -0.00000000000E+00 -0.00000000000E+00 -0.29005610587E+03  0.29005610587E+03  0.00000000000E+00 0.  1.
         25    2    1    2    0    0  0.25406656098E+03  0.99025455532E+02  0.28481400151E+02  0.30135492723E+03  0.12509094196E+03 0.  0.
         23    2    1    2    0    0 -0.25406656098E+03 -0.99025455532E+02 -0.19201151427E+02  0.28803753323E+03  0.90780383778E+02 0.  0.
          5    1    3    3  502    0  0.88670662838E+02  0.98877952127E+02 -0.31182983622E+01  0.13291550718E+03  0.41800000000E+01 0. -1.
         -5    1    3    3    0  502  0.16539589815E+03  0.14750340527E+00  0.31599698513E+02  0.16843942005E+03  0.41800000000E+01 0. -1.
        -11    1    4    4    0    0 -0.13106444638E+03 -0.74973436593E+02 -0.49856591150E+02  0.15901127313E+03  0.00000000000E+00 0. -1.
         11    1    4    4    0    0 -0.12300211460E+03 -0.24052018939E+02  0.30655439723E+02  0.12902626010E+03  0.00000000000E+00 0.  1.
</event>
<event>
 8    1  0.3528896E-009  0.1472774E+03  0.7561462E-02  0.1203859E+00
          1   -1    0    0  501    0  0.00000000000E+00  0.00000000000E+00  0.95157236117E+02  0.95157236117E+02  0.00000000000E+00 0. -1.
         -1   -1    0    0    0  501 -0.00000000000E+00 -0.00000000000E+00 -0.58372601796E+03  0.58372601796E+03  0.00000000000E+00 0.  1.
         25    2    1    2    0    0  0.35452693994E+02  0.12015416883E+03 -0.11672696227E+02  0.17742164209E+03  0.12509304315E+03 0.  0.
         23    2    1    2    0    0 -0.35452693994E+02 -0.12015416883E+03 -0.47689608562E+03  0.50146161199E+03  0.91323348737E+02 0.  0.
          5    1    3    3  502    0  0.50821103067E+02  0.86441566822E+01 -0.34921405453E+02  0.62405792364E+02  0.41800000000E+01 0. -1.
         -5    1    3    3    0  502 -0.15368409073E+02  0.11151001215E+03  0.23248709227E+02  0.11501584972E+03  0.41800000000E+01 0. -1.
        -11    1    4    4    0    0 -0.42791969136E+02 -0.10270613254E+03 -0.46705969376E+03  0.48012962814E+03  0.00000000000E+00 0.  1.
         11    1    4    4    0    0  0.73392751420E+01 -0.17448036297E+02 -0.98363918563E+01  0.21331983850E+02  0.00000000000E+00 0. -1.
</event>
<event>
 8    1  0.3528896E-009  0.1744033E+03  0.7561462E-02  0.1173332E+00
         -2   -1    0    0    0  501 -0.00000000000E+00  0.00000000000E+00  0.14731195759E+03  0.14731195759E+03  0.00000000000E+00 0.  1.
          2   -1    0    0  501    0  0.00000000000E+00 -0.00000000000E+00 -0.25852668017E+03  0.25852668017E+03  0.00000000000E+00 0. -1.
         25    2    1    2    0    0 -0.14036884787E+03 -0.59339569725E+02 -0.11351141499E+03  0.22750175693E+03  0.12509040765E+03 0.  0.
         23    2    1    2    0    0  0.14036884787E+03  0.59339569725E+02  0.22966924130E+01  0.17833688083E+03  0.92596815713E+02 0.  0.
          5    1    3    3  502    0 -0.15381631771E+03 -0.77762637270E+02 -0.10871925818E+03  0.20382305279E+03  0.41800000000E+01 0.  1.
         -5    1    3    3    0  502  0.13447469840E+02  0.18423067545E+02 -0.47921568010E+01  0.23678704139E+02  0.41800000000E+01 0.  1.
        -11    1    4    4    0    0  0.74813993927E+02  0.40144617810E+02 -0.44186306979E+02  0.95713916182E+02  0.00000000000E+00 0. -1.
         11    1    4    4    0    0  0.65554853945E+02  0.19194951915E+02  0.46482999392E+02  0.82622964648E+02  0.00000000000E+00 0.  1.
</event>
<event>
 8    1  0.3528896E-009  0.1872178E+03  0.7561462E-02  0.1160995E+00
          2   -1    0    0  501    0  0.00000000000E+00  0.00000000000E+00  0.11595554641E+04  0.11595554641E+04  0.00000000000E+00 0. -1.
         -2   -1    0    0    0  501 -0.00000000000E+00 -0.00000000000E+00 -0.52590134673E+02  0.52590134673E+02  0.00000000000E+00 0.  1.
         25    2    1    2    0    0 -0.16280163433E+03 -0.75274288505E+02  0.89291270752E+03  0.91929944014E+03  0.12509103378E+03 0.  0.
         23    2    1    2    0    0  0.16280163433E+03  0.75274288505E+02  0.21405262187E+03  0.29284615860E+03  0.88146225259E+02 0.  0.
          5    1    3    3  502    0 -0.71901236797E+02 -0.31746196257E+02  0.14836864727E+03  0.16795337664E+03  0.41800000000E+01 0. -1.
         -5    1    3    3    0  502 -0.90900397534E+02 -0.43528092247E+02  0.74454406025E+03  0.75134606350E+03  0.41800000000E+01 0. -1.
        -11    1    4    4    0    0  0.15593918361E+03  0.88971320365E+02  0.21131248570E+03  0.27728305294E+03  0.00000000000E+00 0. -1.
         11    1    4    4    0    0  0.68624507187E+01 -0.13697031861E+02  0.27401361680E+01  0.15563105663E+02  0.00000000000E+00 0.  1.
</event>
<event>
 8    1  0.3528896E-009  0.8260689E+02  0.7561462E-02  0.1321812E+00
         -2   -1    0    0    0  501 -0.00000000000E+00  0.00000000000E+00  0.30197840790E+02  0.30197840790E+02  0.00000000000E+00 0.  1.
          2   -1    0    0  501    0  0.00000000000E+00 -0.00000000000E+00 -0.62927242757E+03  0.62927242757E+03  0.00000000000E+00 0. -1.
         25    2    1    2    0    0 -0.39683534143E+02 -0.76229155073E+01 -0.48777911278E+03  0.50518167330E+03  0.12508864239E+03 0.  0.
         23    2    1    2    0    0  0.39683534143E+02  0.76229155073E+01 -0.11129547400E+03  0.15428859506E+03  0.98921162087E+02 0.  0.
          5    1    3    3  502    0  0.31552818249E+02  0.24257532406E+01 -0.37828052801E+02  0.49496450347E+02  0.41800000000E+01 0. -1.
         -5    1    3    3    0  502 -0.71236352392E+02 -0.10048668748E+02 -0.44995105997E+03  0.45568522295E+03  0.41800000000E+01 0. -1.
        -11    1    4    4    0    0  0.41355696146E+02 -0.10790994089E+02 -0.13106727510E+01  0.42760460945E+02  0.00000000000E+00 0.  1.
         11    1    4    4    0    0 -0.16721620034E+01  0.18413909596E+02 -0.10998480125E+03  0.11152813412E+03  0.00000000000E+00 0. -1.
</event>
<event>
 8    1  0.3528896E-009  0.9122563E+02  0.7561462E-02  0.1299911E+00
         -2   -1    0    0    0  501 -0.00000000000E+00  0.00000000000E+00  0.19628599458E+02  0.19628599458E+02  0.00000000000E+00 0.  1.
          2   -1    0    0  501    0  0.00000000000E+00 -0.00000000000E+00 -0.73577483119E+03  0.73577483119E+03  0.00000000000E+00 0. -1.
         25    2    1    2    0    0 -0.34878920976E+02 -0.36208542129E+02 -0.36697680825E+03  0.39095925881E+03  0.12509822781E+03 0.  0.
         23    2    1    2    0    0  0.34878920976E+02  0.36208542129E+02 -0.34916942348E+03  0.36444417184E+03  0.91502297479E+02 0.  0.
          5    1    3    3  502    0 -0.13928954956E+02 -0.53682049240E+02 -0.35746727582E+03  0.36176802495E+03  0.41800000000E+01 0.  1.
         -5    1    3    3    0  502 -0.20949966020E+02  0.17473507111E+02 -0.95095324363E+01  0.29191233858E+02  0.41800000000E+01 0.  1.
        -11    1    4    4    0    0  0.39380734532E+02 -0.19083105429E+02 -0.21223495335E+03  0.21669952143E+03  0.00000000000E+00 0. -1.
         11    1    4    4    0    0 -0.45018135556E+01  0.55291647558E+02 -0.13693447013E+03  0.14774465041E+03  0.00000000000E+00 0.  1.
</event>
<event>
 8    1  0.3528896E-009  0.9878520E+02  0.7561462E-02  0.1282871E+00
         -2   -1    0    0    0  501 -0.00000000000E+00  0.00000000000E+00  0.41930106599E+02  0.41930106599E+02  0.00000000000E+00 0.  1.
          2   -1    0    0  501    0  0.00000000000E+00 -0.00000000000E+00 -0.39317950611E+03  0.39317950611E+03  0.00000000000E+00 0. -1.
         25    2    1    2    0    0  0.50141078862E+02 -0.42788866991E+02 -0.17027461764E+03  0.22133095820E+03  0.12509569424E+03 0.  0.
         23    2    1    2    0    0 -0.50141078862E+02  0.42788866991E+02 -0.18097478187E+03  0.21377865451E+03  0.92760048096E+02 0.  0.
          5    1    3    3  502    0  0.26210446569E+02  0.81492676442E+01 -0.16191802024E+03  0.16428120936E+03  0.41800000000E+01 0.  1.
         -5    1    3    3    0  502  0.23930632292E+02 -0.50938134635E+02 -0.83565974032E+01  0.57049748836E+02  0.41800000000E+01 0.  1.
        -11    1    4    4    0    0 -0.75938595500E+02  0.43592778266E+02 -0.14715220215E+03  0.17123309026E+03  0.00000000000E+00 0.  1.
         11    1    4    4    0    0  0.25797516638E+02 -0.80391127498E+00 -0.33822579723E+02  0.42545564248E+02  0.00000000000E+00 0. -1.
</event>
<event>
 8    1  0.3528896E-009  0.9839814E+02  0.7561462E-02  0.1283701E+00
         -1   -1    0    0    0  501 -0.00000000000E+00  0.00000000000E+00  0.22789278535E+03  0.22789278535E+03  0.00000000000E+00 0.  1.
          1   -1    0    0  501    0  0.00000000000E+00 -0.00000000000E+00 -0.71537828578E+02  0.71537828578E+02  0.00000000000E+00 0. -1.
         25    2    1    2    0    0 -0.65886260137E+02  0.78188159346E+01  0.10407351854E+03  0.17573009302E+03  0.12509050793E+03 0.  0.
         23    2    1    2    0    0  0.65886260137E+02 -0.78188159346E+01  0.52281438227E+02  0.12370052090E+03  0.90367787022E+02 0.  0.
          5    1    3    3  502    0 -0.90544344866E+02  0.84556764953E+01  0.11645646786E+03  0.14781528391E+03  0.41800000000E+01 0.  1.
         -5    1    3    3    0  502  0.24658084730E+02 -0.63686056070E+00 -0.12382949315E+02  0.27914809110E+02  0.41800000000E+01 0.  1.
        -11    1    4    4    0    0  0.67048791097E+02  0.55931890752E+01 -0.24613786384E+01  0.67326685173E+02  0.00000000000E+00 0. -1.
         11    1    4    4    0    0 -0.11625309601E+01 -0.13412005010E+02  0.54742816866E+02  0.56373835731E+02  0.00000000000E+00 0.  1.
</event>
<event>
 8    1  0.3528896E-009  0.1178935E+03  0.7561462E-02  0.1246613E+00
          4   -1    0    0  501    0  0.00000000000E+00  0.00000000000E+00  0.52874498656E+03  0.52874498656E+03  0.00000000000E+00 0.  1.
         -4   -1    0    0    0  501 -0.00000000000E+00 -0.00000000000E+00 -0.42857983252E+02  0.42857983252E+02  0.00000000000E+00 0. -1.
         25    2    1    2    0    0 -0.29465703218E+02  0.84256178345E+02  0.16005393371E+03  0.22188266873E+03  0.12508927104E+03 0.  0.
         23    2    1    2    0    0  0.29465703218E+02 -0.84256178345E+02  0.32583306960E+03  0.34972030108E+03  0.90386771661E+02 0.  0.
          5    1    3    3  502    0  0.25052206780E+02 -0.38619781450E+01 -0.57426804433E+01  0.26324488949E+02  0.41800000000E+01 0.  1.
         -5    1    3    3    0  502 -0.54517909998E+02  0.88118156490E+02  0.16579661415E+03  0.19555817978E+03  0.41800000000E+01 0.  1.
        -11    1    4    4    0    0  0.45849681792E+02 -0.46833238364E+02  0.28315543381E+03  0.29064160960E+03  0.00000000000E+00 0.  1.
         11    1    4    4    0    0 -0.16383978574E+02 -0.37422939981E+02  0.42677635787E+02  0.59078691481E+02  0.00000000000E+00 0. -1.
</event>
<event>
 7    1  0.3528896E-009  0.4624750E+03  0.7561462E-02  0.1024066E+00
         -3   -1    0    0    0  501 -0.00000000000E+00  0.00000000000E+00  0.50495009474E+03  0.50495009474E+03  0.00000000000E+00 0.  1.
          3   -1    0    0  501    0  0.00000000000E+00 -0.00000000000E+00 -0.59137692402E+03  0.59137692402E+03  0.00000000000E+00 0. -1.
         23    2    1    2    0    0  0.23902513116E+03  0.38314037987E+03 -0.33163228806E+03  0.56748191331E+03  0.90145346172E+02 0.  0.
          5    1    1    2  502    0 -0.36413120835E+02 -0.26653590521E+01  0.27574276763E+02  0.45943798785E+02  0.41800000000E+01 0.  1.
         -5    1    1    2    0  502 -0.20261201032E+03 -0.38047502082E+03  0.21763118202E+03  0.48290130667E+03  0.41800000000E+01 0.  1.
        -11    1    3    3    0    0  0.20296095329E+03  0.26621063602E+03 -0.21131073187E+03  0.39587053022E+03  0.00000000000E+00 0.  1.
         11    1    3    3    0    0  0.36064177861E+02  0.11692974385E+03 -0.12032155619E+03  0.17161138309E+03  0.00000000000E+00 0. -1.
</event>
<event>
 8    1  0.3528896E-009  0.4236567E+03  0.7561462E-02  0.1035883E+00
         -1   -1    0    0    0  501 -0.00000000000E+00  0.00000000000E+00  0.41340853045E+03  0.41340853045E+03  0.00000000000E+00 0.  1.
          1   -1    0    0  501    0  0.00000000000E+00 -0.00000000000E+00 -0.51101668944E+03  0.51101668944E+03  0.00000000000E+00 0. -1.
         25    2    1    2    0    0 -0.15575697160E+03 -0.38532127051E+03 -0.21288050247E+03  0.48342214134E+03  0.12508454222E+03 0.  0.
         23    2    1    2    0    0  0.15575697160E+03  0.38532127051E+03  0.11527234348E+03  0.44100307855E+03  0.91996121753E+02 0.  0.
          5    1    3    3  502    0 -0.16802874952E+03 -0.32539484854E+03 -0.20969940762E+03  0.42202699212E+03  0.41800000000E+01 0.  1.
         -5    1    3    3    0  502  0.12271777926E+02 -0.59926421970E+02 -0.31810948452E+01  0.61395149222E+02  0.41800000000E+01 0.  1.
        -11    1    4    4    0    0  0.53790985173E+02  0.21154138631E+03  0.23283426273E+02  0.21951160823E+03  0.00000000000E+00 0. -1.
         11    1    4    4    0    0  0.10196598642E+03  0.17377988420E+03  0.91988917206E+02  0.22149147033E+03  0.00000000000E+00 0.  1.
</event>
<event>
 8    1  0.3528896E-009  0.1014269E+03  0.7561462E-02  0.1277324E+00
         -1   -1    0    0    0  501 -0.00000000000E+00  0.00000000000E+00  0.41858851845E+02  0.41858851845E+02  0.00000000000E+00 0.  1.
          1   -1    0    0  501    0  0.00000000000E+00 -0.00000000000E+00 -0.42714321012E+03  0.42714321012E+03  0.00000000000E+00 0. -1.
         25    2    1    2    0    0 -0.75953626110E+02 -0.13868250268E+02 -0.23569512117E+03  0.27777889582E+03  0.12509053974E+03 0.  0.
         23    2    1    2    0    0  0.75953626110E+02  0.13868250268E+02 -0.14958923710E+03  0.19122316615E+03  0.90708752224E+02 0.  0.
          5    1    3    3  502    0  0.40634179506E+01  0.31433874008E+02 -0.14527337848E+03  0.14874954352E+03  0.41800000000E+01 0.  1.
         -5    1    3    3    0  502 -0.80017044060E+02 -0.45302124275E+02 -0.90421742689E+02  0.12902935230E+03  0.41800000000E+01 0.  1.
        -11    1    4    4    0    0  0.23466804302E+02  0.11906096643E+02  0.60153295994E+01  0.26993151569E+02  0.00000000000E+00 0.  1.
         11    1    4    4    0    0  0.52486821808E+02  0.19621536244E+01 -0.15560456670E+03  0.16423001458E+03  0.00000000000E+00 0. -1.
</event>
<event>
 8    1  0.3528896E-009  0.1590324E+03  0.7561462E-02  0.1189794E+00
          4   -1    0    0  501    0  0.00000000000E+00  0.00000000000E+00  0.43823737791E+02  0.43823737791E+02  0.00000000000E+00 0. -1.
         -4   -1    0    0    0  501 -0.00000000000E+00 -0.00000000000E+00 -0.62011049474E+03  0.62011049474E+03  0.00000000000E+00 0.  1.
         25    2    1    2    0    0 -0.56672088229E+02  0.10850212463E+03 -0.26064694435E+03  0.31395534217E+03  0.12508673249E+03 0.  0.
         23    2    1    2    0    0  0.56672088229E+02 -0.10850212463E+03 -0.31563981260E+03  0.34997889036E+03  0.88725958815E+02 0.  0.
          5    1    3    3  502    0  0.31143283428E+02  0.57966169678E+02 -0.60040262194E+02  0.89175593153E+02  0.41800000000E+01 0.  1.
         -5    1    3    3    0  502 -0.87815371658E+02  0.50535954952E+02 -0.20060668216E+03  0.22477974902E+03  0.41800000000E+01 0.  1.
        -11    1    4    4    0    0  0.80270058054E+02 -0.75847022311E+02 -0.21874621250E+03  0.24504276871E+03  0.00000000000E+00 0. -1.
         11    1    4    4    0    0 -0.23597969825E+02 -0.32655102319E+02 -0.96893600098E+02  0.10493612165E+03  0.00000000000E+00 0.  1.
</event>
<event>
 8    1  0.3528896E-009  0.1706158E+03  0.7561462E-02  0.1177207E+00
          2   -1    0    0  501    0  0.00000000000E+00  0.00000000000E+00  0.26034893402E+03  0.26034893402E+03  0.00000000000E+00 0. -1.
         -2   -1    0    0    0  501 -0.00000000000E+00 -0.00000000000E+00 -0.12170892313E+03  0.12170892313E+03  0.00000000000E+00 0.  1.
         25    2    1    2    0    0 -0.10847420061E+03  0.90119942175E+02  0.66563168613E+02  0.19991603836E+03  0.12509001081E+03 0.  0.
         23    2    1    2    0    0  0.10847420061E+03 -0.90119942175E+02  0.72076842283E+02  0.18214181878E+03  0.89957294204E+02 0.  0.
          5    1    3    3  502    0 -0.15171516909E+02 -0.24829923393E+02 -0.12594004428E+02  0.31980953215E+02  0.41800000000E+01 0.  1.
         -5    1    3    3    0  502 -0.93302683703E+02  0.11494986557E+03  0.79157173041E+02  0.16793508515E+03  0.41800000000E+01 0.  1.
        -11    1    4    4    0    0  0.27947558068E+02  0.14673782236E+02  0.29733141972E+02  0.43364105187E+02  0.00000000000E+00 0. -1.
         11    1    4    4    0    0  0.80526642544E+02 -0.10479372441E+03  0.42343700311E+02  0.13877771360E+03  0.00000000000E+00 0.  1.
</event>
<event>
 8    1  0.3528896E-009  0.2665966E+03  0.7561462E-02  0.1103243E+00
         -1   -1    0    0    0  501 -0.00000000000E+00  0.00000000000E+00  0.90590652993E+03  0.90590652993E+03  0.00000000000E+00 0.  1.
          1   -1    0    0  501    0  0.00000000000E+00 -0.00000000000E+00 -0.10856964239E+03  0.10856964239E+03  0.00000000000E+00 0. -1.
         25    2    1    2    0    0  0.23285166063E+03  0.12769091803E+03  0.60842470592E+03  0.67553989616E+03  0.12509461271E+03 0.  0.
         23    2    1    2    0    0 -0.23285166063E+03 -0.12769091803E+03  0.18891218162E+03  0.33893627615E+03  0.93086629129E+02 0.  0.
          5    1    3    3  502    0  0.13144247269E+03  0.75161070346E+02  0.48141757622E+03  0.50468471863E+03  0.41800000000E+01 0. -1.
         -5    1    3    3    0  502  0.10140918794E+03  0.52529847679E+02  0.12700712970E+03  0.17085517754E+03  0.41800000000E+01 0. -1.
        -11    1    4    4    0    0 -0.18826001575E+03 -0.88299064910E+02  0.18660559602E+03  0.27939256765E+03  0.00000000000E+00 0.  1.
         11    1    4    4    0    0 -0.44591644879E+02 -0.39391853116E+02  0.23065856065E+01  0.59543708501E+02  0.00000000000E+00 0. -1.
</event>
<event>
 8    1  0.3528896E-009  0.1016771E+03  0.7561462E-02  0.1276808E+00
         -2   -1    0    0    0  501 -0.00000000000E+00  0.00000000000E+00  0.13347712989E+03  0.13347712989E+03  0.00000000000E+00 0.  1.
          2   -1    0    0  501    0  0.00000000000E+00 -0.00000000000E+00 -0.13730362256E+03  0.13730362256E+03  0.00000000000E+00 0. -1.
         25    2    1    2    0    0  0.47748981350E+01  0.77579726739E+02  0.21619014538E+02  0.14885051510E+03  0.12509068872E+03 0.  0.
         23    2    1    2    0    0 -0.47748981350E+01 -0.77579726739E+02 -0.25445507214E+02  0.12193023734E+03  0.90432821964E+02 0.  0.
          5    1    3    3  502    0  0.37866815989E+01 -0.21210378113E+01  0.59988574033E+02  0.60290456736E+02  0.41800000000E+01 0. -1.
         -5    1    3    3    0  502  0.98821653614E+00  0.79700764551E+02 -0.38369559495E+02  0.88560058366E+02  0.41800000000E+01 0. -1.
        -11    1    4    4    0    0  0.39930053738E+02 -0.53426809111E+02 -0.24658725272E+02  0.71111784223E+02  0.00000000000E+00 0. -1.
         11    1    4    4    0    0 -0.44704951873E+02 -0.24152917628E+02 -0.78678194203E+00  0.50818453122E+02  0.00000000000E+00 0.  1.
</event>
<event>
 8    1  0.3528896E-009  0.9456400E+02  0.7561462E-02  0.1292161E+00
         -3   -1    0    0    0  501 -0.00000000000E+00  0.00000000000E+00  0.10175278141E+03  0.10175278141E+03  0.00000000000E+00 0.  1.
          3   -1    0    0  501    0  0.00000000000E+00 -0.00000000000E+00 -0.14031102970E+03  0.14031102970E+03  0.00000000000E+00 0. -1.
         25    2    1    2    0    0  0.65307865254E+02  0.26702605728E+02 -0.70038032916E+01  0.14378557707E+03  0.12508833877E+03 0.  0.
         23    2    1    2    0    0 -0.65307865254E+02 -0.26702605728E+02 -0.31554444998E+02  0.98278234041E+02  0.60702404157E+02 0.  0.
          5    1    3    3  502    0 -0.67282644068E+01 -0.12000605528E+02 -0.49490725146E+02  0.51537252066E+02  0.41800000000E+01 0. -1.
         -5    1    3    3    0  502  0.72036129661E+02  0.38703211256E+02  0.42486921855E+02  0.92248325008E+02  0.41800000000E+01 0. -1.
        -11    1    4    4    0    0 -0.52571261289E+02 -0.45926626080E+02 -0.26519947472E+02  0.74674628292E+02  0.00000000000E+00 0.  1.
         11    1    4    4    0    0 -0.12736603965E+02  0.19224020351E+02 -0.50344975256E+01  0.23603605749E+02  0.00000000000E+00 0. -1.
</event>
<event>
 8    1  0.3528896E-009  0.7456861E+02  0.7561462E-02  0.1345212E+00
         -2   -1    0    0    0  501 -0.00000000000E+00  0.00000000000E+00  0.20911228455E+02  0.20911228455E+02  0.00000000000E+00 0. -1.
          2   -1    0    0  501    0  0.00000000000E+00 -0.00000000000E+00 -0.68703802954E+03  0.68703802954E+03  0.00000000000E+00 0.  1.
         25    2    1    2    0    0 -0.37313756551E+02 -0.28019200430E+02 -0.31157197838E+03  0.33897234097E+03  0.12509099971E+03 0.  0.
         23    2    1    2    0    0  0.37313756551E+02  0.28019200430E+02 -0.35455482270E+03  0.36897691703E+03  0.90870517637E+02 0.  0.
          5    1    3    3  502    0 -0.20591092817E+02 -0.17963065439E+02 -0.89751345670E+00  0.27657598482E+02  0.41800000000E+01 0. -1.
         -5    1    3    3    0  502 -0.16722663735E+02 -0.10056134991E+02 -0.31067446493E+03  0.31131474249E+03  0.41800000000E+01 0. -1.
        -11    1    4    4    0    0  0.15736327851E+02 -0.33138782593E+02 -0.10928925012E+03  0.11528205029E+03  0.00000000000E+00 0.  1.
         11    1    4    4    0    0  0.21577428701E+02  0.61157983023E+02 -0.24526557258E+03  0.25369486674E+03  0.00000000000E+00 0. -1.
</event>
<event>
 7    1  0.3528896E-009  0.1197589E+03  0.7561462E-02  0.1243495E+00
         -1   -1    0    0    0  501 -0.00000000000E+00  0.00000000000E+00  0.34962053006E+02  0.34962053006E+02  0.00000000000E+00 0.  1.
          1   -1    0    0  501    0  0.00000000000E+00 -0.00000000000E+00 -0.46553687016E+03  0.46553687016E+03  0.00000000000E+00 0. -1.
         25    2    1    2    0    0  0.85380828317E+02 -0.17208310605E+02 -0.28617066597E+03  0.32423156724E+03  0.12508575994E+03 0.  0.
          5    1    3    3  502    0  0.10557271837E+03 -0.47441686783E+02 -0.21599423464E+03  0.24508629971E+03  0.41800000000E+01 0. -1.
         -5    1    3    3    0  502 -0.20191890051E+02  0.30233376178E+02 -0.70176431328E+02  0.79145267533E+02  0.41800000000E+01 0. -1.
        -11    1    1    2    0    0 -0.19548206627E+02  0.34823600967E+01 -0.35327998103E+01  0.20167793351E+02  0.00000000000E+00 0.  1.
         11    1    1    2    0    0 -0.65832621690E+02  0.13725950508E+02 -0.14087135138E+03  0.15609956257E+03  0.00000000000E+00 0. -1.
</event>
<event>
 8    1  0.3528896E-009  0.6806975E+02  0.7561462E-02  0.1366783E+00
          1   -1    0    0  501    0  0.00000000000E+00  0.00000000000E+00  0.69384557089E+03  0.69384557089E+03  0.00000000000E+00 0. -1.
         -1   -1    0    0    0  501 -0.00000000000E+00 -0.00000000000E+00 -0.21972717145E+02  0.21972717145E+02  0.00000000000E+00 0.  1.
         25    2    1    2    0    0 -0.42583901759E+02  0.14901344794E+01  0.49480042601E+03  0.51214271126E+03  0.12508831254E+03 0.  0.
         23    2    1    2    0    0  0.42583901759E+02 -0.14901344794E+01  0.17707242774E+03  0.20367557677E+03  0.91178323727E+02 0.  0.
          5    1    3    3  502    0 -0.32382465459E+02  0.25287733560E+02  0.43139250479E+02  0.59720690465E+02  0.41800000000E+01 0.  1.
         -5    1    3    3    0  502 -0.10201436300E+02 -0.23797599081E+02  0.45166117553E+03  0.45242202080E+03  0.41800000000E+01 0.  1.
        -11    1    4    4    0    0 -0.11645715720E+02  0.72008423000E+01 -0.41551049359E+01  0.14308728857E+02  0.00000000000E+00 0.  1.
         11    1    4    4    0    0  0.54229617479E+02 -0.86909767794E+01  0.18122753268E+03  0.18936684791E+03  0.00000000000E+00 0. -1.
</event>
<event>
 8    1  0.3528896E-009  0.1294041E+03  0.7561462E-02  0.1228343E+00
          2   -1    0    0  501    0  0.00000000000E+00  0.00000000000E+00  0.36983937803E+02  0.36983937803E+02  0.00000000000E+00 0. -1.
         -2   -1    0    0    0  501 -0.00000000000E+00 -0.00000000000E+00 -0.57454355861E+03  0.57454355861E+03  0.00000000000E+00 0.  1.
         25    2    1    2    0    0 -0.20463276942E+02 -0.94403217658E+02 -0.27792876329E+03  0.31971227838E+03  0.12506330508E+03 0.  0.
         23    2    1    2    0    0  0.20463276942E+02  0.94403217658E+02 -0.25963085752E+03  0.29181521803E+03  0.91745441797E+02 0.  0.
          5    1    3    3  502    0  0.33765643305E+02 -0.10237825876E+02 -0.15430250410E+02  0.38736246258E+02  0.41800000000E+01 0.  1.
         -5    1    3    3    0  502 -0.54228920247E+02 -0.84165391782E+02 -0.26249851288E+03  0.28097603212E+03  0.41800000000E+01 0.  1.
        -11    1    4    4    0    0 -0.43103300245E+01 -0.12556901155E+02 -0.44239982139E+01  0.13993801190E+02  0.00000000000E+00 0. -1.
         11    1    4    4    0    0  0.24773606966E+02  0.10696011881E+03 -0.25520685930E+03  0.27782141684E+03  0.00000000000E+00 0.  1.
</event>
<event>
 8    1  0.3528896E-009  0.1392408E+03  0.7561462E-02  0.1214354E+00
          2   -1    0    0  501    0  0.00000000000E+00  0.00000000000E+00  0.93161426159E+03  0.93161426159E+03  0.00000000000E+00 0. -1.
         -2   -1    0    0    0  501 -0.00000000000E+00 -0.00000000000E+00 -0.24700102273E+02  0.24700102273E+02  0.00000000000E+00 0.  1.
         25    2    1    2    0    0  0.10317189340E+03  0.13842722823E+02  0.47247237985E+03  0.49971177267E+03  0.12508255457E+03 0.  0.
         23    2    1    2    0    0 -0.10317189340E+03 -0.13842722823E+02  0.43444177947E+03  0.45660259120E+03  0.94393887381E+02 0.  0.
          5    1    3    3  502    0  0.92647680102E+01 -0.38579355886E+02  0.24298891389E+03  0.24624233450E+03  0.41800000000E+01 0.  1.
         -5    1    3    3    0  502  0.93907125394E+02  0.52422078709E+02  0.22948346596E+03  0.25346943816E+03  0.41800000000E+01 0.  1.
        -11    1    4    4    0    0 -0.70568988139E+02  0.29696911113E+02  0.33091090636E+03  0.33965264104E+03  0.00000000000E+00 0. -1.
         11    1    4    4    0    0 -0.32602905266E+02 -0.43539633937E+02  0.10353087311E+03  0.11694995016E+03  0.00000000000E+00 0.  1.
</event>
<event>
 8    1  0.3528896E-009  0.9672043E+02  0.7561462E-02  0.1287348E+00
         -2   -1    0    0    0  501 -0.00000000000E+00  0.00000000000E+00  0.43979567131E+03  0.43979567131E+03  0.00000000000E+00 0.  1.
          2   -1    0    0  501    0  0.00000000000E+00 -0.00000000000E+00 -0.48254794700E+02  0.48254794700E+02  0.00000000000E+00 0. -1.
         25    2    1    2    0    0 -0.79803450750E+01 -0.66145628118E+02  0.94252228042E+02  0.17020360229E+03  0.12508738432E+03 0.  0.
         23    2    1    2    0    0  0.79803450750E+01  0.66145628118E+02  0.29728864857E+03  0.31784686372E+03  0.90593367194E+02 0.  0.
          5    1    3    3  502    0  0.17704102638E+02 -0.48252042084E+02  0.11925301818E+03  0.12992478425E+03  0.41800000000E+01 0. -1.
         -5    1    3    3    0  502 -0.25684447713E+02 -0.17893586034E+02 -0.25000790143E+02  0.40278818047E+02  0.41800000000E+01 0. -1.
        -11    1    4    4    0    0 -0.10382818572E+02  0.84024592688E+02  0.19878162205E+03  0.21606033500E+03  0.00000000000E+00 0. -1.
         11    1    4    4    0    0  0.18363163647E+02 -0.17878964571E+02  0.98507026526E+02  0.10178652872E+03  0.00000000000E+00 0.  1.
</event>
<event>
 8    1  0.3528896E-009  0.1100394E+03  0.7561462E-02  0.1260497E+00
         -2   -1    0    0    0  501 -0.00000000000E+00  0.00000000000E+00  0.36118625570E+02  0.36118625570E+02  0.00000000000E+00 0.  1.
          2   -1    0    0  501    0  0.00000000000E+00 -0.00000000000E+00 -0.40461274087E+03  0.40461274087E+03  0.00000000000E+00 0. -1.
         25    2    1    2    0    0  0.26864965686E+01  0.32430447040E+02 -0.12823572561E+03  0.18208048318E+03  0.12509975968E+03 0.  0.
         23    2    1    2    0    0 -0.26864965686E+01 -0.32430447040E+02 -0.24025838969E+03  0.25865088326E+03  0.90095695998E+02 0.  0.
          5    1    3    3  502    0  0.59965079041E+02  0.34544841040E+01 -0.37769270644E+02  0.71075553953E+02  0.41800000000E+01 0.  1.
         -5    1    3    3    0  502 -0.57278582472E+02  0.28975962936E+02 -0.90466454970E+02  0.11100492923E+03  0.41800000000E+01 0.  1.
        -11    1    4    4    0    0 -0.36594292207E+02 -0.46207206533E+02 -0.13899655384E+03  0.15097778027E+03  0.00000000000E+00 0.  1.
         11    1    4    4    0    0  0.33907795638E+02  0.13776759493E+02 -0.10126183585E+03  0.10767310299E+03  0.00000000000E+00 0. -1.
</event>
<event>
 8    1  0.3528896E-009  0.8733615E+02  0.7561462E-02  0.1309434E+00
          1   -1    0    0  501    0  0.00000000000E+00  0.00000000000E+00  0.79909051088E+02  0.79909051088E+02  0.00000000000E+00 0. -1.
         -1   -1    0    0    0  501 -0.00000000000E+00 -0.00000000000E+00 -0.17728368782E+03  0.17728368782E+03  0.00000000000E+00 0.  1.
         25    2    1    2    0    0  0.48444476014E+02 -0.96287804845E+01 -0.91641174543E+02  0.16274330042E+03  0.12509075222E+03 0.  0.
         23    2    1    2    0    0 -0.48444476014E+02  0.96287804845E+01 -0.57334621877E+01  0.94449438485E+02  0.80300953740E+02 0.  0.
          5    1    3    3  502    0  0.65586900713E+02 -0.38246851464E+02 -0.10230829595E+03  0.12747126348E+03  0.41800000000E+01 0.  1.
         -5    1    3    3    0  502 -0.17142424699E+02  0.28618070980E+02  0.10667121408E+02  0.35272036945E+02  0.41800000000E+01 0.  1.
        -11    1    4    4    0    0 -0.27921179217E+02 -0.15999022883E+02  0.31345504375E+02  0.44923286017E+02  0.00000000000E+00 0. -1.
         11    1    4    4    0    0 -0.20523296797E+02  0.25627803368E+02 -0.37078966563E+02  0.49526152468E+02  0.00000000000E+00 0.  1.
</event>
<event>
 8    1  0.3528896E-009  0.1177578E+03  0.7561462E-02  0.1246842E+00
         -2   -1    0    0    0  501 -0.00000000000E+00  0.00000000000E+00  0.32183797995E+03  0.32183797995E+03  0.00000000000E+00 0.  1.
          2   -1    0    0  501    0  0.00000000000E+00 -0.00000000000E+00 -0.55409731889E+02  0.55409731889E+02  0.00000000000E+00 0. -1.
         25    2    1    2    0    0 -0.46776740623E+02  0.51092947837E+02  0.97426149508E+02  0.17302656934E+03  0.12509111203E+03 0.  0.
         23    2    1    2    0    0  0.46776740623E+02 -0.51092947837E+02  0.16900209855E+03  0.20422114249E+03  0.91356515607E+02 0.  0.
          5    1    3    3  502    0  0.30306787675E+02  0.27651678825E+02 -0.61960005828E+01  0.41701073658E+02  0.41800000000E+01 0.  1.
         -5    1    3    3    0  502 -0.77083528298E+02  0.23441269012E+02  0.10362215009E+03  0.13132549569E+03  0.41800000000E+01 0.  1.
        -11    1    4    4    0    0  0.51502915804E+02  0.98819026958E+01  0.64390678954E+02  0.83044336793E+02  0.00000000000E+00 0.  1.
         11    1    4    4    0    0 -0.47261751802E+01 -0.60974850533E+02  0.10461141959E+03  0.12117680570E+03  0.00000000000E+00 0. -1.
</event>
<event>
 8    1  0.3528896E-009  0.1030301E+03  0.7561462E-02  0.1274050E+00
          1   -1    0    0  501    0  0.00000000000E+00  0.00000000000E+00  0.25971256240E+03  0.25971256240E+03  0.00000000000E+00 0. -1.
         -1   -1    0    0    0  501 -0.00000000000E+00 -0.00000000000E+00 -0.64326266098E+02  0.64326266098E+02  0.00000000000E+00 0.  1.
         25    2    1    2    0    0 -0.27178379912E+02  0.30686233650E+02  0.17913325264E+03  0.22229862244E+03  0.12509055147E+03 0.  0.
         23    2    1    2    0    0  0.27178379912E+02 -0.30686233650E+02  0.16253043665E+02  0.10174020606E+03  0.91687506403E+02 0.  0.
          5    1    3    3  502    0 -0.73282150486E+02  0.38815970568E+02  0.97158423026E+02  0.12780526091E+03  0.41800000000E+01 0.  1.
         -5    1    3    3    0  502  0.46103770574E+02 -0.81297369178E+01  0.81974829613E+02  0.94493361532E+02  0.41800000000E+01 0.  1.
        -11    1    4    4    0    0  0.40191766179E+02  0.26109108416E+01  0.41610434055E+02  0.57910475272E+02  0.00000000000E+00 0. -1.
         11    1    4    4    0    0 -0.13013386267E+02 -0.33297144492E+02 -0.25357390390E+02  0.43829730787E+02  0.00000000000E+00 0.  1.
</event>
<event>
 8    1  0.3528896E-009  0.1704663E+03  0.7561462E-02  0.1177362E+00
         -1   -1    0    0    0  501 -0.00000000000E+00  0.00000000000E+00  0.50512870312E+02  0.50512870312E+02  0.00000000000E+00 0.  1.
          1   -1    0    0  501    0  0.00000000000E+00 -0.00000000000E+00 -0.67115075007E+03  0.67115075007E+03  0.00000000000E+00 0. -1.
         25    2    1    2    0    0  0.13876268478E+03  0.12709839556E+02 -0.43037545960E+03  0.46934791354E+03  0.12509118678E+03 0.  0.
         23    2    1    2    0    0 -0.13876268478E+03 -0.12709839556E+02 -0.19026242016E+03  0.25231570684E+03  0.89703983669E+02 0.  0.
          5    1    3    3  502    0  0.12954824657E+03 -0.37943802049E+02 -0.32677360900E+03  0.35358300898E+03  0.41800000000E+01 0.  1.
         -5    1    3    3    0  502  0.92144382101E+01  0.50653641605E+02 -0.10360185060E+03  0.11576490456E+03  0.41800000000E+01 0.  1.
        -11    1    4    4    0    0 -0.80126543183E+02 -0.39989968822E+02 -0.62773147937E+02  0.10936145862E+03  0.00000000000E+00 0.  1.
         11    1    4    4    0    0 -0.58636141597E+02  0.27280129266E+02 -0.12748927222E+03  0.14295424823E+03  0.00000000000E+00 0. -1.
</event>
<event>
 8    1  0.3528896E-009  0.1001470E+03  0.7561462E-02  0.1279987E+00
          2   -1    0    0  501    0  0.00000000000E+00  0.00000000000E+00  0.53022039033E+03  0.53022039033E+03  0.00000000000E+00 0. -1.
         -2   -1    0    0    0  501 -0.00000000000E+00 -0.00000000000E+00 -0.34401749764E+02  0.34401749764E+02  0.00000000000E+00 0.  1.
         25    2    1    2    0    0  0.17312728477E+02  0.65566949940E+02  0.33906382488E+03  0.36770969677E+03  0.12508952101E+03 0.  0.
         23    2    1    2    0    0 -0.17312728477E+02 -0.65566949940E+02  0.15675481569E+03  0.19691244332E+03  0.97998380608E+02 0.  0.
          5    1    3    3  502    0 -0.28596204613E+02  0.23495295423E+02  0.27769302174E+03  0.28017968975E+03  0.41800000000E+01 0. -1.
         -5    1    3    3    0  502  0.45908933090E+02  0.42071654517E+02  0.61370803132E+02  0.87530007017E+02  0.41800000000E+01 0. -1.
        -11    1    4    4    0    0 -0.44101446364E+02 -0.21491222144E+02  0.24254926069E+02  0.54727613133E+02  0.00000000000E+00 0.  1.
         11    1    4    4    0    0  0.26788717887E+02 -0.44075727797E+02  0.13249988962E+03  0.14218483019E+03  0.00000000000E+00 0. -1.
</event>
<event>
 8    1  0.3528896E-009  0.9550596E+02  0.7561462E-02  0.1290041E+00
         -2   -1    0    0    0  501 -0.00000000000E+00  0.00000000000E+00  0.10853896705E+02  0.10853896705E+02  0.00000000000E+00 0. -1.
          2   -1    0    0  501    0  0.00000000000E+00 -0.00000000000E+00 -0.16289495751E+04  0.16289495751E+04  0.00000000000E+00 0.  1.
         25    2    1    2    0    0 -0.16027962392E+02 -0.30709545436E+01 -0.13568547210E+04  0.13627062717E+04  0.12508925974E+03 0.  0.
         23    2    1    2    0    0  0.16027962392E+02  0.30709545436E+01 -0.26124095741E+03  0.27709720004E+03  0.90937858470E+02 0.  0.
          5    1    3    3  502    0  0.40065191785E+02  0.10759230556E+02 -0.10240443134E+04  0.10248927792E+04  0.41800000000E+01 0. -1.
         -5    1    3    3    0  502 -0.56093154177E+02 -0.13830185100E+02 -0.33281040760E+03  0.33781349259E+03  0.41800000000E+01 0. -1.
        -11    1    4    4    0    0 -0.17252493147E+02 -0.36089500010E+02 -0.13483863895E+03  0.14064693059E+03  0.00000000000E+00 0.  1.
         11    1    4    4    0    0  0.33280455538E+02  0.39160454553E+02 -0.12640231846E+03  0.13645026946E+03  0.00000000000E+00 0. -1.
</event>
<event>
 8    1  0.3528896E-009  0.9828520E+02  0.7561462E-02  0.1283944E+00
          4   -1    0    0  501    0  0.00000000000E+00  0.00000000000E+00  0.25292789041E+03  0.25292789041E+03  0.00000000000E+00 0. -1.
         -4   -1    0    0    0  501 -0.00000000000E+00 -0.00000000000E+00 -0.68546626460E+02  0.68546626460E+02  0.00000000000E+00 0.  1.
         25    2    1    2    0    0  0.51872042243E+02 -0.14892943124E+02  0.17269715541E+03  0.21996472479E+03  0.12509062372E+03 0.  0.
         23    2    1    2    0    0 -0.51872042243E+02  0.14892943124E+02  0.11684108538E+02  0.10150979208E+03  0.85177526232E+02 0.  0.
          5    1    3    3  502    0  0.67634659902E+02 -0.32585764096E+02  0.40127090943E+02  0.85228722091E+02  0.41800000000E+01 0. -1.
         -5    1    3    3    0  502 -0.15762617659E+02  0.17692820971E+02  0.13257006447E+03  0.13473600270E+03  0.41800000000E+01 0. -1.
        -11    1    4    4    0    0  0.16613192754E+02 -0.15194915274E+02 -0.84447751662E+01  0.24045744972E+02  0.00000000000E+00 0.  1.
         11    1    4    4    0    0 -0.68485234996E+02  0.30087858398E+02  0.20128883705E+02  0.77464047110E+02  0.00000000000E+00 0. -1.
</event>
<event>
 8    1  0.3528896E-009  0.2060644E+03  0.7561462E-02  0.1144721E+00
         -1   -1    0    0    0  501 -0.00000000000E+00  0.00000000000E+00  0.10500185479E+03  0.10500185479E+03  0.00000000000E+00 0. -1.
          1   -1    0    0  501    0  0.00000000000E+00 -0.00000000000E+00 -0.49343931430E+03  0.49343931430E+03  0.00000000000E+00 0.  1.
         25    2    1    2    0    0  0.29247340456E+02 -0.19099204739E+03 -0.26251356186E+03  0.34913443552E+03  0.12509242509E+03 0.  0.
         23    2    1    2    0    0 -0.29247340456E+02  0.19099204739E+03 -0.12592389765E+03  0.24930673357E+03  0.94676556317E+02 0.  0.
          5    1    3    3  502    0 -0.91134323082E+01 -0.55300851159E+02 -0.61737520853E+01  0.56540484630E+02  0.41800000000E+01 0. -1.
         -5    1    3    3    0  502  0.38360772765E+02 -0.13569119623E+03 -0.25633980978E+03  0.29259395089E+03  0.41800000000E+01 0. -1.
        -11    1    4    4    0    0 -0.34462752353E+01  0.18894121251E+03 -0.10623634280E+03  0.21678749763E+03  0.00000000000E+00 0.  1.
         11    1    4    4    0    0 -0.25801065221E+02  0.20508348785E+01 -0.19687554854E+02  0.32519235944E+02  0.00000000000E+00 0. -1.
</event>
<event>
 8    1  0.3528896E-009  0.1101977E+03  0.7561462E-02  0.1260204E+00
         -2   -1    0    0    0  501 -0.00000000000E+00  0.00000000000E+00  0.45004636363E+02  0.45004636363E+02  0.00000000000E+00 0.  1.
          2   -1    0    0  501    0  0.00000000000E+00 -0.00000000000E+00 -0.38636250688E+03  0.38636250688E+03  0.00000000000E+00 0. -1.
         25    2    1    2    0    0 -0.16723927749E+02 -0.38846765170E+02 -0.28818608132E+03  0.31699845190E+03  0.12509212653E+03 0.  0.
         23    2    1    2    0    0  0.16723927749E+02  0.38846765170E+02 -0.53171789205E+02  0.11436869135E+03  0.92001073197E+02 0.  0.
          5    1    3    3  502    0 -0.70565147095E+02 -0.17345231661E+02 -0.13933076781E+03  0.15719679483E+03  0.41800000000E+01 0.  1.
         -5    1    3    3    0  502  0.53841219346E+02 -0.21501533509E+02 -0.14885531351E+03  0.15980165708E+03  0.41800000000E+01 0.  1.
        -11    1    4    4    0    0  0.16195499370E+02 -0.22727014519E+02  0.64661446289E+01  0.28646507905E+02  0.00000000000E+00 0.  1.
         11    1    4    4    0    0  0.52842837828E+00  0.61573779689E+02 -0.59637933834E+02  0.85722183440E+02  0.00000000000E+00 0. -1.
</event>
<event>
 7    1  0.3528896E-009  0.3592594E+03  0.7561462E-02  0.1058877E+00
         -1   -1    0    0    0  501 -0.00000000000E+00  0.00000000000E+00  0.67744522175E+02  0.67744522175E+02  0.00000000000E+00 0.  1.
          1   -1    0    0  501    0  0.00000000000E+00 -0.00000000000E+00 -0.19795601355E+04  0.19795601355E+04  0.00000000000E+00 0. -1.
         23    2    1    2    0    0  0.33664794821E+03 -0.85131692405E+02 -0.83540026762E+03  0.90937628548E+03  0.92154084879E+02 0.  0.
          5    1    1    2  502    0 -0.33767126383E+03  0.98739123843E+02 -0.10555984415E+04  0.11126890127E+04  0.41800000000E+01 0.  1.
         -5    1    1    2    0  502  0.10233156197E+01 -0.13607431438E+02 -0.20816904243E+02  0.25239359490E+02  0.41800000000E+01 0.  1.
        -11    1    3    3    0    0  0.84111369337E+02 -0.48887331063E+02 -0.31709862985E+03  0.33168695278E+03  0.00000000000E+00 0. -1.
         11    1    3    3    0    0  0.25253657887E+03 -0.36244361342E+02 -0.51830163777E+03  0.57768933270E+03  0.00000000000E+00 0.  1.
</event>
<event>
 8    1  0.3528896E-009  0.1450899E+03  0.7561462E-02  0.1206640E+00
         -2   -1    0    0    0  501 -0.00000000000E+00  0.00000000000E+00  0.84223681384E+02  0.84223681384E+02  0.00000000000E+00 0.  1.
          2   -1    0    0  501    0  0.00000000000E+00 -0.00000000000E+00 -0.29982817445E+03  0.29982817445E+03  0.00000000000E+00 0. -1.
         25    2    1    2    0    0 -0.10748634127E+03  0.29123070521E+02 -0.16512168628E+03  0.23518971112E+03  0.12509021600E+03 0.  0.
         23    2    1    2    0    0  0.10748634127E+03 -0.29123070521E+02 -0.50482806786E+02  0.14886214472E+03  0.84911468912E+02 0.  0.
          5    1    3    3  502    0 -0.71609657645E+02 -0.41786990896E+02 -0.11239065643E+03  0.13972554430E+03  0.41800000000E+01 0. -1.
         -5    1    3    3    0  502 -0.35876683624E+02  0.70910061416E+02 -0.52731029849E+02  0.95464166821E+02  0.41800000000E+01 0. -1.
        -11    1    4    4    0    0  0.15093893401E+02 -0.31750178777E+02 -0.43838941751E+02  0.56193881199E+02  0.00000000000E+00 0.  1.
         11    1    4    4    0    0  0.92392447867E+02  0.26271082564E+01 -0.66438650350E+01  0.92668263517E+02  0.00000000000E+00 0. -1.
</event>
<event>
 8    1  0.3528896E-009  0.2087445E+03  0.7561462E-02  0.1142564E+00
         -1   -1    0    0    0  501 -0.00000000000E+00  0.00000000000E+00  0.18014573896E+03  0.18014573896E+03  0.00000000000E+00 0.  1.
          1   -1    0    0  501    0  0.00000000000E+00 -0.00000000000E+00 -0.29137809740E+03  0.29137809740E+03  0.00000000000E+00 0. -1.
         25    2    1    2    0    0 -0.10212413364E+02 -0.19698191788E+03 -0.24061212188E+02  0.23480010698E+03  0.12508388763E+03 0.  0.
         23    2    1    2    0    0  0.10212413364E+02  0.19698191788E+03 -0.87171146250E+02  0.23672372938E+03  0.97637830542E+02 0.  0.
          5    1    3    3  502    0  0.16326816122E+01 -0.20341058864E+02  0.41122669207E+02  0.46097403914E+02  0.41800000000E+01 0.  1.
         -5    1    3    3    0  502 -0.11845094976E+02 -0.17664085902E+03 -0.65183881394E+02  0.18870270306E+03  0.41800000000E+01 0.  1.
        -11    1    4    4    0    0  0.37336572888E+02  0.23796542027E+02 -0.24217765559E+02  0.50465783023E+02  0.00000000000E+00 0.  1.
         11    1    4    4    0    0 -0.27124159524E+02  0.17318537586E+03 -0.62953380691E+02  0.18625794636E+03  0.00000000000E+00 0. -1.
</event>
<event>
 8    1  0.3528896E-009  0.1251084E+03  0.7561462E-02  0.1234900E+00
         -2   -1    0    0    0  501 -0.00000000000E+00  0.00000000000E+00  0.24541593681E+02  0.24541593681E+02  0.00000000000E+00 0.  1.
          2   -1    0    0  501    0  0.00000000000E+00 -0.00000000000E+00 -0.86714825159E+03  0.86714825159E+03  0.00000000000E+00 0. -1.
         25    2    1    2    0    0  0.34296948886E+02  0.51865158597E+02 -0.23035023326E+03  0.26940242252E+03  0.12510059919E+03 0.  0.
         23    2    1    2    0    0 -0.34296948886E+02 -0.51865158597E+02 -0.61225642464E+03  0.62228742274E+03  0.92289932336E+02 0.  0.
          5    1    3    3  502    0  0.21319116792E+02  0.93418795785E+02 -0.16172174403E+03  0.18802385763E+03  0.41800000000E+01 0. -1.
         -5    1    3    3    0  502  0.12977832093E+02 -0.41553637189E+02 -0.68628489235E+02  0.81378564894E+02  0.41800000000E+01 0. -1.
        -11    1    4    4    0    0 -0.65933463951E+02 -0.37169643760E+02 -0.45031665996E+03  0.45663322078E+03  0.00000000000E+00 0. -1.
         11    1    4    4    0    0  0.31636515065E+02 -0.14695514836E+02 -0.16193976468E+03  0.16565420196E+03  0.00000000000E+00 0.  1.
</event>
<event>
 8    1  0.3528896E-009  0.1562208E+03  0.7561462E-02  0.1193031E+00
         -2   -1    0    0    0  501 -0.00000000000E+00  0.00000000000E+00  0.97278833235E+01  0.97278833235E+01  0.00000000000E+00 0.  1.
          2   -1    0    0  501    0  0.00000000000E+00 -0.00000000000E+00 -0.42071650872E+04  0.42071650872E+04  0.00000000000E+00 0. -1.
         25    2    1    2    0    0  0.57569012802E+02  0.99451961739E+02 -0.34943906405E+04  0.34985166508E+04  0.12509166227E+03 0.  0.
         23    2    1    2    0    0 -0.57569012802E+02 -0.99451961739E+02 -0.70304656342E+03  0.71837631971E+03  0.92656259677E+02 0.  0.
          5    1    3    3  502    0 -0.38651608773E+02  0.17868789895E+02 -0.10458568454E+04  0.10467317011E+04  0.41800000000E+01 0. -1.
         -5    1    3    3    0  502  0.96220621575E+02  0.81583171844E+02 -0.24485337951E+04  0.24517849498E+04  0.41800000000E+01 0. -1.
        -11    1    4    4    0    0 -0.78601498709E+02 -0.60583520810E+02 -0.55764993558E+03  0.56641151934E+03  0.00000000000E+00 0.  1.
         11    1    4    4    0    0  0.21032485907E+02 -0.38868440929E+02 -0.14539662784E+03  0.15196480037E+03  0.00000000000E+00 0. -1.
</event>
<event>
 8    1  0.3528896E-009  0.1350231E+03  0.7561462E-02  0.1220187E+00
         -2   -1    0    0    0  501 -0.00000000000E+00  0.00000000000E+00  0.52850190253E+02  0.52850190253E+02  0.00000000000E+00 0.  1.
          2   -1    0    0  501    0  0.00000000000E+00 -0.00000000000E+00 -0.42777427423E+03  0.42777427423E+03  0.00000000000E+00 0. -1.
         25    2    1    2    0    0  0.11341824081E+02 -0.99619330543E+02 -0.22061924764E+03  0.27271866652E+03  0.12509984271E+03 0.  0.
         23    2    1    2    0    0 -0.11341824081E+02  0.99619330543E+02 -0.15430483633E+03  0.20790579796E+03  0.96758412134E+02 0.  0.
          5    1    3    3  502    0 -0.26402893138E+02 -0.79291126957E+00 -0.13191407930E+03  0.13459769015E+03  0.41800000000E+01 0. -1.
         -5    1    3    3    0  502  0.37744717219E+02 -0.98826419274E+02 -0.88705168341E+02  0.13812097637E+03  0.41800000000E+01 0. -1.
        -11    1    4    4    0    0 -0.39477142122E+02  0.63174187311E+01 -0.61374245395E+02  0.73247201498E+02  0.00000000000E+00 0.  1.
         11    1    4    4    0    0  0.28135318041E+02  0.93301911812E+02 -0.92930590934E+02  0.13465859646E+03  0.00000000000E+00 0. -1.
</event>
<event>
 8    1  0.3528896E-009  0.1557702E+03  0.7561462E-02  0.1193557E+00
          2   -1    0    0  501    0  0.00000000000E+00  0.00000000000E+00  0.76763312437E+03  0.76763312437E+03  0.00000000000E+00 0. -1.
         -2   -1    0    0    0  501 -0.00000000000E+00 -0.00000000000E+00 -0.35380410229E+02  0.35380410229E+02  0.00000000000E+00 0.  1.
         25    2    1    2    0    0  0.27929024681E+02 -0.11944981714E+03  0.41955516968E+03  0.45466805448E+03  0.12509280604E+03 0.  0.
         23    2    1    2    0    0 -0.27929024681E+02  0.11944981714E+03  0.31269754446E+03  0.34834548012E+03  0.92285047393E+02 0.  0.
          5    1    3    3  502    0  0.77401277135E+02 -0.63552554411E+02  0.22936962643E+03  0.25031536669E+03  0.41800000000E+01 0.  1.
         -5    1    3    3    0  502 -0.49472252454E+02 -0.55897262732E+02  0.19018554325E+03  0.20435268778E+03  0.41800000000E+01 0.  1.
        -11    1    4    4    0    0  0.10572750883E+02  0.82508832374E+02  0.26144814600E+03  0.27436221228E+03  0.00000000000E+00 0. -1.
         11    1    4    4    0    0 -0.38501775564E+02  0.36940984769E+02  0.51249398459E+02  0.73983267836E+02  0.00000000000E+00 0.  1.
</event>
<event>
 8    1  0.3528896E-009  0.1729962E+03  0.7561462E-02  0.1174759E+00
          1   -1    0    0  501    0  0.00000000000E+00  0.00000000000E+00  0.40977931699E+03  0.40977931699E+03  0.00000000000E+00 0. -1.
         -1   -1    0    0    0  501 -0.00000000000E+00 -0.00000000000E+00 -0.10718092240E+03  0.10718092240E+03  0.00000000000E+00 0.  1.
         25    2    1    2    0    0 -0.11335254884E+02 -0.14894780513E+03  0.27879398213E+03  0.34012858451E+03  0.12508969932E+03 0.  0.
         23    2    1    2    0    0  0.11335254884E+02  0.14894780513E+03  0.23804412464E+02  0.17683165487E+03  0.91590651574E+02 0.  0.
          5    1    3    3  502    0  0.14355933723E+02 -0.14623107442E+03  0.15507166077E+03  0.21366869760E+03  0.41800000000E+01 0.  1.
         -5    1    3    3    0  502 -0.25691188607E+02 -0.27167307131E+01  0.12372232135E+03  0.12645988691E+03  0.41800000000E+01 0.  1.
        -11    1    4    4    0    0 -0.99388617551E+01 -0.90277898743E+01  0.10178228734E+02  0.16848688470E+02  0.00000000000E+00 0. -1.
         11    1    4    4    0    0  0.21274116639E+02  0.15797559500E+03  0.13626183729E+02  0.15998296640E+03  0.00000000000E+00 0.  1.
</event>
<event>
 8    1  0.3528896E-009  0.9045657E+02  0.7561462E-02  0.1301750E+00
          1   -1    0    0  501    0  0.00000000000E+00  0.00000000000E+00  0.60461613594E+03  0.60461613594E+03  0.00000000000E+00 0. -1.
         -1   -1    0    0    0  501 -0.00000000000E+00 -0.00000000000E+00 -0.69162572003E+02  0.69162572003E+02  0.00000000000E+00 0.  1.
         25    2    1    2    0    0  0.33388560532E+02  0.35126027147E+02  0.55374953551E+03  0.56976775464E+03  0.12509241539E+03 0.  0.
         23    2    1    2    0    0 -0.33388560532E+02 -0.35126027147E+02 -0.18295971576E+02  0.10401095331E+03  0.90193691985E+02 0.  0.
          5    1    3    3  502    0  0.58657102566E+02  0.66074207927E+02  0.29690735433E+03  0.30980301175E+03  0.41800000000E+01 0. -1.
         -5    1    3    3    0  502 -0.25268542034E+02 -0.30948180779E+02  0.25684218119E+03  0.25996474289E+03  0.41800000000E+01 0. -1.
        -11    1    4    4    0    0 -0.29672807990E+02 -0.17872902642E+02  0.34169470212E+02  0.48656642686E+02  0.00000000000E+00 0. -1.
         11    1    4    4    0    0 -0.37157525423E+01 -0.17253124505E+02 -0.52465441788E+02  0.55354310619E+02  0.00000000000E+00 0.  1.
</event>
<event>
 8    1  0.3528896E-009  0.1223332E+03  0.7561462E-02  0.1239297E+00
          2   -1    0    0  501    0  0.00000000000E+00  0.00000000000E+00  0.34832192506E+03  0.34832192506E+03  0.00000000000E+00 0.  1.
         -2   -1    0    0    0  501 -0.00000000000E+00 -0.00000000000E+00 -0.60415511481E+02  0.60415511481E+02  0.00000000000E+00 0. -1.
         25    2    1    2    0    0 -0.83901567378E+02  0.26476717852E+02  0.22095154635E+03  0.26871417928E+03  0.12508890725E+03 0.  0.
         23    2    1    2    0    0  0.83901567378E+02 -0.26476717852E+02  0.66954867229E+02  0.14002325726E+03  0.85924785310E+02 0.  0.
          5    1    3    3  502    0 -0.98061121867E+02  0.64866287778E+01  0.22304860214E+03  0.24377491932E+03  0.41800000000E+01 0. -1.
         -5    1    3    3    0  502  0.14159554489E+02  0.19990089074E+02 -0.20970557870E+01  0.24939259963E+02  0.41800000000E+01 0. -1.
        -11    1    4    4    0    0  0.32789715480E+02 -0.54168465069E+02  0.45860405534E+02  0.78182893557E+02  0.00000000000E+00 0.  1.
         11    1    4    4    0    0  0.51111851898E+02  0.27691747217E+02  0.21094461694E+02  0.61840363700E+02  0.00000000000E+00 0. -1.
</event>
<event>
 8    1  0.3528896E-009  0.7668864E+02  0.7561462E-02  0.1338720E+00
         -1   -1    0    0    0  501 -0.00000000000E+00  0.00000000000E+00  0.41846477640E+03  0.41846477640E+03  0.00000000000E+00 0.  1.
          1   -1    0    0  501    0  0.00000000000E+00 -0.00000000000E+00 -0.53072395839E+02  0.53072395839E+02  0.00000000000E+00 0. -1.
         25    2    1    2    0    0  0.20402215773E+02  0.13863682677E+01  0.35499570092E+03  0.37694561393E+03  0.12509146957E+03 0.  0.
         23    2    1    2    0    0 -0.20402215773E+02 -0.13863682677E+01  0.10396679642E+02  0.94591558316E+02  0.91767638804E+02 0.  0.
          5    1    3    3  502    0 -0.46513338727E+02  0.27364197448E+02  0.13286025028E+03  0.14346291676E+03  0.41800000000E+01 0.  1.
         -5    1    3    3    0  502  0.66915554500E+02 -0.25977829180E+02  0.22213545065E+03  0.23348269717E+03  0.41800000000E+01 0.  1.
        -11    1    4    4    0    0 -0.94403771280E+01  0.84120260905E+01  0.50405215189E+02  0.51966995502E+02  0.00000000000E+00 0.  1.
         11    1    4    4    0    0 -0.10961838645E+02 -0.97983943583E+01 -0.40008535547E+02  0.42624562814E+02  0.00000000000E+00 0. -1.
</event>
<event>
 7    1  0.3528896E-009  0.1164232E+03  0.7561462E-02  0.1249117E+00
          1   -1    0    0  501    0  0.00000000000E+00  0.00000000000E+00  0.22633376503E+03  0.22633376503E+03  0.00000000000E+00 0. -1.
         -1   -1    0    0    0  501 -0.00000000000E+00 -0.00000000000E+00 -0.66927228518E+02  0.66927228518E+02  0.00000000000E+00 0.  1.
         23    2    1    2    0    0 -0.51371987010E+02  0.21879969473E+02  0.89826235025E+02  0.13967548345E+03  0.91228691024E+02 0.  0.
          5    1    1    2  502    0  0.51374484063E+02 -0.65944927431E+02  0.17992287487E+02  0.85611131727E+02  0.41800000000E+01 0. -1.
         -5    1    1    2    0  502 -0.24970530439E-02  0.44064957958E+02  0.51588014002E+02  0.67974378370E+02  0.41800000000E+01 0. -1.
        -11    1    3    3    0    0 -0.43624137638E+02 -0.29668604273E+02  0.31480639500E+02  0.61435511941E+02  0.00000000000E+00 0.  1.
         11    1    3    3    0    0 -0.77478493716E+01  0.51548573746E+02  0.58345595525E+02  0.78239971513E+02  0.00000000000E+00 0. -1.
</event>
<event>
 8    1  0.3528896E-009  0.2075468E+03  0.7561462E-02  0.1143524E+00
         -2   -1    0    0    0  501 -0.00000000000E+00  0.00000000000E+00  0.13716078489E+03  0.13716078489E+03  0.00000000000E+00 0.  1.
          2   -1    0    0  501    0  0.00000000000E+00 -0.00000000000E+00 -0.41985618306E+03  0.41985618306E+03  0.00000000000E+00 0. -1.
         25    2    1    2    0    0 -0.18163524605E+03  0.86054332561E+02 -0.73608621271E+02  0.24791288702E+03  0.12508341083E+03 0.  0.
         23    2    1    2    0    0  0.18163524605E+03 -0.86054332561E+02 -0.20908677690E+03  0.30910408092E+03  0.10691745324E+03 0.  0.
          5    1    3    3  502    0 -0.14494713316E+03  0.41085607787E+02 -0.10317253804E+03  0.18264649896E+03  0.41800000000E+01 0. -1.
         -5    1    3    3    0  502 -0.36688112895E+02  0.44968724774E+02  0.29563916767E+02  0.65266388058E+02  0.41800000000E+01 0. -1.
        -11    1    4    4    0    0  0.10380646049E+03 -0.23731348403E+02 -0.17284812636E+03  0.20301584401E+03  0.00000000000E+00 0. -1.
         11    1    4    4    0    0  0.77828785569E+02 -0.62322984158E+02 -0.36238650542E+02  0.10608823691E+03  0.00000000000E+00 0.  1.
</event>
<event>
 8    1  0.3528896E-009  0.9489805E+02  0.7561462E-02  0.1291406E+00
          2   -1    0    0  501    0  0.00000000000E+00  0.00000000000E+00  0.55467225011E+03  0.55467225011E+03  0.00000000000E+00 0.  1.
         -2   -1    0    0    0  501 -0.00000000000E+00 -0.00000000000E+00 -0.28565482164E+02  0.28565482164E+02  0.00000000000E+00 0. -1.
         25    2    1    2    0    0  0.15290510669E+02  0.34483910531E+01  0.43832678728E+03  0.45609856734E+03  0.12509931881E+03 0.  0.
         23    2    1    2    0    0 -0.15290510669E+02 -0.34483910531E+01  0.87779980666E+02  0.12713916493E+03  0.90627540719E+02 0.  0.
          5    1    3    3  502    0  0.60406208588E+02  0.32033309906E+01  0.11884229159E+03  0.13341714296E+03  0.41800000000E+01 0. -1.
         -5    1    3    3    0  502 -0.45115697920E+02  0.24506006258E+00  0.31948449569E+03  0.32268142438E+03  0.41800000000E+01 0. -1.
        -11    1    4    4    0    0  0.18767308560E+02  0.30469165725E+02  0.12661975270E+02  0.37959288037E+02  0.00000000000E+00 0. -1.
         11    1    4    4    0    0 -0.34057819229E+02 -0.33917556778E+02  0.75118005396E+02  0.89179876896E+02  0.00000000000E+00 0.  1.
</event>
<event>
 8    1  0.3528896E-009  0.2066003E+03  0.7561462E-02  0.1144287E+00
          2   -1    0    0  501    0  0.00000000000E+00  0.00000000000E+00  0.50308706612E+03  0.50308706612E+03  0.00000000000E+00 0. -1.
         -2   -1    0    0    0  501 -0.00000000000E+00 -0.00000000000E+00 -0.10070427373E+03  0.10070427373E+03  0.00000000000E+00 0.  1.
         25    2    1    2    0    0 -0.19607102572E+03  0.32121355355E+01  0.18953625053E+03  0.30004771877E+03  0.12510187182E+03 0.  0.
         23    2    1    2    0    0  0.19607102572E+03 -0.32121355355E+01  0.21284654186E+03  0.30374362108E+03  0.92208307766E+02 0.  0.
          5    1    3    3  502    0 -0.17559650126E+03  0.32117150733E+02  0.10226672628E+03  0.20577074216E+03  0.41800000000E+01 0.  1.
         -5    1    3    3    0  502 -0.20474524460E+02 -0.28905015198E+02  0.87269524252E+02  0.94276976610E+02  0.41800000000E+01 0.  1.
        -11    1    4    4    0    0  0.95117789986E+01 -0.78875237403E+01  0.63590911984E+02  0.64780329247E+02  0.00000000000E+00 0. -1.
         11    1    4    4    0    0  0.18655924672E+03  0.46753882048E+01  0.14925562988E+03  0.23896329183E+03  0.00000000000E+00 0.  1.
</event>
<event>
 8    1  0.3528896E-009  0.9674854E+02  0.7561462E-02  0.1287286E+00
          1   -1    0    0  501    0  0.00000000000E+00  0.00000000000E+00  0.12120247005E+03  0.12120247005E+03  0.00000000000E+00 0. -1.
         -1   -1    0    0    0  501 -0.00000000000E+00 -0.00000000000E+00 -0.11605288437E+03  0.11605288437E+03  0.00000000000E+00 0.  1.
         25    2    1    2    0    0 -0.13604845501E+02 -0.39676799317E+02  0.23142075329E+02  0.13394957624E+03  0.12509033975E+03 0.  0.
         23    2    1    2    0    0  0.13604845501E+02  0.39676799317E+02 -0.17992489649E+02  0.10330577818E+03  0.92676932923E+02 0.  0.
          5    1    3    3  502    0 -0.55377412504E+02 -0.53226090256E+02 -0.11606701343E+02  0.77793717071E+02  0.41800000000E+01 0.  1.
         -5    1    3    3    0  502  0.41772567004E+02  0.13549290939E+02  0.34748776673E+02  0.56155859171E+02  0.41800000000E+01 0.  1.
        -11    1    4    4    0    0  0.65694681265E+01  0.55109606030E+02  0.22127295762E+02  0.59748169897E+02  0.00000000000E+00 0. -1.
         11    1    4    4    0    0  0.70353773742E+01 -0.15432806713E+02 -0.40119785410E+02  0.43557608282E+02  0.00000000000E+00 0.  1.
</event>
<event>
 8    1  0.3528896E-009  0.6489065E+02  0.7561462E-02  0.1378383E+00
          2   -1    0    0  501    0  0.00000000000E+00  0.00000000000E+00  0.81136554430E+02  0.81136554430E+02  0.00000000000E+00 0. -1.
         -2   -1    0    0    0  501 -0.00000000000E+00 -0.00000000000E+00 -0.18589884826E+03  0.18589884826E+03  0.00000000000E+00 0.  1.
         25    2    1    2    0    0  0.15433801400E+02  0.52713069191E+02 -0.74950306770E+02  0.15582532190E+03  0.12508841902E+03 0.  0.
         23    2    1    2    0    0 -0.15433801400E+02 -0.52713069191E+02 -0.29811987061E+02  0.11121008079E+03  0.91989442912E+02 0.  0.
          5    1    3    3  502    0  0.19621624658E+02  0.57187621515E+02 -0.10697675912E+03  0.12295093168E+03  0.41800000000E+01 0.  1.
         -5    1    3    3    0  502 -0.41878232588E+01 -0.44745523244E+01  0.32026452353E+02  0.32874390222E+02  0.41800000000E+01 0.  1.
        -11    1    4    4    0    0  0.81230952751E+01 -0.91610312555E+01 -0.54516550463E+02  0.55874533062E+02  0.00000000000E+00 0.  1.
         11    1    4    4    0    0 -0.23556896675E+02 -0.43552037935E+02  0.24704563402E+02  0.55335547726E+02  0.00000000000E+00 0. -1.
</event>
<event>
 8    1  0.3528896E-009  0.1527058E+03  0.7561462E-02  0.1197187E+00
         -2   -1    0    0    0  501 -0.00000000000E+00  0.00000000000E+00  0.71070484407E+03  0.71070484407E+03  0.00000000000E+00 0.  1.
          2   -1    0    0  501    0  0.00000000000E+00 -0.00000000000E+00 -0.49389833754E+02  0.49389833754E+02  0.00000000000E+00 0. -1.
         25    2    1    2    0    0  0.11787921301E+03 -0.74297521021E+02  0.22161589826E+03  0.29013180248E+03  0.12508887223E+03 0.  0.
         23    2    1    2    0    0 -0.11787921301E+03  0.74297521021E+02  0.43969911206E+03  0.46996287535E+03  0.90078657711E+02 0.  0.
          5    1    3    3  502    0  0.77725783084E+02 -0.35544928328E+02  0.21784080900E+03  0.23404450379E+03  0.41800000000E+01 0. -1.
         -5    1    3    3    0  502  0.40153429927E+02 -0.38752592693E+02  0.37750892592E+01  0.56087298689E+02  0.41800000000E+01 0. -1.
        -11    1    4    4    0    0 -0.12252463409E+02  0.55198512348E+02  0.11840276030E+03  0.13121056463E+03  0.00000000000E+00 0.  1.
         11    1    4    4    0    0 -0.10562674960E+03  0.19099008673E+02  0.32129635176E+03  0.33875231072E+03  0.00000000000E+00 0. -1.
</event>
<event>
 8    1  0.3528896E-009  0.1375448E+03  0.7561462E-02  0.1216671E+00
         -2   -1    0    0    0  501 -0.00000000000E+00  0.00000000000E+00  0.54566165547E+02  0.54566165547E+02  0.00000000000E+00 0.  1.
          2   -1    0    0  501    0  0.00000000000E+00 -0.00000000000E+00 -0.46112733121E+03  0.46112733121E+03  0.00000000000E+00 0. -1.
         25    2    1    2    0    0 -0.93324054241E+02  0.46034621843E+02 -0.13342107756E+03  0.21042155646E+03  0.12508989558E+03 0.  0.
         23    2    1    2    0    0  0.93324054241E+02 -0.46034621843E+02 -0.27314008810E+03  0.30527194030E+03  0.88073175806E+02 0.  0.
          5    1    3    3  502    0 -0.63565638426E+02 -0.25301366082E+02 -0.10989402957E+03  0.12951802828E+03  0.41800000000E+01 0. -1.
         -5    1    3    3    0  502 -0.29758415815E+02  0.71335987925E+02 -0.23527047993E+02  0.80903528182E+02  0.41800000000E+01 0. -1.
        -11    1    4    4    0    0  0.71248071092E+01 -0.42260699576E+02 -0.14172804975E+03  0.14806609906E+03  0.00000000000E+00 0. -1.
         11    1    4    4    0    0  0.86199247132E+02 -0.37739222674E+01 -0.13141203835E+03  0.15720584124E+03  0.00000000000E+00 0.  1.
</event>
<event>
 8    1  0.3528896E-009  0.2333562E+03  0.7561462E-02  0.1124300E+00
          2   -1    0    0  501    0  0.00000000000E+00  0.00000000000E+00  0.93542271219E+03  0.93542271219E+03  0.00000000000E+00 0. -1.
         -2   -1    0    0    0  501 -0.00000000000E+00 -0.00000000000E+00 -0.82645465106E+02  0.82645465106E+02  0.00000000000E+00 0.  1.
         25    2    1    2    0    0 -0.22032992928E+03 -0.93718274156E+01  0.67147595559E+03  0.71774619711E+03  0.12508611293E+03 0.  0.
         23    2    1    2    0    0  0.22032992928E+03  0.93718274156E+01  0.18130129150E+03  0.30032198019E+03  0.93220301422E+02 0.  0.
          5    1    3    3  502    0 -0.81534059197E+02  0.42620635264E+02  0.37650920200E+03  0.38760930452E+03  0.41800000000E+01 0. -1.
         -5    1    3    3    0  502 -0.13879587009E+03 -0.51992462679E+02  0.29496675359E+03  0.33013689260E+03  0.41800000000E+01 0. -1.
        -11    1    4    4    0    0  0.17939194602E+03 -0.12686356217E+02  0.97718097313E+02  0.20467349725E+03  0.00000000000E+00 0.  1.
         11    1    4    4    0    0  0.40937983260E+02  0.22058183633E+02  0.83583194189E+02  0.95648482944E+02  0.00000000000E+00 0. -1.
</event>
<event>
 8    1  0.3528896E-009  0.1045410E+03  0.7561462E-02  0.1271027E+00
         -2   -1    0    0    0  501 -0.00000000000E+00  0.00000000000E+00  0.13234012887E+02  0.13234012887E+02  0.00000000000E+00 0.  1.
          2   -1    0    0  501    0  0.00000000000E+00 -0.00000000000E+00 -0.10698928720E+04  0.10698928720E+04  0.00000000000E+00 0. -1.
         25    2    1    2    0    0  0.14636364113E+02  0.16802463399E+00 -0.80418597099E+03  0.81398809529E+03  0.12508913601E+03 0.  0.
         23    2    1    2    0    0 -0.14636364113E+02 -0.16802463399E+00 -0.25247288815E+03  0.26913878962E+03  0.92080820169E+02 0.  0.
          5    1    3    3  502    0  0.64339644280E+02  0.11845148486E+02 -0.59590258693E+03  0.59949750865E+03  0.41800000000E+01 0. -1.
         -5    1    3    3    0  502 -0.49703280167E+02 -0.11677123852E+02 -0.20828338406E+03  0.21449058663E+03  0.41800000000E+01 0. -1.
        -11    1    4    4    0    0  0.34718882997E+02 -0.18876115959E+02 -0.89626811127E+02  0.97952406112E+02  0.00000000000E+00 0. -1.
         11    1    4    4    0    0 -0.49355247111E+02  0.18708091325E+02 -0.16284607702E+03  0.17118638351E+03  0.00000000000E+00 0.  1.
</event>
<event>
 8    1  0.3528896E-009  0.9249109E+02  0.7561462E-02  0.1296929E+00
         -1   -1    0    0    0  501 -0.00000000000E+00  0.00000000000E+00  0.26605867400E+02  0.26605867400E+02  0.00000000000E+00 0.  1.
          1   -1    0    0  501    0  0.00000000000E+00 -0.00000000000E+00 -0.64989580622E+03  0.64989580622E+03  0.00000000000E+00 0. -1.
         25    2    1    2    0    0  0.58616514399E+02  0.37265715415E+02 -0.26264319361E+03  0.29908637105E+03  0.12508629380E+03 0.  0.
         23    2    1    2    0    0 -0.58616514399E+02 -0.37265715415E+02 -0.36064674521E+03  0.37741530256E+03  0.86899979706E+02 0.  0.
          5    1    3    3  502    0  0.81050755624E+01  0.17011329375E+02  0.95076743520E+01  0.21516176439E+02  0.41800000000E+01 0.  1.
         -5    1    3    3    0  502  0.50511438836E+02  0.20254386040E+02 -0.27215086796E+03  0.27757019461E+03  0.41800000000E+01 0.  1.
        -11    1    4    4    0    0 -0.77242131876E+02 -0.46657250206E+02 -0.30026901256E+03  0.31353584458E+03  0.00000000000E+00 0. -1.
         11    1    4    4    0    0  0.18625617478E+02  0.93915347904E+01 -0.60377732654E+02  0.63879457986E+02  0.00000000000E+00 0.  1.
</event>
<event>
 8    1  0.3528896E-009  0.1085686E+03  0.7561462E-02  0.1263244E+00
         -2   -1    0    0    0  501 -0.00000000000E+00  0.00000000000E+00  0.28979416195E+02  0.28979416195E+02  0.00000000000E+00 0.  1.
          2   -1    0    0  501    0  0.00000000000E+00 -0.00000000000E+00 -0.60421886179E+03  0.60421886179E+03  0.00000000000E+00 0. -1.
         25    2    1    2    0    0  0.83660550929E+00  0.18936272986E+02 -0.49529891495E+03  0.51120468308E+03  0.12509968228E+03 0.  0.
         23    2    1    2    0    0 -0.83660550929E+00 -0.18936272986E+02 -0.79940530646E+02  0.12199359491E+03  0.90181297481E+02 0.  0.
          5    1    3    3  502    0 -0.23246707986E+02 -0.48402286641E+02 -0.24538921401E+03  0.25123003311E+03  0.41800000000E+01 0. -1.
         -5    1    3    3    0  502  0.24083313496E+02  0.67338559627E+02 -0.24990970094E+03  0.25997464997E+03  0.41800000000E+01 0. -1.
        -11    1    4    4    0    0  0.39887795324E+02  0.10673117536E+02 -0.29684965122E+02  0.50854191646E+02  0.00000000000E+00 0. -1.
         11    1    4    4    0    0 -0.40724400833E+02 -0.29609390522E+02 -0.50255565524E+02  0.71139403262E+02  0.00000000000E+00 0.  1.
</event>
<event>
 8    1  0.3528896E-009  0.2134483E+03  0.7561462E-02  0.1138864E+00
         -1   -1    0    0    0  501 -0.00000000000E+00  0.00000000000E+00  0.91043815358E+02  0.91043815358E+02  0.00000000000E+00 0.  1.
          1   -1    0    0  501    0  0.00000000000E+00 -0.00000000000E+00 -0.53898899611E+03  0.53898899611E+03  0.00000000000E+00 0. -1.
         25    2    1    2    0    0 -0.19154457847E+03 -0.27215953211E+00 -0.21204357581E+03  0.31192112270E+03  0.12507161600E+03 0.  0.
         23    2    1    2    0    0  0.19154457847E+03  0.27215953211E+00 -0.23590160494E+03  0.31811168877E+03  0.94106746345E+02 0.  0.
          5    1    3    3  502    0 -0.18545637204E+03  0.33134349312E+02 -0.20203441171E+03  0.27627400701E+03  0.41800000000E+01 0. -1.
         -5    1    3    3    0  502 -0.60882064319E+01 -0.33406508844E+02 -0.10009164094E+02  0.35647115683E+02  0.41800000000E+01 0. -1.
        -11    1    4    4    0    0  0.17046529980E+02  0.22616499018E+02 -0.73191536499E+02  0.78479877849E+02  0.00000000000E+00 0. -1.
         11    1    4    4    0    0  0.17449804849E+03 -0.22344339486E+02 -0.16271006844E+03  0.23963181092E+03  0.00000000000E+00 0.  1.
</event>
<event>
 8    1  0.3528896E-009  0.1548469E+03  0.7561462E-02  0.1194640E+00
          2   -1    0    0  501    0  0.00000000000E+00  0.00000000000E+00  0.53966031256E+03  0.53966031256E+03  0.00000000000E+00 0. -1.
         -2   -1    0    0    0  501 -0.00000000000E+00 -0.00000000000E+00 -0.77565457411E+02  0.77565457411E+02  0.00000000000E+00 0.  1.
         25    2    1    2    0    0  0.92722760070E+02  0.83628667705E+02  0.42184123344E+03  0.45737118901E+03  0.12508842475E+03 0.  0.
         23    2    1    2    0    0 -0.92722760070E+02 -0.83628667705E+02  0.40253621702E+02  0.15985458096E+03  0.91333831055E+02 0.  0.
          5    1    3    3  502    0 -0.83601984190E+01  0.69872597687E+02  0.12562629824E+03  0.14405385116E+03  0.41800000000E+01 0. -1.
         -5    1    3    3    0  502  0.10108295849E+03  0.13756070018E+02  0.29621493521E+03  0.31331733785E+03  0.41800000000E+01 0. -1.
        -11    1    4    4    0    0  0.40252368518E+00 -0.29262757855E+02 -0.20830786808E+02  0.35922036435E+02  0.00000000000E+00 0. -1.
         11    1    4    4    0    0 -0.93125283755E+02 -0.54365909851E+02  0.61084408510E+02  0.12393254452E+03  0.00000000000E+00 0.  1.
</event>
<event>
 8    1  0.3528896E-009  0.1422397E+03  0.7561462E-02  0.1210347E+00
         -2   -1    0    0    0  501 -0.00000000000E+00  0.00000000000E+00  0.88534563889E+02  0.88534563889E+02  0.00000000000E+00 0.  1.
          2   -1    0    0  501    0  0.00000000000E+00 -0.00000000000E+00 -0.28883841699E+03  0.28883841699E+03  0.00000000000E+00 0. -1.
         25    2    1    2    0    0 -0.99430093130E+01  0.11279579721E+03 -0.14016399609E+03  0.21935334294E+03  0.12509271745E+03 0.  0.
         23    2    1    2    0    0  0.99430093130E+01 -0.11279579721E+03 -0.60139857009E+02  0.15801963793E+03  0.92366921932E+02 0.  0.
          5    1    3    3  502    0  0.11807112133E+02 -0.18101769065E+02 -0.60845437907E+02  0.64704881224E+02  0.41800000000E+01 0.  1.
         -5    1    3    3    0  502 -0.21750121446E+02  0.13089756628E+03 -0.79318558180E+02  0.15464846172E+03  0.41800000000E+01 0.  1.
        -11    1    4    4    0    0  0.25808780934E+02 -0.11074305312E+03 -0.74973697488E+02  0.13620268831E+03  0.00000000000E+00 0. -1.
         11    1    4    4    0    0 -0.15865771621E+02 -0.20527440949E+01  0.14833840479E+02  0.21816949622E+02  0.00000000000E+00 0.  1.
</event>
<event>
 8    1  0.3528896E-009  0.1063312E+03  0.7561462E-02  0.1267519E+00
         -1   -1    0    0    0  501 -0.00000000000E+00  0.00000000000E+00  0.21625367580E+02  0.21625367580E+02  0.00000000000E+00 0.  1.
          1   -1    0    0  501    0  0.00000000000E+00 -0.00000000000E+00 -0.70447962682E+03  0.70447962682E+03  0.00000000000E+00 0. -1.
         25    2    1    2    0    0  0.31669899248E+02  0.27196282359E+02 -0.50426958447E+03  0.52122659400E+03  0.12508688251E+03 0.  0.
         23    2    1    2    0    0 -0.31669899248E+02 -0.27196282359E+02 -0.17858467476E+03  0.20487840040E+03  0.91323888422E+02 0.  0.
          5    1    3    3  502    0  0.19179351409E+02 -0.40243130515E+02 -0.34325515744E+03  0.34616315891E+03  0.41800000000E+01 0.  1.
         -5    1    3    3    0  502  0.12490547839E+02  0.67439412875E+02 -0.16101442703E+03  0.17506343509E+03  0.41800000000E+01 0.  1.
        -11    1    4    4    0    0  0.31773723575E+02 -0.11748836319E+02 -0.76933432474E+02  0.84061630349E+02  0.00000000000E+00 0. -1.
         11    1    4    4    0    0 -0.63443622823E+02 -0.15447446040E+02 -0.10165124229E+03  0.12081677005E+03  0.00000000000E+00 0.  1.
</event>
<event>
 8    1  0.3528896E-009  0.1401122E+03  0.7561462E-02  0.1213178E+00
         -4   -1    0    0    0  501 -0.00000000000E+00  0.00000000000E+00  0.84958833598E+02  0.84958833598E+02  0.00000000000E+00 0.  1.
          4   -1    0    0  501    0  0.00000000000E+00 -0.00000000000E+00 -0.24495163905E+03  0.24495163905E+03  0.00000000000E+00 0. -1.
         25    2    1    2    0    0 -0.59931396556E+02 -0.69088358740E+02 -0.58665149534E+02  0.16569297809E+03  0.12509032581E+03 0.  0.
         23    2    1    2    0    0  0.59931396556E+02  0.69088358740E+02 -0.10132765592E+03  0.16421749456E+03  0.91296867744E+02 0.  0.
          5    1    3    3  502    0  0.53238754965E+01 -0.83779231045E+02 -0.14144388280E+02  0.85234026801E+02  0.41800000000E+01 0.  1.
         -5    1    3    3    0  502 -0.65255272052E+02  0.14690872305E+02 -0.44520761255E+02  0.80458951288E+02  0.41800000000E+01 0.  1.
        -11    1    4    4    0    0 -0.10967585615E+02  0.55990531079E+02 -0.47557610490E+02  0.74276199554E+02  0.00000000000E+00 0. -1.
         11    1    4    4    0    0  0.70898982171E+02  0.13097827660E+02 -0.53770045433E+02  0.89941295010E+02  0.00000000000E+00 0.  1.
</event>
<event>
 8    1  0.3528896E-009  0.1561452E+03  0.7561462E-02  0.1193119E+00
         -1   -1    0    0    0  501 -0.00000000000E+00  0.00000000000E+00  0.13674475859E+02  0.13674475859E+02  0.00000000000E+00 0. -1.
          1   -1    0    0  501    0  0.00000000000E+00 -0.00000000000E+00 -0.26817176406E+04  0.26817176406E+04  0.00000000000E+00 0.  1.
         25    2    1    2    0    0 -0.71488600578E+02  0.90533592213E+02 -0.21281174524E+04  0.21349093608E+04  0.12508851391E+03 0.  0.
         23    2    1    2    0    0  0.71488600578E+02 -0.90533592213E+02 -0.53992571229E+03  0.56048275560E+03  0.96510067897E+02 0.  0.
          5    1    3    3  502    0  0.91698862620E+01 -0.26278012053E+02 -0.35235126475E+03  0.35347348826E+03  0.41800000000E+01 0. -1.
         -5    1    3    3    0  502 -0.80658486840E+02  0.11681160427E+03 -0.17757661877E+04  0.17814358726E+04  0.41800000000E+01 0. -1.
        -11    1    4    4    0    0  0.21584135881E+02 -0.89657722181E+02 -0.42968079891E+03  0.43946555157E+03  0.00000000000E+00 0.  1.
         11    1    4    4    0    0  0.49904464697E+02 -0.87587003254E+00 -0.11024491338E+03  0.12101720403E+03  0.00000000000E+00 0. -1.
</event>
<event>
 8    1  0.3528896E-009  0.1684032E+03  0.7561462E-02  0.1179523E+00
          2   -1    0    0  501    0  0.00000000000E+00  0.00000000000E+00  0.12683272414E+04  0.12683272414E+04  0.00000000000E+00 0.  1.
         -2   -1    0    0    0  501 -0.00000000000E+00 -0.00000000000E+00 -0.26248751539E+02  0.26248751539E+02  0.00000000000E+00 0. -1.
         25    2    1    2    0    0  0.21305287526E+02  0.13236508931E+03  0.45187137959E+03  0.48765531795E+03  0.12508210617E+03 0.  0.
         23    2    1    2    0    0 -0.21305287526E+02 -0.13236508931E+03  0.79020711025E+03  0.80692067497E+03  0.93377012482E+02 0.  0.
          5    1    3    3  502    0  0.51638066069E+02  0.17430890459E+02  0.22442576780E+03  0.23098641402E+03  0.41800000000E+01 0.  1.
         -5    1    3    3    0  502 -0.30332778543E+02  0.11493419885E+03  0.22744561180E+03  0.25666890393E+03  0.41800000000E+01 0.  1.
        -11    1    4    4    0    0 -0.54280229244E+02 -0.47400149813E+02  0.36779491115E+03  0.37478822575E+03  0.00000000000E+00 0. -1.
         11    1    4    4    0    0  0.32974941718E+02 -0.84964939500E+02  0.42241219910E+03  0.43213244922E+03  0.00000000000E+00 0.  1.
</event>
<event>
 8    1  0.3528896E-009  0.1891047E+03  0.7561462E-02  0.1159271E+00
          2   -1    0    0  501    0  0.00000000000E+00  0.00000000000E+00  0.51880906700E+03  0.51880906700E+03  0.00000000000E+00 0. -1.
         -2   -1    0    0    0  501 -0.00000000000E+00 -0.00000000000E+00 -0.84331006974E+02  0.84331006974E+02  0.00000000000E+00 0.  1.
         25    2    1    2    0    0 -0.15988316392E+03 -0.12288955308E+02  0.11506028537E+03  0.23366676104E+03  0.12509053289E+03 0.  0.
         23    2    1    2    0    0  0.15988316392E+03  0.12288955308E+02  0.31941777466E+03  0.36947331293E+03  0.93643844820E+02 0.  0.
          5    1    3    3  502    0 -0.53987442583E+02 -0.60700009184E+02  0.21222390842E+02  0.84065434898E+02  0.41800000000E+01 0. -1.
         -5    1    3    3    0  502 -0.10589572134E+03  0.48411053876E+02  0.93837894527E+02  0.14960132614E+03  0.41800000000E+01 0. -1.
        -11    1    4    4    0    0  0.46452632912E+02  0.42509763650E+02  0.15630554482E+03  0.16851216708E+03  0.00000000000E+00 0. -1.
         11    1    4    4    0    0  0.11343053101E+03 -0.30220808342E+02  0.16311222984E+03  0.20096114586E+03  0.00000000000E+00 0.  1.
</event>
<event>
 8    1  0.3528896E-009  0.1411356E+03  0.7561462E-02  0.1211809E+00
         -2   -1    0    0    0  501 -0.00000000000E+00  0.00000000000E+00  0.90924261255E+02  0.90924261255E+02  0.00000000000E+00 0.  1.
          2   -1    0    0  501    0  0.00000000000E+00 -0.00000000000E+00 -0.43877123603E+03  0.43877123603E+03  0.00000000000E+00 0. -1.
         25    2    1    2    0    0  0.12076811550E+03  0.61613629399E+02 -0.31123127037E+03  0.36179189623E+03  0.12508915011E+03 0.  0.
         23    2    1    2    0    0 -0.12076811550E+03 -0.61613629399E+02 -0.36615704403E+02  0.16790360105E+03  0.92031149009E+02 0.  0.
          5    1    3    3  502    0  0.57781140829E+02  0.16690027431E+02 -0.26455936687E+03  0.27134175545E+03  0.41800000000E+01 0.  1.
         -5    1    3    3    0  502  0.62986974669E+02  0.44923601968E+02 -0.46671903499E+02  0.90450140784E+02  0.41800000000E+01 0.  1.
        -11    1    4    4    0    0 -0.17134145473E+02 -0.32692158089E+02 -0.47055388381E+02  0.59804395468E+02  0.00000000000E+00 0. -1.
         11    1    4    4    0    0 -0.10363397003E+03 -0.28921471310E+02  0.10439683978E+02  0.10809920558E+03  0.00000000000E+00 0.  1.
</event>
<event>
 8    1  0.3528896E-009  0.1370124E+03  0.7561462E-02  0.1217406E+00
         -1   -1    0    0    0  501 -0.00000000000E+00  0.00000000000E+00  0.26204664490E+02  0.26204664490E+02  0.00000000000E+00 0.  1.
          1   -1    0    0  501    0  0.00000000000E+00 -0.00000000000E+00 -0.77517044147E+03  0.77517044147E+03  0.00000000000E+00 0. -1.
         25    2    1    2    0    0 -0.15240325688E+02 -0.90969530189E+02 -0.44009109643E+03  0.46672829212E+03  0.12508957815E+03 0.  0.
         23    2    1    2    0    0  0.15240325688E+02  0.90969530189E+02 -0.30887468056E+03  0.33464681384E+03  0.89873237261E+02 0.  0.
          5    1    3    3  502    0  0.51028310509E+02 -0.47389935652E+02 -0.27220203963E+03  0.28100020863E+03  0.41800000000E+01 0. -1.
         -5    1    3    3    0  502 -0.66268636197E+02 -0.43579594537E+02 -0.16788905680E+03  0.18572808349E+03  0.41800000000E+01 0. -1.
        -11    1    4    4    0    0  0.31912348070E+02  0.10062873712E+03 -0.22424590703E+03  0.24785230988E+03  0.00000000000E+00 0.  1.
         11    1    4    4    0    0 -0.16672022382E+02 -0.96592069349E+01 -0.84628773529E+02  0.86794503961E+02  0.00000000000E+00 0. -1.
</event>
<event>
 8    1  0.3528896E-009  0.1056944E+03  0.7561462E-02  0.1268757E+00
          1   -1    0    0  501    0  0.00000000000E+00  0.00000000000E+00  0.88827756811E+03  0.88827756811E+03  0.00000000000E+00 0. -1.
         -1   -1    0    0    0  501 -0.00000000000E+00 -0.00000000000E+00 -0.20209461031E+02  0.20209461031E+02  0.00000000000E+00 0.  1.
         25    2    1    2    0    0 -0.14528204081E+02 -0.66117931583E+02  0.61480320551E+03  0.63105289362E+03  0.12514840572E+03 0.  0.
         23    2    1    2    0    0  0.14528204081E+02  0.66117931583E+02  0.25326490157E+03  0.27743413552E+03  0.90796143057E+02 0.  0.
          5    1    3    3  502    0  0.24230954786E+02  0.32331283117E+01  0.22674456072E+02  0.33603506465E+02  0.41800000000E+01 0. -1.
         -5    1    3    3    0  502 -0.38759158868E+02 -0.69351059895E+02  0.59212874944E+03  0.59744938716E+03  0.41800000000E+01 0. -1.
        -11    1    4    4    0    0 -0.33790562488E+02  0.15906918961E+02  0.13592481656E+03  0.14096236356E+03  0.00000000000E+00 0.  1.
         11    1    4    4    0    0  0.48318766569E+02  0.50211012623E+02  0.11734008501E+03  0.13647177196E+03  0.00000000000E+00 0. -1.
</event>
<event>
 8    1  0.3528896E-009  0.1133469E+03  0.7561462E-02  0.1254495E+00
         -1   -1    0    0    0  501 -0.00000000000E+00  0.00000000000E+00  0.32328600971E+03  0.32328600971E+03  0.00000000000E+00 0.  1.
          1   -1    0    0  501    0  0.00000000000E+00 -0.00000000000E+00 -0.44786197907E+02  0.44786197907E+02  0.00000000000E+00 0. -1.
         25    2    1    2    0    0 -0.47536182057E+02 -0.10903228377E+02  0.12630229179E+03  0.18433093752E+03  0.12508819537E+03 0.  0.
         23    2    1    2    0    0  0.47536182057E+02  0.10903228377E+02  0.15219752001E+03  0.18374127010E+03  0.90654289725E+02 0.  0.
          5    1    3    3  502    0 -0.80650691046E+02  0.14210879409E+02  0.11466804139E+03  0.14097061813E+03  0.41800000000E+01 0. -1.
         -5    1    3    3    0  502  0.33114508989E+02 -0.25114107786E+02  0.11634250407E+02  0.43360319395E+02  0.41800000000E+01 0. -1.
        -11    1    4    4    0    0  0.68670725909E+02 -0.14184459783E+02  0.10213111718E+03  0.12388556249E+03  0.00000000000E+00 0.  1.
         11    1    4    4    0    0 -0.21134543852E+02  0.25087688160E+02  0.50066402827E+02  0.59855707607E+02  0.00000000000E+00 0. -1.
</event>
<event>
 7    1  0.3528896E-009  0.1457718E+03  0.7561462E-02  0.1205767E+00
          2   -1    0    0  501    0  0.00000000000E+00  0.00000000000E+00  0.10118029757E+03  0.10118029757E+03  0.00000000000E+00 0.  1.
         -2   -1    0    0    0  501 -0.00000000000E+00 -0.00000000000E+00 -0.24775169434E+03  0.24775169434E+03  0.00000000000E+00 0. -1.
         23    2    1    2    0    0  0.91428127979E+02 -0.67494471702E+02 -0.79159557681E+02  0.16704488537E+03  0.93397815065E+02 0.  0.
          5    1    1    2  502    0 -0.11668033448E+03  0.78889667070E+02 -0.56835864246E+02  0.15193968504E+03  0.41800000000E+01 0.  1.
         -5    1    1    2    0  502  0.25252206501E+02 -0.11395195368E+02 -0.10575974845E+02  0.29947421501E+02  0.41800000000E+01 0.  1.
        -11    1    3    3    0    0  0.58981370598E+02 -0.14925258752E+02 -0.85507458494E+02  0.10494327460E+03  0.00000000000E+00 0.  1.
         11    1    3    3    0    0  0.32446757382E+02 -0.52569212949E+02  0.63479008131E+01  0.62101610764E+02  0.00000000000E+00 0. -1.
</event>
<event>
 8    1  0.3528896E-009  0.1567172E+03  0.7561462E-02  0.1192454E+00
          1   -1    0    0  501    0  0.00000000000E+00  0.00000000000E+00  0.99998282722E+03  0.99998282722E+03  0.00000000000E+00 0. -1.
         -1   -1    0    0    0  501 -0.00000000000E+00 -0.00000000000E+00 -0.30607587486E+02  0.30607587486E+02  0.00000000000E+00 0.  1.
         25    2    1    2    0    0 -0.43801144626E+02  0.11608010063E+03  0.34385264204E+03  0.38636193236E+03  0.12509106005E+03 0.  0.
         23    2    1    2    0    0  0.43801144626E+02 -0.11608010063E+03  0.62552259769E+03  0.64422848234E+03  0.91425856351E+02 0.  0.
          5    1    3    3  502    0 -0.54097367641E+02  0.28317408068E+01  0.62186513113E+02  0.82578318915E+02  0.41800000000E+01 0.  1.
         -5    1    3    3    0  502  0.10296223015E+02  0.11324835983E+03  0.28166612893E+03  0.30378361345E+03  0.41800000000E+01 0.  1.
        -11    1    4    4    0    0 -0.94202475621E+01 -0.81047681965E+02  0.45356940945E+03  0.46084995064E+03  0.00000000000E+00 0. -1.
         11    1    4    4    0    0  0.53221392188E+02 -0.35032418668E+02  0.17195318824E+03  0.18337853170E+03  0.00000000000E+00 0.  1.
</event>
<event>
 8    1  0.3528896E-009  0.1174437E+03  0.7561462E-02  0.1247375E+00
         -3   -1    0    0    0  501 -0.00000000000E+00  0.00000000000E+00  0.11535042914E+03  0.11535042914E+03  0.00000000000E+00 0.  1.
          3   -1    0    0  501    0  0.00000000000E+00 -0.00000000000E+00 -0.15033101720E+03  0.15033101720E+03  0.00000000000E+00 0. -1.
         25    2    1    2    0    0 -0.54457599484E+02 -0.14769045324E+02 -0.66497641805E+02  0.15248898436E+03  0.12508876506E+03 0.  0.
         23    2    1    2    0    0  0.54457599484E+02  0.14769045324E+02  0.31517053748E+02  0.11319246198E+03  0.92927143134E+02 0.  0.
          5    1    3    3  502    0  0.31574235746E+02  0.24931489352E+02 -0.85379677642E+01  0.41338611707E+02  0.41800000000E+01 0.  1.
         -5    1    3    3    0  502 -0.86031835230E+02 -0.39700534676E+02 -0.57959674040E+02  0.11115037266E+03  0.41800000000E+01 0.  1.
        -11    1    4    4    0    0 -0.21524708809E+02 -0.25242591343E+01 -0.11127057954E+02  0.24361781384E+02  0.00000000000E+00 0.  1.
         11    1    4    4    0    0  0.75982308292E+02  0.17293304458E+02  0.42644111702E+02  0.88830680597E+02  0.00000000000E+00 0. -1.
</event>
<event>
 8    1  0.3528896E-009  0.9801224E+02  0.7561462E-02  0.1284532E+00
         -2   -1    0    0    0  501 -0.00000000000E+00  0.00000000000E+00  0.11029169242E+02  0.11029169242E+02  0.00000000000E+00 0. -1.
          2   -1    0    0  501    0  0.00000000000E+00 -0.00000000000E+00 -0.11583321919E+04  0.11583321919E+04  0.00000000000E+00 0.  1.
         25    2    1    2    0    0  0.31313460908E+02 -0.13338357717E+02 -0.72993473925E+03  0.74135756590E+03  0.12509145587E+03 0.  0.
         23    2    1    2    0    0 -0.31313460908E+02  0.13338357717E+02 -0.41736828340E+03  0.42800379523E+03  0.88501526121E+02 0.  0.
          5    1    3    3  502    0  0.57901484094E+02  0.17971157755E+02 -0.63412516918E+03  0.63703041290E+03  0.41800000000E+01 0. -1.
         -5    1    3    3    0  502 -0.26588023186E+02 -0.31309515472E+02 -0.95809570069E+02  0.10432715300E+03  0.41800000000E+01 0. -1.
        -11    1    4    4    0    0  0.19860278852E+02  0.33516057053E+02 -0.20192642017E+03  0.20565027576E+03  0.00000000000E+00 0. -1.
         11    1    4    4    0    0 -0.51173739760E+02 -0.20177699337E+02 -0.21544186323E+03  0.22235351947E+03  0.00000000000E+00 0.  1.
</event>
<event>
 8    1  0.3528896E-009  0.8231883E+02  0.7561462E-02  0.1322597E+00
         -1   -1    0    0    0  501 -0.00000000000E+00  0.00000000000E+00  0.25523908520E+03  0.25523908520E+03  0.00000000000E+00 0.  1.
          1   -1    0    0  501    0  0.00000000000E+00 -0.00000000000E+00 -0.54921751352E+02  0.54921751352E+02  0.00000000000E+00 0. -1.
         25    2    1    2    0    0 -0.93649088583E+01  0.80665578342E+01  0.55645852505E+02  0.13746458039E+03  0.12508908461E+03 0.  0.
         23    2    1    2    0    0  0.93649088583E+01 -0.80665578342E+01  0.14467148134E+03  0.17269625616E+03  0.93495392961E+02 0.  0.
          5    1    3    3  502    0 -0.72938250701E+01 -0.35774142078E+02  0.79322184667E+02  0.87421224573E+02  0.41800000000E+01 0.  1.
         -5    1    3    3    0  502 -0.20710837882E+01  0.43840699912E+02 -0.23676332161E+02  0.50043355817E+02  0.41800000000E+01 0.  1.
        -11    1    4    4    0    0 -0.21534329906E+02 -0.36129356865E+02  0.11216323549E+03  0.11979002123E+03  0.00000000000E+00 0.  1.
         11    1    4    4    0    0  0.30899238764E+02  0.28062799031E+02  0.32508245854E+02  0.52906234927E+02  0.00000000000E+00 0. -1.
</event>
<event>
 8    1  0.3528896E-009  0.1070032E+03  0.7561462E-02  0.1266222E+00
          2   -1    0    0  501    0  0.00000000000E+00  0.00000000000E+00  0.50639671223E+03  0.50639671223E+03  0.00000000000E+00 0. -1.
         -2   -1    0    0    0  501 -0.00000000000E+00 -0.00000000000E+00 -0.34747118734E+02  0.34747118734E+02  0.00000000000E+00 0.  1.
         25    2    1    2    0    0  0.45483249333E+02 -0.59687727923E+02  0.32382791355E+03  0.35516815114E+03  0.12509415317E+03 0.  0.
         23    2    1    2    0    0 -0.45483249333E+02  0.59687727923E+02  0.14782167995E+03  0.18597567982E+03  0.84287327570E+02 0.  0.
          5    1    3    3  502    0  0.40279663028E+02  0.23781536108E+02  0.49018174723E+02  0.67884214413E+02  0.41800000000E+01 0.  1.
         -5    1    3    3    0  502  0.52035863050E+01 -0.83469264031E+02  0.27480973882E+03  0.28728393673E+03  0.41800000000E+01 0.  1.
        -11    1    4    4    0    0 -0.36427828441E+02  0.17970241544E+02  0.10193107171E+02  0.41878582831E+02  0.00000000000E+00 0.  1.
         11    1    4    4    0    0 -0.90554208922E+01  0.41717486378E+02  0.13762857278E+03  0.14409709699E+03  0.00000000000E+00 0. -1.
</event>
<event>
 8    1  0.3528896E-009  0.1495982E+03  0.7561462E-02  0.1200968E+00
          1   -1    0    0  501    0  0.00000000000E+00  0.00000000000E+00  0.90692013086E+03  0.90692013086E+03  0.00000000000E+00 0. -1.
         -1   -1    0    0    0  501 -0.00000000000E+00 -0.00000000000E+00 -0.31153397884E+02  0.31153397884E+02  0.00000000000E+00 0.  1.
         25    2    1    2    0    0  0.10674663743E+03  0.34429020145E+01  0.67664687851E+03  0.69635117771E+03  0.12508903357E+03 0.  0.
         23    2    1    2    0    0 -0.10674663743E+03 -0.34429020145E+01  0.19911985447E+03  0.24172235104E+03  0.85873630240E+02 0.  0.
          5    1    3    3  502    0 -0.19515077138E+02 -0.25732585247E+02  0.94931472966E+02  0.10036165173E+03  0.41800000000E+01 0.  1.
         -5    1    3    3    0  502  0.12626171457E+03  0.29175487261E+02  0.58171540554E+03  0.59598952597E+03  0.41800000000E+01 0.  1.
        -11    1    4    4    0    0 -0.47421989521E+02  0.41128556240E+02  0.95066827893E+02  0.11392148610E+03  0.00000000000E+00 0.  1.
         11    1    4    4    0    0 -0.59324647912E+02 -0.44571458254E+02  0.10405302658E+03  0.12780086494E+03  0.00000000000E+00 0. -1.
</event>
<event>
 8    1  0.3528896E-009  0.1329492E+03  0.7561462E-02  0.1223144E+00
          2   -1    0    0  501    0  0.00000000000E+00  0.00000000000E+00  0.22612841246E+03  0.22612841246E+03  0.00000000000E+00 0. -1.
         -2   -1    0    0    0  501 -0.00000000000E+00 -0.00000000000E+00 -0.95836415763E+02  0.95836415763E+02  0.00000000000E+00 0.  1.
         25    2    1    2    0    0  0.35159596590E+02  0.81911570382E+02  0.11788073275E+03  0.19362410626E+03  0.12509486312E+03 0.  0.
         23    2    1    2    0    0 -0.35159596590E+02 -0.81911570382E+02  0.12411263949E+02  0.12834072196E+03  0.91496441705E+02 0.  0.
          5    1    3    3  502    0  0.79601073624E+02  0.30230994866E+02  0.68240473226E+02  0.10919926080E+03  0.41800000000E+01 0.  1.
         -5    1    3    3    0  502 -0.44441477035E+02  0.51680575516E+02  0.49640259521E+02  0.84424845466E+02  0.41800000000E+01 0.  1.
        -11    1    4    4    0    0 -0.42729776450E+01 -0.81354695075E+02 -0.19666202138E+02  0.83806946342E+02  0.00000000000E+00 0.  1.
         11    1    4    4    0    0 -0.30886618945E+02 -0.55687530732E+00  0.32077466086E+02  0.44533775614E+02  0.00000000000E+00 0. -1.
</event>
<event>
 8    1  0.3528896E-009  0.8906967E+02  0.7561462E-02  0.1305120E+00
          1   -1    0    0  501    0  0.00000000000E+00  0.00000000000E+00  0.37711145499E+03  0.37711145499E+03  0.00000000000E+00 0. -1.
         -1   -1    0    0    0  501 -0.00000000000E+00 -0.00000000000E+00 -0.35912689642E+02  0.35912689642E+02  0.00000000000E+00 0.  1.
         25    2    1    2    0    0  0.22540246043E+02  0.21843837527E+02  0.14447549170E+03  0.19367257353E+03  0.12510268624E+03 0.  0.
         23    2    1    2    0    0 -0.22540246043E+02 -0.21843837527E+02  0.19672327365E+03  0.21935157111E+03  0.91814211448E+02 0.  0.
          5    1    3    3  502    0 -0.20619656924E+02 -0.35817208028E+02  0.12695500731E+02  0.43436053934E+02  0.41800000000E+01 0. -1.
         -5    1    3    3    0  502  0.43159902967E+02  0.57661045554E+02  0.13177999097E+03  0.15023651959E+03  0.41800000000E+01 0. -1.
        -11    1    4    4    0    0  0.12055299927E+02  0.11315050654E+02 -0.34845908295E+00  0.16537292746E+02  0.00000000000E+00 0.  1.
         11    1    4    4    0    0 -0.34595545970E+02 -0.33158888181E+02  0.19707173273E+03  0.20281427836E+03  0.00000000000E+00 0. -1.
</event>
<event>
 8    1  0.3528896E-009  0.1025045E+03  0.7561462E-02  0.1275116E+00
          2   -1    0    0  501    0  0.00000000000E+00  0.00000000000E+00  0.11063582295E+04  0.11063582295E+04  0.00000000000E+00 0. -1.
         -2   -1    0    0    0  501 -0.00000000000E+00 -0.00000000000E+00 -0.13685763866E+02  0.13685763866E+02  0.00000000000E+00 0.  1.
         25    2    1    2    0    0 -0.18507950337E+02  0.11619489011E+02  0.86314827951E+03  0.87243907979E+03  0.12508972292E+03 0.  0.
         23    2    1    2    0    0  0.18507950337E+02 -0.11619489011E+02  0.22952418613E+03  0.24760491357E+03  0.90273387324E+02 0.  0.
          5    1    3    3  502    0  0.13933105957E+02  0.63439541946E+02  0.40146424809E+03  0.40670594023E+03  0.41800000000E+01 0.  1.
         -5    1    3    3    0  502 -0.32441056294E+02 -0.51820052935E+02  0.46168403141E+03  0.46573313956E+03  0.41800000000E+01 0.  1.
        -11    1    4    4    0    0  0.38962878717E+02  0.17780046815E+02  0.56417403743E+02  0.70831909672E+02  0.00000000000E+00 0.  1.
         11    1    4    4    0    0 -0.20454928380E+02 -0.29399535826E+02  0.17310678238E+03  0.17677300390E+03  0.00000000000E+00 0. -1.
</event>
<event>
 8    1  0.3528896E-009  0.1102593E+03  0.7561462E-02  0.1260090E+00
          2   -1    0    0  501    0  0.00000000000E+00  0.00000000000E+00  0.50244644593E+03  0.50244644593E+03  0.00000000000E+00 0. -1.
         -2   -1    0    0    0  501 -0.00000000000E+00 -0.00000000000E+00 -0.38019075913E+02  0.38019075913E+02  0.00000000000E+00 0.  1.
         25    2    1    2    0    0 -0.14945337619E+02  0.40405443000E+02  0.40044772703E+03  0.42173699322E+03  0.12509095264E+03 0.  0.
         23    2    1    2    0    0  0.14945337619E+02 -0.40405443000E+02  0.63979642990E+02  0.11872852862E+03  0.90261319791E+02 0.  0.
          5    1    3    3  502    0 -0.68844688032E+02  0.32666502611E+02  0.26262022397E+03  0.27348408711E+03  0.41800000000E+01 0.  1.
         -5    1    3    3    0  502  0.53899350413E+02  0.77389403893E+01  0.13782750306E+03  0.14825290612E+03  0.41800000000E+01 0.  1.
        -11    1    4    4    0    0 -0.28936838608E+02  0.14152606994E+01  0.47955994417E+02  0.56027859070E+02  0.00000000000E+00 0. -1.
         11    1    4    4    0    0  0.43882176227E+02 -0.41820703700E+02  0.16023648574E+02  0.62700669549E+02  0.00000000000E+00 0.  1.
</event>
<event>
 8    1  0.3528896E-009  0.7822100E+02  0.7561462E-02  0.1334177E+00
          1   -1    0    0  501    0  0.00000000000E+00  0.00000000000E+00  0.75246780032E+03  0.75246780032E+03  0.00000000000E+00 0. -1.
         -1   -1    0    0    0  501 -0.00000000000E+00 -0.00000000000E+00 -0.17120631091E+02  0.17120631091E+02  0.00000000000E+00 0.  1.
         25    2    1    2    0    0 -0.49866036002E+02  0.13450807763E+02  0.33243353472E+03  0.35892353526E+03  0.12508598394E+03 0.  0.
         23    2    1    2    0    0  0.49866036002E+02 -0.13450807763E+02  0.40291363451E+03  0.41066489615E+03  0.60321756311E+02 0.  0.
          5    1    3    3  502    0 -0.49151320919E+02 -0.14753374196E+02  0.40255269467E+02  0.65356510909E+02  0.41800000000E+01 0. -1.
         -5    1    3    3    0  502 -0.71471508289E+00  0.28204181959E+02  0.29217826525E+03  0.29356702435E+03  0.41800000000E+01 0. -1.
        -11    1    4    4    0    0 -0.12119015152E+02 -0.72898642150E+01  0.39590649498E+02  0.42040839385E+02  0.00000000000E+00 0.  1.
         11    1    4    4    0    0  0.61985051154E+02 -0.61609435481E+01  0.36332298501E+03  0.36862405677E+03  0.00000000000E+00 0. -1.
</event>
<event>
 8    1  0.3528896E-009  0.1064546E+03  0.7561462E-02  0.1267280E+00
          1   -1    0    0  501    0  0.00000000000E+00  0.00000000000E+00  0.33715832725E+03  0.33715832725E+03  0.00000000000E+00 0. -1.
         -1   -1    0    0    0  501 -0.00000000000E+00 -0.00000000000E+00 -0.58805884757E+02  0.58805884757E+02  0.00000000000E+00 0.  1.
         25    2    1    2    0    0  0.22380921950E+02 -0.55646673178E+02  0.58840979644E+02  0.15068899375E+03  0.12508978395E+03 0.  0.
         23    2    1    2    0    0 -0.22380921950E+02  0.55646673178E+02  0.21951146284E+03  0.24527521825E+03  0.91527004022E+02 0.  0.
          5    1    3    3  502    0 -0.58222860191E+00  0.28330517150E+02  0.56674729185E+02  0.63501610376E+02  0.41800000000E+01 0.  1.
         -5    1    3    3    0  502  0.22963150552E+02 -0.83977190328E+02  0.21662504583E+01  0.87187383375E+02  0.41800000000E+01 0.  1.
        -11    1    4    4    0    0  0.36206892121E+01 -0.18334276425E+02  0.10396883286E+03  0.10563509497E+03  0.00000000000E+00 0. -1.
         11    1    4    4    0    0 -0.26001611162E+02  0.73980949603E+02  0.11554262998E+03  0.13964012328E+03  0.00000000000E+00 0.  1.
</event>
<event>
 8    1  0.3528896E-009  0.3112695E+03  0.7561462E-02  0.1079739E+00
         -2   -1    0    0    0  501 -0.00000000000E+00  0.00000000000E+00  0.61298807308E+03  0.61298807308E+03  0.00000000000E+00 0.  1.
          2   -1    0    0  501    0  0.00000000000E+00 -0.00000000000E+00 -0.16735613061E+03  0.16735613061E+03  0.00000000000E+00 0. -1.
         25    2    1    2    0    0 -0.61528281996E+02 -0.28975763248E+03  0.29015495252E+03  0.43310832389E+03  0.12509080176E+03 0.  0.
         23    2    1    2    0    0  0.61528281996E+02  0.28975763248E+03  0.15547698994E+03  0.34723587980E+03  0.93029279029E+02 0.  0.
          5    1    3    3  502    0 -0.88476907867E+02 -0.22363184589E+03  0.17466538688E+03  0.29726223355E+03  0.41800000000E+01 0.  1.
         -5    1    3    3    0  502  0.26948625871E+02 -0.66125786590E+02  0.11548956564E+03  0.13584609034E+03  0.41800000000E+01 0.  1.
        -11    1    4    4    0    0 -0.13126279458E+02  0.16180878290E+03  0.82445784895E+02  0.18207605247E+03  0.00000000000E+00 0. -1.
         11    1    4    4    0    0  0.74654561454E+02  0.12794884958E+03  0.73031205043E+02  0.16515982733E+03  0.00000000000E+00 0.  1.
</event>
<event>
 8    1  0.3528896E-009  0.1105921E+03  0.7561462E-02  0.1259477E+00
          1   -1    0    0  501    0  0.00000000000E+00  0.00000000000E+00  0.39833955115E+03  0.39833955115E+03  0.00000000000E+00 0. -1.
         -1   -1    0    0    0  501 -0.00000000000E+00 -0.00000000000E+00 -0.85847210461E+02  0.85847210461E+02  0.00000000000E+00 0.  1.
         25    2    1    2    0    0  0.57330743929E+01  0.93756374418E+02  0.31446468977E+03  0.35122426872E+03  0.12508924790E+03 0.  0.
         23    2    1    2    0    0 -0.57330743929E+01 -0.93756374418E+02 -0.19723490823E+01  0.13296249289E+03  0.94085112896E+02 0.  0.
          5    1    3    3  502    0  0.23624004338E+02  0.25599655977E+02  0.25922892172E+03  0.26159232065E+03  0.41800000000E+01 0. -1.
         -5    1    3    3    0  502 -0.17890929945E+02  0.68156718441E+02  0.55235768053E+02  0.89631948072E+02  0.41800000000E+01 0. -1.
        -11    1    4    4    0    0 -0.34286653595E+02 -0.71539826944E+02 -0.32396749360E+02  0.85691719687E+02  0.00000000000E+00 0.  1.
         11    1    4    4    0    0  0.28553579202E+02 -0.22216547475E+02  0.30424400277E+02  0.47270773203E+02  0.00000000000E+00 0. -1.
</event>
<event>
 8    1  0.3528896E-009  0.9970898E+02  0.7561462E-02  0.1280909E+00
         -2   -1    0    0    0  501 -0.00000000000E+00  0.00000000000E+00  0.17998369910E+03  0.17998369910E+03  0.00000000000E+00 0.  1.
          2   -1    0    0  501    0  0.00000000000E+00 -0.00000000000E+00 -0.14492350365E+03  0.14492350365E+03  0.00000000000E+00 0. -1.
         25    2    1    2    0    0  0.69237861913E+02  0.31343772535E+02  0.11078394750E+03  0.18356729759E+03  0.12509019195E+03 0.  0.
         23    2    1    2    0    0 -0.69237861913E+02 -0.31343772535E+02 -0.75723752047E+02  0.14133990516E+03  0.92013958543E+02 0.  0.
          5    1    3    3  502    0  0.29965169884E+02 -0.12919771853E+02 -0.21012117414E+02  0.39036052428E+02  0.41800000000E+01 0. -1.
         -5    1    3    3    0  502  0.39272692029E+02  0.44263544388E+02  0.13179606491E+03  0.14453124516E+03  0.41800000000E+01 0. -1.
        -11    1    4    4    0    0  0.13322269324E+02 -0.19756288639E+02 -0.47814553258E+02  0.53423078383E+02  0.00000000000E+00 0. -1.
         11    1    4    4    0    0 -0.82560131237E+02 -0.11587483896E+02 -0.27909198790E+02  0.87916826774E+02  0.00000000000E+00 0.  1.
</event>
<event>
 8    1  0.3528896E-009  0.7993857E+02  0.7561462E-02  0.1329226E+00
         -2   -1    0    0    0  501 -0.00000000000E+00  0.00000000000E+00  0.24220312969E+02  0.24220312969E+02  0.00000000000E+00 0. -1.
          2   -1    0    0  501    0  0.00000000000E+00 -0.00000000000E+00 -0.99275693491E+03  0.99275693491E+03  0.00000000000E+00 0.  1.
         25    2    1    2    0    0  0.87945977713E+01  0.12080610979E+01 -0.88212112846E+03  0.89099139243E+03  0.12509664961E+03 0.  0.
         23    2    1    2    0    0 -0.87945977713E+01 -0.12080610979E+01 -0.86415493487E+02  0.12598585546E+03  0.91246884325E+02 0.  0.
          5    1    3    3  502    0  0.61999852231E+02 -0.84611327921E+00 -0.64207105028E+03  0.64507162672E+03  0.41800000000E+01 0. -1.
         -5    1    3    3    0  502 -0.53205254459E+02  0.20541743771E+01 -0.24005007818E+03  0.24591976571E+03  0.41800000000E+01 0. -1.
        -11    1    4    4    0    0 -0.25263351781E+02 -0.80116886595E+01 -0.10008062328E+03  0.10353045569E+03  0.00000000000E+00 0.  1.
         11    1    4    4    0    0  0.16468754010E+02  0.68036275617E+01  0.13665129793E+02  0.22455399771E+02  0.00000000000E+00 0. -1.
</event>
<event>
 8    1  0.3528896E-009  0.1475732E+03  0.7561462E-02  0.1203487E+00
          1   -1    0    0  501    0  0.00000000000E+00  0.00000000000E+00  0.79532386550E+03  0.79532386550E+03  0.00000000000E+00 0. -1.
         -1   -1    0    0    0  501 -0.00000000000E+00 -0.00000000000E+00 -0.43330098904E+02  0.43330098904E+02  0.00000000000E+00 0.  1.
         25    2    1    2    0    0 -0.99352105933E+02 -0.93919990359E+02  0.53358789133E+03  0.56485041817E+03  0.12509257209E+03 0.  0.
         23    2    1    2    0    0  0.99352105933E+02  0.93919990359E+02  0.21840587526E+03  0.27380354623E+03  0.92603725821E+02 0.  0.
          5    1    3    3  502    0 -0.11897310007E+02 -0.39307205316E+02  0.30596497913E+02  0.51383075616E+02  0.41800000000E+01 0. -1.
         -5    1    3    3    0  502 -0.87454795926E+02 -0.54612785042E+02  0.50299139342E+03  0.51346734256E+03  0.41800000000E+01 0. -1.
        -11    1    4    4    0    0  0.21079596325E+02  0.63143792006E+02  0.42926469158E+02  0.79209656005E+02  0.00000000000E+00 0.  1.
         11    1    4    4    0    0  0.78272509608E+02  0.30776198353E+02  0.17547940611E+03  0.19459389022E+03  0.00000000000E+00 0. -1.
</event>
<event>
 8    1  0.3528896E-009  0.1410863E+03  0.7561462E-02  0.1211875E+00
          1   -1    0    0  501    0  0.00000000000E+00  0.00000000000E+00  0.16389553754E+03  0.16389553754E+03  0.00000000000E+00 0. -1.
         -1   -1    0    0    0  501 -0.00000000000E+00 -0.00000000000E+00 -0.20033812579E+03  0.20033812579E+03  0.00000000000E+00 0.  1.
         25    2    1    2    0    0 -0.66127013051E+01  0.11991924515E+03 -0.10091680526E+03  0.20063916389E+03  0.12509004488E+03 0.  0.
         23    2    1    2    0    0  0.66127013051E+01 -0.11991924515E+03  0.64474216999E+02  0.16359449944E+03  0.90453758425E+02 0.  0.
          5    1    3    3  502    0 -0.36515412287E+02  0.26510209478E+01  0.80706126340E+01  0.37722810537E+02  0.41800000000E+01 0.  1.
         -5    1    3    3    0  502  0.29902710982E+02  0.11726822420E+03 -0.10898741789E+03  0.16291635335E+03  0.41800000000E+01 0.  1.
        -11    1    4    4    0    0 -0.12825845588E+02 -0.41424186010E+02 -0.19026408197E+02  0.47354722156E+02  0.00000000000E+00 0.  1.
         11    1    4    4    0    0  0.19438546893E+02 -0.78495059138E+02  0.83500625196E+02  0.11623977728E+03  0.00000000000E+00 0. -1.
</event>
<event>
 8    1  0.3528896E-009  0.1630050E+03  0.7561462E-02  0.1185345E+00
          1   -1    0    0  501    0  0.00000000000E+00  0.00000000000E+00  0.28513985917E+03  0.28513985917E+03  0.00000000000E+00 0. -1.
         -1   -1    0    0    0  501 -0.00000000000E+00 -0.00000000000E+00 -0.13015976021E+03  0.13015976021E+03  0.00000000000E+00 0.  1.
         25    2    1    2    0    0  0.10990779310E+03 -0.10275377858E+03  0.26851481159E+02  0.19748955943E+03  0.12507222732E+03 0.  0.
         23    2    1    2    0    0 -0.10990779310E+03  0.10275377858E+03  0.12812861780E+03  0.21781005996E+03  0.91576293444E+02 0.  0.
          5    1    3    3  502    0  0.22067433461E+02 -0.41104166405E+02  0.67922516310E+02  0.82507361716E+02  0.41800000000E+01 0.  1.
         -5    1    3    3    0  502  0.87840359640E+02 -0.61649612177E+02 -0.41071035151E+02  0.11498219772E+03  0.41800000000E+01 0.  1.
        -11    1    4    4    0    0 -0.10817571140E+03  0.50312942429E+02  0.65480732339E+02  0.13609225922E+03  0.00000000000E+00 0.  1.
         11    1    4    4    0    0 -0.17320816994E+01  0.52440836153E+02  0.62647885464E+02  0.81717800732E+02  0.00000000000E+00 0. -1.
</event>
<event>
 8    1  0.3528896E-009  0.1006883E+03  0.7561462E-02  0.1278855E+00
          2   -1    0    0  501    0  0.00000000000E+00  0.00000000000E+00  0.15363592812E+03  0.15363592812E+03  0.00000000000E+00 0.  1.
         -2   -1    0    0    0  501 -0.00000000000E+00 -0.00000000000E+00 -0.15727126449E+03  0.15727126449E+03  0.00000000000E+00 0. -1.
         25    2    1    2    0    0 -0.26694948031E+02 -0.80521246754E+02 -0.72776871887E+02  0.16774492737E+03  0.12508235745E+03 0.  0.
         23    2    1    2    0    0  0.26694948031E+02  0.80521246754E+02  0.69141535523E+02  0.14316226525E+03  0.92296212417E+02 0.  0.
          5    1    3    3  502    0  0.79192757355E+01 -0.19769860062E+02 -0.92470869790E+02  0.94983664147E+02  0.41800000000E+01 0.  1.
         -5    1    3    3    0  502 -0.34614223767E+02 -0.60751386692E+02  0.19693997903E+02  0.72761263220E+02  0.41800000000E+01 0.  1.
        -11    1    4    4    0    0  0.48508856083E+02  0.37221458345E+02  0.30840587196E+01  0.61221381053E+02  0.00000000000E+00 0. -1.
         11    1    4    4    0    0 -0.21813908051E+02  0.43299788409E+02  0.66057476803E+02  0.81940884193E+02  0.00000000000E+00 0.  1.
</event>
<event>
 8    1  0.3528896E-009  0.1097138E+03  0.7561462E-02  0.1261101E+00
         -2   -1    0    0    0  501 -0.00000000000E+00  0.00000000000E+00  0.49397007597E+02  0.49397007597E+02  0.00000000000E+00 0.  1.
          2   -1    0    0  501    0  0.00000000000E+00 -0.00000000000E+00 -0.33689413109E+03  0.33689413109E+03  0.00000000000E+00 0. -1.
         25    2    1    2    0    0  0.53828682297E+02  0.22584632336E+02 -0.10327291333E+03  0.17239650855E+03  0.12509064264E+03 0.  0.
         23    2    1    2    0    0 -0.53828682297E+02 -0.22584632336E+02 -0.18422421016E+03  0.21389463013E+03  0.91677481077E+02 0.  0.
          5    1    3    3  502    0 -0.23306856504E+02  0.31432504545E+02  0.43844594803E+01  0.39596815365E+02  0.41800000000E+01 0. -1.
         -5    1    3    3    0  502  0.77135538802E+02 -0.88478722098E+01 -0.10765737281E+03  0.13279969318E+03  0.41800000000E+01 0. -1.
        -11    1    4    4    0    0 -0.57351689205E+02  0.19129557518E+02 -0.71421564557E+02  0.93574548405E+02  0.00000000000E+00 0.  1.
         11    1    4    4    0    0  0.35230069076E+01 -0.41714189854E+02 -0.11280264560E+03  0.12032008173E+03  0.00000000000E+00 0. -1.
</event>
<event>
 8    1  0.3528896E-009  0.5532361E+02  0.7561462E-02  0.1418575E+00
          1   -1    0    0  501    0  0.00000000000E+00  0.00000000000E+00  0.60288869266E+02  0.60288869266E+02  0.00000000000E+00 0. -1.
         -1   -1    0    0    0  501 -0.00000000000E+00 -0.00000000000E+00 -0.19330573578E+03  0.19330573578E+03  0.00000000000E+00 0.  1.
         25    2    1    2    0    0  0.24923407908E+02 -0.20687446062E+02 -0.10086455849E+03  0.16392355245E+03  0.12509246661E+03 0.  0.
         23    2    1    2    0    0 -0.24923407908E+02  0.20687446062E+02 -0.32152308030E+02  0.89671052603E+02  0.77187952926E+02 0.  0.
          5    1    3    3  502    0  0.36143876806E+02 -0.22876130948E+02  0.16420377146E+02  0.46008677261E+02  0.41800000000E+01 0.  1.
         -5    1    3    3    0  502 -0.11220468897E+02  0.21886848851E+01 -0.11728493563E+03  0.11791487519E+03  0.41800000000E+01 0.  1.
        -11    1    4    4    0    0 -0.36977760600E+02  0.76889166033E+01 -0.51217566328E+02  0.63637357881E+02  0.00000000000E+00 0.  1.
         11    1    4    4    0    0  0.12054352692E+02  0.12998529459E+02  0.19065258298E+02  0.26033694722E+02  0.00000000000E+00 0. -1.
</event>
<event>
 8    1  0.3528896E-009  0.1205371E+03  0.7561462E-02  0.1242214E+00
          4   -1    0    0  501    0  0.00000000000E+00  0.00000000000E+00  0.18383180987E+03  0.18383180987E+03  0.00000000000E+00 0.  1.
         -4   -1    0    0    0  501 -0.00000000000E+00 -0.00000000000E+00 -0.11039566598E+03  0.11039566598E+03  0.00000000000E+00 0. -1.
         25    2    1    2    0    0  0.86335418637E+02  0.14279247254E+02  0.13290195226E+02  0.15324286338E+03  0.12509614092E+03 0.  0.
         23    2    1    2    0    0 -0.86335418637E+02 -0.14279247254E+02  0.60145948666E+02  0.14098461247E+03  0.92743864485E+02 0.  0.
          5    1    3    3  502    0  0.68266981906E+02  0.46155991911E+02 -0.37370685970E+02  0.90580334387E+02  0.41800000000E+01 0.  1.
         -5    1    3    3    0  502  0.18068436731E+02 -0.31876744657E+02  0.50660881196E+02  0.62662528990E+02  0.41800000000E+01 0.  1.
        -11    1    4    4    0    0 -0.10085955212E+03 -0.24660250403E+02  0.33865248483E+02  0.10921369996E+03  0.00000000000E+00 0. -1.
         11    1    4    4    0    0  0.14524133483E+02  0.10381003149E+02  0.26280700184E+02  0.31770912514E+02  0.00000000000E+00 0.  1.
</event>
<event>
 8    1  0.3528896E-009  0.5138215E+02  0.7561462E-02  0.1438026E+00
         -1   -1    0    0    0  501 -0.00000000000E+00  0.00000000000E+00  0.21797637030E+02  0.21797637030E+02  0.00000000000E+00 0.  1.
          1   -1    0    0  501    0  0.00000000000E+00 -0.00000000000E+00 -0.57018329208E+03  0.57018329208E+03  0.00000000000E+00 0. -1.
         25    2    1    2    0    0  0.24603730656E+02 -0.18594612087E+02 -0.29843201605E+03  0.32505245001E+03  0.12508526648E+03 0.  0.
         23    2    1    2    0    0 -0.24603730656E+02  0.18594612087E+02 -0.24995363899E+03  0.26692847910E+03  0.88447092360E+02 0.  0.
          5    1    3    3  502    0  0.23226315846E+02 -0.12448193677E+02 -0.31004760122E+03  0.31119351969E+03  0.41800000000E+01 0.  1.
         -5    1    3    3    0  502  0.13774148102E+01 -0.61464184108E+01  0.11615585167E+02  0.13858930320E+02  0.41800000000E+01 0.  1.
        -11    1    4    4    0    0  0.10833858556E+02  0.29515635985E+02 -0.28640776348E+02  0.42530451780E+02  0.00000000000E+00 0.  1.
         11    1    4    4    0    0 -0.35437589211E+02 -0.10921023898E+02 -0.22131286264E+03  0.22439802732E+03  0.00000000000E+00 0. -1.
</event>
<event>
 8    1  0.3528896E-009  0.1077906E+03  0.7561462E-02  0.1264717E+00
         -2   -1    0    0    0  501 -0.00000000000E+00  0.00000000000E+00  0.14383147303E+02  0.14383147303E+02  0.00000000000E+00 0.  1.
          2   -1    0    0  501    0  0.00000000000E+00 -0.00000000000E+00 -0.10222897128E+04  0.10222897128E+04  0.00000000000E+00 0. -1.
         25    2    1    2    0    0 -0.46236971614E+02 -0.22610335578E+02 -0.50999198003E+03  0.52762522171E+03  0.12508984798E+03 0.  0.
         23    2    1    2    0    0  0.46236971614E+02  0.22610335578E+02 -0.49791458545E+03  0.50904763838E+03  0.92528260097E+02 0.  0.
          5    1    3    3  502    0 -0.69634115610E+02  0.99885247889E+01 -0.15404165850E+03  0.16939594339E+03  0.41800000000E+01 0. -1.
         -5    1    3    3    0  502  0.23397143997E+02 -0.32598860367E+02 -0.35595032153E+03  0.35822927831E+03  0.41800000000E+01 0. -1.
        -11    1    4    4    0    0  0.63709339506E+02  0.43792122791E+02 -0.33246494628E+03  0.34133498277E+03  0.00000000000E+00 0. -1.
         11    1    4    4    0    0 -0.17472367893E+02 -0.21181787214E+02 -0.16544963917E+03  0.16771265561E+03  0.00000000000E+00 0.  1.
</event>
<event>
 8    1  0.3528896E-009  0.1620565E+03  0.7561462E-02  0.1186394E+00
         -2   -1    0    0    0  501 -0.00000000000E+00  0.00000000000E+00  0.17371504863E+03  0.17371504863E+03  0.00000000000E+00 0.  1.
          2   -1    0    0  501    0  0.00000000000E+00 -0.00000000000E+00 -0.18412826412E+03  0.18412826412E+03  0.00000000000E+00 0. -1.
         25    2    1    2    0    0  0.50279599039E+02 -0.13079981723E+03 -0.10899752885E+02  0.18815688836E+03  0.12509028643E+03 0.  0.
         23    2    1    2    0    0 -0.50279599039E+02  0.13079981723E+03  0.48653739535E+00  0.16968642439E+03  0.95690206597E+02 0.  0.
          5    1    3    3  502    0 -0.19216367288E+02 -0.77483742971E+02  0.37164625989E+02  0.88157138233E+02  0.41800000000E+01 0.  1.
         -5    1    3    3    0  502  0.69495966326E+02 -0.53316074257E+02 -0.48064378874E+02  0.99999750132E+02  0.41800000000E+01 0.  1.
        -11    1    4    4    0    0 -0.65553742042E+02  0.79961441117E+02  0.31647607431E+02  0.10813277125E+03  0.00000000000E+00 0.  1.
         11    1    4    4    0    0  0.15274143004E+02  0.50838376111E+02 -0.31161070035E+02  0.61553653148E+02  0.00000000000E+00 0. -1.
</event>
<event>
 8    1  0.3528896E-009  0.1076504E+03  0.7561462E-02  0.1264984E+00
         -4   -1    0    0    0  501 -0.00000000000E+00  0.00000000000E+00  0.79958311862E+02  0.79958311862E+02  0.00000000000E+00 0.  1.
          4   -1    0    0  501    0  0.00000000000E+00 -0.00000000000E+00 -0.17076047485E+03  0.17076047485E+03  0.00000000000E+00 0. -1.
         25    2    1    2    0    0  0.16758310569E+02 -0.30364345415E+02 -0.79751275975E+02  0.15235055805E+03  0.12509033565E+03 0.  0.
         23    2    1    2    0    0 -0.16758310569E+02  0.30364345415E+02 -0.11050887010E+02  0.98368228658E+02  0.91385731161E+02 0.  0.
          5    1    3    3  502    0  0.39079602444E+02 -0.68116426868E+02 -0.25949861722E+02  0.82812623796E+02  0.41800000000E+01 0.  1.
         -5    1    3    3    0  502 -0.22321291875E+02  0.37752081453E+02 -0.53801414252E+02  0.69537934256E+02  0.41800000000E+01 0.  1.
        -11    1    4    4    0    0  0.27633692881E+02 -0.13006102156E+02  0.11064618951E+02  0.32483926303E+02  0.00000000000E+00 0. -1.
         11    1    4    4    0    0 -0.44392003451E+02  0.43370447571E+02 -0.22115505960E+02  0.65884302355E+02  0.00000000000E+00 0.  1.
</event>
<event>
 8    1  0.3528896E-009  0.1127172E+03  0.7561462E-02  0.1255619E+00
         -2   -1    0    0    0  501 -0.00000000000E+00  0.00000000000E+00  0.64001407673E+02  0.64001407673E+02  0.00000000000E+00 0.  1.
          2   -1    0    0  501    0  0.00000000000E+00 -0.00000000000E+00 -0.39746104107E+03  0.39746104107E+03  0.00000000000E+00 0. -1.
         25    2    1    2    0    0 -0.29421425232E+02  0.21350139321E+02 -0.18499979042E+02  0.13157658733E+03  0.12509476566E+03 0.  0.
         23    2    1    2    0    0  0.29421425232E+02 -0.21350139321E+02 -0.31495965435E+03  0.32988586141E+03  0.91124359965E+02 0.  0.
          5    1    3    3  502    0 -0.40323880406E+02 -0.45816710871E+02 -0.16542077115E+02  0.63374277442E+02  0.41800000000E+01 0.  1.
         -5    1    3    3    0  502  0.10902455175E+02  0.67166850192E+02 -0.19579019275E+01  0.68202309884E+02  0.41800000000E+01 0.  1.
        -11    1    4    4    0    0  0.22752687033E+02  0.33682749105E+02 -0.16718833740E+03  0.17205857293E+03  0.00000000000E+00 0.  1.
         11    1    4    4    0    0  0.66687381987E+01 -0.55032888426E+02 -0.14777131695E+03  0.15782728849E+03  0.00000000000E+00 0. -1.
</event>
<event>
 8    1  0.3528896E-009  0.7748954E+02  0.7561462E-02  0.1336331E+00
          3   -1    0    0  501    0  0.00000000000E+00  0.00000000000E+00  0.63183884383E+02  0.63183884383E+02  0.00000000000E+00 0. -1.
         -3   -1    0    0    0  501 -0.00000000000E+00 -0.00000000000E+00 -0.34013947428E+03  0.34013947428E+03  0.00000000000E+00 0.  1.
         25    2    1    2    0    0  0.56627910579E+01  0.44277801168E+02 -0.26832709742E+03  0.29940115203E+03  0.12509607408E+03 0.  0.
         23    2    1    2    0    0 -0.56627910579E+01 -0.44277801168E+02 -0.86284924778E+01  0.10392220663E+03  0.93449362063E+02 0.  0.
          5    1    3    3  502    0 -0.92396613074E+01 -0.45726844046E+01  0.10862218632E+02  0.15548021654E+02  0.41800000000E+01 0.  1.
         -5    1    3    3    0  502  0.14902452365E+02  0.48850485573E+02 -0.27918931605E+03  0.28385313038E+03  0.41800000000E+01 0.  1.
        -11    1    4    4    0    0 -0.43466770208E+02 -0.21768933341E+02 -0.27719905463E+02  0.55961055476E+02  0.00000000000E+00 0.  1.
         11    1    4    4    0    0  0.37803979150E+02 -0.22508867827E+02  0.19091412985E+02  0.47961151156E+02  0.00000000000E+00 0. -1.
</event>
<event>
 8    1  0.3528896E-009  0.1265568E+03  0.7561462E-02  0.1232656E+00
         -1   -1    0    0    0  501 -0.00000000000E+00  0.00000000000E+00  0.18174781555E+02  0.18174781555E+02  0.00000000000E+00 0.  1.
          1   -1    0    0  501    0  0.00000000000E+00 -0.00000000000E+00 -0.88961323090E+03  0.88961323090E+03  0.00000000000E+00 0. -1.
         25    2    1    2    0    0 -0.16114129486E+02 -0.64284254051E+02 -0.46255537082E+03  0.48373337867E+03  0.12509348538E+03 0.  0.
         23    2    1    2    0    0  0.16114129486E+02  0.64284254051E+02 -0.40888307853E+03  0.42405463378E+03  0.90801046450E+02 0.  0.
          5    1    3    3  502    0  0.52985874928E+02 -0.12931759853E+02 -0.15716088390E+03  0.16640838075E+03  0.41800000000E+01 0. -1.
         -5    1    3    3    0  502 -0.69100004414E+02 -0.51352494198E+02 -0.30539448691E+03  0.31732499792E+03  0.41800000000E+01 0. -1.
        -11    1    4    4    0    0 -0.19092950618E+02 -0.15770676137E+02 -0.10100314382E+03  0.10399466357E+03  0.00000000000E+00 0.  1.
         11    1    4    4    0    0  0.35207080104E+02  0.80054930188E+02 -0.30787993471E+03  0.32005997021E+03  0.00000000000E+00 0. -1.
</event>
<event>
 7    1  0.3528896E-009  0.8488341E+02  0.7561462E-02  0.1315738E+00
         -1   -1    0    0    0  501 -0.00000000000E+00  0.00000000000E+00  0.23410511967E+03  0.23410511967E+03  0.00000000000E+00 0.  1.
          1   -1    0    0  501    0  0.00000000000E+00 -0.00000000000E+00 -0.13815435240E+03  0.13815435240E+03  0.00000000000E+00 0. -1.
         23    2    1    2    0    0 -0.30466221492E+02  0.12484897860E+02  0.18959570342E+03  0.21262001562E+03  0.90424979733E+02 0.  0.
          5    1    1    2  502    0 -0.32556459220E+02 -0.22705012578E+02  0.68600101380E+01  0.40496577290E+02  0.41800000000E+01 0. -1.
         -5    1    1    2    0  502  0.63022680712E+02  0.10220114718E+02 -0.10050494628E+03  0.11914287916E+03  0.41800000000E+01 0. -1.
        -11    1    3    3    0    0 -0.43988995152E+02  0.22150243372E+02  0.18970894403E+03  0.19599782759E+03  0.00000000000E+00 0.  1.
         11    1    3    3    0    0  0.13522773660E+02 -0.96653455121E+01 -0.11324061066E+00  0.16622188026E+02  0.00000000000E+00 0. -1.
</event>
<event>
 8    1  0.3528896E-009  0.1406550E+03  0.7561462E-02  0.1212450E+00
         -1   -1    0    0    0  501 -0.00000000000E+00  0.00000000000E+00  0.18226587082E+03  0.18226587082E+03  0.00000000000E+00 0.  1.
          1   -1    0    0  501    0  0.00000000000E+00 -0.00000000000E+00 -0.13688921828E+03  0.13688921828E+03  0.00000000000E+00 0. -1.
         25    2    1    2    0    0  0.10624001833E+03 -0.42310999730E+02  0.26506024739E+02  0.17154379286E+03  0.12509013282E+03 0.  0.
         23    2    1    2    0    0 -0.10624001833E+03  0.42310999730E+02  0.18870627798E+02  0.14761129624E+03  0.91410240087E+02 0.  0.
          5    1    3    3  502    0  0.30392077690E+02 -0.70888623650E+02  0.43462986013E+02  0.88630575438E+02  0.41800000000E+01 0.  1.
         -5    1    3    3    0  502  0.75847940637E+02  0.28577623919E+02 -0.16956961274E+02  0.82913217423E+02  0.41800000000E+01 0.  1.
        -11    1    4    4    0    0 -0.32842230482E+02 -0.81478597907E+01  0.43583541062E+02  0.55177212450E+02  0.00000000000E+00 0.  1.
         11    1    4    4    0    0 -0.73397787846E+02  0.50458859521E+02 -0.24712913264E+02  0.92434083794E+02  0.00000000000E+00 0. -1.
</event>
<event>
 8    1  0.3528896E-009  0.2048595E+03  0.7561462E-02  0.1145703E+00
          1   -1    0    0  501    0  0.00000000000E+00  0.00000000000E+00  0.10307114341E+03  0.10307114341E+03  0.00000000000E+00 0. -1.
         -1   -1    0    0    0  501 -0.00000000000E+00 -0.00000000000E+00 -0.49360236116E+03  0.49360236116E+03  0.00000000000E+00 0.  1.
         25    2    1    2    0    0  0.10512898426E+03 -0.14109413777E+03 -0.31984592656E+03  0.38588584837E+03  0.12508721834E+03 0.  0.
         23    2    1    2    0    0 -0.10512898426E+03  0.14109413777E+03 -0.70685291185E+02  0.21078765620E+03  0.92061754127E+02 0.  0.
          5    1    3    3  502    0  0.83077316599E+02 -0.16326522390E+03 -0.25785762292E+03  0.31633115554E+03  0.41800000000E+01 0.  1.
         -5    1    3    3    0  502  0.22051667658E+02  0.22171086130E+02 -0.61988303642E+02  0.69554692833E+02  0.41800000000E+01 0.  1.
        -11    1    4    4    0    0 -0.16204547178E+02  0.91887254350E+02 -0.53974426984E+02  0.10779189965E+03  0.00000000000E+00 0. -1.
         11    1    4    4    0    0 -0.88924437079E+02  0.49206883417E+02 -0.16710864201E+02  0.10299575655E+03  0.00000000000E+00 0.  1.
</event>
<event>
 8    1  0.3528896E-009  0.2288903E+03  0.7561462E-02  0.1127423E+00
          2   -1    0    0  501    0  0.00000000000E+00  0.00000000000E+00  0.19227658407E+03  0.19227658407E+03  0.00000000000E+00 0. -1.
         -2   -1    0    0    0  501 -0.00000000000E+00 -0.00000000000E+00 -0.39419788230E+03  0.39419788230E+03  0.00000000000E+00 0.  1.
         25    2    1    2    0    0 -0.17501163668E+03  0.12974953023E+03 -0.24062553760E+03  0.34786718063E+03  0.12508761908E+03 0.  0.
         23    2    1    2    0    0  0.17501163668E+03 -0.12974953023E+03  0.38704239376E+02  0.23860728574E+03  0.89282725619E+02 0.  0.
          5    1    3    3  502    0 -0.10256056083E+03  0.13126228123E+03 -0.21245376937E+03  0.27000468817E+03  0.41800000000E+01 0. -1.
         -5    1    3    3    0  502 -0.72451075849E+02 -0.15127510062E+01 -0.28171768232E+02  0.77862492464E+02  0.41800000000E+01 0. -1.
        -11    1    4    4    0    0  0.64777331312E+02 -0.58680099601E+02 -0.27578873469E+02  0.91651792143E+02  0.00000000000E+00 0.  1.
         11    1    4    4    0    0  0.11023430537E+03 -0.71069430627E+02  0.66283112845E+02  0.14695549360E+03  0.00000000000E+00 0. -1.
</event>
<event>
 8    1  0.3528896E-009  0.1208531E+03  0.7561462E-02  0.1241696E+00
         -2   -1    0    0    0  501 -0.00000000000E+00  0.00000000000E+00  0.24202976772E+02  0.24202976772E+02  0.00000000000E+00 0.  1.
          2   -1    0    0  501    0  0.00000000000E+00 -0.00000000000E+00 -0.10347269794E+04  0.10347269794E+04  0.00000000000E+00 0. -1.
         25    2    1    2    0    0 -0.46017306647E+02 -0.76278270606E+02 -0.30406722821E+03  0.34064414235E+03  0.12508231436E+03 0.  0.
         23    2    1    2    0    0  0.46017306647E+02  0.76278270606E+02 -0.70645677446E+03  0.71828581387E+03  0.94431822734E+02 0.  0.
          5    1    3    3  502    0 -0.41323142094E+02 -0.64393863487E+01 -0.24610538546E+03  0.24966858217E+03  0.41800000000E+01 0.  1.
         -5    1    3    3    0  502 -0.46941645528E+01 -0.69838884257E+02 -0.57961842754E+02  0.90975560183E+02  0.41800000000E+01 0.  1.
        -11    1    4    4    0    0 -0.28375472362E+02  0.32870950269E+02 -0.21558557306E+03  0.21991545220E+03  0.00000000000E+00 0. -1.
         11    1    4    4    0    0  0.74392779009E+02  0.43407320336E+02 -0.49087120140E+03  0.49837036167E+03  0.00000000000E+00 0.  1.
</event>
<event>
 8    1  0.3528896E-009  0.1404201E+03  0.7561462E-02  0.1212765E+00
         -2   -1    0    0    0  501 -0.00000000000E+00  0.00000000000E+00  0.17390463688E+02  0.17390463688E+02  0.00000000000E+00 0.  1.
          2   -1    0    0  501    0  0.00000000000E+00 -0.00000000000E+00 -0.12312342778E+04  0.12312342778E+04  0.00000000000E+00 0. -1.
         25    2    1    2    0    0  0.95303094449E+02  0.12147105107E+02 -0.53425396089E+03  0.55705006510E+03  0.12508896167E+03 0.  0.
         23    2    1    2    0    0 -0.95303094449E+02 -0.12147105107E+02 -0.67958985322E+03  0.69157467639E+03  0.84870091546E+02 0.  0.
          5    1    3    3  502    0  0.74030616126E+02 -0.48289026720E+02 -0.37590057842E+03  0.38617493378E+03  0.41800000000E+01 0. -1.
         -5    1    3    3    0  502  0.21272478323E+02  0.60436131826E+02 -0.15835338247E+03  0.17087513132E+03  0.41800000000E+01 0. -1.
        -11    1    4    4    0    0 -0.85157153645E+01  0.30343863574E+02 -0.15937856684E+03  0.16246475012E+03  0.00000000000E+00 0.  1.
         11    1    4    4    0    0 -0.86787379085E+02 -0.42490968681E+02 -0.52021128638E+03  0.52910992626E+03  0.00000000000E+00 0. -1.
</event>
<event>
 8    1  0.3528896E-009  0.1471326E+03  0.7561462E-02  0.1204041E+00
          2   -1    0    0  501    0  0.00000000000E+00  0.00000000000E+00  0.77904703311E+03  0.77904703311E+03  0.00000000000E+00 0. -1.
         -2   -1    0    0    0  501 -0.00000000000E+00 -0.00000000000E+00 -0.46350002794E+02  0.46350002794E+02  0.00000000000E+00 0.  1.
         25    2    1    2    0    0  0.10862331102E+03 -0.79693790520E+02  0.21523362212E+03  0.28306077515E+03  0.12509103242E+03 0.  0.
         23    2    1    2    0    0 -0.10862331102E+03  0.79693790520E+02  0.51746340820E+03  0.54233626076E+03  0.90609695741E+02 0.  0.
          5    1    3    3  502    0  0.54893342181E+02 -0.26204212459E+02  0.19524416946E+03  0.20454265539E+03  0.41800000000E+01 0.  1.
         -5    1    3    3    0  502  0.53729968837E+02 -0.53489578061E+02  0.19989452657E+02  0.78518119755E+02  0.41800000000E+01 0.  1.
        -11    1    4    4    0    0 -0.71252881528E+02  0.21508080883E+01  0.30234910441E+03  0.31063898667E+03  0.00000000000E+00 0.  1.
         11    1    4    4    0    0 -0.37370429490E+02  0.77542982431E+02  0.21511430379E+03  0.23169727409E+03  0.00000000000E+00 0. -1.
</event>
<event>
 8    1  0.3528896E-009  0.7188170E+02  0.7561462E-02  0.1353809E+00
          2   -1    0    0  501    0  0.00000000000E+00  0.00000000000E+00  0.28493847274E+03  0.28493847274E+03  0.00000000000E+00 0. -1.
         -2   -1    0    0    0  501 -0.00000000000E+00 -0.00000000000E+00 -0.53058025728E+02  0.53058025728E+02  0.00000000000E+00 0.  1.
         25    2    1    2    0    0  0.42349684574E+01  0.42520399993E+02  0.18386642825E+03  0.22645082578E+03  0.12508874324E+03 0.  0.
         23    2    1    2    0    0 -0.42349684574E+01 -0.42520399993E+02  0.48014018761E+02  0.11154567269E+03  0.91165627976E+02 0.  0.
          5    1    3    3  502    0 -0.21320849879E+02  0.24629675559E+02 -0.65167753508E+01  0.33483433496E+02  0.41800000000E+01 0.  1.
         -5    1    3    3    0  502  0.25555818336E+02  0.17890724434E+02  0.19038320360E+03  0.19296739228E+03  0.41800000000E+01 0.  1.
        -11    1    4    4    0    0  0.30986846670E+02 -0.13464288170E+02  0.55795499991E+02  0.65227368042E+02  0.00000000000E+00 0. -1.
         11    1    4    4    0    0 -0.35221815127E+02 -0.29056111823E+02 -0.77814812297E+01  0.46318304645E+02  0.00000000000E+00 0.  1.
</event>
<event>
 8    1  0.3528896E-009  0.2238749E+03  0.7561462E-02  0.1131027E+00
         -2   -1    0    0    0  501 -0.00000000000E+00  0.00000000000E+00  0.44614234681E+02  0.44614234681E+02  0.00000000000E+00 0.  1.
          2   -1    0    0  501    0  0.00000000000E+00 -0.00000000000E+00 -0.15845684313E+04  0.15845684313E+04  0.00000000000E+00 0. -1.
         25    2    1    2    0    0 -0.10436214408E+03 -0.18893531175E+03 -0.45197272046E+03  0.51625091960E+03  0.12509061838E+03 0.  0.
         23    2    1    2    0    0  0.10436214408E+03  0.18893531175E+03 -0.10879814762E+04  0.11129317464E+04  0.91243468244E+02 0.  0.
          5    1    3    3  502    0 -0.87486344185E+02 -0.17663288380E+03 -0.27707056806E+03  0.34005677194E+03  0.41800000000E+01 0.  1.
         -5    1    3    3    0  502 -0.16875799896E+02 -0.12302427948E+02 -0.17490215240E+03  0.17619414767E+03  0.41800000000E+01 0.  1.
        -11    1    4    4    0    0 -0.54934720401E+01  0.58520615582E+02 -0.18927183858E+03  0.19818846980E+03  0.00000000000E+00 0.  1.
         11    1    4    4    0    0  0.10985561612E+03  0.13041469616E+03 -0.89870963761E+03  0.91474327661E+03  0.00000000000E+00 0. -1.
</event>
<event>
 8    1  0.3528896E-009  0.1007021E+03  0.7561462E-02  0.1278826E+00
          2   -1    0    0  501    0  0.00000000000E+00  0.00000000000E+00  0.11109398189E+04  0.11109398189E+04  0.00000000000E+00 0. -1.
         -2   -1    0    0    0  501 -0.00000000000E+00 -0.00000000000E+00 -0.19396840027E+02  0.19396840027E+02  0.00000000000E+00 0.  1.
         25    2    1    2    0    0 -0.54450888231E+00  0.97859125186E+01  0.96293511259E+03  0.97107538468E+03  0.12508921259E+03 0.  0.
         23    2    1    2    0    0  0.54450888231E+00 -0.97859125186E+01  0.12860786632E+03  0.15926127428E+03  0.93424352458E+02 0.  0.
          5    1    3    3  502    0  0.32323831619E+02  0.47287524705E+02  0.75589110402E+03  0.75806976831E+03  0.41800000000E+01 0. -1.
         -5    1    3    3    0  502 -0.32868340501E+02 -0.37501612186E+02  0.20704400857E+03  0.21300561637E+03  0.41800000000E+01 0. -1.
        -11    1    4    4    0    0 -0.44488093117E+02 -0.18291790374E+02  0.64929133864E+02  0.80805769897E+02  0.00000000000E+00 0. -1.
         11    1    4    4    0    0  0.45032601999E+02  0.85058778553E+01  0.63678732460E+02  0.78455504387E+02  0.00000000000E+00 0.  1.
</event>
<event>
 8    1  0.3528896E-009  0.1123767E+03  0.7561462E-02  0.1256231E+00
          1   -1    0    0  501    0  0.00000000000E+00  0.00000000000E+00  0.27744134900E+03  0.27744134900E+03  0.00000000000E+00 0. -1.
         -1   -1    0    0    0  501 -0.00000000000E+00 -0.00000000000E+00 -0.59382501336E+02  0.59382501336E+02  0.00000000000E+00 0.  1.
         25    2    1    2    0    0 -0.48198738890E+02 -0.46489260625E+02  0.10167222253E+03  0.17455343735E+03  0.12508913570E+03 0.  0.
         23    2    1    2    0    0  0.48198738890E+02  0.46489260625E+02  0.11638662513E+03  0.16227041299E+03  0.91112406612E+02 0.  0.
          5    1    3    3  502    0  0.95082851760E+01 -0.67772028759E+02  0.87737268761E+02  0.11134970183E+03  0.41800000000E+01 0.  1.
         -5    1    3    3    0  502 -0.57707024066E+02  0.21282768135E+02  0.13934953772E+02  0.63203735512E+02  0.41800000000E+01 0.  1.
        -11    1    4    4    0    0 -0.16993876429E+02  0.74616552097E+01  0.71827548570E+02  0.74186689293E+02  0.00000000000E+00 0. -1.
         11    1    4    4    0    0  0.65192615319E+02  0.39027605415E+02  0.44559076561E+02  0.88083723698E+02  0.00000000000E+00 0.  1.
</event>
<event>
 8    1  0.3528896E-009  0.1010140E+03  0.7561462E-02  0.1278178E+00
         -2   -1    0    0    0  501 -0.00000000000E+00  0.00000000000E+00  0.69522587982E+02  0.69522587982E+02  0.00000000000E+00 0.  1.
          2   -1    0    0  501    0  0.00000000000E+00 -0.00000000000E+00 -0.19921297985E+03  0.19921297985E+03  0.00000000000E+00 0. -1.
         25    2    1    2    0    0  0.10046573538E+02  0.45016993605E+02 -0.83226926927E+02  0.15716716754E+03  0.12508930343E+03 0.  0.
         23    2    1    2    0    0 -0.10046573538E+02 -0.45016993605E+02 -0.46463464937E+02  0.11156840029E+03  0.90339310468E+02 0.  0.
          5    1    3    3  502    0 -0.39981255521E+02  0.20217849952E+02 -0.90141683336E+02  0.10074848745E+03  0.41800000000E+01 0.  1.
         -5    1    3    3    0  502  0.50027829059E+02  0.24799143653E+02  0.69147564091E+01  0.56418680084E+02  0.41800000000E+01 0.  1.
        -11    1    4    4    0    0  0.47160208616E+01 -0.70998479632E+02 -0.37142873346E+02  0.80265920559E+02  0.00000000000E+00 0. -1.
         11    1    4    4    0    0 -0.14762594400E+02  0.25981486027E+02 -0.93205915912E+01  0.31302479729E+02  0.00000000000E+00 0.  1.
</event>
<event>
 8    1  0.3528896E-009  0.1325571E+03  0.7561462E-02  0.1223710E+00
          1   -1    0    0  501    0  0.00000000000E+00  0.00000000000E+00  0.17906964248E+03  0.17906964248E+03  0.00000000000E+00 0. -1.
         -1   -1    0    0    0  501 -0.00000000000E+00 -0.00000000000E+00 -0.11915865911E+03  0.11915865911E+03  0.00000000000E+00 0.  1.
         25    2    1    2    0    0  0.29292827908E+02  0.85372307432E+02 -0.65782982444E+01  0.15439113472E+03  0.12508736079E+03 0.  0.
         23    2    1    2    0    0 -0.29292827908E+02 -0.85372307432E+02  0.66489281621E+02  0.14383716687E+03  0.90121059462E+02 0.  0.
          5    1    3    3  502    0 -0.31083284026E+02  0.70978909669E+02 -0.36038312519E+02  0.85559386000E+02  0.41800000000E+01 0.  1.
         -5    1    3    3    0  502  0.60376111933E+02  0.14393397764E+02  0.29460014275E+02  0.68831748724E+02  0.41800000000E+01 0.  1.
        -11    1    4    4    0    0 -0.41632371732E+02 -0.98713342446E+02  0.65643195213E+02  0.12564476683E+03  0.00000000000E+00 0.  1.
         11    1    4    4    0    0  0.12339543824E+02  0.13341035014E+02  0.84608640839E+00  0.18192400041E+02  0.00000000000E+00 0. -1.
</event>
<event>
 8    1  0.3528896E-009  0.1092693E+03  0.7561462E-02  0.1261929E+00
         -2   -1    0    0    0  501 -0.00000000000E+00  0.00000000000E+00  0.23933692949E+02  0.23933692949E+02  0.00000000000E+00 0.  1.
          2   -1    0    0  501    0  0.00000000000E+00 -0.00000000000E+00 -0.52023321448E+03  0.52023321448E+03  0.00000000000E+00 0. -1.
         25    2    1    2    0    0  0.19122513610E+02  0.16669797914E+02 -0.25746839078E+03  0.28736145047E+03  0.12507229219E+03 0.  0.
         23    2    1    2    0    0 -0.19122513610E+02 -0.16669797914E+02 -0.23883113075E+03  0.25680545696E+03  0.90913040982E+02 0.  0.
          5    1    3    3  502    0 -0.46560688880E+02  0.34057242520E+02 -0.14189138594E+03  0.15322673174E+03  0.41800000000E+01 0.  1.
         -5    1    3    3    0  502  0.65683202490E+02 -0.17387444607E+02 -0.11557700485E+03  0.13413471873E+03  0.41800000000E+01 0.  1.
        -11    1    4    4    0    0  0.93543930218E+01  0.33585340761E+02 -0.11492653736E+03  0.12009824633E+03  0.00000000000E+00 0.  1.
         11    1    4    4    0    0 -0.28476906632E+02 -0.50255138675E+02 -0.12390459339E+03  0.13670721063E+03  0.00000000000E+00 0. -1.
</event>
<event>
 8    1  0.3528896E-009  0.2788106E+03  0.7561462E-02  0.1096340E+00
         -1   -1    0    0    0  501 -0.00000000000E+00  0.00000000000E+00  0.11868740913E+03  0.11868740913E+03  0.00000000000E+00 0.  1.
          1   -1    0    0  501    0  0.00000000000E+00 -0.00000000000E+00 -0.69703872390E+03  0.69703872390E+03  0.00000000000E+00 0. -1.
         25    2    1    2    0    0 -0.12878571594E+02 -0.26126870626E+03 -0.36785184349E+03  0.46839089682E+03  0.12509140255E+03 0.  0.
         23    2    1    2    0    0  0.12878571594E+02  0.26126870626E+03 -0.21049947128E+03  0.34733523620E+03  0.88907504840E+02 0.  0.
          5    1    3    3  502    0  0.55569315990E+02 -0.12101950408E+03 -0.15434390046E+03  0.20389502509E+03  0.41800000000E+01 0.  1.
         -5    1    3    3    0  502 -0.68447887585E+02 -0.14024920218E+03 -0.21350794303E+03  0.26449587173E+03  0.41800000000E+01 0.  1.
        -11    1    4    4    0    0  0.36616655284E+02  0.14061399805E+03 -0.72130605540E+02  0.16222176225E+03  0.00000000000E+00 0.  1.
         11    1    4    4    0    0 -0.23738083690E+02  0.12065470821E+03 -0.13836886574E+03  0.18511347395E+03  0.00000000000E+00 0. -1.
</event>
<event>
 8    1  0.3528896E-009  0.1040310E+03  0.7561462E-02  0.1272041E+00
          2   -1    0    0  501    0  0.00000000000E+00  0.00000000000E+00  0.21636084667E+04  0.21636084667E+04  0.00000000000E+00 0. -1.
         -2   -1    0    0    0  501 -0.00000000000E+00 -0.00000000000E+00 -0.10030910629E+02  0.10030910629E+02  0.00000000000E+00 0.  1.
         25    2    1    2    0    0  0.16334056634E+02 -0.41875592326E+02  0.18399231161E+04  0.18447181265E+04  0.12509007301E+03 0.  0.
         23    2    1    2    0    0 -0.16334056634E+02  0.41875592326E+02  0.31365443998E+03  0.32892125085E+03  0.88259361585E+02 0.  0.
          5    1    3    3  502    0  0.70245734426E+02 -0.21714047468E+02  0.88876059956E+03  0.89180650300E+03  0.41800000000E+01 0. -1.
         -5    1    3    3    0  502 -0.53911677792E+02 -0.20161544858E+02  0.95116251654E+03  0.95291162348E+03  0.41800000000E+01 0. -1.
        -11    1    4    4    0    0  0.11145882880E+02 -0.11908298211E+02  0.95999299136E+01  0.18926091139E+02  0.00000000000E+00 0. -1.
         11    1    4    4    0    0 -0.27479939514E+02  0.53783890537E+02  0.30405451006E+03  0.30999515972E+03  0.00000000000E+00 0.  1.
</event>
<event>
 8    1  0.3528896E-009  0.1336010E+03  0.7561462E-02  0.1222208E+00
          2   -1    0    0  501    0  0.00000000000E+00  0.00000000000E+00  0.12475161000E+03  0.12475161000E+03  0.00000000000E+00 0. -1.
         -2   -1    0    0    0  501 -0.00000000000E+00 -0.00000000000E+00 -0.16695459009E+03  0.16695459009E+03  0.00000000000E+00 0.  1.
         25    2    1    2    0    0 -0.21386502381E+02  0.80034625542E+02 -0.70268605921E+02  0.16567684619E+03  0.12509283199E+03 0.  0.
         23    2    1    2    0    0  0.21386502381E+02 -0.80034625542E+02  0.28065625831E+02  0.12602935390E+03  0.90734750351E+02 0.  0.
          5    1    3    3  502    0  0.49193997812E+02  0.34784715817E+02 -0.74962979833E+01  0.60857972023E+02  0.41800000000E+01 0.  1.
         -5    1    3    3    0  502 -0.70580500193E+02  0.45249909724E+02 -0.62772307938E+02  0.10481887417E+03  0.41800000000E+01 0.  1.
        -11    1    4    4    0    0  0.37990969860E+02  0.30711066971E+01  0.89905797599E+01  0.39160899015E+02  0.00000000000E+00 0.  1.
         11    1    4    4    0    0 -0.16604467480E+02 -0.83105732239E+02  0.19075046071E+02  0.86868454883E+02  0.00000000000E+00 0. -1.
</event>
<event>
 8    1  0.3528896E-009  0.9180232E+02  0.7561462E-02  0.1298545E+00
          2   -1    0    0  501    0  0.00000000000E+00  0.00000000000E+00  0.22132627672E+03  0.22132627672E+03  0.00000000000E+00 0. -1.
         -2   -1    0    0    0  501 -0.00000000000E+00 -0.00000000000E+00 -0.69223948729E+02  0.69223948729E+02  0.00000000000E+00 0.  1.
         25    2    1    2    0    0 -0.43336050915E+02  0.38872894103E+02  0.10802877730E+03  0.17523431416E+03  0.12509089867E+03 0.  0.
         23    2    1    2    0    0  0.43336050915E+02 -0.38872894103E+02  0.44073550691E+02  0.11531591129E+03  0.89253382689E+02 0.  0.
          5    1    3    3  502    0 -0.90002610706E+01  0.66990267517E+02  0.11157376894E+03  0.13051773426E+03  0.41800000000E+01 0. -1.
         -5    1    3    3    0  502 -0.34335789844E+02 -0.28117373414E+02 -0.35449916404E+01  0.44716579897E+02  0.41800000000E+01 0. -1.
        -11    1    4    4    0    0 -0.40106665631E+01 -0.19901129312E+02  0.58816633350E+02  0.62221674301E+02  0.00000000000E+00 0. -1.
         11    1    4    4    0    0  0.47346717478E+02 -0.18971764791E+02 -0.14743082659E+02  0.53094236990E+02  0.00000000000E+00 0.  1.
</event>
<event>
 8    1  0.3528896E-009  0.2010911E+03  0.7561462E-02  0.1148822E+00
          2   -1    0    0  501    0  0.00000000000E+00  0.00000000000E+00  0.95213629892E+02  0.95213629892E+02  0.00000000000E+00 0. -1.
         -2   -1    0    0    0  501 -0.00000000000E+00 -0.00000000000E+00 -0.44835926801E+03  0.44835926801E+03  0.00000000000E+00 0.  1.
         25    2    1    2    0    0  0.71157737638E+02 -0.15651639166E+03 -0.23017342421E+03  0.31334508593E+03  0.12507810831E+03 0.  0.
         23    2    1    2    0    0 -0.71157737638E+02  0.15651639166E+03 -0.12297221391E+03  0.23022781197E+03  0.91224314345E+02 0.  0.
          5    1    3    3  502    0  0.10431430385E+03 -0.11333168977E+03 -0.14146817791E+03  0.20917997909E+03  0.41800000000E+01 0. -1.
         -5    1    3    3    0  502 -0.33156566210E+02 -0.43184701897E+02 -0.88705246296E+02  0.10416510683E+03  0.41800000000E+01 0. -1.
        -11    1    4    4    0    0  0.18977862360E+02  0.52649737087E+02 -0.47196751757E+02  0.73209886296E+02  0.00000000000E+00 0.  1.
         11    1    4    4    0    0 -0.90135599998E+02  0.10386665458E+03 -0.75775462153E+02  0.15701792568E+03  0.00000000000E+00 0. -1.
</event>
<event>
 8    1  0.3528896E-009  0.7726536E+02  0.7561462E-02  0.1336996E+00
         -2   -1    0    0    0  501 -0.00000000000E+00  0.00000000000E+00  0.41760093308E+03  0.41760093308E+03  0.00000000000E+00 0.  1.
          2   -1    0    0  501    0  0.00000000000E+00 -0.00000000000E+00 -0.38248304106E+02  0.38248304106E+02  0.00000000000E+00 0. -1.
         25    2    1    2    0    0  0.28124064360E+02 -0.12905880265E+02  0.11178570195E+03  0.17059053695E+03  0.12509022102E+03 0.  0.
         23    2    1    2    0    0 -0.28124064360E+02  0.12905880265E+02  0.26756692703E+03  0.28525870023E+03  0.93930510906E+02 0.  0.
          5    1    3    3  502    0 -0.28780169780E+02 -0.17754403381E+02 -0.10422410592E+02  0.35631672071E+02  0.41800000000E+01 0. -1.
         -5    1    3    3    0  502  0.56904234140E+02  0.48485231161E+01  0.12220811254E+03  0.13495886488E+03  0.41800000000E+01 0. -1.
        -11    1    4    4    0    0  0.16182528082E+02  0.94812627953E+01  0.56348309282E+01  0.19583663572E+02  0.00000000000E+00 0. -1.
         11    1    4    4    0    0 -0.44306592442E+02  0.34246174699E+01  0.26193209610E+03  0.26567503666E+03  0.00000000000E+00 0.  1.
</event>
<event>
 8    1  0.3528896E-009  0.1820959E+03  0.7561462E-02  0.1165790E+00
          2   -1    0    0  501    0  0.00000000000E+00  0.00000000000E+00  0.62142579223E+03  0.62142579223E+03  0.00000000000E+00 0. -1.
         -2   -1    0    0    0  501 -0.00000000000E+00 -0.00000000000E+00 -0.67878738900E+02  0.67878738900E+02  0.00000000000E+00 0.  1.
         25    2    1    2    0    0 -0.14424966432E+03  0.47463811202E+02  0.14488949082E+03  0.24434245758E+03  0.12509793362E+03 0.  0.
         23    2    1    2    0    0  0.14424966432E+03 -0.47463811202E+02  0.40865756250E+03  0.44496207355E+03  0.89047540532E+02 0.  0.
          5    1    3    3  502    0 -0.40644642535E+02 -0.37934272076E+02  0.73402175507E+02  0.92175635251E+02  0.41800000000E+01 0. -1.
         -5    1    3    3    0  502 -0.10360502178E+03  0.85398083278E+02  0.71487315315E+02  0.15216682233E+03  0.41800000000E+01 0. -1.
        -11    1    4    4    0    0  0.99344201968E+02 -0.72230060557E+02  0.25643072112E+03  0.28432932815E+03  0.00000000000E+00 0.  1.
         11    1    4    4    0    0  0.44905462350E+02  0.24766249355E+02  0.15222684139E+03  0.16063274540E+03  0.00000000000E+00 0. -1.
</event>
<event>
 8    1  0.3528896E-009  0.1063198E+03  0.7561462E-02  0.1267541E+00
          1   -1    0    0  501    0  0.00000000000E+00  0.00000000000E+00  0.38515165143E+03  0.38515165143E+03  0.00000000000E+00 0. -1.
         -1   -1    0    0    0  501 -0.00000000000E+00 -0.00000000000E+00 -0.33676959320E+02  0.33676959320E+02  0.00000000000E+00 0.  1.
         25    2    1    2    0    0  0.33507914964E+02  0.15581296094E+02  0.19820214840E+03  0.23727892678E+03  0.12510651586E+03 0.  0.
         23    2    1    2    0    0 -0.33507914964E+02 -0.15581296094E+02  0.15327254370E+03  0.18154968397E+03  0.90012543243E+02 0.  0.
          5    1    3    3  502    0 -0.47002237851E+02  0.15815777238E+02  0.79267911706E+02  0.93596065082E+02  0.41800000000E+01 0. -1.
         -5    1    3    3    0  502  0.80510152815E+02 -0.23448114427E+00  0.11893423670E+03  0.14368286170E+03  0.41800000000E+01 0. -1.
        -11    1    4    4    0    0 -0.34631863596E+02 -0.42774485276E+02  0.14163001634E+03  0.15194763603E+03  0.00000000000E+00 0. -1.
         11    1    4    4    0    0  0.11239486322E+01  0.27193189182E+02  0.11642527361E+02  0.29602047932E+02  0.00000000000E+00 0.  1.
</event>
<event>
 8    1  0.3528896E-009  0.1051459E+03  0.7561462E-02  0.1269832E+00
          3   -1    0    0  501    0  0.00000000000E+00  0.00000000000E+00  0.39203059384E+02  0.39203059384E+02  0.00000000000E+00 0. -1.
         -3   -1    0    0    0  501 -0.00000000000E+00 -0.00000000000E+00 -0.53236927473E+03  0.53236927473E+03  0.00000000000E+00 0.  1.
         25    2    1    2    0    0 -0.90125396503E+02 -0.35688520538E+01 -0.24712314807E+03  0.29129504311E+03  0.12509047937E+03 0.  0.
         23    2    1    2    0    0  0.90125396503E+02  0.35688520538E+01 -0.24604306727E+03  0.28027729100E+03  0.99412499708E+02 0.  0.
          5    1    3    3  502    0 -0.22231792206E+02  0.20002147088E+02  0.36288898236E+01  0.30413479153E+02  0.41800000000E+01 0.  1.
         -5    1    3    3    0  502 -0.67893604297E+02 -0.23570999142E+02 -0.25075203789E+03  0.26088156396E+03  0.41800000000E+01 0.  1.
        -11    1    4    4    0    0  0.90264591056E+02 -0.13297113716E+02 -0.24707128366E+03  0.26337943891E+03  0.00000000000E+00 0.  1.
         11    1    4    4    0    0 -0.13919455268E+00  0.16865965770E+02  0.10282163830E+01  0.16897852094E+02  0.00000000000E+00 0. -1.
</event>
<event>
 8    1  0.3528896E-009  0.8978561E+02  0.7561462E-02  0.1303372E+00
         -1   -1    0    0    0  501 -0.00000000000E+00  0.00000000000E+00  0.73946256399E+02  0.73946256399E+02  0.00000000000E+00 0.  1.
          1   -1    0    0  501    0  0.00000000000E+00 -0.00000000000E+00 -0.18559907963E+03  0.18559907963E+03  0.00000000000E+00 0. -1.
         25    2    1    2    0    0  0.51009538827E+00 -0.46287106211E+02 -0.69332092168E+02  0.15032233858E+03  0.12508840903E+03 0.  0.
         23    2    1    2    0    0 -0.51009538827E+00  0.46287106211E+02 -0.42320731062E+02  0.10922299745E+03  0.89419586756E+02 0.  0.
          5    1    3    3  502    0  0.32481175958E+02 -0.36372496042E+02 -0.95711483820E+02  0.10749951532E+03  0.41800000000E+01 0.  1.
         -5    1    3    3    0  502 -0.31971080570E+02 -0.99146101682E+01  0.26379391651E+02  0.42822823255E+02  0.41800000000E+01 0.  1.
        -11    1    4    4    0    0  0.40968703150E+02  0.35062107302E+02 -0.86098246219E+01  0.54606914272E+02  0.00000000000E+00 0.  1.
         11    1    4    4    0    0 -0.41478798538E+02  0.11224998909E+02 -0.33710906440E+02  0.54616083178E+02  0.00000000000E+00 0. -1.
</event>
<event>
 8    1  0.3528896E-009  0.8458866E+02  0.7561462E-02  0.1316512E+00
         -1   -1    0    0    0  501 -0.00000000000E+00  0.00000000000E+00  0.11818039363E+03  0.11818039363E+03  0.00000000000E+00 0.  1.
          1   -1    0    0  501    0  0.00000000000E+00 -0.00000000000E+00 -0.26230248837E+03  0.26230248837E+03  0.00000000000E+00 0. -1.
         25    2    1    2    0    0 -0.50915381402E+01 -0.36918227834E+02 -0.21831561797E+03  0.25435673082E+03  0.12508700236E+03 0.  0.
         23    2    1    2    0    0  0.50915381402E+01  0.36918227834E+02  0.74193523228E+02  0.12612615117E+03  0.94943392680E+02 0.  0.
          5    1    3    3  502    0  0.68345296933E+01 -0.52270722466E+02 -0.22669315862E+03  0.23277929416E+03  0.41800000000E+01 0. -1.
         -5    1    3    3    0  502 -0.11926067834E+02  0.15352494631E+02  0.83775406576E+01  0.21577436660E+02  0.41800000000E+01 0. -1.
        -11    1    4    4    0    0 -0.18597452663E+02 -0.24398302240E+02  0.44371527388E+02  0.53944182638E+02  0.00000000000E+00 0.  1.
         11    1    4    4    0    0  0.23688990804E+02  0.61316530074E+02  0.29821995840E+02  0.72181968534E+02  0.00000000000E+00 0. -1.
</event>
<event>
 8    1  0.3528896E-009  0.1216020E+03  0.7561462E-02  0.1240477E+00
         -2   -1    0    0    0  501 -0.00000000000E+00  0.00000000000E+00  0.18079108845E+03  0.18079108845E+03  0.00000000000E+00 0.  1.
          2   -1    0    0  501    0  0.00000000000E+00 -0.00000000000E+00 -0.14896056657E+03  0.14896056657E+03  0.00000000000E+00 0. -1.
         25    2    1    2    0    0  0.93970769503E+02 -0.42016418882E+02 -0.50260939965E+02  0.16961435909E+03  0.12508790408E+03 0.  0.
         23    2    1    2    0    0 -0.93970769503E+02  0.42016418882E+02  0.82091461843E+02  0.16013729593E+03  0.91154047974E+02 0.  0.
          5    1    3    3  502    0  0.80828993841E+02 -0.64355686591E+02  0.99963847368E+01  0.10388638385E+03  0.41800000000E+01 0.  1.
         -5    1    3    3    0  502  0.13141775662E+02  0.22339267709E+02 -0.60257324702E+02  0.65727975243E+02  0.41800000000E+01 0.  1.
        -11    1    4    4    0    0 -0.57796986053E+02 -0.40196869478E+00 -0.35970210166E+01  0.57910204073E+02  0.00000000000E+00 0. -1.
         11    1    4    4    0    0 -0.36173783450E+02  0.42418387577E+02  0.85688482860E+02  0.10222709185E+03  0.00000000000E+00 0.  1.
</event>
<event>
 8    1  0.3528896E-009  0.1607325E+03  0.7561462E-02  0.1187872E+00
         -2   -1    0    0    0  501 -0.00000000000E+00  0.00000000000E+00  0.29561761411E+02  0.29561761411E+02  0.00000000000E+00 0.  1.
          2   -1    0    0  501    0  0.00000000000E+00 -0.00000000000E+00 -0.13232579030E+04  0.13232579030E+04  0.00000000000E+00 0. -1.
         25    2    1    2    0    0 -0.13118727740E+02  0.13399587927E+03 -0.10068747540E+04  0.10235093778E+04  0.12509068531E+03 0.  0.
         23    2    1    2    0    0  0.13118727740E+02 -0.13399587927E+03 -0.28682138759E+03  0.32931028660E+03  0.89731598676E+02 0.  0.
          5    1    3    3  502    0  0.51991110586E+02  0.41332938424E+02 -0.27659363352E+03  0.28448725434E+03  0.41800000000E+01 0.  1.
         -5    1    3    3    0  502 -0.65109838327E+02  0.92662940848E+02 -0.73028112050E+03  0.73902212350E+03  0.41800000000E+01 0.  1.
        -11    1    4    4    0    0  0.28277308943E+02 -0.64003631204E+02 -0.62451329321E+02  0.93788269748E+02  0.00000000000E+00 0.  1.
         11    1    4    4    0    0 -0.15158581202E+02 -0.69992248068E+02 -0.22437005827E+03  0.23552201685E+03  0.00000000000E+00 0. -1.
</event>
<event>
 8    1  0.3528896E-009  0.1952531E+03  0.7561462E-02  0.1153807E+00
          2   -1    0    0  501    0  0.00000000000E+00  0.00000000000E+00  0.12871861543E+04  0.12871861543E+04  0.00000000000E+00 0.  1.
         -2   -1    0    0    0  501 -0.00000000000E+00 -0.00000000000E+00 -0.40196861830E+02  0.40196861830E+02  0.00000000000E+00 0. -1.
         25    2    1    2    0    0  0.86668295003E+02  0.13976109392E+03  0.31575596303E+03  0.37734868891E+03  0.12508256515E+03 0.  0.
         23    2    1    2    0    0 -0.86668295003E+02 -0.13976109392E+03  0.93123332948E+03  0.95003432725E+03  0.91242272518E+02 0.  0.
          5    1    3    3  502    0  0.10162125719E+03  0.15443768947E+03  0.27612707662E+03  0.33232742090E+03  0.41800000000E+01 0. -1.
         -5    1    3    3    0  502 -0.14952962189E+02 -0.14676595550E+02  0.39628886407E+02  0.45021268008E+02  0.41800000000E+01 0. -1.
        -11    1    4    4    0    0  0.29764837695E+01 -0.71459221901E+02  0.27248513595E+03  0.28171515607E+03  0.00000000000E+00 0. -1.
         11    1    4    4    0    0 -0.89644778772E+02 -0.68301872020E+02  0.65874819353E+03  0.66831917118E+03  0.00000000000E+00 0.  1.
</event>
<event>
 8    1  0.3528896E-009  0.1171502E+03  0.7561462E-02  0.1247874E+00
          2   -1    0    0  501    0  0.00000000000E+00  0.00000000000E+00  0.20486567899E+03  0.20486567899E+03  0.00000000000E+00 0. -1.
         -2   -1    0    0    0  501 -0.00000000000E+00 -0.00000000000E+00 -0.13003639128E+03  0.13003639128E+03  0.00000000000E+00 0.  1.
         25    2    1    2    0    0 -0.27319959891E+02 -0.72328511532E+02  0.13413717332E+03  0.19904225799E+03  0.12508894999E+03 0.  0.
         23    2    1    2    0    0  0.27319959891E+02  0.72328511532E+02 -0.59307885612E+02  0.13585981227E+03  0.94671376383E+02 0.  0.
          5    1    3    3  502    0 -0.32347586636E+02  0.29943410490E+02  0.46381382083E+02  0.64122376725E+02  0.41800000000E+01 0.  1.
         -5    1    3    3    0  502  0.50276267449E+01 -0.10227192202E+03  0.87755791238E+02  0.13491988127E+03  0.41800000000E+01 0.  1.
        -11    1    4    4    0    0  0.70290565664E+01  0.65876950249E+02 -0.81549927327E+02  0.10506936213E+03  0.00000000000E+00 0.  1.
         11    1    4    4    0    0  0.20290903324E+02  0.64515612832E+01  0.22242041715E+02  0.30790450148E+02  0.00000000000E+00 0. -1.
</event>
<event>
 8    1  0.3528896E-009  0.1244298E+03  0.7561462E-02  0.1235963E+00
          3   -1    0    0  501    0  0.00000000000E+00  0.00000000000E+00  0.12064171594E+03  0.12064171594E+03  0.00000000000E+00 0. -1.
         -3   -1    0    0    0  501 -0.00000000000E+00 -0.00000000000E+00 -0.17280894391E+03  0.17280894391E+03  0.00000000000E+00 0.  1.
         25    2    1    2    0    0 -0.71451143194E+02 -0.59572855959E+02 -0.17102509342E+02  0.15682257448E+03  0.12508650211E+03 0.  0.
         23    2    1    2    0    0  0.71451143194E+02  0.59572855959E+02 -0.35064718628E+02  0.13662808537E+03  0.93720372326E+02 0.  0.
          5    1    3    3  502    0  0.21286152247E+02  0.22208631820E+02  0.40574719863E+01  0.31309089475E+02  0.41800000000E+01 0. -1.
         -5    1    3    3    0  502 -0.92737295441E+02 -0.81781487779E+02 -0.21159981329E+02  0.12551348501E+03  0.41800000000E+01 0. -1.
        -11    1    4    4    0    0  0.30795239068E+02  0.34885649820E+02  0.30492152818E+02  0.55633862855E+02  0.00000000000E+00 0. -1.
         11    1    4    4    0    0  0.40655904126E+02  0.24687206139E+02 -0.65556871447E+02  0.80994222517E+02  0.00000000000E+00 0.  1.
</event>
<event>
 8    1  0.3528896E-009  0.9809905E+02  0.7561462E-02  0.1284345E+00
          4   -1    0    0  501    0  0.00000000000E+00  0.00000000000E+00  0.24357690376E+02  0.24357690376E+02  0.00000000000E+00 0. -1.
         -4   -1    0    0    0  501 -0.00000000000E+00 -0.00000000000E+00 -0.68468468546E+03  0.68468468546E+03  0.00000000000E+00 0.  1.
         25    2    1    2    0    0 -0.51470352354E+02 -0.30800498534E+02 -0.47133119155E+03  0.49132261299E+03  0.12508776928E+03 0.  0.
         23    2    1    2    0    0  0.51470352354E+02  0.30800498534E+02 -0.18899580354E+03  0.21771976285E+03  0.89914478811E+02 0.  0.
          5    1    3    3  502    0 -0.65871147578E+02 -0.32520332895E+02 -0.12786248804E+03  0.14752243349E+03  0.41800000000E+01 0. -1.
         -5    1    3    3    0  502  0.14400795224E+02  0.17198343608E+01 -0.34346870351E+03  0.34380017950E+03  0.41800000000E+01 0. -1.
        -11    1    4    4    0    0  0.44989144717E+02 -0.24918886230E+02 -0.10150792700E+03  0.11379294036E+03  0.00000000000E+00 0. -1.
         11    1    4    4    0    0  0.64812076372E+01  0.55719384764E+02 -0.87487876541E+02  0.10392682249E+03  0.00000000000E+00 0.  1.
</event>
<event>
 8    1  0.3528896E-009  0.7452006E+02  0.7561462E-02  0.1345364E+00
         -2   -1    0    0    0  501 -0.00000000000E+00  0.00000000000E+00  0.95053269735E+02  0.95053269735E+02  0.00000000000E+00 0. -1.
          2   -1    0    0  501    0  0.00000000000E+00 -0.00000000000E+00 -0.19683793225E+03  0.19683793225E+03  0.00000000000E+00 0.  1.
         25    2    1    2    0    0  0.16447875029E+02  0.43454500643E+02  0.20129264339E+02  0.13497436243E+03  0.12511620603E+03 0.  0.
         23    2    1    2    0    0 -0.16447875029E+02 -0.43454500643E+02 -0.12191392686E+03  0.15691683956E+03  0.87184073981E+02 0.  0.
          5    1    3    3  502    0 -0.49793738236E+01 -0.25814137865E+02 -0.34871535795E+02  0.43870950367E+02  0.41800000000E+01 0.  1.
         -5    1    3    3    0  502  0.21427248853E+02  0.69268638508E+02  0.55000800135E+02  0.91103412063E+02  0.41800000000E+01 0.  1.
        -11    1    4    4    0    0 -0.20172737855E+01 -0.29983840826E+02 -0.13155765665E+03  0.13494634907E+03  0.00000000000E+00 0.  1.
         11    1    4    4    0    0 -0.14430601243E+02 -0.13470659817E+02  0.96437297891E+01  0.21970490491E+02  0.00000000000E+00 0. -1.
</event>
<event>
 8    1  0.3528896E-009  0.1713419E+03  0.7561462E-02  0.1176456E+00
          3   -1    0    0  501    0  0.00000000000E+00  0.00000000000E+00  0.53146984052E+03  0.53146984052E+03  0.00000000000E+00 0. -1.
         -3   -1    0    0    0  501 -0.00000000000E+00 -0.00000000000E+00 -0.58321651589E+02  0.58321651589E+02  0.00000000000E+00 0.  1.
         25    2    1    2    0    0 -0.88011180413E+02 -0.10580952915E+03  0.27042644321E+03  0.32820641746E+03  0.12508943577E+03 0.  0.
         23    2    1    2    0    0  0.88011180413E+02  0.10580952915E+03  0.20272174572E+03  0.26158507464E+03  0.91591597596E+02 0.  0.
          5    1    3    3  502    0 -0.11672570285E+03 -0.58959774140E+02  0.18735346559E+03  0.22851682245E+03  0.41800000000E+01 0. -1.
         -5    1    3    3    0  502  0.28714522441E+02 -0.46849755014E+02  0.83072977618E+02  0.99689595015E+02  0.41800000000E+01 0. -1.
        -11    1    4    4    0    0  0.90350978287E+02  0.54792500528E+02  0.17235691870E+03  0.20216929741E+03  0.00000000000E+00 0. -1.
         11    1    4    4    0    0 -0.23397978745E+01  0.51017028627E+02  0.30364827017E+02  0.59415777229E+02  0.00000000000E+00 0.  1.
</event>
<event>
 8    1  0.3528896E-009  0.1286140E+03  0.7561462E-02  0.1229527E+00
          1   -1    0    0  501    0  0.00000000000E+00  0.00000000000E+00  0.23423259326E+02  0.23423259326E+02  0.00000000000E+00 0. -1.
         -1   -1    0    0    0  501 -0.00000000000E+00 -0.00000000000E+00 -0.89614928964E+03  0.89614928964E+03  0.00000000000E+00 0.  1.
         25    2    1    2    0    0 -0.13872711537E+02  0.93707877320E+02 -0.54879307681E+03  0.57078469167E+03  0.12509078581E+03 0.  0.
         23    2    1    2    0    0  0.13872711537E+02 -0.93707877320E+02 -0.32393295351E+03  0.34878785730E+03  0.88015865809E+02 0.  0.
          5    1    3    3  502    0  0.57712655092E+01  0.12192635478E+03 -0.43733150595E+03  0.45406570228E+03  0.41800000000E+01 0.  1.
         -5    1    3    3    0  502 -0.19643977046E+02 -0.28218477461E+02 -0.11146157086E+03  0.11671898939E+03  0.41800000000E+01 0.  1.
        -11    1    4    4    0    0  0.14597554876E+02 -0.12418991935E+02 -0.52098506259E+01  0.19861080348E+02  0.00000000000E+00 0. -1.
         11    1    4    4    0    0 -0.72484333935E+00 -0.81288885385E+02 -0.31872310288E+03  0.32892677695E+03  0.00000000000E+00 0.  1.
</event>
<event>
 8    1  0.3528896E-009  0.1581839E+03  0.7561462E-02  0.1190763E+00
          2   -1    0    0  501    0  0.00000000000E+00  0.00000000000E+00  0.44137495662E+02  0.44137495662E+02  0.00000000000E+00 0. -1.
         -2   -1    0    0    0  501 -0.00000000000E+00 -0.00000000000E+00 -0.69168186994E+03  0.69168186994E+03  0.00000000000E+00 0.  1.
         25    2    1    2    0    0  0.91411757110E+02 -0.94382711096E+02 -0.41559908458E+03  0.45347035845E+03  0.12509421007E+03 0.  0.
         23    2    1    2    0    0 -0.91411757110E+02  0.94382711096E+02 -0.23194528970E+03  0.28234900716E+03  0.93049121098E+02 0.  0.
          5    1    3    3  502    0  0.44961668291E+00  0.19584599739E+02 -0.14205120792E+03  0.14345653269E+03  0.41800000000E+01 0.  1.
         -5    1    3    3    0  502  0.90962140427E+02 -0.11396731084E+03 -0.27354787667E+03  0.31001382575E+03  0.41800000000E+01 0.  1.
        -11    1    4    4    0    0 -0.60879973299E+02  0.10218586611E+03 -0.21702170304E+03  0.24748079112E+03  0.00000000000E+00 0.  1.
         11    1    4    4    0    0 -0.30531783811E+02 -0.78031550168E+01 -0.14923586657E+02  0.34868216037E+02  0.00000000000E+00 0. -1.
</event>
<event>
 8    1  0.3528896E-009  0.9892798E+02  0.7561462E-02  0.1282567E+00
         -1   -1    0    0    0  501 -0.00000000000E+00  0.00000000000E+00  0.11360751752E+03  0.11360751752E+03  0.00000000000E+00 0.  1.
          1   -1    0    0  501    0  0.00000000000E+00 -0.00000000000E+00 -0.15251074634E+03  0.15251074634E+03  0.00000000000E+00 0. -1.
         25    2    1    2    0    0 -0.36314600824E+02  0.57951503568E+02 -0.51684959924E+02  0.15164463246E+03  0.12509049713E+03 0.  0.
         23    2    1    2    0    0  0.36314600824E+02 -0.57951503568E+02  0.12781731101E+02  0.11447363140E+03  0.90904964871E+02 0.  0.
          5    1    3    3  502    0 -0.14211902752E+02 -0.27293170753E+02  0.20911814413E+02  0.37438906657E+02  0.41800000000E+01 0. -1.
         -5    1    3    3    0  502 -0.22102698071E+02  0.85244674322E+02 -0.72596774337E+02  0.11420572580E+03  0.41800000000E+01 0. -1.
        -11    1    4    4    0    0 -0.10280570498E+01 -0.34559415491E+02  0.47236501710E+02  0.58537997866E+02  0.00000000000E+00 0.  1.
         11    1    4    4    0    0  0.37342657873E+02 -0.23392088078E+02 -0.34454770609E+02  0.55935633539E+02  0.00000000000E+00 0. -1.
</event>
<event>
 8    1  0.3528896E-009  0.2166655E+03  0.7561462E-02  0.1136394E+00
          2   -1    0    0  501    0  0.00000000000E+00  0.00000000000E+00  0.25045942523E+03  0.25045942523E+03  0.00000000000E+00 0. -1.
         -2   -1    0    0    0  501 -0.00000000000E+00 -0.00000000000E+00 -0.26556282349E+03  0.26556282349E+03  0.00000000000E+00 0.  1.
         25    2    1    2    0    0 -0.17606354799E+03  0.89434298559E+02  0.11545955483E+03  0.26072373629E+03  0.12509632759E+03 0.  0.
         23    2    1    2    0    0  0.17606354799E+03 -0.89434298559E+02 -0.13056295309E+03  0.25529851242E+03  0.95570806400E+02 0.  0.
          5    1    3    3  502    0 -0.29064077082E+02  0.61226494482E+02  0.83475997993E+02  0.10760631415E+03  0.41800000000E+01 0. -1.
         -5    1    3    3    0  502 -0.14699947090E+03  0.28207804077E+02  0.31983556841E+02  0.15311742215E+03  0.41800000000E+01 0. -1.
        -11    1    4    4    0    0  0.15019885664E+03 -0.33249032496E+02 -0.70998791035E+02  0.16942851893E+03  0.00000000000E+00 0. -1.
         11    1    4    4    0    0  0.25864691348E+02 -0.56185266063E+02 -0.59564162056E+02  0.85869993493E+02  0.00000000000E+00 0.  1.
</event>
<event>
 8    1  0.3528896E-009  0.1696001E+03  0.7561462E-02  0.1178265E+00
         -1   -1    0    0    0  501 -0.00000000000E+00  0.00000000000E+00  0.72408227317E+02  0.72408227317E+02  0.00000000000E+00 0.  1.
          1   -1    0    0  501    0  0.00000000000E+00 -0.00000000000E+00 -0.11035769887E+04  0.11035769887E+04  0.00000000000E+00 0. -1.
         25    2    1    2    0    0  0.10642430263E+03  0.12630833295E+03 -0.94717044475E+03  0.96956649429E+03  0.12508960099E+03 0.  0.
         23    2    1    2    0    0 -0.10642430263E+03 -0.12630833295E+03 -0.83998316608E+02  0.20641872170E+03  0.90956276939E+02 0.  0.
          5    1    3    3  502    0  0.61135302734E+02  0.76365856549E+02 -0.81763514884E+03  0.82347676245E+03  0.41800000000E+01 0. -1.
         -5    1    3    3    0  502  0.45288999891E+02  0.49942476402E+02 -0.12953529591E+03  0.14608973184E+03  0.41800000000E+01 0. -1.
        -11    1    4    4    0    0 -0.20810185018E+02  0.40575823472E+00 -0.43497391117E+02  0.48220861401E+02  0.00000000000E+00 0. -1.
         11    1    4    4    0    0 -0.85614117607E+02 -0.12671409119E+03 -0.40500925490E+02  0.15819786030E+03  0.00000000000E+00 0.  1.
</event>
<event>
 8    1  0.3528896E-009  0.2301802E+03  0.7561462E-02  0.1126513E+00
         -1   -1    0    0    0  501 -0.00000000000E+00  0.00000000000E+00  0.84779648920E+02  0.84779648920E+02  0.00000000000E+00 0.  1.
          1   -1    0    0  501    0  0.00000000000E+00 -0.00000000000E+00 -0.70727774098E+03  0.70727774098E+03  0.00000000000E+00 0. -1.
         25    2    1    2    0    0 -0.18683157127E+03 -0.10548849708E+03 -0.28724382648E+03  0.37972415355E+03  0.12509019908E+03 0.  0.
         23    2    1    2    0    0  0.18683157127E+03  0.10548849708E+03 -0.33525426558E+03  0.41233323634E+03  0.10765415070E+03 0.  0.
          5    1    3    3  502    0 -0.16901925007E+03 -0.13051205008E+03 -0.26995615357E+03  0.34423059039E+03  0.41800000000E+01 0.  1.
         -5    1    3    3    0  502 -0.17812321196E+02  0.25023553004E+02 -0.17287672905E+02  0.35493563160E+02  0.41800000000E+01 0.  1.
        -11    1    4    4    0    0  0.45376734259E+02  0.37325051813E+02 -0.18836718074E+03  0.19731802321E+03  0.00000000000E+00 0. -1.
         11    1    4    4    0    0  0.14145483701E+03  0.68163445265E+02 -0.14688708484E+03  0.21501521313E+03  0.00000000000E+00 0.  1.
</event>
<event>
 8    1  0.3528896E-009  0.1294290E+03  0.7561462E-02  0.1228305E+00
          2   -1    0    0  501    0  0.00000000000E+00  0.00000000000E+00  0.27888490747E+03  0.27888490747E+03  0.00000000000E+00 0. -1.
         -2   -1    0    0    0  501 -0.00000000000E+00 -0.00000000000E+00 -0.12244483171E+03  0.12244483171E+03  0.00000000000E+00 0.  1.
         25    2    1    2    0    0 -0.93867545037E+02 -0.14127894891E+01  0.19272266463E+03  0.24820017407E+03  0.12509272146E+03 0.  0.
         23    2    1    2    0    0  0.93867545037E+02  0.14127894891E+01 -0.36282588877E+02  0.15312956511E+03  0.11540851558E+03 0.  0.
          5    1    3    3  502    0 -0.54484302054E+02  0.28979904935E+02  0.18816483935E+03  0.19807032395E+03  0.41800000000E+01 0. -1.
         -5    1    3    3    0  502 -0.39383242983E+02 -0.30392694424E+02  0.45578252755E+01  0.50129850124E+02  0.41800000000E+01 0. -1.
        -11    1    4    4    0    0  0.12046679418E+03  0.18031372504E+01 -0.38377801276E+02  0.12644506884E+03  0.00000000000E+00 0.  1.
         11    1    4    4    0    0 -0.26599249139E+02 -0.39034776130E+00  0.20952123996E+01  0.26684496269E+02  0.00000000000E+00 0. -1.
</event>
<event>
 8    1  0.3528896E-009  0.1431956E+03  0.7561462E-02  0.1209093E+00
         -2   -1    0    0    0  501 -0.00000000000E+00  0.00000000000E+00  0.18493009655E+02  0.18493009655E+02  0.00000000000E+00 0.  1.
          2   -1    0    0  501    0  0.00000000000E+00 -0.00000000000E+00 -0.11880256270E+04  0.11880256270E+04  0.00000000000E+00 0. -1.
         25    2    1    2    0    0 -0.10040603127E+03  0.30218864129E+02 -0.74948181713E+03  0.76704958289E+03  0.12509003772E+03 0.  0.
         23    2    1    2    0    0  0.10040603127E+03 -0.30218864129E+02 -0.42005080018E+03  0.43946905373E+03  0.75470680335E+02 0.  0.
          5    1    3    3  502    0  0.14322339023E+02  0.39500417554E+02 -0.12241549925E+03  0.12949300845E+03  0.41800000000E+01 0. -1.
         -5    1    3    3    0  502 -0.11472837029E+03 -0.92815534249E+01 -0.62706631789E+03  0.63755657444E+03  0.41800000000E+01 0. -1.
        -11    1    4    4    0    0  0.83979266320E+02  0.10924250834E+02 -0.26387373083E+03  0.27713029833E+03  0.00000000000E+00 0. -1.
         11    1    4    4    0    0  0.16426764950E+02 -0.41143114964E+02 -0.15617706934E+03  0.16233875540E+03  0.00000000000E+00 0.  1.
</event>
<event>
 8    1  0.3528896E-009  0.9139506E+02  0.7561462E-02  0.1299508E+00
          3   -1    0    0  501    0  0.00000000000E+00  0.00000000000E+00  0.16482878666E+03  0.16482878666E+03  0.00000000000E+00 0. -1.
         -3   -1    0    0    0  501 -0.00000000000E+00 -0.00000000000E+00 -0.77622580592E+02  0.77622580592E+02  0.00000000000E+00 0.  1.
         25    2    1    2    0    0 -0.18542585099E+02  0.11850212396E+02  0.24342934590E+02  0.12933047503E+03  0.12509811474E+03 0.  0.
         23    2    1    2    0    0  0.18542585099E+02 -0.11850212396E+02  0.62863271474E+02  0.11312089222E+03  0.91434623417E+02 0.  0.
          5    1    3    3  502    0  0.71193772878E+01 -0.36024877586E+02  0.55417792125E+02  0.66611421109E+02  0.41800000000E+01 0. -1.
         -5    1    3    3    0  502 -0.25661962386E+02  0.47875089982E+02 -0.31074857535E+02  0.62719053924E+02  0.41800000000E+01 0. -1.
        -11    1    4    4    0    0 -0.10973882317E+02  0.34610132603E+02  0.12178600430E+02  0.38296288075E+02  0.00000000000E+00 0.  1.
         11    1    4    4    0    0  0.29516467415E+02 -0.46460344999E+02  0.50684671043E+02  0.74824604141E+02  0.00000000000E+00 0. -1.
</event>
<event>
 8    1  0.3528896E-009  0.8420489E+02  0.7561462E-02  0.1317525E+00
          1   -1    0    0  501    0  0.00000000000E+00  0.00000000000E+00  0.81226859675E+03  0.81226859675E+03  0.00000000000E+00 0. -1.
         -1   -1    0    0    0  501 -0.00000000000E+00 -0.00000000000E+00 -0.18228453534E+02  0.18228453534E+02  0.00000000000E+00 0.  1.
         25    2    1    2    0    0 -0.52468718291E+02  0.13266133788E+02  0.41255926466E+03  0.43448968791E+03  0.12508870988E+03 0.  0.
         23    2    1    2    0    0  0.52468718291E+02 -0.13266133788E+02  0.38148087855E+03  0.39600736237E+03  0.91461541886E+02 0.  0.
          5    1    3    3  502    0  0.31101362994E+01  0.80073489858E+01  0.35157789815E+03  0.35170766477E+03  0.41800000000E+01 0.  1.
         -5    1    3    3    0  502 -0.55578854590E+02  0.52587848027E+01  0.60981366510E+02  0.82782023148E+02  0.41800000000E+01 0.  1.
        -11    1    4    4    0    0  0.43356401735E+02  0.33773958825E+02  0.15339875731E+03  0.16294672936E+03  0.00000000000E+00 0.  1.
         11    1    4    4    0    0  0.91123165557E+01 -0.47040092613E+02  0.22808212124E+03  0.23306063301E+03  0.00000000000E+00 0. -1.
</event>
<event>
 8    1  0.3528896E-009  0.1378404E+03  0.7561462E-02  0.1216265E+00
          1   -1    0    0  501    0  0.00000000000E+00  0.00000000000E+00  0.99716002313E+03  0.99716002313E+03  0.00000000000E+00 0. -1.
         -1   -1    0    0    0  501 -0.00000000000E+00 -0.00000000000E+00 -0.19821084384E+02  0.19821084384E+02  0.00000000000E+00 0.  1.
         25    2    1    2    0    0  0.24891505000E+02  0.86590726097E+02  0.56421565589E+03  0.58490071829E+03  0.12510796552E+03 0.  0.
         23    2    1    2    0    0 -0.24891505000E+02 -0.86590726097E+02  0.41312328286E+03  0.43208038922E+03  0.88910488957E+02 0.  0.
          5    1    3    3  502    0 -0.39043338336E+02  0.74261811624E+02  0.24256542662E+03  0.25669954718E+03  0.41800000000E+01 0. -1.
         -5    1    3    3    0  502  0.63934843336E+02  0.12328914472E+02  0.32165022927E+03  0.32820117110E+03  0.41800000000E+01 0. -1.
        -11    1    4    4    0    0 -0.44514865059E+02 -0.77507294059E+01  0.13769171513E+03  0.14491602891E+03  0.00000000000E+00 0. -1.
         11    1    4    4    0    0  0.19623360059E+02 -0.78839996691E+02  0.27543156772E+03  0.28716436032E+03  0.00000000000E+00 0.  1.
</event>
<event>
 8    1  0.3528896E-009  0.1967257E+03  0.7561462E-02  0.1152531E+00
          2   -1    0    0  501    0  0.00000000000E+00  0.00000000000E+00  0.17743971462E+04  0.17743971462E+04  0.00000000000E+00 0.  1.
         -2   -1    0    0    0  501 -0.00000000000E+00 -0.00000000000E+00 -0.26636113034E+02  0.26636113034E+02  0.00000000000E+00 0. -1.
         25    2    1    2    0    0 -0.16671655493E+03 -0.82457014048E+02  0.10173156858E+04  0.10417164058E+04  0.12509315213E+03 0.  0.
         23    2    1    2    0    0  0.16671655493E+03  0.82457014048E+02  0.73044534736E+03  0.75931685342E+03  0.91750256402E+02 0.  0.
          5    1    3    3  502    0 -0.76643926250E+02 -0.34037662987E+02  0.76258490944E+03  0.76719363295E+03  0.41800000000E+01 0.  1.
         -5    1    3    3    0  502 -0.90072628679E+02 -0.48419351060E+02  0.25473077634E+03  0.27452277284E+03  0.41800000000E+01 0.  1.
        -11    1    4    4    0    0  0.15268315734E+03  0.33641827617E+02  0.56706900392E+03  0.58822714516E+03  0.00000000000E+00 0.  1.
         11    1    4    4    0    0  0.14033397587E+02  0.48815186431E+02  0.16337634344E+03  0.17108970826E+03  0.00000000000E+00 0. -1.
</event>
<event>
 8    1  0.3528896E-009  0.7586157E+02  0.7561462E-02  0.1341224E+00
          1   -1    0    0  501    0  0.00000000000E+00  0.00000000000E+00  0.23438712638E+03  0.23438712638E+03  0.00000000000E+00 0. -1.
         -1   -1    0    0    0  501 -0.00000000000E+00 -0.00000000000E+00 -0.89877174796E+02  0.89877174796E+02  0.00000000000E+00 0.  1.
         25    2    1    2    0    0  0.40293082707E+02  0.10300351197E+02 -0.18208935813E+02  0.13307425933E+03  0.12509022106E+03 0.  0.
         23    2    1    2    0    0 -0.40293082707E+02 -0.10300351197E+02  0.16271888740E+03  0.19119004184E+03  0.91359542661E+02 0.  0.
          5    1    3    3  502    0  0.50917831580E+02  0.50709601688E+01  0.45219244547E+02  0.68414857211E+02  0.41800000000E+01 0.  1.
         -5    1    3    3    0  502 -0.10624748872E+02  0.52293910282E+01 -0.63428180360E+02  0.64659402123E+02  0.41800000000E+01 0.  1.
        -11    1    4    4    0    0 -0.60908042043E+02  0.64691827674E+01  0.62506450841E+02  0.87513977786E+02  0.00000000000E+00 0. -1.
         11    1    4    4    0    0  0.20614959336E+02 -0.16769533964E+02  0.10021243656E+03  0.10367606406E+03  0.00000000000E+00 0.  1.
</event>
<event>
 8    1  0.3528896E-009  0.1260134E+03  0.7561462E-02  0.1233494E+00
          2   -1    0    0  501    0  0.00000000000E+00  0.00000000000E+00  0.28183783613E+03  0.28183783613E+03  0.00000000000E+00 0. -1.
         -2   -1    0    0    0  501 -0.00000000000E+00 -0.00000000000E+00 -0.88488895463E+02  0.88488895463E+02  0.00000000000E+00 0.  1.
         25    2    1    2    0    0 -0.76425416959E+01 -0.85736364989E+02  0.17270669631E+02  0.15282428273E+03  0.12509137715E+03 0.  0.
         23    2    1    2    0    0  0.76425416959E+01  0.85736364989E+02  0.17607827104E+03  0.21750244886E+03  0.94311319597E+02 0.  0.
          5    1    3    3  502    0  0.34077794615E+02  0.34849153804E+01  0.38791595045E+02  0.51920140285E+02  0.41800000000E+01 0. -1.
         -5    1    3    3    0  502 -0.41720336311E+02 -0.89221280369E+02 -0.21520925414E+02  0.10090414245E+03  0.41800000000E+01 0. -1.
        -11    1    4    4    0    0  0.31732264875E+02  0.19923993345E+01  0.16836287404E+02  0.35977310387E+02  0.00000000000E+00 0.  1.
         11    1    4    4    0    0 -0.24089723179E+02  0.83743965654E+02  0.15924198363E+03  0.18152513847E+03  0.00000000000E+00 0. -1.
</event>
<event>
 8    1  0.3528896E-009  0.1441910E+03  0.7561462E-02  0.1207798E+00
         -1   -1    0    0    0  501 -0.00000000000E+00  0.00000000000E+00  0.50173411405E+02  0.50173411405E+02  0.00000000000E+00 0.  1.
          1   -1    0    0  501    0  0.00000000000E+00 -0.00000000000E+00 -0.53795877770E+03  0.53795877770E+03  0.00000000000E+00 0. -1.
         25    2    1    2    0    0  0.12508287750E+03 -0.17495316574E+02 -0.21004862693E+03  0.27517219481E+03  0.12508996272E+03 0.  0.
         23    2    1    2    0    0 -0.12508287750E+03  0.17495316574E+02 -0.27773673937E+03  0.31295999430E+03  0.69673878145E+02 0.  0.
          5    1    3    3  502    0  0.37056517046E+02  0.41541667140E+02 -0.23487355013E+02  0.60564212286E+02  0.41800000000E+01 0. -1.
         -5    1    3    3    0  502  0.88026360452E+02 -0.59036983714E+02 -0.18656127192E+03  0.21460798252E+03  0.41800000000E+01 0. -1.
        -11    1    4    4    0    0 -0.89659201302E+02  0.15633214544E+02 -0.25517661994E+03  0.27092116407E+03  0.00000000000E+00 0. -1.
         11    1    4    4    0    0 -0.35423676196E+02  0.18621020297E+01 -0.22560119426E+02  0.42038830237E+02  0.00000000000E+00 0.  1.
</event>
<event>
 8    1  0.3528896E-009  0.1200161E+03  0.7561462E-02  0.1243070E+00
         -2   -1    0    0    0  501 -0.00000000000E+00  0.00000000000E+00  0.59726811814E+02  0.59726811814E+02  0.00000000000E+00 0.  1.
          2   -1    0    0  501    0  0.00000000000E+00 -0.00000000000E+00 -0.36346000878E+03  0.36346000878E+03  0.00000000000E+00 0. -1.
         25    2    1    2    0    0  0.18531308965E+02 -0.94355854860E+02 -0.20857454020E+03  0.26153225614E+03  0.12509734380E+03 0.  0.
         23    2    1    2    0    0 -0.18531308965E+02  0.94355854860E+02 -0.95158656771E+02  0.16165456445E+03  0.88490629399E+02 0.  0.
          5    1    3    3  502    0  0.28882527310E+02 -0.14558813904E+02  0.52473666958E+01  0.33032812526E+02  0.41800000000E+01 0. -1.
         -5    1    3    3    0  502 -0.10351218346E+02 -0.79797040956E+02 -0.21382190689E+03  0.22849944362E+03  0.41800000000E+01 0. -1.
        -11    1    4    4    0    0  0.30955456652E+02  0.17862401441E+02 -0.45617743524E+02  0.57950704965E+02  0.00000000000E+00 0. -1.
         11    1    4    4    0    0 -0.49486765616E+02  0.76493453419E+02 -0.49540913247E+02  0.10370385949E+03  0.00000000000E+00 0.  1.
</event>
<event>
 8    1  0.3528896E-009  0.8265682E+02  0.7561462E-02  0.1321676E+00
          1   -1    0    0  501    0  0.00000000000E+00  0.00000000000E+00  0.13632820531E+03  0.13632820531E+03  0.00000000000E+00 0. -1.
         -1   -1    0    0    0  501 -0.00000000000E+00 -0.00000000000E+00 -0.86238783358E+02  0.86238783358E+02  0.00000000000E+00 0.  1.
         25    2    1    2    0    0 -0.10063988916E+02 -0.32395733452E+01  0.29948270361E+02  0.12905939815E+03  0.12509056977E+03 0.  0.
         23    2    1    2    0    0  0.10063988916E+02  0.32395733452E+01  0.20141151590E+02  0.93507590516E+02  0.90698537962E+02 0.  0.
          5    1    3    3  502    0 -0.51030889980E+02 -0.14783412166E+02 -0.25462702009E+02  0.59063716451E+02  0.41800000000E+01 0.  1.
         -5    1    3    3    0  502  0.40966901064E+02  0.11543838821E+02  0.55410972371E+02  0.69995681699E+02  0.41800000000E+01 0.  1.
        -11    1    4    4    0    0  0.18266814578E+00  0.35506665753E+02 -0.20249020118E+02  0.40875169679E+02  0.00000000000E+00 0.  1.
         11    1    4    4    0    0  0.98813207702E+01 -0.32267092408E+02  0.40390171708E+02  0.52632420837E+02  0.00000000000E+00 0. -1.
</event>
<event>
 8    1  0.3528896E-009  0.1491834E+03  0.7561462E-02  0.1201480E+00
          1   -1    0    0  501    0  0.00000000000E+00  0.00000000000E+00  0.60980528739E+02  0.60980528739E+02  0.00000000000E+00 0. -1.
         -1   -1    0    0    0  501 -0.00000000000E+00 -0.00000000000E+00 -0.48727915558E+03  0.48727915558E+03  0.00000000000E+00 0.  1.
         25    2    1    2    0    0  0.12703017782E+03  0.30031744156E+02 -0.17987236429E+03  0.25503207356E+03  0.12509484152E+03 0.  0.
         23    2    1    2    0    0 -0.12703017782E+03 -0.30031744156E+02 -0.24642626256E+03  0.29322761076E+03  0.90652948665E+02 0.  0.
          5    1    3    3  502    0 -0.42397109863E+01  0.48978954536E+01 -0.97865679760E+02  0.98168875944E+02  0.41800000000E+01 0. -1.
         -5    1    3    3    0  502  0.13126988881E+03  0.25133848703E+02 -0.82006684526E+02  0.15686319761E+03  0.41800000000E+01 0. -1.
        -11    1    4    4    0    0 -0.11560928756E+03  0.92984542194E+01 -0.16028883340E+03  0.19784963668E+03  0.00000000000E+00 0. -1.
         11    1    4    4    0    0 -0.11420890261E+02 -0.39330198376E+02 -0.86137429157E+02  0.95377974084E+02  0.00000000000E+00 0.  1.
</event>
<event>
 8    1  0.3528896E-009  0.1704537E+03  0.7561462E-02  0.1177376E+00
         -2   -1    0    0    0  501 -0.00000000000E+00  0.00000000000E+00  0.12029173608E+02  0.12029173608E+02  0.00000000000E+00 0.  1.
          2   -1    0    0  501    0  0.00000000000E+00 -0.00000000000E+00 -0.29123536117E+04  0.29123536117E+04  0.00000000000E+00 0. -1.
         25    2    1    2    0    0  0.13658915728E+02  0.14068779346E+03 -0.19614422460E+04  0.19705032781E+04  0.12509142104E+03 0.  0.
         23    2    1    2    0    0 -0.13658915728E+02 -0.14068779346E+03 -0.93888219213E+03  0.95387950719E+03  0.91688179895E+02 0.  0.
          5    1    3    3  502    0  0.36773659591E+02  0.72879807839E+01 -0.17951759964E+03  0.18343788509E+03  0.41800000000E+01 0.  1.
         -5    1    3    3    0  502 -0.23114743862E+02  0.13339981268E+03 -0.17819246463E+04  0.17870653931E+04  0.41800000000E+01 0.  1.
        -11    1    4    4    0    0  0.31344156901E+02 -0.16037587673E+02 -0.16283821876E+03  0.16660115810E+03  0.00000000000E+00 0.  1.
         11    1    4    4    0    0 -0.45003072629E+02 -0.12465020579E+03 -0.77604397336E+03  0.78727834909E+03  0.00000000000E+00 0. -1.
</event>
<event>
 8    1  0.3528896E-009  0.8241687E+02  0.7561462E-02  0.1322329E+00
          1   -1    0    0  501    0  0.00000000000E+00  0.00000000000E+00  0.23125910786E+03  0.23125910786E+03  0.00000000000E+00 0. -1.
         -1   -1    0    0    0  501 -0.00000000000E+00 -0.00000000000E+00 -0.56060738941E+02  0.56060738941E+02  0.00000000000E+00 0.  1.
         25    2    1    2    0    0  0.18943106611E+02 -0.13547620737E+02  0.68248954864E+02  0.14438516536E+03  0.12508707695E+03 0.  0.
         23    2    1    2    0    0 -0.18943106611E+02  0.13547620737E+02  0.10694941406E+03  0.14293468144E+03  0.91922612427E+02 0.  0.
          5    1    3    3  502    0 -0.14158881400E+02 -0.44266218852E+02  0.84236187825E+02  0.96297350915E+02  0.41800000000E+01 0.  1.
         -5    1    3    3    0  502  0.33101988012E+02  0.30718598115E+02 -0.15987232961E+02  0.48087814447E+02  0.41800000000E+01 0.  1.
        -11    1    4    4    0    0 -0.35914346800E+02  0.31746409500E+02  0.19049920590E+02  0.51580755100E+02  0.00000000000E+00 0.  1.
         11    1    4    4    0    0  0.16971240189E+02 -0.18198788763E+02  0.87899493465E+02  0.91353926338E+02  0.00000000000E+00 0. -1.
</event>
<event>
 8    1  0.3528896E-009  0.1035473E+03  0.7561462E-02  0.1273008E+00
         -1   -1    0    0    0  501 -0.00000000000E+00  0.00000000000E+00  0.22873909471E+03  0.22873909471E+03  0.00000000000E+00 0.  1.
          1   -1    0    0  501    0  0.00000000000E+00 -0.00000000000E+00 -0.66601469084E+02  0.66601469084E+02  0.00000000000E+00 0. -1.
         25    2    1    2    0    0 -0.29618648665E+02 -0.33417134727E+02  0.38212947507E+02  0.13821257100E+03  0.12509402936E+03 0.  0.
         23    2    1    2    0    0  0.29618648665E+02  0.33417134727E+02  0.12392467812E+03  0.15712799280E+03  0.85661607689E+02 0.  0.
          5    1    3    3  502    0 -0.34322019450E+02  0.36901940483E+02  0.44463076270E+02  0.67336407551E+02  0.41800000000E+01 0.  1.
         -5    1    3    3    0  502  0.47033707841E+01 -0.70319075210E+02 -0.62501287628E+01  0.70876163445E+02  0.41800000000E+01 0.  1.
        -11    1    4    4    0    0  0.38580413556E+02 -0.11393522689E+02  0.94684791841E+02  0.10287599562E+03  0.00000000000E+00 0.  1.
         11    1    4    4    0    0 -0.89617648901E+01  0.44810657416E+02  0.29239886276E+02  0.54251997174E+02  0.00000000000E+00 0. -1.
</event>
<event>
 8    1  0.3528896E-009  0.1449683E+03  0.7561462E-02  0.1206796E+00
          1   -1    0    0  501    0  0.00000000000E+00  0.00000000000E+00  0.15075674976E+04  0.15075674976E+04  0.00000000000E+00 0. -1.
         -1   -1    0    0    0  501 -0.00000000000E+00 -0.00000000000E+00 -0.25980653000E+02  0.25980653000E+02  0.00000000000E+00 0.  1.
         25    2    1    2    0    0  0.82458282092E+02 -0.79585353300E+02  0.12329907101E+04  0.12446068781E+04  0.12508794147E+03 0.  0.
         23    2    1    2    0    0 -0.82458282092E+02  0.79585353300E+02  0.24859613456E+03  0.28894127255E+03  0.92486886196E+02 0.  0.
          5    1    3    3  502    0  0.55506437397E+01 -0.63945412804E+02  0.23868783988E+03  0.24720271595E+03  0.41800000000E+01 0. -1.
         -5    1    3    3    0  502  0.76907638353E+02 -0.15639940496E+02  0.99430287019E+03  0.99740416213E+03  0.41800000000E+01 0. -1.
        -11    1    4    4    0    0 -0.88506603438E+02  0.24816609897E+02  0.16336294981E+03  0.18744795637E+03  0.00000000000E+00 0.  1.
         11    1    4    4    0    0  0.60483213460E+01  0.54768743403E+02  0.85233184755E+02  0.10149331618E+03  0.00000000000E+00 0. -1.
</event>
<event>
 8    1  0.3528896E-009  0.1166282E+03  0.7561462E-02  0.1248765E+00
          2   -1    0    0  501    0  0.00000000000E+00  0.00000000000E+00  0.18562859783E+02  0.18562859783E+02  0.00000000000E+00 0. -1.
         -2   -1    0    0    0  501 -0.00000000000E+00 -0.00000000000E+00 -0.12388589560E+04  0.12388589560E+04  0.00000000000E+00 0.  1.
         25    2    1    2    0    0  0.86832612994E+02 -0.47006811539E+02 -0.80520091813E+03  0.82082054589E+03  0.12509319324E+03 0.  0.
         23    2    1    2    0    0 -0.86832612994E+02  0.47006811539E+02 -0.41509517812E+03  0.43660126992E+03  0.92558732642E+02 0.  0.
          5    1    3    3  502    0 -0.17558329666E+02 -0.20108114212E+01 -0.38697788885E+03  0.38740379085E+03  0.41800000000E+01 0.  1.
         -5    1    3    3    0  502  0.10439094266E+03 -0.44996000118E+02 -0.41822302928E+03  0.43341675505E+03  0.41800000000E+01 0.  1.
        -11    1    4    4    0    0 -0.72829971624E+02  0.28666255753E+02 -0.40303566590E+03  0.41056510686E+03  0.00000000000E+00 0.  1.
         11    1    4    4    0    0 -0.14002641370E+02  0.18340555786E+02 -0.12059512221E+02  0.26036163060E+02  0.00000000000E+00 0. -1.
</event>
<event>
 8    1  0.3528896E-009  0.1032074E+03  0.7561462E-02  0.1273692E+00
          1   -1    0    0  501    0  0.00000000000E+00  0.00000000000E+00  0.31765037340E+03  0.31765037340E+03  0.00000000000E+00 0. -1.
         -1   -1    0    0    0  501 -0.00000000000E+00 -0.00000000000E+00 -0.73206590162E+02  0.73206590162E+02  0.00000000000E+00 0.  1.
         25    2    1    2    0    0  0.61788099229E+01 -0.41764539661E+02  0.25641503774E+03  0.28840627410E+03  0.12508818049E+03 0.  0.
         23    2    1    2    0    0 -0.61788099229E+01  0.41764539661E+02 -0.11971254499E+02  0.10245068946E+03  0.92576338076E+02 0.  0.
          5    1    3    3  502    0  0.51098352205E+02  0.19404495975E+02  0.12693933202E+03  0.13827017927E+03  0.41800000000E+01 0. -1.
         -5    1    3    3    0  502 -0.44919542282E+02 -0.61169035636E+02  0.12947570572E+03  0.15013609483E+03  0.41800000000E+01 0. -1.
        -11    1    4    4    0    0  0.99890506656E+01  0.54250718287E+02  0.24725996702E+02  0.60450777337E+02  0.00000000000E+00 0. -1.
         11    1    4    4    0    0 -0.16167860589E+02 -0.12486178626E+02 -0.36697251201E+02  0.41999912124E+02  0.00000000000E+00 0.  1.
</event>
<event>
 8    1  0.3528896E-009  0.1098436E+03  0.7561462E-02  0.1260860E+00
         -1   -1    0    0    0  501 -0.00000000000E+00  0.00000000000E+00  0.37215537772E+03  0.37215537772E+03  0.00000000000E+00 0.  1.
          1   -1    0    0  501    0  0.00000000000E+00 -0.00000000000E+00 -0.43582388208E+02  0.43582388208E+02  0.00000000000E+00 0. -1.
         25    2    1    2    0    0  0.46124225735E+02 -0.31209971036E+02  0.24053850743E+03  0.27678163288E+03  0.12509113578E+03 0.  0.
         23    2    1    2    0    0 -0.46124225735E+02  0.31209971036E+02  0.88034482074E+02  0.13895613304E+03  0.91963201248E+02 0.  0.
          5    1    3    3  502    0  0.34830624112E+02  0.46234836974E+02  0.11433664231E+03  0.12822313637E+03  0.41800000000E+01 0. -1.
         -5    1    3    3    0  502  0.11293601623E+02 -0.77444808010E+02  0.12620186512E+03  0.14855849651E+03  0.41800000000E+01 0. -1.
        -11    1    4    4    0    0 -0.11835819768E+02 -0.19053049472E+02  0.72878805139E+02  0.76252380699E+02  0.00000000000E+00 0.  1.
         11    1    4    4    0    0 -0.34288405966E+02  0.50263020508E+02  0.15155676935E+02  0.62703752342E+02  0.00000000000E+00 0. -1.
</event>
<event>
 8    1  0.3528896E-009  0.1689711E+03  0.7561462E-02  0.1178925E+00
         -2   -1    0    0    0  501 -0.00000000000E+00  0.00000000000E+00  0.28023070897E+03  0.28023070897E+03  0.00000000000E+00 0.  1.
          2   -1    0    0  501    0  0.00000000000E+00 -0.00000000000E+00 -0.21277349936E+03  0.21277349936E+03  0.00000000000E+00 0. -1.
         25    2    1    2    0    0 -0.10237157458E+03  0.10655094986E+03 -0.12663200290E+03  0.23133996461E+03  0.12509784519E+03 0.  0.
         23    2    1    2    0    0  0.10237157458E+03 -0.10655094986E+03  0.19408921251E+03  0.26166424372E+03  0.94681095423E+02 0.  0.
          5    1    3    3  502    0 -0.11823030397E+03  0.76515933655E+02 -0.53700614548E+02  0.15077904789E+03  0.41800000000E+01 0.  1.
         -5    1    3    3    0  502  0.15858729391E+02  0.30035016201E+02 -0.72931388357E+02  0.80560916726E+02  0.41800000000E+01 0.  1.
        -11    1    4    4    0    0  0.21202930075E+02 -0.71211681928E+02  0.13838120101E+03  0.15706694330E+03  0.00000000000E+00 0.  1.
         11    1    4    4    0    0  0.81168644501E+02 -0.35339267928E+02  0.55708011502E+02  0.10459730041E+03  0.00000000000E+00 0. -1.
</event>
<event>
 8    1  0.3528896E-009  0.9382502E+02  0.7561462E-02  0.1293845E+00
          1   -1    0    0  501    0  0.00000000000E+00  0.00000000000E+00  0.21457630714E+03  0.21457630714E+03  0.00000000000E+00 0. -1.
         -1   -1    0    0    0  501 -0.00000000000E+00 -0.00000000000E+00 -0.62089934640E+02  0.62089934640E+02  0.00000000000E+00 0.  1.
         25    2    1    2    0    0 -0.38420317164E+01 -0.38113444881E+02  0.76898893003E+02  0.15175064160E+03  0.12508965422E+03 0.  0.
         23    2    1    2    0    0  0.38420317164E+01  0.38113444881E+02  0.75587479494E+02  0.12491560017E+03  0.91777144332E+02 0.  0.
          5    1    3    3  502    0  0.48554403504E+02 -0.24302163978E+02  0.80605621086E+02  0.97277252348E+02  0.41800000000E+01 0. -1.
         -5    1    3    3    0  502 -0.52396435221E+02 -0.13811280903E+02 -0.37067280824E+01  0.54473389256E+02  0.41800000000E+01 0. -1.
        -11    1    4    4    0    0  0.22071011661E+02 -0.12279474739E+02 -0.72308895281E+01  0.26271673319E+02  0.00000000000E+00 0.  1.
         11    1    4    4    0    0 -0.18228979945E+02  0.50392919620E+02  0.82818369022E+02  0.98643926854E+02  0.00000000000E+00 0. -1.
</event>
<event>
 8    1  0.3528896E-009  0.1145068E+03  0.7561462E-02  0.1252444E+00
          4   -1    0    0  501    0  0.00000000000E+00  0.00000000000E+00  0.68625349487E+02  0.68625349487E+02  0.00000000000E+00 0. -1.
         -4   -1    0    0    0  501 -0.00000000000E+00 -0.00000000000E+00 -0.25692833529E+03  0.25692833529E+03  0.00000000000E+00 0.  1.
         25    2    1    2    0    0  0.45027085737E+02 -0.65741050835E+02 -0.10587886745E+03  0.18222855556E+03  0.12509031807E+03 0.  0.
         23    2    1    2    0    0 -0.45027085737E+02  0.65741050835E+02 -0.82424118360E+02  0.14332512922E+03  0.86017632869E+02 0.  0.
          5    1    3    3  502    0 -0.31480347235E+02 -0.38864391066E+02 -0.17983613482E+01  0.50221107699E+02  0.41800000000E+01 0.  1.
         -5    1    3    3    0  502  0.76507432973E+02 -0.26876659769E+02 -0.10408050610E+03  0.13200744786E+03  0.41800000000E+01 0.  1.
        -11    1    4    4    0    0  0.43661485049E+01  0.43048793346E+02  0.15458025444E+01  0.43297244333E+02  0.00000000000E+00 0. -1.
         11    1    4    4    0    0 -0.49393234242E+02  0.22692257489E+02 -0.83969920904E+02  0.10002788489E+03  0.00000000000E+00 0.  1.
</event>
<event>
 7    1  0.3528896E-009  0.1243638E+03  0.7561462E-02  0.1236067E+00
          2   -1    0    0  501    0  0.00000000000E+00  0.00000000000E+00  0.35209060258E+03  0.35209060258E+03  0.00000000000E+00 0. -1.
         -2   -1    0    0    0  501 -0.00000000000E+00 -0.00000000000E+00 -0.50494208371E+02  0.50494208371E+02  0.00000000000E+00 0.  1.
         23    2    1    2    0    0  0.66995948686E+01 -0.73901537470E+02  0.16756239156E+03  0.20465086527E+03  0.91096101891E+02 0.  0.
          5    1    1    2  502    0  0.18909587228E+02 -0.30627313978E+02  0.21350712037E+02  0.42058651371E+02  0.41800000000E+01 0. -1.
         -5    1    1    2    0  502 -0.25609182096E+02  0.10452885145E+03  0.11268329061E+03  0.15587529431E+03  0.41800000000E+01 0. -1.
        -11    1    3    3    0    0  0.90468263563E+01  0.14102290248E+02  0.16587613165E+01  0.16836601393E+02  0.00000000000E+00 0.  1.
         11    1    3    3    0    0 -0.23472314877E+01 -0.88003827718E+02  0.16590363024E+03  0.18781426388E+03  0.00000000000E+00 0. -1.
</event>
<event>
 8    1  0.3528896E-009  0.4945932E+02  0.7561462E-02  0.1448280E+00
          1   -1    0    0  501    0  0.00000000000E+00  0.00000000000E+00  0.18393195559E+03  0.18393195559E+03  0.00000000000E+00 0. -1.
         -1   -1    0    0    0  501 -0.00000000000E+00 -0.00000000000E+00 -0.67412578200E+02  0.67412578200E+02  0.00000000000E+00 0.  1.
         25    2    1    2    0    0  0.30189217660E+01  0.76895589288E+01  0.37651229818E+02  0.13089232358E+03  0.12508773745E+03 0.  0.
         23    2    1    2    0    0 -0.30189217660E+01 -0.76895589288E+01  0.78868147577E+02  0.12045221021E+03  0.90665908905E+02 0.  0.
          5    1    3    3  502    0  0.20111161274E+01  0.17144030817E+02  0.82738999739E+02  0.84623736968E+02  0.41800000000E+01 0. -1.
         -5    1    3    3    0  502  0.10078056386E+01 -0.94544718885E+01 -0.45087769920E+02  0.46268586614E+02  0.41800000000E+01 0. -1.
        -11    1    4    4    0    0 -0.35615229979E+02  0.46512407916E+01  0.77675279704E+02  0.85577612285E+02  0.00000000000E+00 0. -1.
         11    1    4    4    0    0  0.32596308213E+02 -0.12340799720E+02  0.11928678734E+01  0.34874597927E+02  0.00000000000E+00 0.  1.
</event>
<event>
 8    1  0.3528896E-009  0.9652922E+02  0.7561462E-02  0.1287769E+00
         -4   -1    0    0    0  501 -0.00000000000E+00  0.00000000000E+00  0.32210229049E+02  0.32210229049E+02  0.00000000000E+00 0.  1.
          4   -1    0    0  501    0  0.00000000000E+00 -0.00000000000E+00 -0.47450438194E+03  0.47450438194E+03  0.00000000000E+00 0. -1.
         25    2    1    2    0    0  0.17664563040E+02 -0.16251850567E+02 -0.13685904416E+03  0.18696137590E+03  0.12509196089E+03 0.  0.
         23    2    1    2    0    0 -0.17664563040E+02  0.16251850567E+02 -0.30543510873E+03  0.31975323508E+03  0.91517027187E+02 0.  0.
          5    1    3    3  502    0 -0.44039732100E+02 -0.29232770462E+02 -0.10158247516E+03  0.11458850087E+03  0.41800000000E+01 0. -1.
         -5    1    3    3    0  502  0.61704295141E+02  0.12980919895E+02 -0.35276568992E+02  0.72372875029E+02  0.41800000000E+01 0. -1.
        -11    1    4    4    0    0 -0.13315923629E+02  0.45429776177E+02 -0.26770842817E+03  0.27186206226E+03  0.00000000000E+00 0.  1.
         11    1    4    4    0    0 -0.43486394111E+01 -0.29177925610E+02 -0.37726680564E+02  0.47891172819E+02  0.00000000000E+00 0. -1.
</event>
<event>
 8    1  0.3528896E-009  0.1215836E+03  0.7561462E-02  0.1240507E+00
         -1   -1    0    0    0  501 -0.00000000000E+00  0.00000000000E+00  0.13499647240E+03  0.13499647240E+03  0.00000000000E+00 0.  1.
          1   -1    0    0  501    0  0.00000000000E+00 -0.00000000000E+00 -0.20676591909E+03  0.20676591909E+03  0.00000000000E+00 0. -1.
         25    2    1    2    0    0 -0.58033435346E+02 -0.18029744265E+02  0.75016174845E+02  0.15801648379E+03  0.12509528913E+03 0.  0.
         23    2    1    2    0    0  0.58033435346E+02  0.18029744265E+02 -0.14678562154E+03  0.18374590770E+03  0.92323283139E+02 0.  0.
          5    1    3    3  502    0 -0.71960425162E+02 -0.59661155088E+02  0.40236140347E+02  0.10185369707E+03  0.41800000000E+01 0. -1.
         -5    1    3    3    0  502  0.13926989816E+02  0.41631410823E+02  0.34780034498E+02  0.56162786719E+02  0.41800000000E+01 0. -1.
        -11    1    4    4    0    0 -0.22817000512E+02  0.72095386625E+01 -0.60233551150E+02  0.64812604053E+02  0.00000000000E+00 0. -1.
         11    1    4    4    0    0  0.80850435858E+02  0.10820205603E+02 -0.86552070389E+02  0.11893330365E+03  0.00000000000E+00 0.  1.
</event>
<event>
 8    1  0.3528896E-009  0.9137070E+02  0.7561462E-02  0.1299566E+00
          1   -1    0    0  501    0  0.00000000000E+00  0.00000000000E+00  0.10181390231E+04  0.10181390231E+04  0.00000000000E+00 0. -1.
         -1   -1    0    0    0  501 -0.00000000000E+00 -0.00000000000E+00 -0.20618130808E+02  0.20618130808E+02  0.00000000000E+00 0.  1.
         25    2    1    2    0    0 -0.27145861491E+02 -0.53008378220E+02  0.81368920575E+03  0.82539534307E+03  0.12506223593E+03 0.  0.
         23    2    1    2    0    0  0.27145861491E+02  0.53008378220E+02  0.18383168654E+03  0.21336181084E+03  0.90456549727E+02 0.  0.
          5    1    3    3  502    0 -0.64623292885E+02 -0.49954122895E+02  0.71566977768E+03  0.72032790274E+03  0.41800000000E+01 0. -1.
         -5    1    3    3    0  502  0.37477431394E+02 -0.30542553255E+01  0.98019428069E+02  0.10506744033E+03  0.41800000000E+01 0. -1.
        -11    1    4    4    0    0  0.11111563448E+02  0.42552269111E+02  0.18857919111E+03  0.19363954598E+03  0.00000000000E+00 0. -1.
         11    1    4    4    0    0  0.16034298043E+02  0.10456109109E+02 -0.47475045651E+01  0.19722264856E+02  0.00000000000E+00 0.  1.
</event>
<event>
 8    1  0.3528896E-009  0.1028092E+03  0.7561462E-02  0.1274497E+00
         -2   -1    0    0    0  501 -0.00000000000E+00  0.00000000000E+00  0.28447447446E+03  0.28447447446E+03  0.00000000000E+00 0.  1.
          2   -1    0    0  501    0  0.00000000000E+00 -0.00000000000E+00 -0.97942632924E+02  0.97942632924E+02  0.00000000000E+00 0. -1.
         25    2    1    2    0    0  0.46772999707E+02 -0.33530920032E+02 -0.29306468029E+02  0.14079739584E+03  0.12511195590E+03 0.  0.
         23    2    1    2    0    0 -0.46772999707E+02  0.33530920032E+02  0.21583830957E+03  0.24161971154E+03  0.92097084799E+02 0.  0.
          5    1    3    3  502    0  0.55673369810E+02 -0.57185157973E+02 -0.60642850614E+02  0.10032294916E+03  0.41800000000E+01 0.  1.
         -5    1    3    3    0  502 -0.89003701026E+01  0.23654237942E+02  0.31336382585E+02  0.40474446680E+02  0.41800000000E+01 0.  1.
        -11    1    4    4    0    0  0.12260340114E+02 -0.17961466403E+02  0.16066077958E+02  0.27037919225E+02  0.00000000000E+00 0.  1.
         11    1    4    4    0    0 -0.59033339822E+02  0.51492386435E+02  0.19977223161E+03  0.21458179232E+03  0.00000000000E+00 0. -1.
</event>
<event>
 8    1  0.3528896E-009  0.3056599E+03  0.7561462E-02  0.1082445E+00
         -1   -1    0    0    0  501 -0.00000000000E+00  0.00000000000E+00  0.26903522847E+03  0.26903522847E+03  0.00000000000E+00 0.  1.
          1   -1    0    0  501    0  0.00000000000E+00 -0.00000000000E+00 -0.37817308752E+03  0.37817308752E+03  0.00000000000E+00 0. -1.
         25    2    1    2    0    0  0.28079373664E+02  0.29760447609E+03 -0.73986155324E+02  0.33238171330E+03  0.12508707664E+03 0.  0.
         23    2    1    2    0    0 -0.28079373664E+02 -0.29760447609E+03 -0.35151703726E+02  0.31482660270E+03  0.92321568874E+02 0.  0.
          5    1    3    3  502    0  0.96695859067E+01  0.29202508790E+03 -0.42558706038E+02  0.29529793212E+03  0.41800000000E+01 0. -1.
         -5    1    3    3    0  502  0.18409787757E+02  0.55793881875E+01 -0.31427449285E+02  0.37083781177E+02  0.41800000000E+01 0. -1.
        -11    1    4    4    0    0 -0.24390393293E+02 -0.16790825250E+03  0.25545058782E+02  0.17158269893E+03  0.00000000000E+00 0.  1.
         11    1    4    4    0    0 -0.36889803703E+01 -0.12969622359E+03 -0.60696762508E+02  0.14324390377E+03  0.00000000000E+00 0. -1.
</event>
<event>
 8    1  0.3528896E-009  0.1015308E+03  0.7561462E-02  0.1277110E+00
         -1   -1    0    0    0  501 -0.00000000000E+00  0.00000000000E+00  0.31585624675E+02  0.31585624675E+02  0.00000000000E+00 0.  1.
          1   -1    0    0  501    0  0.00000000000E+00 -0.00000000000E+00 -0.49209135222E+03  0.49209135222E+03  0.00000000000E+00 0. -1.
         25    2    1    2    0    0  0.19642564715E+02 -0.10649272230E+02 -0.37848826462E+03  0.39924948017E+03  0.12509014197E+03 0.  0.
         23    2    1    2    0    0 -0.19642564715E+02  0.10649272230E+02 -0.82017462928E+02  0.12442749672E+03  0.90863085837E+02 0.  0.
          5    1    3    3  502    0  0.55713965503E+02 -0.45662758717E+02 -0.16873680604E+03  0.18351761658E+03  0.41800000000E+01 0. -1.
         -5    1    3    3    0  502 -0.36071400788E+02  0.35013486487E+02 -0.20975145858E+03  0.21573186359E+03  0.41800000000E+01 0. -1.
        -11    1    4    4    0    0 -0.93864695223E+01  0.44299273187E+02 -0.76388603024E+02  0.88801745968E+02  0.00000000000E+00 0. -1.
         11    1    4    4    0    0 -0.10256095192E+02 -0.33650000957E+02 -0.56288599045E+01  0.35625750755E+02  0.00000000000E+00 0.  1.
</event>
<event>
 8    1  0.3528896E-009  0.2066209E+03  0.7561462E-02  0.1144270E+00
         -1   -1    0    0    0  501 -0.00000000000E+00  0.00000000000E+00  0.18035516498E+03  0.18035516498E+03  0.00000000000E+00 0.  1.
          1   -1    0    0  501    0  0.00000000000E+00 -0.00000000000E+00 -0.26349727915E+03  0.26349727915E+03  0.00000000000E+00 0. -1.
         25    2    1    2    0    0  0.18036348745E+03  0.33407132786E+02 -0.88666883406E+02  0.23907352044E+03  0.12508919952E+03 0.  0.
         23    2    1    2    0    0 -0.18036348745E+03 -0.33407132786E+02  0.55247692350E+01  0.20477892369E+03  0.90867267964E+02 0.  0.
          5    1    3    3  502    0 -0.61093882075E+01  0.29267733564E+02 -0.32224950178E+02  0.44157045488E+02  0.41800000000E+01 0. -1.
         -5    1    3    3    0  502  0.18647287565E+03  0.41393992218E+01 -0.56441933228E+02  0.19491647495E+03  0.41800000000E+01 0. -1.
        -11    1    4    4    0    0 -0.96489528817E+02 -0.53375485209E+02  0.31594395834E+02  0.11470561207E+03  0.00000000000E+00 0.  1.
         11    1    4    4    0    0 -0.83873958629E+02  0.19968352423E+02 -0.26069626599E+02  0.90073311617E+02  0.00000000000E+00 0. -1.
</event>
<event>
 8    1  0.3528896E-009  0.9862598E+02  0.7561462E-02  0.1283212E+00
         -1   -1    0    0    0  501 -0.00000000000E+00  0.00000000000E+00  0.72347263244E+02  0.72347263244E+02  0.00000000000E+00 0.  1.
          1   -1    0    0  501    0  0.00000000000E+00 -0.00000000000E+00 -0.20364018693E+03  0.20364018693E+03  0.00000000000E+00 0. -1.
         25    2    1    2    0    0 -0.20803766617E+02 -0.10610345138E+02 -0.62575917866E+01  0.12740171264E+03  0.12508662118E+03 0.  0.
         23    2    1    2    0    0  0.20803766617E+02  0.10610345138E+02 -0.12503533190E+03  0.14858573753E+03  0.76801764608E+02 0.  0.
          5    1    3    3  502    0 -0.71533827015E+02  0.93051650057E+01  0.98808019400E+00  0.72264259532E+02  0.41800000000E+01 0.  1.
         -5    1    3    3    0  502  0.50730060398E+02 -0.19915510143E+02 -0.72456719806E+01  0.55137453103E+02  0.41800000000E+01 0.  1.
        -11    1    4    4    0    0 -0.73653067772E+01  0.33337210366E+02 -0.25321960858E+02  0.42506694068E+02  0.00000000000E+00 0.  1.
         11    1    4    4    0    0  0.28169073394E+02 -0.22726865228E+02 -0.99713371037E+02  0.10607904347E+03  0.00000000000E+00 0. -1.
</event>
<event>
 8    1  0.3528896E-009  0.1021257E+03  0.7561462E-02  0.1275888E+00
         -2   -1    0    0    0  501 -0.00000000000E+00  0.00000000000E+00  0.24036373591E+03  0.24036373591E+03  0.00000000000E+00 0.  1.
          2   -1    0    0  501    0  0.00000000000E+00 -0.00000000000E+00 -0.67797610552E+02  0.67797610552E+02  0.00000000000E+00 0. -1.
         25    2    1    2    0    0 -0.21283581538E+02 -0.45306312359E+02  0.36653808660E+02  0.13963141023E+03  0.12509107183E+03 0.  0.
         23    2    1    2    0    0  0.21283581538E+02  0.45306312359E+02  0.13591231670E+03  0.16852993624E+03  0.86165705441E+02 0.  0.
          5    1    3    3  502    0  0.40194014738E+02  0.13416930100E+02 -0.82830817109E+01  0.43378043716E+02  0.41800000000E+01 0. -1.
         -5    1    3    3    0  502 -0.61477596276E+02 -0.58723242459E+02  0.44936890371E+02  0.96253366512E+02  0.41800000000E+01 0. -1.
        -11    1    4    4    0    0  0.33129883879E+02  0.37519043342E+01  0.91046048232E+01  0.34562404733E+02  0.00000000000E+00 0. -1.
         11    1    4    4    0    0 -0.11846302341E+02  0.41554408025E+02  0.12680771188E+03  0.13396753150E+03  0.00000000000E+00 0.  1.
</event>
<event>
 8    1  0.3528896E-009  0.7157489E+02  0.7561462E-02  0.1354818E+00
         -1   -1    0    0    0  501 -0.00000000000E+00  0.00000000000E+00  0.38635288932E+02  0.38635288932E+02  0.00000000000E+00 0.  1.
          1   -1    0    0  501    0  0.00000000000E+00 -0.00000000000E+00 -0.49644255402E+03  0.49644255402E+03  0.00000000000E+00 0. -1.
         25    2    1    2    0    0 -0.38805951790E+02 -0.91359382162E+01 -0.39649370186E+03  0.41766466528E+03  0.12508856763E+03 0.  0.
         23    2    1    2    0    0  0.38805951790E+02  0.91359382162E+01 -0.61313563232E+02  0.11741317767E+03  0.91853873043E+02 0.  0.
          5    1    3    3  502    0 -0.48074134973E+01  0.19384842665E+02 -0.18243005140E+01  0.20486186127E+02  0.41800000000E+01 0. -1.
         -5    1    3    3    0  502 -0.33998538293E+02 -0.28520780881E+02 -0.39466940134E+03  0.39717847915E+03  0.41800000000E+01 0. -1.
        -11    1    4    4    0    0 -0.93050626475E+01 -0.19906629447E+02  0.12001336902E+02  0.25037774946E+02  0.00000000000E+00 0.  1.
         11    1    4    4    0    0  0.48111014438E+02  0.29042567663E+02 -0.73314900135E+02  0.92375402724E+02  0.00000000000E+00 0. -1.
</event>
<event>
 8    1  0.3528896E-009  0.1056288E+03  0.7561462E-02  0.1268886E+00
          1   -1    0    0  501    0  0.00000000000E+00  0.00000000000E+00  0.12895188571E+02  0.12895188571E+02  0.00000000000E+00 0. -1.
         -1   -1    0    0    0  501 -0.00000000000E+00 -0.00000000000E+00 -0.13768726341E+04  0.13768726341E+04  0.00000000000E+00 0.  1.
         25    2    1    2    0    0  0.55824962170E+02 -0.77700519885E+01 -0.10437991837E+04  0.10527770076E+04  0.12508353930E+03 0.  0.
         23    2    1    2    0    0 -0.55824962170E+02  0.77700519885E+01 -0.32017826187E+03  0.33699081507E+03  0.88723671943E+02 0.  0.
          5    1    3    3  502    0 -0.13794251180E+02 -0.32440946144E+02 -0.70960841190E+03  0.71049578957E+03  0.41800000000E+01 0. -1.
         -5    1    3    3    0  502  0.69619213350E+02  0.24670894155E+02 -0.33419077177E+03  0.34228121804E+03  0.41800000000E+01 0. -1.
        -11    1    4    4    0    0 -0.78609544283E+02  0.42493276653E+01 -0.27789425205E+03  0.28882993709E+03  0.00000000000E+00 0. -1.
         11    1    4    4    0    0  0.22784582114E+02  0.35207243231E+01 -0.42284009820E+02  0.48160877986E+02  0.00000000000E+00 0.  1.
</event>
<event>
 8    1  0.3528896E-009  0.1172044E+03  0.7561462E-02  0.1247781E+00
         -3   -1    0    0    0  501 -0.00000000000E+00  0.00000000000E+00  0.51385302568E+02  0.51385302568E+02  0.00000000000E+00 0.  1.
          3   -1    0    0  501    0  0.00000000000E+00 -0.00000000000E+00 -0.32102733586E+03  0.32102733586E+03  0.00000000000E+00 0. -1.
         25    2    1    2    0    0 -0.27660532375E+02 -0.61117705469E+02 -0.16107883113E+03  0.21469842205E+03  0.12509413904E+03 0.  0.
         23    2    1    2    0    0  0.27660532375E+02  0.61117705469E+02 -0.10856320216E+03  0.15771421637E+03  0.92667827263E+02 0.  0.
          5    1    3    3  502    0  0.45880261992E+02 -0.18984242174E+02 -0.28835995539E+02  0.57570712434E+02  0.41800000000E+01 0. -1.
         -5    1    3    3    0  502 -0.73540794367E+02 -0.42133463294E+02 -0.13224283559E+03  0.15712770962E+03  0.41800000000E+01 0. -1.
        -11    1    4    4    0    0 -0.19892954090E+02  0.45517976647E+02 -0.92773525742E+02  0.10523565412E+03  0.00000000000E+00 0. -1.
         11    1    4    4    0    0  0.47553486465E+02  0.15599728821E+02 -0.15789676421E+02  0.52478562250E+02  0.00000000000E+00 0.  1.
</event>
<event>
 8    1  0.3528896E-009  0.1376285E+03  0.7561462E-02  0.1216556E+00
          1   -1    0    0  501    0  0.00000000000E+00  0.00000000000E+00  0.33596254043E+03  0.33596254043E+03  0.00000000000E+00 0. -1.
         -1   -1    0    0    0  501 -0.00000000000E+00 -0.00000000000E+00 -0.61513995434E+02  0.61513995434E+02  0.00000000000E+00 0.  1.
         25    2    1    2    0    0  0.93202966875E+02  0.10270787454E+02  0.17238421029E+03  0.23270410656E+03  0.12507039277E+03 0.  0.
         23    2    1    2    0    0 -0.93202966875E+02 -0.10270787454E+02  0.10206433471E+03  0.16477242930E+03  0.89109724096E+02 0.  0.
          5    1    3    3  502    0 -0.69206163350E+01  0.43936909869E+02  0.24594423032E+02  0.50997107992E+02  0.41800000000E+01 0. -1.
         -5    1    3    3    0  502  0.10012358321E+03 -0.33666122415E+02  0.14778978725E+03  0.18170699857E+03  0.41800000000E+01 0. -1.
        -11    1    4    4    0    0  0.15423151042E+02 -0.45964062483E+01  0.72986232660E+00  0.16110035303E+02  0.00000000000E+00 0.  1.
         11    1    4    4    0    0 -0.10862611792E+03 -0.56743812062E+01  0.10133447239E+03  0.14866239400E+03  0.00000000000E+00 0. -1.
</event>
<event>
 8    1  0.3528896E-009  0.7830818E+02  0.7561462E-02  0.1333922E+00
          3   -1    0    0  501    0  0.00000000000E+00  0.00000000000E+00  0.41972219400E+02  0.41972219400E+02  0.00000000000E+00 0. -1.
         -3   -1    0    0    0  501 -0.00000000000E+00 -0.00000000000E+00 -0.41777373055E+03  0.41777373055E+03  0.00000000000E+00 0.  1.
         25    2    1    2    0    0 -0.45131996121E+01 -0.75875413674E+02 -0.19127966780E+03  0.24085957339E+03  0.12509186788E+03 0.  0.
         23    2    1    2    0    0  0.45131996121E+01  0.75875413674E+02 -0.18452184335E+03  0.21888637656E+03  0.89919340514E+02 0.  0.
          5    1    3    3  502    0  0.48409401822E+01 -0.63927924076E+02 -0.17799826068E+02  0.66667236230E+02  0.41800000000E+01 0.  1.
         -5    1    3    3    0  502 -0.93541397942E+01 -0.11947489599E+02 -0.17347984173E+03  0.17419233716E+03  0.41800000000E+01 0.  1.
        -11    1    4    4    0    0 -0.26707504276E+01  0.37032032213E+02 -0.79760816190E+01  0.37975284010E+02  0.00000000000E+00 0. -1.
         11    1    4    4    0    0  0.71839500396E+01  0.38843381462E+02 -0.17654576173E+03  0.18091109255E+03  0.00000000000E+00 0.  1.
</event>
<event>
 7    1  0.3528896E-009  0.9929118E+02  0.7561462E-02  0.1281794E+00
         -2   -1    0    0    0  501 -0.00000000000E+00  0.00000000000E+00  0.46266418976E+02  0.46266418976E+02  0.00000000000E+00 0.  1.
          2   -1    0    0  501    0  0.00000000000E+00 -0.00000000000E+00 -0.33231871973E+03  0.33231871973E+03  0.00000000000E+00 0. -1.
         23    2    1    2    0    0 -0.48660998834E+02 -0.38348132699E+02 -0.39850842716E+02  0.95386523784E+02  0.60597253777E+02 0.  0.
          5    1    1    2  502    0  0.69850990121E+02  0.54477116927E+02 -0.23954420584E+03  0.25543260567E+03  0.41800000000E+01 0. -1.
         -5    1    1    2    0  502 -0.21189991287E+02 -0.16128984228E+02 -0.66572522037E+01  0.27766009254E+02  0.41800000000E+01 0. -1.
        -11    1    3    3    0    0 -0.50999753385E+02 -0.69632133543E+01 -0.10879522273E+02  0.52610124410E+02  0.00000000000E+00 0.  1.
         11    1    3    3    0    0  0.23387545509E+01 -0.31384919345E+02 -0.28971320443E+02  0.42776399373E+02  0.00000000000E+00 0. -1.
</event>
<event>
 8    1  0.3528896E-009  0.1206849E+03  0.7561462E-02  0.1241971E+00
          2   -1    0    0  501    0  0.00000000000E+00  0.00000000000E+00  0.62568137403E+03  0.62568137403E+03  0.00000000000E+00 0. -1.
         -2   -1    0    0    0  501 -0.00000000000E+00 -0.00000000000E+00 -0.28752308304E+02  0.28752308304E+02  0.00000000000E+00 0.  1.
         25    2    1    2    0    0 -0.78662039211E+02 -0.78452872919E+01  0.36794245274E+03  0.39658291145E+03  0.12508833750E+03 0.  0.
         23    2    1    2    0    0  0.78662039211E+02  0.78452872919E+01  0.22898661298E+03  0.25785077088E+03  0.88333946898E+02 0.  0.
          5    1    3    3  502    0 -0.31862859099E+02 -0.63167431519E+02  0.23054212164E+03  0.24118977682E+03  0.41800000000E+01 0.  1.
         -5    1    3    3    0  502 -0.46799180112E+02  0.55322144227E+02  0.13740033110E+03  0.15539313462E+03  0.41800000000E+01 0.  1.
        -11    1    4    4    0    0  0.16619930764E+02 -0.23200680981E+02  0.13691092724E+02  0.31653431355E+02  0.00000000000E+00 0.  1.
         11    1    4    4    0    0  0.62042108447E+02  0.31045968272E+02  0.21529552026E+03  0.22619733953E+03  0.00000000000E+00 0. -1.
</event>
<event>
 8    1  0.3528896E-009  0.2335135E+03  0.7561462E-02  0.1124191E+00
          2   -1    0    0  501    0  0.00000000000E+00  0.00000000000E+00  0.70056836785E+03  0.70056836785E+03  0.00000000000E+00 0. -1.
         -2   -1    0    0    0  501 -0.00000000000E+00 -0.00000000000E+00 -0.84382609342E+02  0.84382609342E+02  0.00000000000E+00 0.  1.
         25    2    1    2    0    0 -0.50098983460E+02 -0.20633494551E+03  0.39176124710E+03  0.46282657825E+03  0.12509016321E+03 0.  0.
         23    2    1    2    0    0  0.50098983460E+02  0.20633494551E+03  0.22442451141E+03  0.32212439893E+03  0.91179763035E+02 0.  0.
          5    1    3    3  502    0  0.10289873139E+02  0.80288044207E+01  0.19229607988E+01  0.13838835496E+02  0.41800000000E+01 0. -1.
         -5    1    3    3    0  502 -0.60388856600E+02 -0.21436374993E+03  0.38983828630E+03  0.44898774276E+03  0.41800000000E+01 0. -1.
        -11    1    4    4    0    0 -0.18139939355E+02  0.11575686190E+03  0.12466528432E+03  0.17108518811E+03  0.00000000000E+00 0. -1.
         11    1    4    4    0    0  0.68238922815E+02  0.90578083611E+02  0.99759227092E+02  0.15103921083E+03  0.00000000000E+00 0.  1.
</event>
<event>
 8    1  0.3528896E-009  0.8972641E+02  0.7561462E-02  0.1303516E+00
          1   -1    0    0  501    0  0.00000000000E+00  0.00000000000E+00  0.46409191232E+03  0.46409191232E+03  0.00000000000E+00 0.  1.
         -1   -1    0    0    0  501 -0.00000000000E+00 -0.00000000000E+00 -0.29311999189E+02  0.29311999189E+02  0.00000000000E+00 0. -1.
         25    2    1    2    0    0  0.40260180508E+02  0.70743274482E+01  0.27613115841E+03  0.30589840993E+03  0.12511791361E+03 0.  0.
         23    2    1    2    0    0 -0.40260180508E+02 -0.70743274482E+01  0.15864875473E+03  0.18750550159E+03  0.91202837162E+02 0.  0.
          5    1    3    3  502    0  0.12082213623E+02  0.36959834079E+02  0.15582196919E+02  0.42098533015E+02  0.41800000000E+01 0. -1.
         -5    1    3    3    0  502  0.28177966885E+02 -0.29885506630E+02  0.26054896149E+03  0.26379987691E+03  0.41800000000E+01 0. -1.
        -11    1    4    4    0    0 -0.19455428164E+02  0.41708688607E+02  0.61376145808E+02  0.76714794301E+02  0.00000000000E+00 0. -1.
         11    1    4    4    0    0 -0.20804752344E+02 -0.48783016055E+02  0.97272608917E+02  0.11079070729E+03  0.00000000000E+00 0.  1.
</event>
<event>
 8    1  0.3528896E-009  0.9727640E+02  0.7561462E-02  0.1286130E+00
          2   -1    0    0  501    0  0.00000000000E+00  0.00000000000E+00  0.73697900983E+02  0.73697900983E+02  0.00000000000E+00 0. -1.
         -2   -1    0    0    0  501 -0.00000000000E+00 -0.00000000000E+00 -0.23721531445E+03  0.23721531445E+03  0.00000000000E+00 0.  1.
         25    2    1    2    0    0 -0.10677456661E+01 -0.63472805866E+02 -0.45474726247E+02  0.14746131395E+03  0.12508777406E+03 0.  0.
         23    2    1    2    0    0  0.10677456661E+01  0.63472805866E+02 -0.11804268722E+03  0.16345190148E+03  0.93554855171E+02 0.  0.
          5    1    3    3  502    0  0.26322017952E+02 -0.59797591434E+02 -0.79785408184E+02  0.10320748195E+03  0.41800000000E+01 0.  1.
         -5    1    3    3    0  502 -0.27389763619E+02 -0.36752144322E+01  0.34310681937E+02  0.44253832006E+02  0.41800000000E+01 0.  1.
        -11    1    4    4    0    0  0.60322605025E+01  0.81863843397E+02 -0.11878490538E+03  0.14438812544E+03  0.00000000000E+00 0.  1.
         11    1    4    4    0    0 -0.49645148364E+01 -0.18391037531E+02  0.74221816110E+00  0.19063776038E+02  0.00000000000E+00 0. -1.
</event>
<event>
 8    1  0.3528896E-009  0.1310257E+03  0.7561462E-02  0.1225942E+00
          2   -1    0    0  501    0  0.00000000000E+00  0.00000000000E+00  0.33932716415E+03  0.33932716415E+03  0.00000000000E+00 0. -1.
         -2   -1    0    0    0  501 -0.00000000000E+00 -0.00000000000E+00 -0.72109576243E+02  0.72109576243E+02  0.00000000000E+00 0.  1.
         25    2    1    2    0    0  0.97483733496E+02 -0.20450936008E+02  0.78445528258E+02  0.17810824494E+03  0.12509007528E+03 0.  0.
         23    2    1    2    0    0 -0.97483733496E+02  0.20450936008E+02  0.18877205965E+03  0.23332849545E+03  0.94265461362E+02 0.  0.
          5    1    3    3  502    0  0.12059126454E+03  0.50834657904E+01  0.77316165001E+02  0.14339929037E+03  0.41800000000E+01 0.  1.
         -5    1    3    3    0  502 -0.23107531044E+02 -0.25534401798E+02  0.11293632575E+01  0.34708954573E+02  0.41800000000E+01 0.  1.
        -11    1    4    4    0    0 -0.83975573808E+02  0.23552046662E+01  0.61614809394E+02  0.10418171011E+03  0.00000000000E+00 0.  1.
         11    1    4    4    0    0 -0.13508159688E+02  0.18095731341E+02  0.12715725026E+03  0.12914678534E+03  0.00000000000E+00 0. -1.
</event>
<event>
 8    1  0.3528896E-009  0.1096802E+03  0.7561462E-02  0.1261163E+00
         -1   -1    0    0    0  501 -0.00000000000E+00  0.00000000000E+00  0.64283734615E+03  0.64283734615E+03  0.00000000000E+00 0.  1.
          1   -1    0    0  501    0  0.00000000000E+00 -0.00000000000E+00 -0.20790059214E+02  0.20790059214E+02  0.00000000000E+00 0. -1.
         25    2    1    2    0    0  0.12878390955E+02  0.25720020954E+02  0.26915897670E+03  0.29819585996E+03  0.12508734440E+03 0.  0.
         23    2    1    2    0    0 -0.12878390955E+02 -0.25720020954E+02  0.35288831024E+03  0.36543154541E+03  0.90458180630E+02 0.  0.
          5    1    3    3  502    0 -0.56252848009E+02  0.92437769758E+01  0.11921757986E+03  0.13221245807E+03  0.41800000000E+01 0.  1.
         -5    1    3    3    0  502  0.69131238964E+02  0.16476243979E+02  0.14994139683E+03  0.16598340188E+03  0.41800000000E+01 0.  1.
        -11    1    4    4    0    0  0.36348934903E+02 -0.19899423031E+02  0.21367388225E+03  0.21765514021E+03  0.00000000000E+00 0.  1.
         11    1    4    4    0    0 -0.49227325858E+02 -0.58205979238E+01  0.13921442799E+03  0.14777640519E+03  0.00000000000E+00 0. -1.
</event>
<event>
 8    1  0.3528896E-009  0.1156600E+03  0.7561462E-02  0.1250433E+00
          1   -1    0    0  501    0  0.00000000000E+00  0.00000000000E+00  0.79550130741E+03  0.79550130741E+03  0.00000000000E+00 0. -1.
         -1   -1    0    0    0  501 -0.00000000000E+00 -0.00000000000E+00 -0.28658192453E+02  0.28658192453E+02  0.00000000000E+00 0.  1.
         25    2    1    2    0    0  0.27027042481E+02  0.77968730450E+02  0.24464544128E+03  0.28689317546E+03  0.12508684276E+03 0.  0.
         23    2    1    2    0    0 -0.27027042481E+02 -0.77968730450E+02  0.52219767368E+03  0.53726632441E+03  0.95682333762E+02 0.  0.
          5    1    3    3  502    0 -0.26880190515E+02  0.19277723885E+02  0.18311508216E+03  0.18612571288E+03  0.41800000000E+01 0.  1.
         -5    1    3    3    0  502  0.53907232996E+02  0.58691006565E+02  0.61530359122E+02  0.10076746258E+03  0.41800000000E+01 0.  1.
        -11    1    4    4    0    0 -0.45337119498E+02 -0.82327658867E+01  0.11779539948E+03  0.12648710992E+03  0.00000000000E+00 0.  1.
         11    1    4    4    0    0  0.18310077018E+02 -0.69735964563E+02  0.40440227420E+03  0.41077921448E+03  0.00000000000E+00 0. -1.
</event>
<event>
 8    1  0.3528896E-009  0.1459953E+03  0.7561462E-02  0.1205482E+00
         -1   -1    0    0    0  501 -0.00000000000E+00  0.00000000000E+00  0.24276537824E+03  0.24276537824E+03  0.00000000000E+00 0.  1.
          1   -1    0    0  501    0  0.00000000000E+00 -0.00000000000E+00 -0.10492138422E+03  0.10492138422E+03  0.00000000000E+00 0. -1.
         25    2    1    2    0    0  0.99382127880E+02  0.60849923743E+02  0.63235823421E+02  0.18227877630E+03  0.12508901775E+03 0.  0.
         23    2    1    2    0    0 -0.99382127880E+02 -0.60849923743E+02  0.74608170605E+02  0.16540798617E+03  0.90630580960E+02 0.  0.
          5    1    3    3  502    0 -0.20231818198E+02  0.51161169202E+01 -0.17472769264E+02  0.27536724310E+02  0.41800000000E+01 0.  1.
         -5    1    3    3    0  502  0.11961394608E+03  0.55733806823E+02  0.80708592685E+02  0.15474205199E+03  0.41800000000E+01 0.  1.
        -11    1    4    4    0    0 -0.93729934945E+02 -0.17979617869E+02  0.76215702605E+02  0.12213681135E+03  0.00000000000E+00 0.  1.
         11    1    4    4    0    0 -0.56521929352E+01 -0.42870305874E+02 -0.16075320004E+01  0.43271174815E+02  0.00000000000E+00 0. -1.
</event>
<event>
 8    1  0.3528896E-009  0.1068530E+03  0.7561462E-02  0.1266511E+00
         -3   -1    0    0    0  501 -0.00000000000E+00  0.00000000000E+00  0.15761724901E+03  0.15761724901E+03  0.00000000000E+00 0.  1.
          3   -1    0    0  501    0  0.00000000000E+00 -0.00000000000E+00 -0.81094194912E+02  0.81094194912E+02  0.00000000000E+00 0. -1.
         25    2    1    2    0    0 -0.52022970375E+01  0.29528526840E+02  0.61893983855E+02  0.14274815973E+03  0.12508866486E+03 0.  0.
         23    2    1    2    0    0  0.52022970375E+01 -0.29528526840E+02  0.14629070239E+02  0.95963284192E+02  0.89977466207E+02 0.  0.
          5    1    3    3  502    0  0.39643126517E+02 -0.27079294997E+02  0.49989498909E+02  0.69435495957E+02  0.41800000000E+01 0.  1.
         -5    1    3    3    0  502 -0.44845423555E+02  0.56607821837E+02  0.11904484945E+02  0.73312663768E+02  0.41800000000E+01 0.  1.
        -11    1    4    4    0    0 -0.84013587582E+01 -0.59590056781E+02  0.79591523940E+00  0.60184642370E+02  0.00000000000E+00 0. -1.
         11    1    4    4    0    0  0.13603655796E+02  0.30061529941E+02  0.13833155000E+02  0.35778641822E+02  0.00000000000E+00 0.  1.
</event>
<event>
 8    1  0.3528896E-009  0.1059798E+03  0.7561462E-02  0.1268201E+00
         -2   -1    0    0    0  501 -0.00000000000E+00  0.00000000000E+00  0.85038561882E+02  0.85038561882E+02  0.00000000000E+00 0.  1.
          2   -1    0    0  501    0  0.00000000000E+00 -0.00000000000E+00 -0.18689724383E+03  0.18689724383E+03  0.00000000000E+00 0. -1.
         25    2    1    2    0    0 -0.58868251151E+02  0.73110600058E+01 -0.32405133102E+02  0.14218630262E+03  0.12509168402E+03 0.  0.
         23    2    1    2    0    0  0.58868251151E+02 -0.73110600058E+01 -0.69453548844E+02  0.12974950309E+03  0.92153217594E+02 0.  0.
          5    1    3    3  502    0 -0.25901504611E+02  0.59757906844E+02  0.11331141954E+02  0.66240188326E+02  0.41800000000E+01 0.  1.
         -5    1    3    3    0  502 -0.32966746540E+02 -0.52446846839E+02 -0.43736275057E+02  0.75946114296E+02  0.41800000000E+01 0.  1.
        -11    1    4    4    0    0  0.21201960806E+02  0.26537306697E+02 -0.71404069444E+02  0.79071441886E+02  0.00000000000E+00 0. -1.
         11    1    4    4    0    0  0.37666290345E+02 -0.33848366702E+02  0.19505205998E+01  0.50678061204E+02  0.00000000000E+00 0.  1.
</event>
<event>
 8    1  0.3528896E-009  0.1007190E+03  0.7561462E-02  0.1278791E+00
         -2   -1    0    0    0  501 -0.00000000000E+00  0.00000000000E+00  0.90688980179E+01  0.90688980179E+01  0.00000000000E+00 0.  1.
          2   -1    0    0  501    0  0.00000000000E+00 -0.00000000000E+00 -0.19438867475E+04  0.19438867475E+04  0.00000000000E+00 0. -1.
         25    2    1    2    0    0  0.22000740826E+02  0.55616417065E+01 -0.15938984652E+04  0.15989606448E+04  0.12509141375E+03 0.  0.
         23    2    1    2    0    0 -0.22000740826E+02 -0.55616417065E+01 -0.34091938423E+03  0.35399500067E+03  0.92582231005E+02 0.  0.
          5    1    3    3  502    0 -0.40929044867E+02 -0.79010090531E+01 -0.24765276075E+03  0.25117120648E+03  0.41800000000E+01 0.  1.
         -5    1    3    3    0  502  0.62929785693E+02  0.13462650760E+02 -0.13462457045E+04  0.13477894384E+04  0.41800000000E+01 0.  1.
        -11    1    4    4    0    0 -0.57764588355E+02 -0.11226027686E+02 -0.19794422528E+03  0.20650590231E+03  0.00000000000E+00 0.  1.
         11    1    4    4    0    0  0.35763847529E+02  0.56643859792E+01 -0.14297515895E+03  0.14748909836E+03  0.00000000000E+00 0. -1.
</event>
<event>
 8    1  0.3528896E-009  0.1053564E+03  0.7561462E-02  0.1269419E+00
          1   -1    0    0  501    0  0.00000000000E+00  0.00000000000E+00  0.80963963870E+03  0.80963963870E+03  0.00000000000E+00 0. -1.
         -1   -1    0    0    0  501 -0.00000000000E+00 -0.00000000000E+00 -0.24183620382E+02  0.24183620382E+02  0.00000000000E+00 0.  1.
         25    2    1    2    0    0  0.38749948846E+02 -0.68198425980E+02  0.31004554500E+03  0.34340640542E+03  0.12508851051E+03 0.  0.
         23    2    1    2    0    0 -0.38749948846E+02  0.68198425980E+02  0.47541047331E+03  0.49041685366E+03  0.91329011710E+02 0.  0.
          5    1    3    3  502    0  0.33305156309E+02 -0.74067383330E+02  0.83054178464E+02  0.11623544929E+03  0.41800000000E+01 0. -1.
         -5    1    3    3    0  502  0.54447925368E+01  0.58689573503E+01  0.22699136654E+03  0.22717095613E+03  0.41800000000E+01 0. -1.
        -11    1    4    4    0    0 -0.48321509964E+01 -0.22770084047E+02  0.96037852968E+02  0.98818498336E+02  0.00000000000E+00 0.  1.
         11    1    4    4    0    0 -0.33917797850E+02  0.90968510027E+02  0.37937262034E+03  0.39159835533E+03  0.00000000000E+00 0. -1.
</event>
<event>
 8    1  0.3528896E-009  0.1149988E+03  0.7561462E-02  0.1251583E+00
          1   -1    0    0  501    0  0.00000000000E+00  0.00000000000E+00  0.10522111946E+03  0.10522111946E+03  0.00000000000E+00 0. -1.
         -1   -1    0    0    0  501 -0.00000000000E+00 -0.00000000000E+00 -0.17003957530E+03  0.17003957530E+03  0.00000000000E+00 0.  1.
         25    2    1    2    0    0 -0.23501455137E+02 -0.72786811189E+02 -0.42738501093E+02  0.15272564677E+03  0.12509318699E+03 0.  0.
         23    2    1    2    0    0  0.23501455137E+02  0.72786811189E+02 -0.22079954752E+02  0.12253504798E+03  0.93150820211E+02 0.  0.
          5    1    3    3  502    0  0.33631077332E+02 -0.77828612046E+02 -0.43134408493E+02  0.95217602425E+02  0.41800000000E+01 0. -1.
         -5    1    3    3    0  502 -0.57132532469E+02  0.50418008567E+01  0.39590740009E+00  0.57508044349E+02  0.41800000000E+01 0. -1.
        -11    1    4    4    0    0 -0.54671111276E+01  0.51163912077E+02 -0.53798140225E+02  0.74443771363E+02  0.00000000000E+00 0.  1.
         11    1    4    4    0    0  0.28968566264E+02  0.21622899112E+02  0.31718185473E+02  0.48091276621E+02  0.00000000000E+00 0. -1.
</event>
<event>
 8    1  0.3528896E-009  0.1273431E+03  0.7561462E-02  0.1231452E+00
          1   -1    0    0  501    0  0.00000000000E+00  0.00000000000E+00  0.20771729476E+03  0.20771729476E+03  0.00000000000E+00 0. -1.
         -1   -1    0    0    0  501 -0.00000000000E+00 -0.00000000000E+00 -0.11914135688E+03  0.11914135688E+03  0.00000000000E+00 0.  1.
         25    2    1    2    0    0 -0.27942215344E+02  0.87905853322E+02 -0.21269580954E+02  0.15687095894E+03  0.12509155142E+03 0.  0.
         23    2    1    2    0    0  0.27942215344E+02 -0.87905853322E+02  0.10984551884E+03  0.16998769270E+03  0.91222646389E+02 0.  0.
          5    1    3    3  502    0 -0.61312321989E+02  0.10077067787E+03 -0.25066843500E+02  0.12066378657E+03  0.41800000000E+01 0.  1.
         -5    1    3    3    0  502  0.33370106645E+02 -0.12864824547E+02  0.37972625463E+01  0.36207172369E+02  0.41800000000E+01 0.  1.
        -11    1    4    4    0    0 -0.10493915832E+02 -0.16508010141E+02  0.81926759353E+02  0.84229629979E+02  0.00000000000E+00 0. -1.
         11    1    4    4    0    0  0.38436131176E+02 -0.71397843181E+02  0.27918759487E+02  0.85758062723E+02  0.00000000000E+00 0.  1.
</event>
<event>
 8    1  0.3528896E-009  0.1328942E+03  0.7561462E-02  0.1223223E+00
          1   -1    0    0  501    0  0.00000000000E+00  0.00000000000E+00  0.18256627619E+03  0.18256627619E+03  0.00000000000E+00 0. -1.
         -1   -1    0    0    0  501 -0.00000000000E+00 -0.00000000000E+00 -0.12177256973E+03  0.12177256973E+03  0.00000000000E+00 0.  1.
         25    2    1    2    0    0  0.40791441964E+02 -0.94989722812E+02  0.39277078835E+02  0.16696580419E+03  0.12509157313E+03 0.  0.
         23    2    1    2    0    0 -0.40791441964E+02  0.94989722812E+02  0.21516627626E+02  0.13737304173E+03  0.87871486570E+02 0.  0.
          5    1    3    3  502    0 -0.43953430500E+02 -0.19024049224E+02  0.16470378704E+02  0.50818936198E+02  0.41800000000E+01 0.  1.
         -5    1    3    3    0  502  0.84744872465E+02 -0.75965673588E+02  0.22806700130E+02  0.11614686799E+03  0.41800000000E+01 0.  1.
        -11    1    4    4    0    0 -0.20992704454E+02  0.60750834073E+02  0.55734280956E+02  0.85074482394E+02  0.00000000000E+00 0. -1.
         11    1    4    4    0    0 -0.19798737510E+02  0.34238888738E+02 -0.34217653330E+02  0.52298559334E+02  0.00000000000E+00 0.  1.
</event>
<event>
 8    1  0.3528896E-009  0.1060985E+03  0.7561462E-02  0.1267970E+00
         -2   -1    0    0    0  501 -0.00000000000E+00  0.00000000000E+00  0.18974024480E+03  0.18974024480E+03  0.00000000000E+00 0.  1.
          2   -1    0    0  501    0  0.00000000000E+00 -0.00000000000E+00 -0.85988328708E+02  0.85988328708E+02  0.00000000000E+00 0. -1.
         25    2    1    2    0    0 -0.16057591646E+02  0.61795695510E+02  0.82878572221E+02  0.16307332109E+03  0.12508995197E+03 0.  0.
         23    2    1    2    0    0  0.16057591646E+02 -0.61795695510E+02  0.20873343875E+02  0.11265525242E+03  0.90437576158E+02 0.  0.
          5    1    3    3  502    0 -0.49094501298E+02  0.53781134433E+02 -0.49219799397E+00  0.72941038774E+02  0.41800000000E+01 0. -1.
         -5    1    3    3    0  502  0.33036909652E+02  0.80145610765E+01  0.83370770215E+02  0.90132282312E+02  0.41800000000E+01 0. -1.
        -11    1    4    4    0    0 -0.25082973051E+02 -0.58599239583E+02  0.29913649428E+02  0.70412021977E+02  0.00000000000E+00 0.  1.
         11    1    4    4    0    0  0.41140564698E+02 -0.31964559263E+01 -0.90403055531E+01  0.42243230447E+02  0.00000000000E+00 0. -1.
</event>
<event>
 8    1  0.3528896E-009  0.1209406E+03  0.7561462E-02  0.1241553E+00
          1   -1    0    0  501    0  0.00000000000E+00  0.00000000000E+00  0.19969257151E+02  0.19969257151E+02  0.00000000000E+00 0. -1.
         -1   -1    0    0    0  501 -0.00000000000E+00 -0.00000000000E+00 -0.80852629890E+03  0.80852629890E+03  0.00000000000E+00 0.  1.
         25    2    1    2    0    0 -0.20679065255E+01  0.59231239140E+02 -0.33020833124E+03  0.35804749580E+03  0.12509137181E+03 0.  0.
         23    2    1    2    0    0  0.20679065255E+01 -0.59231239140E+02 -0.45834871051E+03  0.47044806025E+03  0.87893236598E+02 0.  0.
          5    1    3    3  502    0  0.14158548080E+02  0.96260622412E+02 -0.24485978445E+03  0.26351538541E+03  0.41800000000E+01 0.  1.
         -5    1    3    3    0  502 -0.16226454605E+02 -0.37029383272E+02 -0.85348546795E+02  0.94532110389E+02  0.41800000000E+01 0.  1.
        -11    1    4    4    0    0 -0.25531070303E+02 -0.69780602684E+02 -0.28116326013E+03  0.29081600181E+03  0.00000000000E+00 0. -1.
         11    1    4    4    0    0  0.27598976829E+02  0.10549363544E+02 -0.17718545037E+03  0.17963205843E+03  0.00000000000E+00 0.  1.
</event>
<event>
 8    1  0.3528896E-009  0.3449069E+03  0.7561462E-02  0.1064725E+00
         -2   -1    0    0    0  501 -0.00000000000E+00  0.00000000000E+00  0.96987704970E+02  0.96987704970E+02  0.00000000000E+00 0. -1.
          2   -1    0    0  501    0  0.00000000000E+00 -0.00000000000E+00 -0.12988364171E+04  0.12988364171E+04  0.00000000000E+00 0.  1.
         25    2    1    2    0    0 -0.30154071653E+03 -0.13928375367E+03 -0.72888403556E+03  0.81070726038E+03  0.12509019536E+03 0.  0.
         23    2    1    2    0    0  0.30154071653E+03  0.13928375367E+03 -0.47296467657E+03  0.58511686170E+03  0.91320254019E+02 0.  0.
          5    1    3    3  502    0 -0.89910282542E+02 -0.94571759914E+02 -0.19516011909E+03  0.23480336702E+03  0.41800000000E+01 0. -1.
         -5    1    3    3    0  502 -0.21163043398E+03 -0.44711993758E+02 -0.53372391647E+03  0.57590389336E+03  0.41800000000E+01 0. -1.
        -11    1    4    4    0    0  0.16912840772E+03  0.12380573137E+03 -0.31578149347E+03  0.37901217531E+03  0.00000000000E+00 0. -1.
         11    1    4    4    0    0  0.13241230881E+03  0.15478022304E+02 -0.15718318310E+03  0.20610468638E+03  0.00000000000E+00 0.  1.
</event>
<event>
 8    1  0.3528896E-009  0.3794691E+03  0.7561462E-02  0.1051130E+00
          1   -1    0    0  501    0  0.00000000000E+00  0.00000000000E+00  0.65774579253E+03  0.65774579253E+03  0.00000000000E+00 0. -1.
         -1   -1    0    0    0  501 -0.00000000000E+00 -0.00000000000E+00 -0.28277140441E+03  0.28277140441E+03  0.00000000000E+00 0.  1.
         25    2    1    2    0    0 -0.31278358592E+03 -0.20407565618E+03 -0.13464347800E+02  0.39409311363E+03  0.12509056111E+03 0.  0.
         23    2    1    2    0    0  0.31278358592E+03  0.20407565618E+03  0.38843873592E+03  0.54642408332E+03  0.90632125653E+02 0.  0.
          5    1    3    3  502    0 -0.66433506787E+02 -0.21285277469E+02  0.43140075008E+02  0.82128024040E+02  0.41800000000E+01 0.  1.
         -5    1    3    3    0  502 -0.24635007913E+03 -0.18279037871E+03 -0.56604422807E+02  0.31196508959E+03  0.41800000000E+01 0.  1.
        -11    1    4    4    0    0  0.12593419632E+02  0.36190866479E+02  0.23523414337E+02  0.44963585895E+02  0.00000000000E+00 0.  1.
         11    1    4    4    0    0  0.30019016629E+03  0.16788478970E+03  0.36491532158E+03  0.50146049742E+03  0.00000000000E+00 0. -1.
</event>
<event>
 8    1  0.3528896E-009  0.1341725E+03  0.7561462E-02  0.1221393E+00
         -1   -1    0    0    0  501 -0.00000000000E+00  0.00000000000E+00  0.77541973544E+02  0.77541973544E+02  0.00000000000E+00 0.  1.
          1   -1    0    0  501    0  0.00000000000E+00 -0.00000000000E+00 -0.23352390091E+03  0.23352390091E+03  0.00000000000E+00 0. -1.
         25    2    1    2    0    0  0.79313716762E+02 -0.34631992791E+01 -0.84447526622E+02  0.17053443170E+03  0.12509175923E+03 0.  0.
         23    2    1    2    0    0 -0.79313716762E+02  0.34631992791E+01 -0.71534400745E+02  0.14053144275E+03  0.91264760429E+02 0.  0.
          5    1    3    3  502    0 -0.23171959863E+01 -0.52437443300E+02 -0.25684934918E+02  0.58585349183E+02  0.41800000000E+01 0. -1.
         -5    1    3    3    0  502  0.81630912748E+02  0.48974244021E+02 -0.58762591703E+02  0.11194908252E+03  0.41800000000E+01 0. -1.
        -11    1    4    4    0    0 -0.86651191631E+02 -0.25659603161E+02 -0.59373664972E+02  0.10812990492E+03  0.00000000000E+00 0.  1.
         11    1    4    4    0    0  0.73374748696E+01  0.29122802440E+02 -0.12160735773E+02  0.32401537833E+02  0.00000000000E+00 0. -1.
</event>
<event>
 8    1  0.3528896E-009  0.1849700E+03  0.7561462E-02  0.1163078E+00
          2   -1    0    0  501    0  0.00000000000E+00  0.00000000000E+00  0.66275739918E+03  0.66275739918E+03  0.00000000000E+00 0. -1.
         -2   -1    0    0    0  501 -0.00000000000E+00 -0.00000000000E+00 -0.54529459332E+02  0.54529459332E+02  0.00000000000E+00 0.  1.
         25    2    1    2    0    0 -0.31397085937E+02 -0.15046983262E+03  0.27943837513E+03  0.34258444573E+03  0.12510535332E+03 0.  0.
         23    2    1    2    0    0  0.31397085937E+02  0.15046983262E+03  0.32878956472E+03  0.37470241278E+03  0.93125575127E+02 0.  0.
          5    1    3    3  502    0 -0.19745349910E+02 -0.17197705882E+03  0.23889553185E+03  0.29505005531E+03  0.41800000000E+01 0.  1.
         -5    1    3    3    0  502 -0.11651736027E+02  0.21507226201E+02  0.40542843277E+02  0.47534390416E+02  0.41800000000E+01 0.  1.
        -11    1    4    4    0    0 -0.11211540683E+02  0.11765307685E+03  0.16994812011E+03  0.20700316100E+03  0.00000000000E+00 0.  1.
         11    1    4    4    0    0  0.42608626619E+02  0.32816755770E+02  0.15884144461E+03  0.16769925178E+03  0.00000000000E+00 0. -1.
</event>
<event>
 8    1  0.3528896E-009  0.1166891E+03  0.7561462E-02  0.1248661E+00
          1   -1    0    0  501    0  0.00000000000E+00  0.00000000000E+00  0.74189553757E+03  0.74189553757E+03  0.00000000000E+00 0. -1.
         -1   -1    0    0    0  501 -0.00000000000E+00 -0.00000000000E+00 -0.32839361643E+02  0.32839361643E+02  0.00000000000E+00 0.  1.
         25    2    1    2    0    0  0.82890372573E+02  0.39630398907E+02  0.51994451442E+03  0.54261600915E+03  0.12509377656E+03 0.  0.
         23    2    1    2    0    0 -0.82890372573E+02 -0.39630398907E+02  0.18911166151E+03  0.23211889006E+03  0.98359423650E+02 0.  0.
          5    1    3    3  502    0  0.81009963905E+02  0.71913437329E+02  0.47424117110E+03  0.48647334715E+03  0.41800000000E+01 0. -1.
         -5    1    3    3    0  502  0.18804086684E+01 -0.32283038422E+02  0.45703343316E+02  0.56142662003E+02  0.41800000000E+01 0. -1.
        -11    1    4    4    0    0 -0.48027431547E+02 -0.28112414205E+02  0.20105948654E+02  0.59170864323E+02  0.00000000000E+00 0.  1.
         11    1    4    4    0    0 -0.34862941026E+02 -0.11517984702E+02  0.16900571285E+03  0.17294802573E+03  0.00000000000E+00 0. -1.
</event>
<event>
 8    1  0.3528896E-009  0.1492603E+03  0.7561462E-02  0.1201385E+00
         -1   -1    0    0    0  501 -0.00000000000E+00  0.00000000000E+00  0.61443319900E+02  0.61443319900E+02  0.00000000000E+00 0.  1.
          1   -1    0    0  501    0  0.00000000000E+00 -0.00000000000E+00 -0.44508028970E+03  0.44508028970E+03  0.00000000000E+00 0. -1.
         25    2    1    2    0    0 -0.74018646168E+02 -0.97530160745E+02 -0.24223481053E+03  0.29885801202E+03  0.12509003032E+03 0.  0.
         23    2    1    2    0    0  0.74018646168E+02  0.97530160745E+02 -0.14140215928E+03  0.20766559758E+03  0.90219385580E+02 0.  0.
          5    1    3    3  502    0 -0.60974196405E+02  0.28648291550E+01 -0.14936732465E+03  0.16141291753E+03  0.41800000000E+01 0. -1.
         -5    1    3    3    0  502 -0.13044449763E+02 -0.10039498990E+03 -0.92867485877E+02  0.13744509449E+03  0.41800000000E+01 0. -1.
        -11    1    4    4    0    0  0.81929463191E+02  0.71286956203E+02 -0.14374282170E+03  0.18015622625E+03  0.00000000000E+00 0.  1.
         11    1    4    4    0    0 -0.79108170230E+01  0.26243204542E+02  0.23406624275E+01  0.27509371334E+02  0.00000000000E+00 0. -1.
</event>
<event>
 8    1  0.3528896E-009  0.3084545E+03  0.7561462E-02  0.1081089E+00
         -2   -1    0    0    0  501 -0.00000000000E+00  0.00000000000E+00  0.15041341283E+03  0.15041341283E+03  0.00000000000E+00 0.  1.
          2   -1    0    0  501    0  0.00000000000E+00 -0.00000000000E+00 -0.70883607394E+03  0.70883607394E+03  0.00000000000E+00 0. -1.
         25    2    1    2    0    0  0.18231459498E+03 -0.23683995432E+03 -0.18445372015E+03  0.37283073302E+03  0.12509118715E+03 0.  0.
         23    2    1    2    0    0 -0.18231459498E+03  0.23683995432E+03 -0.37396894097E+03  0.48641875375E+03  0.86131641626E+02 0.  0.
          5    1    3    3  502    0  0.15807740562E+03 -0.23415751677E+03 -0.12603173228E+03  0.30938597054E+03  0.41800000000E+01 0.  1.
         -5    1    3    3    0  502  0.24237189362E+02 -0.26824375505E+01 -0.58421987868E+02  0.63444762477E+02  0.41800000000E+01 0.  1.
        -11    1    4    4    0    0 -0.66321628638E+02  0.15220943821E+03 -0.22365924590E+03  0.27854933097E+03  0.00000000000E+00 0.  1.
         11    1    4    4    0    0 -0.11599296635E+03  0.84630516112E+02 -0.15030969506E+03  0.20786942279E+03  0.00000000000E+00 0. -1.
</event>
<event>
 8    1  0.3528896E-009  0.1136814E+03  0.7561462E-02  0.1253900E+00
          2   -1    0    0  501    0  0.00000000000E+00  0.00000000000E+00  0.75316496162E+03  0.75316496162E+03  0.00000000000E+00 0. -1.
         -2   -1    0    0    0  501 -0.00000000000E+00 -0.00000000000E+00 -0.21748568438E+02  0.21748568438E+02  0.00000000000E+00 0.  1.
         25    2    1    2    0    0  0.15424067364E+02  0.68278942001E+02  0.42961148853E+03  0.45289392359E+03  0.12508780586E+03 0.  0.
         23    2    1    2    0    0 -0.15424067364E+02 -0.68278942001E+02  0.30180490466E+03  0.32201960647E+03  0.87809513731E+02 0.  0.
          5    1    3    3  502    0  0.53441515506E+02  0.47504944756E+02  0.11639186834E+03  0.13666475321E+03  0.41800000000E+01 0. -1.
         -5    1    3    3    0  502 -0.38017448143E+02  0.20773997245E+02  0.31321962019E+03  0.31622917038E+03  0.41800000000E+01 0. -1.
        -11    1    4    4    0    0 -0.28873901193E+02  0.11668382075E+02  0.78318241737E+02  0.84282858869E+02  0.00000000000E+00 0.  1.
         11    1    4    4    0    0  0.13449833830E+02 -0.79947324076E+02  0.22348666292E+03  0.23773674760E+03  0.00000000000E+00 0. -1.
</event>
<event>
 8    1  0.3528896E-009  0.1004244E+03  0.7561462E-02  0.1279406E+00
         -2   -1    0    0    0  501 -0.00000000000E+00  0.00000000000E+00  0.11199503302E+03  0.11199503302E+03  0.00000000000E+00 0.  1.
          2   -1    0    0  501    0  0.00000000000E+00 -0.00000000000E+00 -0.12100988452E+03  0.12100988452E+03  0.00000000000E+00 0. -1.
         25    2    1    2    0    0  0.29998711987E+02  0.26481196074E+02  0.12962772053E+02  0.13197502546E+03  0.12509275527E+03 0.  0.
         23    2    1    2    0    0 -0.29998711987E+02 -0.26481196074E+02 -0.21977623560E+02  0.10102989208E+03  0.90126836680E+02 0.  0.
          5    1    3    3  502    0  0.30611852726E+01 -0.40553788859E+02 -0.27302217854E+02  0.49161612523E+02  0.41800000000E+01 0. -1.
         -5    1    3    3    0  502  0.26937526714E+02  0.67034984933E+02  0.40264989907E+02  0.82813412939E+02  0.41800000000E+01 0. -1.
        -11    1    4    4    0    0 -0.24908372351E+02  0.25338166794E+02  0.13515439318E+02  0.38014692023E+02  0.00000000000E+00 0.  1.
         11    1    4    4    0    0 -0.50903396361E+01 -0.51819362869E+02 -0.35493062878E+02  0.63015200057E+02  0.00000000000E+00 0. -1.
</event>
<event>
 7    1  0.3528896E-009  0.1024043E+03  0.7561462E-02  0.1275320E+00
          2   -1    0    0  501    0  0.00000000000E+00  0.00000000000E+00  0.37190410049E+03  0.37190410049E+03  0.00000000000E+00 0. -1.
         -2   -1    0    0    0  501 -0.00000000000E+00 -0.00000000000E+00 -0.51926413019E+02  0.51926413019E+02  0.00000000000E+00 0.  1.
         23    2    1    2    0    0 -0.31029859051E+02 -0.66467935928E+02  0.85524106277E+02  0.14820584704E+03  0.96279601598E+02 0.  0.
          5    1    1    2  502    0  0.30472075819E+02  0.61949599858E+01  0.20681771454E+03  0.20918404428E+03  0.41800000000E+01 0. -1.
         -5    1    1    2    0  502  0.55778323198E+00  0.60272975942E+02  0.27635866658E+02  0.66440622190E+02  0.41800000000E+01 0. -1.
        -11    1    3    3    0    0 -0.59617696349E+02 -0.58051942712E+02  0.36568347770E+02  0.90893024096E+02  0.00000000000E+00 0. -1.
         11    1    3    3    0    0  0.28587837298E+02 -0.84159932158E+01  0.48955758507E+02  0.57312822947E+02  0.00000000000E+00 0.  1.
</event>
<event>
 8    1  0.3528896E-009  0.8232035E+02  0.7561462E-02  0.1322593E+00
          1   -1    0    0  501    0  0.00000000000E+00  0.00000000000E+00  0.33966846528E+03  0.33966846528E+03  0.00000000000E+00 0. -1.
         -1   -1    0    0    0  501 -0.00000000000E+00 -0.00000000000E+00 -0.46964850925E+02  0.46964850925E+02  0.00000000000E+00 0.  1.
         25    2    1    2    0    0 -0.40131517461E+02 -0.30669860401E+02  0.23076517104E+03  0.26730218476E+03  0.12508682897E+03 0.  0.
         23    2    1    2    0    0  0.40131517461E+02  0.30669860401E+02  0.61938443314E+02  0.11933113145E+03  0.88613594563E+02 0.  0.
          5    1    3    3  502    0 -0.32674222934E+02  0.15267648292E+02  0.21491603935E+03  0.21796119448E+03  0.41800000000E+01 0.  1.
         -5    1    3    3    0  502 -0.74572945270E+01 -0.45937508693E+02  0.15849131692E+02  0.49340990281E+02  0.41800000000E+01 0.  1.
        -11    1    4    4    0    0  0.15859756431E+02  0.48799817009E+02  0.10509958025E+01  0.51323080639E+02  0.00000000000E+00 0.  1.
         11    1    4    4    0    0  0.24271761029E+02 -0.18129956608E+02  0.60887447511E+02  0.68008050806E+02  0.00000000000E+00 0. -1.
</event>
<event>
 8    1  0.3528896E-009  0.7901172E+02  0.7561462E-02  0.1331880E+00
         -1   -1    0    0    0  501 -0.00000000000E+00  0.00000000000E+00  0.52935281162E+02  0.52935281162E+02  0.00000000000E+00 0.  1.
          1   -1    0    0  501    0  0.00000000000E+00 -0.00000000000E+00 -0.33116118942E+03  0.33116118942E+03  0.00000000000E+00 0. -1.
         25    2    1    2    0    0  0.61384150313E+02  0.42144019766E+02 -0.13034353033E+03  0.19540165504E+03  0.12509291980E+03 0.  0.
         23    2    1    2    0    0 -0.61384150313E+02 -0.42144019766E+02 -0.14788237793E+03  0.18869481554E+03  0.90511896438E+02 0.  0.
          5    1    3    3  502    0  0.64000331303E+02  0.32324916463E+02 -0.15366510675E+03  0.16962128423E+03  0.41800000000E+01 0.  1.
         -5    1    3    3    0  502 -0.26161809903E+01  0.98191033029E+01  0.23321576421E+02  0.25780370816E+02  0.41800000000E+01 0.  1.
        -11    1    4    4    0    0 -0.37142951230E+02 -0.19095677665E+02 -0.51324885094E+01  0.42078333735E+02  0.00000000000E+00 0.  1.
         11    1    4    4    0    0 -0.24241199082E+02 -0.23048342101E+02 -0.14274988942E+03  0.14661648180E+03  0.00000000000E+00 0. -1.
</event>
<event>
 8    1  0.3528896E-009  0.1145640E+03  0.7561462E-02  0.1252344E+00
         -2   -1    0    0    0  501 -0.00000000000E+00  0.00000000000E+00  0.85023892848E+02  0.85023892848E+02  0.00000000000E+00 0.  1.
          2   -1    0    0  501    0  0.00000000000E+00 -0.00000000000E+00 -0.20471868092E+03  0.20471868092E+03  0.00000000000E+00 0. -1.
         25    2    1    2    0    0  0.14365806526E+02 -0.61962501638E+02 -0.24057249239E+02  0.14239240049E+03  0.12510442226E+03 0.  0.
         23    2    1    2    0    0 -0.14365806526E+02  0.61962501638E+02 -0.95637538834E+02  0.14735017328E+03  0.92302799119E+02 0.  0.
          5    1    3    3  502    0  0.61412207423E+02 -0.35281227921E+02  0.18641676021E+02  0.73356722589E+02  0.41800000000E+01 0.  1.
         -5    1    3    3    0  502 -0.47046400897E+02 -0.26681273717E+02 -0.42698925260E+02  0.69035677898E+02  0.41800000000E+01 0.  1.
        -11    1    4    4    0    0 -0.20051316082E+02 -0.16068109898E+02 -0.26560543370E+01  0.25832035479E+02  0.00000000000E+00 0. -1.
         11    1    4    4    0    0  0.56855095560E+01  0.78030611536E+02 -0.92981484497E+02  0.12151813780E+03  0.00000000000E+00 0.  1.
</event>
<event>
 8    1  0.3528896E-009  0.9713404E+02  0.7561462E-02  0.1286441E+00
          3   -1    0    0  501    0  0.00000000000E+00  0.00000000000E+00  0.12001581516E+03  0.12001581516E+03  0.00000000000E+00 0. -1.
         -3   -1    0    0    0  501 -0.00000000000E+00 -0.00000000000E+00 -0.17613543537E+03  0.17613543537E+03  0.00000000000E+00 0.  1.
         25    2    1    2    0    0 -0.56226777591E+02 -0.26065254941E+02  0.43539847081E+02  0.14623116539E+03  0.12508791874E+03 0.  0.
         23    2    1    2    0    0  0.56226777591E+02  0.26065254941E+02 -0.99659467298E+02  0.14992008514E+03  0.93290805943E+02 0.  0.
          5    1    3    3  502    0 -0.14904538185E+02  0.26695033764E+02 -0.32480902985E+02  0.44802360929E+02  0.41800000000E+01 0. -1.
         -5    1    3    3    0  502 -0.41322239407E+02 -0.52760288705E+02  0.76020750066E+02  0.10142880446E+03  0.41800000000E+01 0. -1.
        -11    1    4    4    0    0  0.16211297865E+02 -0.25973919315E+02 -0.72829115491E+02  0.79003358956E+02  0.00000000000E+00 0.  1.
         11    1    4    4    0    0  0.40015479726E+02  0.52039174256E+02 -0.26830351807E+02  0.70916726187E+02  0.00000000000E+00 0. -1.
</event>
<event>
 8    1  0.3528896E-009  0.9567552E+02  0.7561462E-02  0.1289662E+00
          1   -1    0    0  501    0  0.00000000000E+00  0.00000000000E+00  0.40678098580E+03  0.40678098580E+03  0.00000000000E+00 0. -1.
         -1   -1    0    0    0  501 -0.00000000000E+00 -0.00000000000E+00 -0.39061639468E+02  0.39061639468E+02  0.00000000000E+00 0.  1.
         25    2    1    2    0    0 -0.21114018909E+01 -0.58811113854E+02  0.27120393420E+03  0.30440715328E+03  0.12509570699E+03 0.  0.
         23    2    1    2    0    0  0.21114018909E+01  0.58811113854E+02  0.96515412125E+02  0.14143547199E+03  0.85003310688E+02 0.  0.
          5    1    3    3  502    0 -0.25647642785E+02  0.15986069728E+01  0.52467281617E+00  0.26040445585E+02  0.41800000000E+01 0.  1.
         -5    1    3    3    0  502  0.23536240894E+02 -0.60409720827E+02  0.27067926139E+03  0.27836670769E+03  0.41800000000E+01 0.  1.
        -11    1    4    4    0    0  0.32189030439E+02  0.62244990980E+02  0.50584686484E+02  0.86425592792E+02  0.00000000000E+00 0.  1.
         11    1    4    4    0    0 -0.30077628548E+02 -0.34338771260E+01  0.45930725641E+02  0.55009879196E+02  0.00000000000E+00 0. -1.
</event>
<event>
 8    1  0.3528896E-009  0.1253907E+03  0.7561462E-02  0.1234460E+00
         -2   -1    0    0    0  501 -0.00000000000E+00  0.00000000000E+00  0.17551193956E+02  0.17551193956E+02  0.00000000000E+00 0.  1.
          2   -1    0    0  501    0  0.00000000000E+00 -0.00000000000E+00 -0.10016741862E+04  0.10016741862E+04  0.00000000000E+00 0. -1.
         25    2    1    2    0    0  0.43479232299E+02  0.61326959490E+02 -0.62625933548E+03  0.64303679140E+03  0.12507645748E+03 0.  0.
         23    2    1    2    0    0 -0.43479232299E+02 -0.61326959490E+02 -0.35786365679E+03  0.37618858878E+03  0.88317709874E+02 0.  0.
          5    1    3    3  502    0  0.86669955652E+02  0.47330480099E+02 -0.38345602100E+03  0.39598970693E+03  0.41800000000E+01 0. -1.
         -5    1    3    3    0  502 -0.43190723353E+02  0.13996479390E+02 -0.24280331448E+03  0.24704708446E+03  0.41800000000E+01 0. -1.
        -11    1    4    4    0    0 -0.55530707191E+01 -0.67667564733E+02 -0.29317631935E+03  0.30093535873E+03  0.00000000000E+00 0. -1.
         11    1    4    4    0    0 -0.37926161580E+02  0.63406052437E+01 -0.64687337444E+02  0.75253230048E+02  0.00000000000E+00 0.  1.
</event>
<event>
 8    1  0.3528896E-009  0.1095956E+03  0.7561462E-02  0.1261321E+00
          1   -1    0    0  501    0  0.00000000000E+00  0.00000000000E+00  0.13326660724E+03  0.13326660724E+03  0.00000000000E+00 0. -1.
         -1   -1    0    0    0  501 -0.00000000000E+00 -0.00000000000E+00 -0.12644035677E+03  0.12644035677E+03  0.00000000000E+00 0.  1.
         25    2    1    2    0    0 -0.57480263018E+01 -0.39241433447E+02  0.64716485283E+02  0.14631794929E+03  0.12509112244E+03 0.  0.
         23    2    1    2    0    0  0.57480263018E+01  0.39241433447E+02 -0.57890234809E+02  0.11338901472E+03  0.89066601305E+02 0.  0.
          5    1    3    3  502    0 -0.49202527855E+02  0.15903837046E+02  0.17345540382E+01  0.51906664869E+02  0.41800000000E+01 0. -1.
         -5    1    3    3    0  502  0.43454501554E+02 -0.55145270493E+02  0.62981931245E+02  0.94411284422E+02  0.41800000000E+01 0. -1.
        -11    1    4    4    0    0 -0.41265826084E+02  0.22983955941E+02 -0.22372837257E+02  0.52265423369E+02  0.00000000000E+00 0. -1.
         11    1    4    4    0    0  0.47013852385E+02  0.16257477506E+02 -0.35517397552E+02  0.61123591353E+02  0.00000000000E+00 0.  1.
</event>
<event>
 8    1  0.3528896E-009  0.9786794E+02  0.7561462E-02  0.1284844E+00
         -1   -1    0    0    0  501 -0.00000000000E+00  0.00000000000E+00  0.59351889421E+02  0.59351889421E+02  0.00000000000E+00 0.  1.
          1   -1    0    0  501    0  0.00000000000E+00 -0.00000000000E+00 -0.22199270909E+03  0.22199270909E+03  0.00000000000E+00 0. -1.
         25    2    1    2    0    0  0.29849751803E+02 -0.24779897837E+02 -0.94236646108E+02  0.16133538815E+03  0.12507402200E+03 0.  0.
         23    2    1    2    0    0 -0.29849751803E+02  0.24779897837E+02 -0.68404173557E+02  0.12000921036E+03  0.90653342966E+02 0.  0.
          5    1    3    3  502    0 -0.46676430496E+02 -0.26833910001E+02 -0.44198264620E+02  0.69783285142E+02  0.41800000000E+01 0.  1.
         -5    1    3    3    0  502  0.76526182299E+02  0.20540121635E+01 -0.50038381488E+02  0.91552103008E+02  0.41800000000E+01 0.  1.
        -11    1    4    4    0    0 -0.14106464694E+02  0.40458616738E+02 -0.83012543149E+02  0.93418276235E+02  0.00000000000E+00 0. -1.
         11    1    4    4    0    0 -0.15743287109E+02 -0.15678718901E+02  0.14608369592E+02  0.26590934122E+02  0.00000000000E+00 0.  1.
</event>
<event>
 8    1  0.3528896E-009  0.2229236E+03  0.7561462E-02  0.1131722E+00
         -2   -1    0    0    0  501 -0.00000000000E+00  0.00000000000E+00  0.46549116777E+02  0.46549116777E+02  0.00000000000E+00 0.  1.
          2   -1    0    0  501    0  0.00000000000E+00 -0.00000000000E+00 -0.11716545159E+04  0.11716545159E+04  0.00000000000E+00 0. -1.
         25    2    1    2    0    0  0.18956708232E+03 -0.71617751885E+02 -0.47595707389E+03  0.53220949360E+03  0.12508808019E+03 0.  0.
         23    2    1    2    0    0 -0.18956708232E+03  0.71617751885E+02 -0.64914832525E+03  0.68599413910E+03  0.90164458685E+02 0.  0.
          5    1    3    3  502    0  0.11591266946E+03 -0.10488481700E+03 -0.29196039022E+03  0.33120222469E+03  0.41800000000E+01 0. -1.
         -5    1    3    3    0  502  0.73654412866E+02  0.33267065114E+02 -0.18399668366E+03  0.20100726891E+03  0.41800000000E+01 0. -1.
        -11    1    4    4    0    0 -0.99909669009E+02  0.63804980862E+02 -0.24802726653E+03  0.27490096851E+03  0.00000000000E+00 0.  1.
         11    1    4    4    0    0 -0.89657413314E+02  0.78127710238E+01 -0.40112105872E+03  0.41109317059E+03  0.00000000000E+00 0. -1.
</event>
<event>
 8    1  0.3528896E-009  0.7115720E+02  0.7561462E-02  0.1356202E+00
          1   -1    0    0  501    0  0.00000000000E+00  0.00000000000E+00  0.14920153643E+03  0.14920153643E+03  0.00000000000E+00 0. -1.
         -1   -1    0    0    0  501 -0.00000000000E+00 -0.00000000000E+00 -0.82584789154E+02  0.82584789154E+02  0.00000000000E+00 0.  1.
         25    2    1    2    0    0 -0.16382984028E+02  0.20625644527E+02  0.45186366373E+02  0.13558382385E+03  0.12508935289E+03 0.  0.
         23    2    1    2    0    0  0.16382984028E+02 -0.20625644527E+02  0.21430380907E+02  0.96202501739E+02  0.90010225737E+02 0.  0.
          5    1    3    3  502    0  0.12497808394E+02  0.12716594518E+02  0.84232530034E+02  0.86200339366E+02  0.41800000000E+01 0. -1.
         -5    1    3    3    0  502 -0.28880792422E+02  0.79090500091E+01 -0.39046163661E+02  0.49383484483E+02  0.41800000000E+01 0. -1.
        -11    1    4    4    0    0  0.34706672131E+02 -0.48965954580E+02  0.14636987881E+02  0.61777497623E+02  0.00000000000E+00 0.  1.
         11    1    4    4    0    0 -0.18323688103E+02  0.28340310053E+02  0.67933930253E+01  0.34425004116E+02  0.00000000000E+00 0. -1.
</event>
<event>
 8    1  0.3528896E-009  0.1039289E+03  0.7561462E-02  0.1272244E+00
          4   -1    0    0  501    0  0.00000000000E+00  0.00000000000E+00  0.14888721024E+03  0.14888721024E+03  0.00000000000E+00 0. -1.
         -4   -1    0    0    0  501 -0.00000000000E+00 -0.00000000000E+00 -0.92881657034E+02  0.92881657034E+02  0.00000000000E+00 0.  1.
         25    2    1    2    0    0 -0.37008596194E+02  0.12047140613E+02  0.60634574722E+02  0.14435993510E+03  0.12509384246E+03 0.  0.
         23    2    1    2    0    0  0.37008596194E+02 -0.12047140613E+02 -0.46290215185E+01  0.97408932173E+02  0.89175682996E+02 0.  0.
          5    1    3    3  502    0  0.57351327189E+01  0.58016868324E+02  0.56532911020E+02  0.81315995879E+02  0.41800000000E+01 0.  1.
         -5    1    3    3    0  502 -0.42743728913E+02 -0.45969727711E+02  0.41016637023E+01  0.63043939219E+02  0.41800000000E+01 0.  1.
        -11    1    4    4    0    0  0.12740645567E+02 -0.44322301092E+02  0.19828139200E+02  0.50199059032E+02  0.00000000000E+00 0. -1.
         11    1    4    4    0    0  0.24267950627E+02  0.32275160479E+02 -0.24457160719E+02  0.47209873141E+02  0.00000000000E+00 0.  1.
</event>
<event>
 8    1  0.3528896E-009  0.7647385E+02  0.7561462E-02  0.1339367E+00
         -3   -1    0    0    0  501 -0.00000000000E+00  0.00000000000E+00  0.60739242590E+02  0.60739242590E+02  0.00000000000E+00 0.  1.
          3   -1    0    0  501    0  0.00000000000E+00 -0.00000000000E+00 -0.27850719421E+03  0.27850719421E+03  0.00000000000E+00 0. -1.
         25    2    1    2    0    0  0.72304174022E+02 -0.86056519862E+01 -0.12672774541E+03  0.19237836381E+03  0.12509021776E+03 0.  0.
         23    2    1    2    0    0 -0.72304174022E+02  0.86056519862E+01 -0.91040206211E+02  0.14686807299E+03  0.89330626828E+02 0.  0.
          5    1    3    3  502    0  0.16994440410E+02 -0.33795006449E+01  0.25023824899E+02  0.30722894428E+02  0.41800000000E+01 0. -1.
         -5    1    3    3    0  502  0.55309733612E+02 -0.52261513413E+01 -0.15175157031E+03  0.16165546938E+03  0.41800000000E+01 0. -1.
        -11    1    4    4    0    0 -0.39590429864E+02 -0.11230505892E+02  0.68944260788E+01  0.41726005205E+02  0.00000000000E+00 0.  1.
         11    1    4    4    0    0 -0.32713744157E+02  0.19836157878E+02 -0.97934632290E+02  0.10514206778E+03  0.00000000000E+00 0. -1.
</event>
<event>
 8    1  0.3528896E-009  0.1172691E+03  0.7561462E-02  0.1247671E+00
          1   -1    0    0  501    0  0.00000000000E+00  0.00000000000E+00  0.29181366749E+02  0.29181366749E+02  0.00000000000E+00 0. -1.
         -1   -1    0    0    0  501 -0.00000000000E+00 -0.00000000000E+00 -0.52973315077E+03  0.52973315077E+03  0.00000000000E+00 0.  1.
         25    2    1    2    0    0 -0.52425979365E+02  0.26490145995E+02 -0.31592836743E+03  0.34483051864E+03  0.12508853702E+03 0.  0.
         23    2    1    2    0    0  0.52425979365E+02 -0.26490145995E+02 -0.18462341658E+03  0.21408399887E+03  0.91082059011E+02 0.  0.
          5    1    3    3  502    0 -0.40168445415E+02  0.73179317891E+02 -0.24555416849E+03  0.25938974274E+03  0.41800000000E+01 0.  1.
         -5    1    3    3    0  502 -0.12257533950E+02 -0.46689171896E+02 -0.70374198939E+02  0.85440775905E+02  0.41800000000E+01 0.  1.
        -11    1    4    4    0    0 -0.46201877763E+01  0.25140412745E+02 -0.81536166855E+02  0.85449008148E+02  0.00000000000E+00 0.  1.
         11    1    4    4    0    0  0.57046167141E+02 -0.51630558740E+02 -0.10308724973E+03  0.12863499072E+03  0.00000000000E+00 0. -1.
</event>
<event>
 8    1  0.3528896E-009  0.9702866E+02  0.7561462E-02  0.1286671E+00
         -1   -1    0    0    0  501 -0.00000000000E+00  0.00000000000E+00  0.93458918543E+02  0.93458918543E+02  0.00000000000E+00 0.  1.
          1   -1    0    0  501    0  0.00000000000E+00 -0.00000000000E+00 -0.31613964499E+03  0.31613964499E+03  0.00000000000E+00 0. -1.
         25    2    1    2    0    0  0.80448340925E+02 -0.51549863927E+01 -0.24338827710E+03  0.28528236098E+03  0.12509861156E+03 0.  0.
         23    2    1    2    0    0 -0.80448340925E+02  0.51549863927E+01  0.20707550650E+02  0.12431620256E+03  0.92342872608E+02 0.  0.
          5    1    3    3  502    0  0.67272050350E+02 -0.86745815863E+01 -0.25683830518E+03  0.26567680465E+03  0.41800000000E+01 0.  1.
         -5    1    3    3    0  502  0.13176290575E+02  0.35195951936E+01  0.13450028077E+02  0.19605556328E+02  0.41800000000E+01 0.  1.
        -11    1    4    4    0    0 -0.84831567146E+02 -0.19292642411E+02 -0.67896527857E+01  0.87262249688E+02  0.00000000000E+00 0. -1.
         11    1    4    4    0    0  0.43832262214E+01  0.24447628804E+02  0.27497203436E+02  0.37053952867E+02  0.00000000000E+00 0.  1.
</event>
<event>
 8    1  0.3528896E-009  0.1397037E+03  0.7561462E-02  0.1213728E+00
          1   -1    0    0  501    0  0.00000000000E+00  0.00000000000E+00  0.18024340406E+03  0.18024340406E+03  0.00000000000E+00 0. -1.
         -1   -1    0    0    0  501 -0.00000000000E+00 -0.00000000000E+00 -0.13911363431E+03  0.13911363431E+03  0.00000000000E+00 0.  1.
         25    2    1    2    0    0 -0.11127671793E+03  0.28070141326E+02  0.40361808842E+02  0.17449313397E+03  0.12509331478E+03 0.  0.
         23    2    1    2    0    0  0.11127671793E+03 -0.28070141326E+02  0.76796090730E+00  0.14486390440E+03  0.88399775156E+02 0.  0.
          5    1    3    3  502    0 -0.14204953732E+02 -0.22474877113E+02 -0.33065304339E+02  0.42634347219E+02  0.41800000000E+01 0. -1.
         -5    1    3    3    0  502 -0.97071764194E+02  0.50545018439E+02  0.73427113181E+02  0.13185878675E+03  0.41800000000E+01 0. -1.
        -11    1    4    4    0    0  0.90962837954E+02  0.17904380318E+02 -0.10659018186E+02  0.93318912295E+02  0.00000000000E+00 0. -1.
         11    1    4    4    0    0  0.20313879972E+02 -0.45974521644E+02  0.11426979093E+02  0.51544992105E+02  0.00000000000E+00 0.  1.
</event>
<event>
 8    1  0.3528896E-009  0.1626929E+03  0.7561462E-02  0.1185690E+00
         -1   -1    0    0    0  501 -0.00000000000E+00  0.00000000000E+00  0.35399678818E+02  0.35399678818E+02  0.00000000000E+00 0.  1.
          1   -1    0    0  501    0  0.00000000000E+00 -0.00000000000E+00 -0.82118626520E+03  0.82118626520E+03  0.00000000000E+00 0. -1.
         25    2    1    2    0    0 -0.91319775685E+02 -0.93985599303E+02 -0.42162675481E+03  0.45890289613E+03  0.12510057316E+03 0.  0.
         23    2    1    2    0    0  0.91319775685E+02  0.93985599303E+02 -0.36415983158E+03  0.39768304788E+03  0.91470374074E+02 0.  0.
          5    1    3    3  502    0 -0.83341293377E+02 -0.12130486065E+03 -0.38590715570E+03  0.41304048908E+03  0.41800000000E+01 0. -1.
         -5    1    3    3    0  502 -0.79784823083E+01  0.27319261347E+02 -0.35719599105E+02  0.45862407053E+02  0.41800000000E+01 0. -1.
        -11    1    4    4    0    0  0.91452146288E+02  0.47784176518E+02 -0.17676717504E+03  0.20467891136E+03  0.00000000000E+00 0.  1.
         11    1    4    4    0    0 -0.13237060324E+00  0.46201422785E+02 -0.18739265654E+03  0.19300413652E+03  0.00000000000E+00 0. -1.
</event>
<event>
 8    1  0.3528896E-009  0.2687437E+03  0.7561462E-02  0.1102001E+00
         -1   -1    0    0    0  501 -0.00000000000E+00  0.00000000000E+00  0.11011428575E+03  0.11011428575E+03  0.00000000000E+00 0.  1.
          1   -1    0    0  501    0  0.00000000000E+00 -0.00000000000E+00 -0.87024667354E+03  0.87024667354E+03  0.00000000000E+00 0. -1.
         25    2    1    2    0    0  0.17666365438E+03 -0.19756121891E+03 -0.20159561547E+03  0.35570688347E+03  0.12508442258E+03 0.  0.
         23    2    1    2    0    0 -0.17666365438E+03  0.19756121891E+03 -0.55853677232E+03  0.62465407582E+03  0.89380682532E+02 0.  0.
          5    1    3    3  502    0  0.14891572116E+03 -0.14408149144E+03 -0.20962562842E+03  0.29478084177E+03  0.41800000000E+01 0. -1.
         -5    1    3    3    0  502  0.27747933224E+02 -0.53479727475E+02  0.80300129544E+01  0.60926041699E+02  0.41800000000E+01 0. -1.
        -11    1    4    4    0    0 -0.70460552350E+02  0.11685119538E+03 -0.20005226401E+03  0.24215656018E+03  0.00000000000E+00 0. -1.
         11    1    4    4    0    0 -0.10620310203E+03  0.80710023531E+02 -0.35848450831E+03  0.38249751565E+03  0.00000000000E+00 0.  1.
</event>
<event>
 8    1  0.3528896E-009  0.1316987E+03  0.7561462E-02  0.1224957E+00
         -1   -1    0    0    0  501 -0.00000000000E+00  0.00000000000E+00  0.46481975372E+02  0.46481975372E+02  0.00000000000E+00 0.  1.
          1   -1    0    0  501    0  0.00000000000E+00 -0.00000000000E+00 -0.56238197502E+03  0.56238197502E+03  0.00000000000E+00 0. -1.
         25    2    1    2    0    0 -0.10034095547E+03  0.32185454834E+02 -0.36240969663E+03  0.39760944815E+03  0.12509306216E+03 0.  0.
         23    2    1    2    0    0  0.10034095547E+03 -0.32185454834E+02 -0.15349030302E+03  0.21125450224E+03  0.99824750183E+02 0.  0.
          5    1    3    3  502    0 -0.12239763384E+03  0.15536151890E+02 -0.34021258489E+03  0.36191798532E+03  0.41800000000E+01 0.  1.
         -5    1    3    3    0  502  0.22056678367E+02  0.16649302943E+02 -0.22197111742E+02  0.35691462827E+02  0.41800000000E+01 0.  1.
        -11    1    4    4    0    0  0.36442817174E+02  0.69043130648E+01 -0.12618996350E+03  0.13152815421E+03  0.00000000000E+00 0. -1.
         11    1    4    4    0    0  0.63898138296E+02 -0.39089767898E+02 -0.27300339517E+02  0.79726348027E+02  0.00000000000E+00 0.  1.
</event>
<event>
 8    1  0.3528896E-009  0.1229257E+03  0.7561462E-02  0.1238347E+00
          1   -1    0    0  501    0  0.00000000000E+00  0.00000000000E+00  0.20785490126E+03  0.20785490126E+03  0.00000000000E+00 0. -1.
         -1   -1    0    0    0  501 -0.00000000000E+00 -0.00000000000E+00 -0.14361202498E+03  0.14361202498E+03  0.00000000000E+00 0.  1.
         25    2    1    2    0    0 -0.84816190085E+02  0.58441362937E+02 -0.51451319925E+02  0.17003131234E+03  0.12511686478E+03 0.  0.
         23    2    1    2    0    0  0.84816190085E+02 -0.58441362937E+02  0.11569419621E+03  0.18143561389E+03  0.94469867950E+02 0.  0.
          5    1    3    3  502    0  0.17309922066E+01 -0.10119663870E+02  0.30508454370E+02  0.32459853957E+02  0.41800000000E+01 0. -1.
         -5    1    3    3    0  502 -0.86547182291E+02  0.68561026807E+02 -0.81959774296E+02  0.13757145838E+03  0.41800000000E+01 0. -1.
        -11    1    4    4    0    0  0.32425847230E+02  0.13629198742E+02  0.76295328942E+02  0.84012902850E+02  0.00000000000E+00 0. -1.
         11    1    4    4    0    0  0.52390342855E+02 -0.72070561679E+02  0.39398867263E+02  0.97422711042E+02  0.00000000000E+00 0.  1.
</event>
<event>
 8    1  0.3528896E-009  0.9130941E+02  0.7561462E-02  0.1299711E+00
          1   -1    0    0  501    0  0.00000000000E+00  0.00000000000E+00  0.99790431556E+02  0.99790431556E+02  0.00000000000E+00 0. -1.
         -1   -1    0    0    0  501 -0.00000000000E+00 -0.00000000000E+00 -0.11972486873E+03  0.11972486873E+03  0.00000000000E+00 0.  1.
         25    2    1    2    0    0 -0.23778703882E+01 -0.84275280205E+01  0.17359124646E+01  0.12540534487E+03  0.12508720812E+03 0.  0.
         23    2    1    2    0    0  0.23778703882E+01  0.84275280205E+01 -0.21670349635E+02  0.94109955410E+02  0.91161407173E+02 0.  0.
          5    1    3    3  502    0  0.17522131724E+02  0.38909053509E+02  0.41998834931E+02  0.60019280908E+02  0.41800000000E+01 0.  1.
         -5    1    3    3    0  502 -0.19900002113E+02 -0.47336581530E+02 -0.40262922467E+02  0.65386063963E+02  0.41800000000E+01 0.  1.
        -11    1    4    4    0    0 -0.38184008803E+02  0.23631532163E+02 -0.23639725080E+02  0.50747457498E+02  0.00000000000E+00 0.  1.
         11    1    4    4    0    0  0.40561879192E+02 -0.15204004142E+02  0.19693754450E+01  0.43362497912E+02  0.00000000000E+00 0. -1.
</event>
<event>
 8    1  0.3528896E-009  0.9012457E+02  0.7561462E-02  0.1302550E+00
         -3   -1    0    0    0  501 -0.00000000000E+00  0.00000000000E+00  0.60219777601E+02  0.60219777601E+02  0.00000000000E+00 0.  1.
          3   -1    0    0  501    0  0.00000000000E+00 -0.00000000000E+00 -0.25541875057E+03  0.25541875057E+03  0.00000000000E+00 0. -1.
         25    2    1    2    0    0 -0.54301275992E+02  0.19728182719E+02 -0.88908683009E+02  0.16396931171E+03  0.12507338447E+03 0.  0.
         23    2    1    2    0    0  0.54301275992E+02 -0.19728182719E+02 -0.10629028996E+03  0.15166921646E+03  0.91477296160E+02 0.  0.
          5    1    3    3  502    0  0.54980434753E+01  0.89500151802E+01  0.29073211793E+02  0.31193834291E+02  0.41800000000E+01 0.  1.
         -5    1    3    3    0  502 -0.59799319467E+02  0.10778167539E+02 -0.11798189480E+03  0.13277547742E+03  0.41800000000E+01 0.  1.
        -11    1    4    4    0    0  0.76839066500E+02 -0.30977522894E+02 -0.84874434629E+02  0.11860657115E+03  0.00000000000E+00 0.  1.
         11    1    4    4    0    0 -0.22537790509E+02  0.11249340175E+02 -0.21415855334E+02  0.33062645312E+02  0.00000000000E+00 0. -1.
</event>
<event>
 8    1  0.3528896E-009  0.1959523E+03  0.7561462E-02  0.1153200E+00
          2   -1    0    0  501    0  0.00000000000E+00  0.00000000000E+00  0.16640795285E+04  0.16640795285E+04  0.00000000000E+00 0.  1.
         -2   -1    0    0    0  501 -0.00000000000E+00 -0.00000000000E+00 -0.27700418815E+02  0.27700418815E+02  0.00000000000E+00 0. -1.
         25    2    1    2    0    0  0.11735492089E+03 -0.14108549232E+03  0.93898671487E+03  0.96489420020E+03  0.12508986086E+03 0.  0.
         23    2    1    2    0    0 -0.11735492089E+03  0.14108549232E+03  0.69739239479E+03  0.72688574709E+03  0.91265784408E+02 0.  0.
          5    1    3    3  502    0  0.11017034563E+03 -0.14262592335E+03  0.93929275833E+03  0.95643505651E+03  0.41800000000E+01 0. -1.
         -5    1    3    3    0  502  0.71845752586E+01  0.15404310336E+01 -0.30604346426E+00  0.84591436929E+01  0.41800000000E+01 0. -1.
        -11    1    4    4    0    0  0.89797840472E+01  0.41095120638E+02  0.10906177983E+03  0.11689275975E+03  0.00000000000E+00 0. -1.
         11    1    4    4    0    0 -0.12633470493E+03  0.99990371679E+02  0.58833061497E+03  0.60999298734E+03  0.00000000000E+00 0.  1.
</event>
<event>
 8    1  0.3528896E-009  0.2024673E+03  0.7561462E-02  0.1147674E+00
          1   -1    0    0  501    0  0.00000000000E+00  0.00000000000E+00  0.13328183234E+04  0.13328183234E+04  0.00000000000E+00 0. -1.
         -1   -1    0    0    0  501 -0.00000000000E+00 -0.00000000000E+00 -0.54377619168E+02  0.54377619168E+02  0.00000000000E+00 0.  1.
         25    2    1    2    0    0 -0.12014936636E+03 -0.14935211437E+03  0.10661510550E+04  0.10904445915E+04  0.12509760499E+03 0.  0.
         23    2    1    2    0    0  0.12014936636E+03  0.14935211437E+03  0.21228964926E+03  0.29675135108E+03  0.79073035119E+02 0.  0.
          5    1    3    3  502    0 -0.72760955465E+02 -0.48110816902E+02  0.21630661692E+03  0.23326987003E+03  0.41800000000E+01 0. -1.
         -5    1    3    3    0  502 -0.47388410896E+02 -0.10124129747E+03  0.84984443807E+03  0.85717472146E+03  0.41800000000E+01 0. -1.
        -11    1    4    4    0    0  0.44900187142E+02  0.79948025035E+01  0.32603608093E+02  0.56061920527E+02  0.00000000000E+00 0.  1.
         11    1    4    4    0    0  0.75249179219E+02  0.14135731187E+03  0.17968604117E+03  0.24068943056E+03  0.00000000000E+00 0. -1.
</event>
<event>
 8    1  0.3528896E-009  0.1170118E+03  0.7561462E-02  0.1248110E+00
         -1   -1    0    0    0  501 -0.00000000000E+00  0.00000000000E+00  0.15907606343E+02  0.15907606343E+02  0.00000000000E+00 0.  1.
          1   -1    0    0  501    0  0.00000000000E+00 -0.00000000000E+00 -0.14591913372E+04  0.14591913372E+04  0.00000000000E+00 0. -1.
         25    2    1    2    0    0 -0.87482579890E+02  0.57154402057E+02 -0.89435705023E+03  0.90908854778E+03  0.12509047505E+03 0.  0.
         23    2    1    2    0    0  0.87482579890E+02 -0.57154402057E+02 -0.54892668063E+03  0.56601039576E+03  0.90152315283E+02 0.  0.
          5    1    3    3  502    0 -0.52836072464E+02  0.30988409325E+02 -0.82416167238E+03  0.82644531984E+03  0.41800000000E+01 0. -1.
         -5    1    3    3    0  502 -0.34646507426E+02  0.26165992732E+02 -0.70195377846E+02  0.82643227934E+02  0.41800000000E+01 0. -1.
        -11    1    4    4    0    0  0.65733678934E+02  0.22269082699E+01 -0.17865463625E+03  0.19037687549E+03  0.00000000000E+00 0.  1.
         11    1    4    4    0    0  0.21748900955E+02 -0.59381310327E+02 -0.37027204438E+03  0.37563352028E+03  0.00000000000E+00 0. -1.
</event>
<event>
 8    1  0.3528896E-009  0.1124484E+03  0.7561462E-02  0.1256102E+00
          2   -1    0    0  501    0  0.00000000000E+00  0.00000000000E+00  0.70983052435E+03  0.70983052435E+03  0.00000000000E+00 0. -1.
         -2   -1    0    0    0  501 -0.00000000000E+00 -0.00000000000E+00 -0.18772357840E+02  0.18772357840E+02  0.00000000000E+00 0.  1.
         25    2    1    2    0    0  0.22638923124E+01 -0.34252245882E+02  0.36617358538E+03  0.38846903671E+03  0.12508699491E+03 0.  0.
         23    2    1    2    0    0 -0.22638923124E+01  0.34252245882E+02  0.32488458113E+03  0.34013384548E+03  0.94671538647E+02 0.  0.
          5    1    3    3  502    0  0.36902944287E+01  0.44736402486E+02  0.19117928965E+03  0.19642290389E+03  0.41800000000E+01 0. -1.
         -5    1    3    3    0  502 -0.14264021163E+01 -0.78988648368E+02  0.17499429573E+03  0.19204613282E+03  0.41800000000E+01 0. -1.
        -11    1    4    4    0    0  0.39145663858E+02  0.43241216908E+02  0.18764080517E+03  0.19649747480E+03  0.00000000000E+00 0.  1.
         11    1    4    4    0    0 -0.41409556171E+02 -0.89889710262E+01  0.13724377596E+03  0.14363637068E+03  0.00000000000E+00 0. -1.
</event>
<event>
 8    1  0.3528896E-009  0.2119551E+03  0.7561462E-02  0.1140027E+00
         -1   -1    0    0    0  501 -0.00000000000E+00  0.00000000000E+00  0.28800332965E+03  0.28800332965E+03  0.00000000000E+00 0.  1.
          1   -1    0    0  501    0  0.00000000000E+00 -0.00000000000E+00 -0.16632878434E+03  0.16632878434E+03  0.00000000000E+00 0. -1.
         25    2    1    2    0    0  0.10259621735E+03  0.16098262962E+03  0.66237292116E+02  0.23764834816E+03  0.12509183690E+03 0.  0.
         23    2    1    2    0    0 -0.10259621735E+03 -0.16098262962E+03  0.55437253196E+02  0.21668376584E+03  0.86239054268E+02 0.  0.
          5    1    3    3  502    0  0.61534975177E+02  0.15586808959E+02  0.58316332412E+02  0.86300456601E+02  0.41800000000E+01 0. -1.
         -5    1    3    3    0  502  0.41061242172E+02  0.14539582067E+03  0.79209597042E+01  0.15134789156E+03  0.41800000000E+01 0. -1.
        -11    1    4    4    0    0  0.10108948220E+02 -0.49879252728E+02  0.18658325849E+02  0.54205754402E+02  0.00000000000E+00 0.  1.
         11    1    4    4    0    0 -0.11270516557E+03 -0.11110337690E+03  0.36778927347E+02  0.16247801144E+03  0.00000000000E+00 0. -1.
</event>
<event>
 8    1  0.3528896E-009  0.1807847E+03  0.7561462E-02  0.1167046E+00
          1   -1    0    0  501    0  0.00000000000E+00  0.00000000000E+00  0.39905231903E+03  0.39905231903E+03  0.00000000000E+00 0. -1.
         -1   -1    0    0    0  501 -0.00000000000E+00 -0.00000000000E+00 -0.15158364369E+03  0.15158364369E+03  0.00000000000E+00 0.  1.
         25    2    1    2    0    0  0.10048252415E+03 -0.12693659768E+03 -0.39888870545E+02  0.20844041037E+03  0.12508655081E+03 0.  0.
         23    2    1    2    0    0 -0.10048252415E+03  0.12693659768E+03  0.28735754588E+03  0.34219555234E+03  0.91180038279E+02 0.  0.
          5    1    3    3  502    0  0.73131655384E+01 -0.61102718593E+02  0.35944732148E+02  0.71389920709E+02  0.41800000000E+01 0.  1.
         -5    1    3    3    0  502  0.93169358611E+02 -0.65833879091E+02 -0.75833602693E+02  0.13705048967E+03  0.41800000000E+01 0.  1.
        -11    1    4    4    0    0 -0.96256989640E+02  0.49611345411E+02  0.16275146728E+03  0.19548589144E+03  0.00000000000E+00 0. -1.
         11    1    4    4    0    0 -0.42255345096E+01  0.77325252273E+02  0.12460607860E+03  0.14670966091E+03  0.00000000000E+00 0.  1.
</event>
<event>
 8    1  0.3528896E-009  0.1743208E+03  0.7561462E-02  0.1173415E+00
         -2   -1    0    0    0  501 -0.00000000000E+00  0.00000000000E+00  0.20536400229E+03  0.20536400229E+03  0.00000000000E+00 0. -1.
          2   -1    0    0  501    0  0.00000000000E+00 -0.00000000000E+00 -0.19057831684E+03  0.19057831684E+03  0.00000000000E+00 0.  1.
         25    2    1    2    0    0 -0.12512114767E+03  0.10385883378E+03  0.34816257145E+02  0.20808993327E+03  0.12508912670E+03 0.  0.
         23    2    1    2    0    0  0.12512114767E+03 -0.10385883378E+03 -0.20030571689E+02  0.18785238586E+03  0.91898509893E+02 0.  0.
          5    1    3    3  502    0 -0.82034322196E+02  0.11472518962E+03  0.63820645025E+02  0.15486137763E+03  0.41800000000E+01 0. -1.
         -5    1    3    3    0  502 -0.43086825478E+02 -0.10866355840E+02 -0.29004387880E+02  0.53228555638E+02  0.41800000000E+01 0. -1.
        -11    1    4    4    0    0  0.67356950831E+02 -0.62287027398E+02 -0.56642125424E+02  0.10781912159E+03  0.00000000000E+00 0.  1.
         11    1    4    4    0    0  0.57764196843E+02 -0.41571806379E+02  0.36611553735E+02  0.80033264268E+02  0.00000000000E+00 0. -1.
</event>
<event>
 8    1  0.3528896E-009  0.9891867E+02  0.7561462E-02  0.1282586E+00
         -1   -1    0    0    0  501 -0.00000000000E+00  0.00000000000E+00  0.29915854692E+03  0.29915854692E+03  0.00000000000E+00 0.  1.
          1   -1    0    0  501    0  0.00000000000E+00 -0.00000000000E+00 -0.54643590140E+02  0.54643590140E+02  0.00000000000E+00 0. -1.
         25    2    1    2    0    0 -0.63206953818E+01  0.37198227137E+02  0.21814886130E+03  0.25428470607E+03  0.12509247284E+03 0.  0.
         23    2    1    2    0    0  0.63206953818E+01 -0.37198227137E+02  0.26366095473E+02  0.99517430987E+02  0.88232016794E+02 0.  0.
          5    1    3    3  502    0 -0.65308198211E+02  0.18710349578E+02  0.10162137408E+03  0.12230950088E+03  0.41800000000E+01 0.  1.
         -5    1    3    3    0  502  0.58987502829E+02  0.18487877559E+02  0.11652748722E+03  0.13197520519E+03  0.41800000000E+01 0.  1.
        -11    1    4    4    0    0  0.25364185971E+02  0.72997947067E+00  0.46170211261E+02  0.52683614226E+02  0.00000000000E+00 0.  1.
         11    1    4    4    0    0 -0.19043490590E+02 -0.37928206608E+02 -0.19804115788E+02  0.46833816761E+02  0.00000000000E+00 0. -1.
</event>
<event>
 8    1  0.3528896E-009  0.1155355E+03  0.7561462E-02  0.1250649E+00
          2   -1    0    0  501    0  0.00000000000E+00  0.00000000000E+00  0.45947535218E+03  0.45947535218E+03  0.00000000000E+00 0. -1.
         -2   -1    0    0    0  501 -0.00000000000E+00 -0.00000000000E+00 -0.32558958133E+02  0.32558958133E+02  0.00000000000E+00 0.  1.
         25    2    1    2    0    0 -0.81918824081E+01 -0.49919887715E+02  0.18441096111E+03  0.22850472028E+03  0.12509157641E+03 0.  0.
         23    2    1    2    0    0  0.81918824081E+01  0.49919887715E+02  0.24250543294E+03  0.26352959003E+03  0.89888028620E+02 0.  0.
          5    1    3    3  502    0 -0.52772209173E+02  0.10402144650E+02  0.45474265045E+02  0.70558428665E+02  0.41800000000E+01 0. -1.
         -5    1    3    3    0  502  0.44580326765E+02 -0.60322032364E+02  0.13893669606E+03  0.15794629162E+03  0.41800000000E+01 0. -1.
        -11    1    4    4    0    0  0.22660407130E+02 -0.20226260594E+02  0.91273519830E+02  0.96194860003E+02  0.00000000000E+00 0.  1.
         11    1    4    4    0    0 -0.14468524722E+02  0.70146148309E+02  0.15123191311E+03  0.16733473003E+03  0.00000000000E+00 0. -1.
</event>
<event>
 8    1  0.3528896E-009  0.1318526E+03  0.7561462E-02  0.1224732E+00
         -2   -1    0    0    0  501 -0.00000000000E+00  0.00000000000E+00  0.17799974834E+03  0.17799974834E+03  0.00000000000E+00 0.  1.
          2   -1    0    0  501    0  0.00000000000E+00 -0.00000000000E+00 -0.10954770711E+03  0.10954770711E+03  0.00000000000E+00 0. -1.
         25    2    1    2    0    0 -0.69308995840E+02  0.44367699574E+02  0.69328667669E+02  0.16499981351E+03  0.12508494964E+03 0.  0.
         23    2    1    2    0    0  0.69308995840E+02 -0.44367699574E+02 -0.87662643957E+00  0.12254764194E+03  0.90801577093E+02 0.  0.
          5    1    3    3  502    0  0.35788612874E+01  0.71209490415E+02  0.26328336700E+02  0.76119994001E+02  0.41800000000E+01 0.  1.
         -5    1    3    3    0  502 -0.72887857128E+02 -0.26841790842E+02  0.43000330969E+02  0.88879819507E+02  0.41800000000E+01 0.  1.
        -11    1    4    4    0    0 -0.68258650021E+01 -0.37430296847E+02 -0.21047412459E+02  0.43481181289E+02  0.00000000000E+00 0. -1.
         11    1    4    4    0    0  0.76134860842E+02 -0.69374027268E+01  0.20170786019E+02  0.79066460656E+02  0.00000000000E+00 0.  1.
</event>
<event>
 8    1  0.3528896E-009  0.1524180E+03  0.7561462E-02  0.1197533E+00
         -2   -1    0    0    0  501 -0.00000000000E+00  0.00000000000E+00  0.79874459248E+02  0.79874459248E+02  0.00000000000E+00 0.  1.
          2   -1    0    0  501    0  0.00000000000E+00 -0.00000000000E+00 -0.40383674740E+03  0.40383674740E+03  0.00000000000E+00 0. -1.
         25    2    1    2    0    0 -0.64833976909E+02 -0.12721788609E+03 -0.18189113638E+03  0.26290509824E+03  0.12508744974E+03 0.  0.
         23    2    1    2    0    0  0.64833976909E+02  0.12721788609E+03 -0.14207115177E+03  0.22080610840E+03  0.90461540113E+02 0.  0.
          5    1    3    3  502    0 -0.55349430282E+02 -0.29223846039E+02 -0.14446466278E+03  0.15749636124E+03  0.41800000000E+01 0. -1.
         -5    1    3    3    0  502 -0.94845466275E+01 -0.97994040056E+02 -0.37426473599E+02  0.10540873701E+03  0.41800000000E+01 0. -1.
        -11    1    4    4    0    0  0.27462248121E+02  0.38439311235E+02 -0.10927945593E+03  0.11905358125E+03  0.00000000000E+00 0. -1.
         11    1    4    4    0    0  0.37371728789E+02  0.88778574859E+02 -0.32791695842E+02  0.10175252716E+03  0.00000000000E+00 0.  1.
</event>
<event>
 8    1  0.3528896E-009  0.1404252E+03  0.7561462E-02  0.1212758E+00
          1   -1    0    0  501    0  0.00000000000E+00  0.00000000000E+00  0.53641803061E+03  0.53641803061E+03  0.00000000000E+00 0. -1.
         -1   -1    0    0    0  501 -0.00000000000E+00 -0.00000000000E+00 -0.67227992122E+02  0.67227992122E+02  0.00000000000E+00 0.  1.
         25    2    1    2    0    0 -0.23181977386E+02 -0.12029458345E+03  0.95094910479E+02  0.19927011695E+03  0.12512931961E+03 0.  0.
         23    2    1    2    0    0  0.23181977386E+02  0.12029458345E+03  0.37409512801E+03  0.40437590579E+03  0.92544678387E+02 0.  0.
          5    1    3    3  502    0  0.73228769065E+01 -0.50287580082E+02 -0.25079851327E+02  0.56823732536E+02  0.41800000000E+01 0. -1.
         -5    1    3    3    0  502 -0.30504854293E+02 -0.70007003368E+02  0.12017476181E+03  0.14244638441E+03  0.41800000000E+01 0. -1.
        -11    1    4    4    0    0 -0.36206013431E+01  0.12593955056E+03  0.30016006967E+03  0.32553025446E+03  0.00000000000E+00 0.  1.
         11    1    4    4    0    0  0.26802578730E+02 -0.56449671114E+01  0.73935058342E+02  0.78845651321E+02  0.00000000000E+00 0. -1.
</event>
<event>
 8    1  0.3528896E-009  0.9252913E+02  0.7561462E-02  0.1296840E+00
          2   -1    0    0  501    0  0.00000000000E+00  0.00000000000E+00  0.14160711269E+03  0.14160711269E+03  0.00000000000E+00 0. -1.
         -2   -1    0    0    0  501 -0.00000000000E+00 -0.00000000000E+00 -0.14062116553E+03  0.14062116553E+03  0.00000000000E+00 0.  1.
         25    2    1    2    0    0  0.53850651785E+02  0.35333619716E+02 -0.65109399689E+02  0.15503286987E+03  0.12509036507E+03 0.  0.
         23    2    1    2    0    0 -0.53850651785E+02 -0.35333619716E+02  0.66095346852E+02  0.12719540834E+03  0.87531249551E+02 0.  0.
          5    1    3    3  502    0  0.64680249965E-01  0.50509697360E+02  0.18861488087E+02  0.54078293648E+02  0.41800000000E+01 0. -1.
         -5    1    3    3    0  502  0.53785971535E+02 -0.15176077644E+02 -0.83970887776E+02  0.10095457622E+03  0.41800000000E+01 0. -1.
        -11    1    4    4    0    0 -0.54459751320E+02 -0.12997421357E+02 -0.14931432042E+01  0.56009168467E+02  0.00000000000E+00 0.  1.
         11    1    4    4    0    0  0.60909953508E+00 -0.22336198360E+02  0.67588490056E+02  0.71186239875E+02  0.00000000000E+00 0. -1.
</event>
<event>
 8    1  0.3528896E-009  0.1221217E+03  0.7561462E-02  0.1239637E+00
         -2   -1    0    0    0  501 -0.00000000000E+00  0.00000000000E+00  0.44323244120E+02  0.44323244120E+02  0.00000000000E+00 0.  1.
          2   -1    0    0  501    0  0.00000000000E+00 -0.00000000000E+00 -0.46544174622E+03  0.46544174622E+03  0.00000000000E+00 0. -1.
         25    2    1    2    0    0  0.75575450217E+02  0.44599680228E+02 -0.28343090273E+03  0.32200017277E+03  0.12510097718E+03 0.  0.
         23    2    1    2    0    0 -0.75575450217E+02 -0.44599680228E+02 -0.13768759937E+03  0.18776481757E+03  0.92719855179E+02 0.  0.
          5    1    3    3  502    0  0.65318923983E+02  0.78922596090E+02 -0.13656747909E+03  0.17077320266E+03  0.41800000000E+01 0. -1.
         -5    1    3    3    0  502  0.10256526234E+02 -0.34322915862E+02 -0.14686342364E+03  0.15122697010E+03  0.41800000000E+01 0. -1.
        -11    1    4    4    0    0 -0.43240967890E+02  0.79298937814E+01 -0.87391992943E+01  0.44822294941E+02  0.00000000000E+00 0.  1.
         11    1    4    4    0    0 -0.32334482326E+02 -0.52529574009E+02 -0.12894840008E+03  0.14294252263E+03  0.00000000000E+00 0. -1.
</event>
<event>
 8    1  0.3528896E-009  0.1210270E+03  0.7561462E-02  0.1241412E+00
          2   -1    0    0  501    0  0.00000000000E+00  0.00000000000E+00  0.14086058247E+04  0.14086058247E+04  0.00000000000E+00 0.  1.
         -2   -1    0    0    0  501 -0.00000000000E+00 -0.00000000000E+00 -0.12881166275E+02  0.12881166275E+02  0.00000000000E+00 0. -1.
         25    2    1    2    0    0  0.41238930955E+02 -0.49663688229E+02  0.10066513728E+04  0.10164457063E+04  0.12509099179E+03 0.  0.
         23    2    1    2    0    0 -0.41238930955E+02  0.49663688229E+02  0.38907328567E+03  0.40504128468E+03  0.92267487859E+02 0.  0.
          5    1    3    3  502    0 -0.41772987032E+02 -0.65488116451E+01  0.20588913348E+03  0.21022767911E+03  0.41800000000E+01 0.  1.
         -5    1    3    3    0  502  0.83011917987E+02 -0.43114876584E+02  0.80076223927E+03  0.80621802718E+03  0.41800000000E+01 0.  1.
        -11    1    4    4    0    0 -0.67079481702E+02  0.30118427129E+02  0.32533181531E+03  0.33353795372E+03  0.00000000000E+00 0.  1.
         11    1    4    4    0    0  0.25840550747E+02  0.19545261100E+02  0.63741470361E+02  0.71503330959E+02  0.00000000000E+00 0. -1.
</event>
<event>
 8    1  0.3528896E-009  0.7472983E+02  0.7561462E-02  0.1344710E+00
         -3   -1    0    0    0  501 -0.00000000000E+00  0.00000000000E+00  0.42162893689E+03  0.42162893689E+03  0.00000000000E+00 0.  1.
          3   -1    0    0  501    0  0.00000000000E+00 -0.00000000000E+00 -0.37180673017E+02  0.37180673017E+02  0.00000000000E+00 0. -1.
         25    2    1    2    0    0  0.26441009763E+02 -0.28756154258E+02  0.30714073642E+03  0.33392986547E+03  0.12509068582E+03 0.  0.
         23    2    1    2    0    0 -0.26441009763E+02  0.28756154258E+02  0.77307527456E+02  0.12487974444E+03  0.89958064481E+02 0.  0.
          5    1    3    3  502    0  0.55077277368E+02 -0.81937439998E+01  0.28845775345E+03  0.29381285174E+03  0.41800000000E+01 0.  1.
         -5    1    3    3    0  502 -0.28636267605E+02 -0.20562410258E+02  0.18682982974E+02  0.40117013732E+02  0.41800000000E+01 0.  1.
        -11    1    4    4    0    0  0.11930832105E+02  0.91001882934E+01 -0.16096439629E+02  0.22005761755E+02  0.00000000000E+00 0. -1.
         11    1    4    4    0    0 -0.38371841869E+02  0.19655965965E+02  0.93403967085E+02  0.10287398269E+03  0.00000000000E+00 0.  1.
</event>
<event>
 8    1  0.3528896E-009  0.1346664E+03  0.7561462E-02  0.1220691E+00
          2   -1    0    0  501    0  0.00000000000E+00  0.00000000000E+00  0.11167391716E+03  0.11167391716E+03  0.00000000000E+00 0. -1.
         -2   -1    0    0    0  501 -0.00000000000E+00 -0.00000000000E+00 -0.27691674278E+03  0.27691674278E+03  0.00000000000E+00 0.  1.
         25    2    1    2    0    0  0.94713731032E+02  0.28083728569E+02  0.18998379922E+02  0.16053197924E+03  0.12510072447E+03 0.  0.
         23    2    1    2    0    0 -0.94713731032E+02 -0.28083728569E+02 -0.18424120555E+03  0.22805868070E+03  0.91140294957E+02 0.  0.
          5    1    3    3  502    0  0.68675736894E+01 -0.35645213600E+02  0.35181684191E+02  0.50724433200E+02  0.41800000000E+01 0. -1.
         -5    1    3    3    0  502  0.87846157342E+02  0.63728942168E+02 -0.16183304269E+02  0.10980754604E+03  0.41800000000E+01 0. -1.
        -11    1    4    4    0    0 -0.41858752667E+02  0.25422169841E+02 -0.32720512454E+02  0.58898844042E+02  0.00000000000E+00 0. -1.
         11    1    4    4    0    0 -0.52854978365E+02 -0.53505898410E+02 -0.15152069309E+03  0.16915983666E+03  0.00000000000E+00 0.  1.
</event>
<event>
 8    1  0.3528896E-009  0.1323619E+03  0.7561462E-02  0.1223993E+00
         -1   -1    0    0    0  501 -0.00000000000E+00  0.00000000000E+00  0.11816288644E+03  0.11816288644E+03  0.00000000000E+00 0.  1.
          1   -1    0    0  501    0  0.00000000000E+00 -0.00000000000E+00 -0.16346235430E+03  0.16346235430E+03  0.00000000000E+00 0. -1.
         25    2    1    2    0    0 -0.81518163216E+02  0.24518425536E+02 -0.41453601632E+02  0.15688384735E+03  0.12509107221E+03 0.  0.
         23    2    1    2    0    0  0.81518163216E+02 -0.24518425536E+02 -0.38458662328E+01  0.12474139339E+03  0.91100276687E+02 0.  0.
          5    1    3    3  502    0 -0.43221287549E+02 -0.43878473622E+02 -0.47875871792E+02  0.78121518448E+02  0.41800000000E+01 0.  1.
         -5    1    3    3    0  502 -0.38296875667E+02  0.68396899157E+02  0.64222701598E+01  0.78762328903E+02  0.41800000000E+01 0.  1.
        -11    1    4    4    0    0  0.29215562161E+02  0.34780211407E+02  0.19146877950E+01  0.45462932234E+02  0.00000000000E+00 0.  1.
         11    1    4    4    0    0  0.52302601054E+02 -0.59298636943E+02 -0.57605540278E+01  0.79278461154E+02  0.00000000000E+00 0. -1.
</event>
<event>
 8    1  0.3528896E-009  0.1202045E+03  0.7561462E-02  0.1242760E+00
         -2   -1    0    0    0  501 -0.00000000000E+00  0.00000000000E+00  0.13500555909E+02  0.13500555909E+02  0.00000000000E+00 0.  1.
          2   -1    0    0  501    0  0.00000000000E+00 -0.00000000000E+00 -0.13214961762E+04  0.13214961762E+04  0.00000000000E+00 0. -1.
         25    2    1    2    0    0  0.55961949249E+02  0.41151493845E+02 -0.90485306802E+03  0.91609592599E+03  0.12508991044E+03 0.  0.
         23    2    1    2    0    0 -0.55961949249E+02 -0.41151493845E+02 -0.40314255231E+03  0.41890080616E+03  0.90159762147E+02 0.  0.
          5    1    3    3  502    0  0.92809406075E+02  0.36256775525E+02 -0.52363382516E+03  0.53304595944E+03  0.41800000000E+01 0.  1.
         -5    1    3    3    0  502 -0.36847456826E+02  0.48947183200E+01 -0.38121924286E+03  0.38304996655E+03  0.41800000000E+01 0.  1.
        -11    1    4    4    0    0  0.99566667274E+01 -0.35779057686E+02 -0.69847884573E+02  0.79107541742E+02  0.00000000000E+00 0.  1.
         11    1    4    4    0    0 -0.65918615976E+02 -0.53724361592E+01 -0.33329466774E+03  0.33979326442E+03  0.00000000000E+00 0. -1.
</event>
<event>
 8    1  0.3528896E-009  0.1398535E+03  0.7561462E-02  0.1213526E+00
         -2   -1    0    0    0  501 -0.00000000000E+00  0.00000000000E+00  0.11751817678E+03  0.11751817678E+03  0.00000000000E+00 0.  1.
          2   -1    0    0  501    0  0.00000000000E+00 -0.00000000000E+00 -0.25407445060E+03  0.25407445060E+03  0.00000000000E+00 0. -1.
         25    2    1    2    0    0  0.10232990210E+03  0.84927183798E+02 -0.86155556862E+02  0.20187819149E+03  0.12509192145E+03 0.  0.
         23    2    1    2    0    0 -0.10232990210E+03 -0.84927183798E+02 -0.50400716964E+02  0.16971443589E+03  0.92621390980E+02 0.  0.
          5    1    3    3  502    0  0.98455744230E+02  0.87643588098E+02 -0.11338823205E+03  0.17392324650E+03  0.41800000000E+01 0.  1.
         -5    1    3    3    0  502  0.38741578654E+01 -0.27164042997E+01  0.27232675189E+02  0.27954944991E+02  0.41800000000E+01 0.  1.
        -11    1    4    4    0    0 -0.10517630646E+03 -0.70056037621E+02 -0.70377918220E+02  0.14464769345E+03  0.00000000000E+00 0. -1.
         11    1    4    4    0    0  0.28464043617E+01 -0.14871146177E+02  0.19977201256E+02  0.25066742437E+02  0.00000000000E+00 0.  1.
</event>
<event>
 8    1  0.3528896E-009  0.9651708E+02  0.7561462E-02  0.1287795E+00
          2   -1    0    0  501    0  0.00000000000E+00  0.00000000000E+00  0.59241494040E+03  0.59241494040E+03  0.00000000000E+00 0. -1.
         -2   -1    0    0    0  501 -0.00000000000E+00 -0.00000000000E+00 -0.28841538895E+02  0.28841538895E+02  0.00000000000E+00 0.  1.
         25    2    1    2    0    0  0.17563517053E+00 -0.39514262409E+02  0.45350189426E+03  0.47209438849E+03  0.12509091001E+03 0.  0.
         23    2    1    2    0    0 -0.17563517053E+00  0.39514262409E+02  0.11007150724E+03  0.14916209080E+03  0.92586094222E+02 0.  0.
          5    1    3    3  502    0  0.48615721439E+02 -0.21710928008E+02  0.37005607520E+03  0.37389012284E+03  0.41800000000E+01 0.  1.
         -5    1    3    3    0  502 -0.48440086269E+02 -0.17803334401E+02  0.83445819057E+02  0.98204265649E+02  0.41800000000E+01 0.  1.
        -11    1    4    4    0    0 -0.36193067880E+02  0.26169097283E+01  0.83742516398E+02  0.91266617291E+02  0.00000000000E+00 0. -1.
         11    1    4    4    0    0  0.36017432709E+02  0.36897352681E+02  0.26328990845E+02  0.57895473508E+02  0.00000000000E+00 0.  1.
</event>
<event>
 8    1  0.3528896E-009  0.9664196E+02  0.7561462E-02  0.1287520E+00
          3   -1    0    0  501    0  0.00000000000E+00  0.00000000000E+00  0.63950703967E+02  0.63950703967E+02  0.00000000000E+00 0. -1.
         -3   -1    0    0    0  501 -0.00000000000E+00 -0.00000000000E+00 -0.24160069947E+03  0.24160069947E+03  0.00000000000E+00 0.  1.
         25    2    1    2    0    0  0.43306117540E+02 -0.21347212070E+02 -0.14290100842E+03  0.19595392569E+03  0.12508444949E+03 0.  0.
         23    2    1    2    0    0 -0.43306117540E+02  0.21347212070E+02 -0.34748987083E+02  0.10959747775E+03  0.92048855219E+02 0.  0.
          5    1    3    3  502    0  0.59515133050E+02 -0.37063745406E+02 -0.15487557556E+03  0.17005789776E+03  0.41800000000E+01 0.  1.
         -5    1    3    3    0  502 -0.16209015510E+02  0.15716533336E+02  0.11974567142E+02  0.25896027922E+02  0.41800000000E+01 0.  1.
        -11    1    4    4    0    0 -0.70040255341E+02  0.21778580764E+02 -0.38095681581E+02  0.82651224453E+02  0.00000000000E+00 0.  1.
         11    1    4    4    0    0  0.26734137801E+02 -0.43136869370E+00  0.33466944977E+01  0.26946253301E+02  0.00000000000E+00 0. -1.
</event>
<event>
 8    1  0.3528896E-009  0.9670295E+02  0.7561462E-02  0.1287386E+00
         -1   -1    0    0    0  501 -0.00000000000E+00  0.00000000000E+00  0.25173579445E+02  0.25173579445E+02  0.00000000000E+00 0.  1.
          1   -1    0    0  501    0  0.00000000000E+00 -0.00000000000E+00 -0.51108043575E+03  0.51108043575E+03  0.00000000000E+00 0. -1.
         25    2    1    2    0    0  0.60478578692E+01 -0.33921739591E+02 -0.28337055286E+03  0.31166134747E+03  0.12508662709E+03 0.  0.
         23    2    1    2    0    0 -0.60478578692E+01  0.33921739591E+02 -0.20253630344E+03  0.22459266772E+03  0.90739468707E+02 0.  0.
          5    1    3    3  502    0 -0.32534230206E+02 -0.48372250772E+02 -0.25463693352E+03  0.26125809287E+03  0.41800000000E+01 0. -1.
         -5    1    3    3    0  502  0.38582088076E+02  0.14450511180E+02 -0.28733619348E+02  0.50403254602E+02  0.41800000000E+01 0. -1.
        -11    1    4    4    0    0 -0.30779640031E+02 -0.18270948279E+02 -0.10833942377E+03  0.11409927491E+03  0.00000000000E+00 0.  1.
         11    1    4    4    0    0  0.24731782162E+02  0.52192687870E+02 -0.94196879664E+02  0.11049339281E+03  0.00000000000E+00 0. -1.
</event>
<event>
 8    1  0.3528896E-009  0.1056781E+03  0.7561462E-02  0.1268789E+00
         -1   -1    0    0    0  501 -0.00000000000E+00  0.00000000000E+00  0.24821896758E+03  0.24821896758E+03  0.00000000000E+00 0.  1.
          1   -1    0    0  501    0  0.00000000000E+00 -0.00000000000E+00 -0.65724638560E+02  0.65724638560E+02  0.00000000000E+00 0. -1.
         25    2    1    2    0    0 -0.27529432303E+02 -0.60108843735E+02  0.11934280249E+03  0.18509721150E+03  0.12508928994E+03 0.  0.
         23    2    1    2    0    0  0.27529432303E+02  0.60108843735E+02  0.63151526531E+02  0.12884639465E+03  0.90787308433E+02 0.  0.
          5    1    3    3  502    0 -0.23611094097E+02 -0.96988268233E+02  0.65068936864E+02  0.11922938767E+03  0.41800000000E+01 0.  1.
         -5    1    3    3    0  502 -0.39183382065E+01  0.36879424497E+02  0.54273865629E+02  0.65867823828E+02  0.41800000000E+01 0.  1.
        -11    1    4    4    0    0  0.34754309109E+02  0.41299834699E+02 -0.82970047134E+01  0.54611158521E+02  0.00000000000E+00 0. -1.
         11    1    4    4    0    0 -0.72248768057E+01  0.18809009036E+02  0.71448531245E+02  0.74235236127E+02  0.00000000000E+00 0.  1.
</event>
<event>
 8    1  0.3528896E-009  0.1188843E+03  0.7561462E-02  0.1244949E+00
          1   -1    0    0  501    0  0.00000000000E+00  0.00000000000E+00  0.36456730941E+03  0.36456730941E+03  0.00000000000E+00 0. -1.
         -1   -1    0    0    0  501 -0.00000000000E+00 -0.00000000000E+00 -0.51090376305E+02  0.51090376305E+02  0.00000000000E+00 0.  1.
         25    2    1    2    0    0  0.75903243951E+02  0.31950549193E+02  0.18538020085E+03  0.23831790383E+03  0.12508982525E+03 0.  0.
         23    2    1    2    0    0 -0.75903243951E+02 -0.31950549193E+02  0.12809673226E+03  0.17733978189E+03  0.90876209150E+02 0.  0.
          5    1    3    3  502    0  0.92819248705E+02  0.37370277380E+02  0.19385690398E+03  0.21819698023E+03  0.41800000000E+01 0.  1.
         -5    1    3    3    0  502 -0.16916004754E+02 -0.54197281871E+01 -0.84767031300E+01  0.20120923597E+02  0.41800000000E+01 0.  1.
        -11    1    4    4    0    0 -0.22995654327E+02 -0.56535008152E+02  0.45092086803E+02  0.75883486721E+02  0.00000000000E+00 0.  1.
         11    1    4    4    0    0 -0.52907589624E+02  0.24584458959E+02  0.83004645459E+02  0.10145629517E+03  0.00000000000E+00 0. -1.
</event>
<event>
 8    1  0.3528896E-009  0.7472214E+02  0.7561462E-02  0.1344734E+00
         -1   -1    0    0    0  501 -0.00000000000E+00  0.00000000000E+00  0.45446366294E+02  0.45446366294E+02  0.00000000000E+00 0.  1.
          1   -1    0    0  501    0  0.00000000000E+00 -0.00000000000E+00 -0.38309939818E+03  0.38309939818E+03  0.00000000000E+00 0. -1.
         25    2    1    2    0    0  0.35102636972E+00  0.51466947957E+02 -0.27483993804E+03  0.30632609901E+03  0.12509883069E+03 0.  0.
         23    2    1    2    0    0 -0.35102636972E+00 -0.51466947957E+02 -0.62813093850E+02  0.12221966547E+03  0.91341074642E+02 0.  0.
          5    1    3    3  502    0  0.11841336484E+02  0.17336574630E+02 -0.26870492276E+03  0.26955626868E+03  0.41800000000E+01 0. -1.
         -5    1    3    3    0  502 -0.11490310115E+02  0.34130373326E+02 -0.61350152813E+01  0.36769830329E+02  0.41800000000E+01 0. -1.
        -11    1    4    4    0    0  0.37150927053E+02 -0.17028815587E+02  0.62952551258E+00  0.40872585477E+02  0.00000000000E+00 0.  1.
         11    1    4    4    0    0 -0.37501953423E+02 -0.34438132369E+02 -0.63442619363E+02  0.81347079992E+02  0.00000000000E+00 0. -1.
</event>
<event>
 8    1  0.3528896E-009  0.1011774E+03  0.7561462E-02  0.1277839E+00
          2   -1    0    0  501    0  0.00000000000E+00  0.00000000000E+00  0.54417686515E+03  0.54417686515E+03  0.00000000000E+00 0. -1.
         -2   -1    0    0    0  501 -0.00000000000E+00 -0.00000000000E+00 -0.39258512995E+02  0.39258512995E+02  0.00000000000E+00 0.  1.
         25    2    1    2    0    0 -0.78700441536E+02 -0.32903412216E+02  0.36911231037E+03  0.39896100720E+03  0.12509833561E+03 0.  0.
         23    2    1    2    0    0  0.78700441536E+02  0.32903412216E+02  0.13580604179E+03  0.18447437094E+03  0.91165336145E+02 0.  0.
          5    1    3    3  502    0 -0.31379799623E+02  0.68630234718E+01  0.31512689264E+03  0.31678734789E+03  0.41800000000E+01 0.  1.
         -5    1    3    3    0  502 -0.47320641914E+02 -0.39766435688E+02  0.53985417723E+02  0.82173659314E+02  0.41800000000E+01 0.  1.
        -11    1    4    4    0    0  0.30478880848E+02 -0.19978612992E+02  0.95771166577E+02  0.10247059823E+03  0.00000000000E+00 0. -1.
         11    1    4    4    0    0  0.48221560688E+02  0.52882025207E+02  0.40034875215E+02  0.82003772711E+02  0.00000000000E+00 0.  1.
</event>
<event>
 8    1  0.3528896E-009  0.1704687E+03  0.7561462E-02  0.1177360E+00
          2   -1    0    0  501    0  0.00000000000E+00  0.00000000000E+00  0.33091575432E+03  0.33091575432E+03  0.00000000000E+00 0. -1.
         -2   -1    0    0    0  501 -0.00000000000E+00 -0.00000000000E+00 -0.12909760635E+03  0.12909760635E+03  0.00000000000E+00 0.  1.
         25    2    1    2    0    0  0.59751379293E+02 -0.12305496645E+03  0.22681616572E+03  0.29292649597E+03  0.12509039496E+03 0.  0.
         23    2    1    2    0    0 -0.59751379293E+02  0.12305496645E+03 -0.24998017750E+02  0.16708686470E+03  0.92630272422E+02 0.  0.
          5    1    3    3  502    0 -0.30591458898E+02 -0.21438914519E+01  0.19973706362E+02  0.36835512402E+02  0.41800000000E+01 0.  1.
         -5    1    3    3    0  502  0.90342838192E+02 -0.12091107500E+03  0.20684245936E+03  0.25609098356E+03  0.41800000000E+01 0.  1.
        -11    1    4    4    0    0 -0.59973439951E+02  0.32070058542E+02 -0.33298611131E+02  0.75723838108E+02  0.00000000000E+00 0.  1.
         11    1    4    4    0    0  0.22206065772E+00  0.90984907909E+02  0.83005933809E+01  0.91363026595E+02  0.00000000000E+00 0. -1.
</event>
<event>
 8    1  0.3528896E-009  0.1058825E+03  0.7561462E-02  0.1268391E+00
          2   -1    0    0  501    0  0.00000000000E+00  0.00000000000E+00  0.11767154094E+04  0.11767154094E+04  0.00000000000E+00 0.  1.
         -2   -1    0    0    0  501 -0.00000000000E+00 -0.00000000000E+00 -0.14910143112E+02  0.14910143112E+02  0.00000000000E+00 0. -1.
         25    2    1    2    0    0 -0.58125189518E+02 -0.29487630190E+02  0.81032512616E+03  0.82251041124E+03  0.12509399873E+03 0.  0.
         23    2    1    2    0    0  0.58125189518E+02  0.29487630190E+02  0.35148014011E+03  0.36911514126E+03  0.91976304673E+02 0.  0.
          5    1    3    3  502    0 -0.57111395562E+02  0.11056809974E+02  0.73097857073E+03  0.73330151222E+03  0.41800000000E+01 0. -1.
         -5    1    3    3    0  502 -0.10137939561E+01 -0.40544440164E+02  0.79346555427E+02  0.89208899021E+02  0.41800000000E+01 0. -1.
        -11    1    4    4    0    0  0.82759082189E+02  0.15044327794E+02  0.26742567471E+03  0.28034244947E+03  0.00000000000E+00 0. -1.
         11    1    4    4    0    0 -0.24633892671E+02  0.14443302396E+02  0.84054465408E+02  0.88772691788E+02  0.00000000000E+00 0.  1.
</event>
<event>
 8    1  0.3528896E-009  0.8737153E+02  0.7561462E-02  0.1309345E+00
          2   -1    0    0  501    0  0.00000000000E+00  0.00000000000E+00  0.64119385838E+03  0.64119385838E+03  0.00000000000E+00 0.  1.
         -2   -1    0    0    0  501 -0.00000000000E+00 -0.00000000000E+00 -0.20892858040E+02  0.20892858040E+02  0.00000000000E+00 0. -1.
         25    2    1    2    0    0  0.13715528097E+02  0.27271125950E+02  0.45834480167E+03  0.47608722216E+03  0.12508899176E+03 0.  0.
         23    2    1    2    0    0 -0.13715528097E+02 -0.27271125950E+02  0.16195619867E+03  0.18599949426E+03  0.86221642050E+02 0.  0.
          5    1    3    3  502    0  0.48223164622E+02  0.19451524944E+01  0.40346661284E+03  0.40636441441E+03  0.41800000000E+01 0. -1.
         -5    1    3    3    0  502 -0.34507636525E+02  0.25325973456E+02  0.54878188832E+02  0.69722807743E+02  0.41800000000E+01 0. -1.
        -11    1    4    4    0    0  0.54861363641E+01  0.26048860556E+02  0.93044044167E+02  0.96777244140E+02  0.00000000000E+00 0.  1.
         11    1    4    4    0    0 -0.19201664461E+02 -0.53319986506E+02  0.68912154502E+02  0.89222250124E+02  0.00000000000E+00 0. -1.
</event>
<event>
 8    1  0.3528896E-009  0.1563668E+03  0.7561462E-02  0.1192861E+00
          2   -1    0    0  501    0  0.00000000000E+00  0.00000000000E+00  0.32383778074E+03  0.32383778074E+03  0.00000000000E+00 0. -1.
         -2   -1    0    0    0  501 -0.00000000000E+00 -0.00000000000E+00 -0.98320417748E+02  0.98320417748E+02  0.00000000000E+00 0.  1.
         25    2    1    2    0    0 -0.10960145169E+03 -0.74620613267E+02  0.61717496723E+02  0.19245063372E+03  0.12508989920E+03 0.  0.
         23    2    1    2    0    0  0.10960145169E+03  0.74620613267E+02  0.16379986627E+03  0.22970756476E+03  0.91402707741E+02 0.  0.
          5    1    3    3  502    0 -0.26715314691E+02  0.24183597964E+02  0.51524569050E+02  0.63014348091E+02  0.41800000000E+01 0.  1.
         -5    1    3    3    0  502 -0.82886137002E+02 -0.98804211231E+02  0.10192927673E+02  0.12943628563E+03  0.41800000000E+01 0.  1.
        -11    1    4    4    0    0  0.59276255211E+02  0.76841776379E+02  0.59383034044E+02  0.11377467979E+03  0.00000000000E+00 0.  1.
         11    1    4    4    0    0  0.50325196483E+02 -0.22211631123E+01  0.10441683222E+03  0.11593288497E+03  0.00000000000E+00 0. -1.
</event>
<event>
 8    1  0.3528896E-009  0.1227921E+03  0.7561462E-02  0.1238561E+00
          1   -1    0    0  501    0  0.00000000000E+00  0.00000000000E+00  0.10118569453E+04  0.10118569453E+04  0.00000000000E+00 0. -1.
         -1   -1    0    0    0  501 -0.00000000000E+00 -0.00000000000E+00 -0.18366178431E+02  0.18366178431E+02  0.00000000000E+00 0.  1.
         25    2    1    2    0    0  0.73724126086E+02 -0.44572327981E+01  0.68160097497E+03  0.69690913399E+03  0.12508932118E+03 0.  0.
         23    2    1    2    0    0 -0.73724126086E+02  0.44572327981E+01  0.31188979194E+03  0.33331398977E+03  0.91476006546E+02 0.  0.
          5    1    3    3  502    0  0.10178679041E+03 -0.25763855381E+02  0.57600439328E+03  0.58551076883E+03  0.41800000000E+01 0.  1.
         -5    1    3    3    0  502 -0.28062664329E+02  0.21306622582E+02  0.10559658169E+03  0.11139836516E+03  0.41800000000E+01 0.  1.
        -11    1    4    4    0    0 -0.88902957892E+02  0.85170530486E+01  0.30156751627E+03  0.31451429695E+03  0.00000000000E+00 0. -1.
         11    1    4    4    0    0  0.15178831806E+02 -0.40598202504E+01  0.10322275666E+02  0.18799692827E+02  0.00000000000E+00 0.  1.
</event>
<event>
 8    1  0.3528896E-009  0.2398535E+03  0.7561462E-02  0.1119890E+00
          1   -1    0    0  501    0  0.00000000000E+00  0.00000000000E+00  0.81151852323E+03  0.81151852323E+03  0.00000000000E+00 0. -1.
         -1   -1    0    0    0  501 -0.00000000000E+00 -0.00000000000E+00 -0.80500368452E+02  0.80500368452E+02  0.00000000000E+00 0.  1.
         25    2    1    2    0    0 -0.22591723355E+03 -0.49501009472E+02  0.38123101697E+03  0.46311679651E+03  0.12510448658E+03 0.  0.
         23    2    1    2    0    0  0.22591723355E+03  0.49501009472E+02  0.34978713781E+03  0.42890209517E+03  0.90094501004E+02 0.  0.
          5    1    3    3  502    0 -0.21074606775E+03 -0.25964598903E+02  0.37933361410E+03  0.43474076029E+03  0.41800000000E+01 0.  1.
         -5    1    3    3    0  502 -0.15171165801E+02 -0.23536410569E+02  0.18974028644E+01  0.28376036225E+02  0.41800000000E+01 0.  1.
        -11    1    4    4    0    0  0.15697603741E+03  0.62314243141E+02  0.18886864819E+03  0.25336911314E+03  0.00000000000E+00 0.  1.
         11    1    4    4    0    0  0.68941196134E+02 -0.12813233669E+02  0.16091848962E+03  0.17553298204E+03  0.00000000000E+00 0. -1.
</event>
<event>
 8    1  0.3528896E-009  0.9187976E+02  0.7561462E-02  0.1298362E+00
         -1   -1    0    0    0  501 -0.00000000000E+00  0.00000000000E+00  0.52017322512E+02  0.52017322512E+02  0.00000000000E+00 0.  1.
          1   -1    0    0  501    0  0.00000000000E+00 -0.00000000000E+00 -0.26266996015E+03  0.26266996015E+03  0.00000000000E+00 0. -1.
         25    2    1    2    0    0  0.26199070416E+02  0.36079222265E+02 -0.12727062377E+03  0.18393897289E+03  0.12509049726E+03 0.  0.
         23    2    1    2    0    0 -0.26199070416E+02 -0.36079222265E+02 -0.83382013876E+02  0.13074830977E+03  0.90302041505E+02 0.  0.
          5    1    3    3  502    0  0.42166776291E+02  0.69365825131E+02 -0.43259763729E+02  0.92078956753E+02  0.41800000000E+01 0. -1.
         -5    1    3    3    0  502 -0.15967705875E+02 -0.33286602867E+02 -0.84010860037E+02  0.91860016141E+02  0.41800000000E+01 0. -1.
        -11    1    4    4    0    0 -0.19443053876E+02  0.77819720241E+01 -0.83790417768E+02  0.86367965950E+02  0.00000000000E+00 0. -1.
         11    1    4    4    0    0 -0.67560165403E+01 -0.43861194289E+02  0.40840389156E+00  0.44380343821E+02  0.00000000000E+00 0.  1.
</event>
<event>
 8    1  0.3528896E-009  0.1094944E+03  0.7561462E-02  0.1261509E+00
          1   -1    0    0  501    0  0.00000000000E+00  0.00000000000E+00  0.15702198589E+03  0.15702198589E+03  0.00000000000E+00 0. -1.
         -1   -1    0    0    0  501 -0.00000000000E+00 -0.00000000000E+00 -0.12647695489E+03  0.12647695489E+03  0.00000000000E+00 0.  1.
         25    2    1    2    0    0 -0.29640511726E+02  0.52886781994E+02  0.82411290324E+02  0.16159893096E+03  0.12508805727E+03 0.  0.
         23    2    1    2    0    0  0.29640511726E+02 -0.52886781994E+02 -0.51866259325E+02  0.12190000981E+03  0.92162529757E+02 0.  0.
          5    1    3    3  502    0 -0.51664078301E+02  0.69456226076E+02  0.97049804116E+02  0.13011333985E+03  0.41800000000E+01 0. -1.
         -5    1    3    3    0  502  0.22023566574E+02 -0.16569444082E+02 -0.14638513792E+02  0.31485591115E+02  0.41800000000E+01 0. -1.
        -11    1    4    4    0    0  0.13047655933E+02 -0.75377827929E+02 -0.19127925294E+02  0.78853888900E+02  0.00000000000E+00 0. -1.
         11    1    4    4    0    0  0.16592855793E+02  0.22491045935E+02 -0.32738334030E+02  0.43046120913E+02  0.00000000000E+00 0.  1.
</event>
<event>
 8    1  0.3528896E-009  0.1262833E+03  0.7561462E-02  0.1233077E+00
         -2   -1    0    0    0  501 -0.00000000000E+00  0.00000000000E+00  0.26519782870E+02  0.26519782870E+02  0.00000000000E+00 0. -1.
          2   -1    0    0  501    0  0.00000000000E+00 -0.00000000000E+00 -0.74946764405E+03  0.74946764405E+03  0.00000000000E+00 0.  1.
         25    2    1    2    0    0  0.78467565234E+02 -0.31594073623E+02 -0.31858925201E+03  0.35256482998E+03  0.12508998185E+03 0.  0.
         23    2    1    2    0    0 -0.78467565234E+02  0.31594073623E+02 -0.40435860917E+03  0.42342259694E+03  0.92873389664E+02 0.  0.
          5    1    3    3  502    0  0.10568479444E+02 -0.62553402584E+02 -0.21904277147E+03  0.22808294339E+03  0.41800000000E+01 0.  1.
         -5    1    3    3    0  502  0.67899085790E+02  0.30959328961E+02 -0.99546480543E+02  0.12448188659E+03  0.41800000000E+01 0.  1.
        -11    1    4    4    0    0 -0.48620128225E+02 -0.21639127289E+02 -0.10288805072E+03  0.11583660768E+03  0.00000000000E+00 0. -1.
         11    1    4    4    0    0 -0.29847437010E+02  0.53233200911E+02 -0.30147055845E+03  0.30758598926E+03  0.00000000000E+00 0.  1.
</event>
<event>
 8    1  0.3528896E-009  0.1019097E+03  0.7561462E-02  0.1276331E+00
         -2   -1    0    0    0  501 -0.00000000000E+00  0.00000000000E+00  0.20727308586E+02  0.20727308586E+02  0.00000000000E+00 0. -1.
          2   -1    0    0  501    0  0.00000000000E+00 -0.00000000000E+00 -0.66193983703E+03  0.66193983703E+03  0.00000000000E+00 0.  1.
         25    2    1    2    0    0 -0.15274020599E+02 -0.42747047063E+02 -0.36828006927E+03  0.39158510389E+03  0.12509227964E+03 0.  0.
         23    2    1    2    0    0  0.15274020599E+02  0.42747047063E+02 -0.27293245917E+03  0.29108204173E+03  0.90421358152E+02 0.  0.
          5    1    3    3  502    0  0.19443481025E+02 -0.68509359141E+02 -0.31433343956E+03  0.32232679825E+03  0.41800000000E+01 0. -1.
         -5    1    3    3    0  502 -0.34717501625E+02  0.25762312078E+02 -0.53946629718E+02  0.69258305644E+02  0.41800000000E+01 0. -1.
        -11    1    4    4    0    0  0.46330174938E+02  0.31472467874E+02 -0.23102255420E+03  0.23771500141E+03  0.00000000000E+00 0.  1.
         11    1    4    4    0    0 -0.31056154339E+02  0.11274579189E+02 -0.41909904968E+02  0.53367040321E+02  0.00000000000E+00 0. -1.
</event>
<event>
 8    1  0.3528896E-009  0.2423913E+03  0.7561462E-02  0.1118210E+00
          2   -1    0    0  501    0  0.00000000000E+00  0.00000000000E+00  0.41137698132E+03  0.41137698132E+03  0.00000000000E+00 0. -1.
         -2   -1    0    0    0  501 -0.00000000000E+00 -0.00000000000E+00 -0.15116683798E+03  0.15116683798E+03  0.00000000000E+00 0.  1.
         25    2    1    2    0    0 -0.14971334343E+02  0.22205492717E+03  0.10037921468E+03  0.27432795518E+03  0.12508920304E+03 0.  0.
         23    2    1    2    0    0  0.14971334343E+02 -0.22205492717E+03  0.15983092865E+03  0.28821586412E+03  0.89386391833E+02 0.  0.
          5    1    3    3  502    0 -0.62586824270E+02  0.13725990840E+03  0.91731211415E+02  0.17660543756E+03  0.41800000000E+01 0.  1.
         -5    1    3    3    0  502  0.47615489926E+02  0.84795018770E+02  0.86480032675E+01  0.97722517618E+02  0.41800000000E+01 0.  1.
        -11    1    4    4    0    0 -0.29832878225E+02 -0.45721835597E+02  0.17856263831E+02  0.57439820957E+02  0.00000000000E+00 0. -1.
         11    1    4    4    0    0  0.44804212569E+02 -0.17633309158E+03  0.14197466482E+03  0.23077604317E+03  0.00000000000E+00 0.  1.
</event>
<event>
 8    1  0.3528896E-009  0.1695338E+03  0.7561462E-02  0.1178335E+00
         -1   -1    0    0    0  501 -0.00000000000E+00  0.00000000000E+00  0.45090896026E+02  0.45090896026E+02  0.00000000000E+00 0.  1.
          1   -1    0    0  501    0  0.00000000000E+00 -0.00000000000E+00 -0.85735454891E+03  0.85735454891E+03  0.00000000000E+00 0. -1.
         25    2    1    2    0    0 -0.15884309420E+03  0.31828135438E+02 -0.37286399714E+03  0.42534537403E+03  0.12508784138E+03 0.  0.
         23    2    1    2    0    0  0.15884309420E+03 -0.31828135438E+02 -0.43939965574E+03  0.47710007091E+03  0.91149664902E+02 0.  0.
          5    1    3    3  502    0 -0.14643705840E+03  0.46087531659E+01 -0.18979408890E+03  0.23980058645E+03  0.41800000000E+01 0. -1.
         -5    1    3    3    0  502 -0.12406035804E+02  0.27219382272E+02 -0.18306990824E+03  0.18554478758E+03  0.41800000000E+01 0. -1.
        -11    1    4    4    0    0  0.97800481638E+02 -0.24427221433E+02 -0.14659954190E+03  0.17791303786E+03  0.00000000000E+00 0.  1.
         11    1    4    4    0    0  0.61042612566E+02 -0.74009140051E+01 -0.29280011384E+03  0.29918703305E+03  0.00000000000E+00 0. -1.
</event>
<event>
 8    1  0.3528896E-009  0.1131514E+03  0.7561462E-02  0.1254843E+00
          1   -1    0    0  501    0  0.00000000000E+00  0.00000000000E+00  0.17001404238E+02  0.17001404238E+02  0.00000000000E+00 0. -1.
         -1   -1    0    0    0  501 -0.00000000000E+00 -0.00000000000E+00 -0.78865528882E+03  0.78865528882E+03  0.00000000000E+00 0.  1.
         25    2    1    2    0    0  0.21719335201E+02  0.23169260234E+02 -0.50625792658E+03  0.52244925968E+03  0.12509035367E+03 0.  0.
         23    2    1    2    0    0 -0.21719335201E+02 -0.23169260234E+02 -0.26539595800E+03  0.28320743337E+03  0.93610318083E+02 0.  0.
          5    1    3    3  502    0  0.19104552431E+02 -0.50603250419E+02 -0.24471792270E+03  0.25065914499E+03  0.41800000000E+01 0.  1.
         -5    1    3    3    0  502  0.26147827700E+01  0.73772510653E+02 -0.26154000387E+03  0.27179011469E+03  0.41800000000E+01 0.  1.
        -11    1    4    4    0    0 -0.57436131035E+02 -0.39904155489E+01 -0.13840895560E+03  0.14990620919E+03  0.00000000000E+00 0.  1.
         11    1    4    4    0    0  0.35716795835E+02 -0.19178844685E+02 -0.12698700241E+03  0.13330122418E+03  0.00000000000E+00 0. -1.
</event>
<event>
 8    1  0.3528896E-009  0.2097572E+03  0.7561462E-02  0.1141758E+00
         -2   -1    0    0    0  501 -0.00000000000E+00  0.00000000000E+00  0.12021069739E+03  0.12021069739E+03  0.00000000000E+00 0.  1.
          2   -1    0    0  501    0  0.00000000000E+00 -0.00000000000E+00 -0.38737000754E+03  0.38737000754E+03  0.00000000000E+00 0. -1.
         25    2    1    2    0    0  0.17176901504E+03 -0.55884429745E+02 -0.81563422971E+02  0.23436548416E+03  0.12508766599E+03 0.  0.
         23    2    1    2    0    0 -0.17176901504E+03  0.55884429745E+02 -0.18559588717E+03  0.27321522077E+03  0.87023327389E+02 0.  0.
          5    1    3    3  502    0  0.16789868172E+03 -0.86191160387E+02 -0.72557807662E+02  0.20223993499E+03  0.41800000000E+01 0.  1.
         -5    1    3    3    0  502  0.38703333182E+01  0.30306730642E+02 -0.90056153097E+01  0.32125549167E+02  0.41800000000E+01 0.  1.
        -11    1    4    4    0    0 -0.10018224170E+03 -0.12427988464E+02 -0.83158413833E+02  0.13079089510E+03  0.00000000000E+00 0.  1.
         11    1    4    4    0    0 -0.71586773335E+02  0.68312418210E+02 -0.10243747334E+03  0.14242432567E+03  0.00000000000E+00 0. -1.
</event>
<event>
 8    1  0.3528896E-009  0.7554857E+02  0.7561462E-02  0.1342181E+00
         -2   -1    0    0    0  501 -0.00000000000E+00  0.00000000000E+00  0.13068594759E+03  0.13068594759E+03  0.00000000000E+00 0. -1.
          2   -1    0    0  501    0  0.00000000000E+00 -0.00000000000E+00 -0.94645992245E+02  0.94645992245E+02  0.00000000000E+00 0.  1.
         25    2    1    2    0    0  0.78743049472E+01 -0.10503124289E+02 -0.49704598786E+00  0.12577552605E+03  0.12508763168E+03 0.  0.
         23    2    1    2    0    0 -0.78743049472E+01  0.10503124289E+02  0.36537001337E+02  0.99556413791E+02  0.91674460795E+02 0.  0.
          5    1    3    3  502    0 -0.57029676067E+01 -0.32646074136E+02 -0.55515917003E+02  0.64790272701E+02  0.41800000000E+01 0. -1.
         -5    1    3    3    0  502  0.13577272554E+02  0.22142949847E+02  0.55018871015E+02  0.60985253346E+02  0.41800000000E+01 0. -1.
        -11    1    4    4    0    0  0.33071227691E+02 -0.21475547926E+02  0.23822448464E+02  0.46069668009E+02  0.00000000000E+00 0.  1.
         11    1    4    4    0    0 -0.40945532638E+02  0.31978672214E+02  0.12714552872E+02  0.53486745782E+02  0.00000000000E+00 0. -1.
</event>
<event>
 8    1  0.3528896E-009  0.1086947E+03  0.7561462E-02  0.1263006E+00
         -1   -1    0    0    0  501 -0.00000000000E+00  0.00000000000E+00  0.57370628710E+02  0.57370628710E+02  0.00000000000E+00 0. -1.
          1   -1    0    0  501    0  0.00000000000E+00 -0.00000000000E+00 -0.24110623406E+03  0.24110623406E+03  0.00000000000E+00 0.  1.
         25    2    1    2    0    0  0.82057721205E+01 -0.45761663214E+02 -0.11382234137E+03  0.17539903575E+03  0.12509129398E+03 0.  0.
         23    2    1    2    0    0 -0.82057721205E+01  0.45761663214E+02 -0.69913263981E+02  0.12307782702E+03  0.89993458137E+02 0.  0.
          5    1    3    3  502    0  0.35893502988E+02 -0.79624373809E+02 -0.89721955548E+02  0.12528322381E+03  0.41800000000E+01 0. -1.
         -5    1    3    3    0  502 -0.27687730867E+02  0.33862710594E+02 -0.24100385819E+02  0.50115811936E+02  0.41800000000E+01 0. -1.
        -11    1    4    4    0    0  0.74890584720E+01  0.62567131235E+02 -0.16821498077E+02  0.65220354992E+02  0.00000000000E+00 0. -1.
         11    1    4    4    0    0 -0.15694830592E+02 -0.16805468021E+02 -0.53091765904E+02  0.57857472029E+02  0.00000000000E+00 0.  1.
</event>
<event>
 8    1  0.3528896E-009  0.1235039E+03  0.7561462E-02  0.1237426E+00
          1   -1    0    0  501    0  0.00000000000E+00  0.00000000000E+00  0.76682572285E+03  0.76682572285E+03  0.00000000000E+00 0. -1.
         -1   -1    0    0    0  501 -0.00000000000E+00 -0.00000000000E+00 -0.22469369664E+02  0.22469369664E+02  0.00000000000E+00 0.  1.
         25    2    1    2    0    0 -0.39694814021E+02 -0.61697013005E+02  0.40353818073E+03  0.42880334390E+03  0.12508814794E+03 0.  0.
         23    2    1    2    0    0  0.39694814021E+02  0.61697013005E+02  0.34081817245E+03  0.36049174862E+03  0.91733715024E+02 0.  0.
          5    1    3    3  502    0 -0.72727371481E+02 -0.12052618515E+02  0.30273210867E+03  0.31160670435E+03  0.41800000000E+01 0.  1.
         -5    1    3    3    0  502  0.33032557460E+02 -0.49644394490E+02  0.10080607206E+03  0.11719663954E+03  0.41800000000E+01 0.  1.
        -11    1    4    4    0    0  0.64440315473E+02  0.24971290877E+02  0.25113870756E+03  0.26047412551E+03  0.00000000000E+00 0. -1.
         11    1    4    4    0    0 -0.24745501452E+02  0.36725722128E+02  0.89679464896E+02  0.10001762311E+03  0.00000000000E+00 0.  1.
</event>
<event>
 8    1  0.3528896E-009  0.1097050E+03  0.7561462E-02  0.1261117E+00
         -1   -1    0    0    0  501 -0.00000000000E+00  0.00000000000E+00  0.44541595195E+03  0.44541595195E+03  0.00000000000E+00 0.  1.
          1   -1    0    0  501    0  0.00000000000E+00 -0.00000000000E+00 -0.33274321671E+02  0.33274321671E+02  0.00000000000E+00 0. -1.
         25    2    1    2    0    0  0.15768738278E+02  0.46167215931E+02  0.26896975539E+03  0.30061866888E+03  0.12508712896E+03 0.  0.
         23    2    1    2    0    0 -0.15768738278E+02 -0.46167215931E+02  0.14317187490E+03  0.17807160475E+03  0.93974707884E+02 0.  0.
          5    1    3    3  502    0 -0.54322646022E+02  0.17886155413E+02  0.96219507887E+02  0.11201129641E+03  0.41800000000E+01 0.  1.
         -5    1    3    3    0  502  0.70091384300E+02  0.28281060518E+02  0.17275024750E+03  0.18860737246E+03  0.41800000000E+01 0.  1.
        -11    1    4    4    0    0  0.25805292824E+02 -0.34697114603E+02  0.20143032625E+02  0.47702669347E+02  0.00000000000E+00 0. -1.
         11    1    4    4    0    0 -0.41574031102E+02 -0.11470101328E+02  0.12302884227E+03  0.13036893540E+03  0.00000000000E+00 0.  1.
</event>
<event>
 8    1  0.3528896E-009  0.1230543E+03  0.7561462E-02  0.1238142E+00
         -2   -1    0    0    0  501 -0.00000000000E+00  0.00000000000E+00  0.63422969756E+02  0.63422969756E+02  0.00000000000E+00 0.  1.
          2   -1    0    0  501    0  0.00000000000E+00 -0.00000000000E+00 -0.50718145302E+03  0.50718145302E+03  0.00000000000E+00 0. -1.
         25    2    1    2    0    0 -0.44398132598E+02 -0.92029225267E+02 -0.39348341112E+03  0.42534386049E+03  0.12509049665E+03 0.  0.
         23    2    1    2    0    0  0.44398132598E+02  0.92029225267E+02 -0.50275072148E+02  0.14526056229E+03  0.90180239490E+02 0.  0.
          5    1    3    3  502    0 -0.36467889677E+02 -0.78172348795E+01 -0.28626036135E+03  0.28871003277E+03  0.41800000000E+01 0. -1.
         -5    1    3    3    0  502 -0.79302429215E+01 -0.84211990388E+02 -0.10722304976E+03  0.13663382772E+03  0.41800000000E+01 0. -1.
        -11    1    4    4    0    0  0.63532196986E+02  0.74835558453E+02 -0.11653126622E+02  0.98855936711E+02  0.00000000000E+00 0.  1.
         11    1    4    4    0    0 -0.19134064388E+02  0.17193666814E+02 -0.38621945526E+02  0.46404625575E+02  0.00000000000E+00 0. -1.
</event>
<event>
 8    1  0.3528896E-009  0.1105428E+03  0.7561462E-02  0.1259568E+00
         -3   -1    0    0    0  501 -0.00000000000E+00  0.00000000000E+00  0.99916878149E+03  0.99916878149E+03  0.00000000000E+00 0.  1.
          3   -1    0    0  501    0  0.00000000000E+00 -0.00000000000E+00 -0.16476710023E+02  0.16476710023E+02  0.00000000000E+00 0. -1.
         25    2    1    2    0    0  0.86841998796E+01  0.83761608660E+01  0.77815496239E+03  0.78823764966E+03  0.12509145238E+03 0.  0.
         23    2    1    2    0    0 -0.86841998796E+01 -0.83761608660E+01  0.20453710908E+03  0.22740784185E+03  0.98657600549E+02 0.  0.
          5    1    3    3  502    0 -0.54895681552E+02  0.21847379957E+02  0.31420965492E+03  0.31974368408E+03  0.41800000000E+01 0.  1.
         -5    1    3    3    0  502  0.63579881432E+02 -0.13471219091E+02  0.46394530747E+03  0.46849396559E+03  0.41800000000E+01 0.  1.
        -11    1    4    4    0    0  0.19060729332E+02 -0.46109086791E+02  0.79195581624E+02  0.93601813209E+02  0.00000000000E+00 0.  1.
         11    1    4    4    0    0 -0.27744929211E+02  0.37732925925E+02  0.12534152746E+03  0.13380602864E+03  0.00000000000E+00 0. -1.
</event>
<event>
 8    1  0.3528896E-009  0.1319249E+03  0.7561462E-02  0.1224627E+00
         -1   -1    0    0    0  501 -0.00000000000E+00  0.00000000000E+00  0.20245514622E+02  0.20245514622E+02  0.00000000000E+00 0.  1.
          1   -1    0    0  501    0  0.00000000000E+00 -0.00000000000E+00 -0.10088425221E+04  0.10088425221E+04  0.00000000000E+00 0. -1.
         25    2    1    2    0    0 -0.15576530358E+02  0.75990446991E+02 -0.72670338202E+03  0.74145997819E+03  0.12509163637E+03 0.  0.
         23    2    1    2    0    0  0.15576530358E+02 -0.75990446991E+02 -0.26189362548E+03  0.28762805855E+03  0.90135745783E+02 0.  0.
          5    1    3    3  502    0 -0.44177477164E+02 -0.18494510522E+02 -0.21584932920E+03  0.22113819599E+03  0.41800000000E+01 0.  1.
         -5    1    3    3    0  502  0.28600946806E+02  0.94484957513E+02 -0.51085405282E+03  0.52032178220E+03  0.41800000000E+01 0.  1.
        -11    1    4    4    0    0  0.50224514453E+02 -0.27172167781E+02 -0.15389271266E+03  0.16414565351E+03  0.00000000000E+00 0.  1.
         11    1    4    4    0    0 -0.34647984095E+02 -0.48818279210E+02 -0.10800091282E+03  0.12348240505E+03  0.00000000000E+00 0. -1.
</event>
<event>
 8    1  0.3528896E-009  0.1333684E+03  0.7561462E-02  0.1222542E+00
          1   -1    0    0  501    0  0.00000000000E+00  0.00000000000E+00  0.12901054070E+04  0.12901054070E+04  0.00000000000E+00 0. -1.
         -1   -1    0    0    0  501 -0.00000000000E+00 -0.00000000000E+00 -0.17117533067E+02  0.17117533067E+02  0.00000000000E+00 0.  1.
         25    2    1    2    0    0 -0.88795178698E+02  0.46624950864E+02  0.70811649618E+03  0.72604065813E+03  0.12509034852E+03 0.  0.
         23    2    1    2    0    0  0.88795178698E+02 -0.46624950864E+02  0.56487137777E+03  0.58118228196E+03  0.92923095241E+02 0.  0.
          5    1    3    3  502    0 -0.45005317648E+02 -0.30162714164E+02  0.44798296278E+03  0.45126652356E+03  0.41800000000E+01 0. -1.
         -5    1    3    3    0  502 -0.43789861050E+02  0.76787665028E+02  0.26013353339E+03  0.27477413457E+03  0.41800000000E+01 0. -1.
        -11    1    4    4    0    0  0.27475993635E+02  0.19522453956E+02  0.64801001175E+02  0.73042632674E+02  0.00000000000E+00 0.  1.
         11    1    4    4    0    0  0.61319185063E+02 -0.66147404820E+02  0.50007037660E+03  0.50813964928E+03  0.00000000000E+00 0. -1.
</event>
<event>
 8    1  0.3528896E-009  0.1943082E+03  0.7561462E-02  0.1154632E+00
         -2   -1    0    0    0  501 -0.00000000000E+00  0.00000000000E+00  0.20553975043E+03  0.20553975043E+03  0.00000000000E+00 0.  1.
          2   -1    0    0  501    0  0.00000000000E+00 -0.00000000000E+00 -0.18826687803E+03  0.18826687803E+03  0.00000000000E+00 0. -1.
         25    2    1    2    0    0 -0.72702749845E+02  0.14666745701E+03  0.10788306281E+02  0.20629999449E+03  0.12508504064E+03 0.  0.
         23    2    1    2    0    0  0.72702749845E+02 -0.14666745701E+03  0.64845661138E+01  0.18750663398E+03  0.91212145059E+02 0.  0.
          5    1    3    3  502    0 -0.97719538197E+02  0.63021381562E+02 -0.89307033091E+01  0.11669632617E+03  0.41800000000E+01 0. -1.
         -5    1    3    3    0  502  0.25016788351E+02  0.83646075449E+02  0.19719009591E+02  0.89603668321E+02  0.41800000000E+01 0. -1.
        -11    1    4    4    0    0  0.91242403849E+02 -0.10410711696E+03 -0.85871353552E+01  0.13869825866E+03  0.00000000000E+00 0. -1.
         11    1    4    4    0    0 -0.18539654003E+02 -0.42560340050E+02  0.15071701469E+02  0.48808375315E+02  0.00000000000E+00 0.  1.
</event>
<event>
 8    1  0.3528896E-009  0.8277889E+02  0.7561462E-02  0.1321345E+00
          2   -1    0    0  501    0  0.00000000000E+00  0.00000000000E+00  0.31416597707E+03  0.31416597707E+03  0.00000000000E+00 0. -1.
         -2   -1    0    0    0  501 -0.00000000000E+00 -0.00000000000E+00 -0.72755412566E+02  0.72755412566E+02  0.00000000000E+00 0.  1.
         25    2    1    2    0    0 -0.62213531399E+02  0.20547061754E+02  0.23511397868E+03  0.27426224363E+03  0.12509392502E+03 0.  0.
         23    2    1    2    0    0  0.62213531399E+02 -0.20547061754E+02  0.62965858191E+01  0.11265914600E+03  0.91431564289E+02 0.  0.
          5    1    3    3  502    0 -0.25023896929E+02 -0.26645578631E+02  0.20240838746E+03  0.20572508353E+03  0.41800000000E+01 0. -1.
         -5    1    3    3    0  502 -0.37189634470E+02  0.47192640384E+02  0.32705591222E+02  0.68537160108E+02  0.41800000000E+01 0. -1.
        -11    1    4    4    0    0  0.17122331885E+02  0.34348425423E+01 -0.40050631649E+02  0.43692396225E+02  0.00000000000E+00 0.  1.
         11    1    4    4    0    0  0.45091199515E+02 -0.23981904296E+02  0.46347217468E+02  0.68966749773E+02  0.00000000000E+00 0. -1.
</event>
<event>
 8    1  0.3528896E-009  0.3520359E+03  0.7561462E-02  0.1061783E+00
          1   -1    0    0  501    0  0.00000000000E+00  0.00000000000E+00  0.67325500403E+02  0.67325500403E+02  0.00000000000E+00 0. -1.
         -1   -1    0    0    0  501 -0.00000000000E+00 -0.00000000000E+00 -0.19419123532E+04  0.19419123532E+04  0.00000000000E+00 0.  1.
         25    2    1    2    0    0 -0.70780948501E+02  0.33725996456E+03 -0.98025149855E+03  0.10465625271E+04  0.12508355752E+03 0.  0.
         23    2    1    2    0    0  0.70780948501E+02 -0.33725996456E+03 -0.89433535421E+03  0.96267532647E+03  0.90298571573E+02 0.  0.
          5    1    3    3  502    0 -0.83314610297E+02  0.32456166081E+03 -0.96839054884E+03  0.10247337817E+04  0.41800000000E+01 0. -1.
         -5    1    3    3    0  502  0.12533661795E+02  0.12698303748E+02 -0.11860949711E+02  0.21828745363E+02  0.41800000000E+01 0. -1.
        -11    1    4    4    0    0  0.65452470857E+02 -0.15442362551E+03 -0.51337340298E+03  0.54007678431E+03  0.00000000000E+00 0. -1.
         11    1    4    4    0    0  0.53284776443E+01 -0.18283633905E+03 -0.38096195123E+03  0.42259854216E+03  0.00000000000E+00 0.  1.
</event>
<event>
 8    1  0.3528896E-009  0.1053619E+03  0.7561462E-02  0.1269408E+00
         -1   -1    0    0    0  501 -0.00000000000E+00  0.00000000000E+00  0.56190598157E+02  0.56190598157E+02  0.00000000000E+00 0.  1.
          1   -1    0    0  501    0  0.00000000000E+00 -0.00000000000E+00 -0.23910947633E+03  0.23910947633E+03  0.00000000000E+00 0. -1.
         25    2    1    2    0    0 -0.13220875651E+02  0.21292107142E+02 -0.13934084571E+03  0.18892049077E+03  0.12508770991E+03 0.  0.
         23    2    1    2    0    0  0.13220875651E+02 -0.21292107142E+02 -0.43578032457E+02  0.10637958371E+03  0.93751936182E+02 0.  0.
          5    1    3    3  502    0 -0.65317259071E+02  0.34044174451E+02 -0.80159215532E+02  0.10894183026E+03  0.41800000000E+01 0. -1.
         -5    1    3    3    0  502  0.52096383420E+02 -0.12752067308E+02 -0.59181630182E+02  0.79978660511E+02  0.41800000000E+01 0. -1.
        -11    1    4    4    0    0  0.12865650248E+02  0.29591043954E+02  0.87070108250E+01  0.33421054383E+02  0.00000000000E+00 0.  1.
         11    1    4    4    0    0  0.35522540374E+00 -0.50883151096E+02 -0.52285043282E+02  0.72958529327E+02  0.00000000000E+00 0. -1.
</event>
<event>
 8    1  0.3528896E-009  0.1934622E+03  0.7561462E-02  0.1155375E+00
         -1   -1    0    0    0  501 -0.00000000000E+00  0.00000000000E+00  0.20774066380E+03  0.20774066380E+03  0.00000000000E+00 0.  1.
          1   -1    0    0  501    0  0.00000000000E+00 -0.00000000000E+00 -0.19559117083E+03  0.19559117083E+03  0.00000000000E+00 0. -1.
         25    2    1    2    0    0  0.92287190017E+02 -0.13130797261E+03  0.60225301994E+02  0.21220819829E+03  0.12508606361E+03 0.  0.
         23    2    1    2    0    0 -0.92287190017E+02  0.13130797261E+03 -0.48075809023E+02  0.19112363633E+03  0.91968754692E+02 0.  0.
          5    1    3    3  502    0 -0.30684407022E+02 -0.32901936539E+02  0.21108917053E+02  0.49871124325E+02  0.41800000000E+01 0.  1.
         -5    1    3    3    0  502  0.12297159704E+03 -0.98406036068E+02  0.39116384941E+02  0.16233707397E+03  0.41800000000E+01 0.  1.
        -11    1    4    4    0    0 -0.80254246683E+02  0.35719874057E+02 -0.31758619621E+02  0.93409118578E+02  0.00000000000E+00 0. -1.
         11    1    4    4    0    0 -0.12032943334E+02  0.95588098549E+02 -0.16317189402E+02  0.97714517752E+02  0.00000000000E+00 0.  1.
</event>
<event>
 8    1  0.3528896E-009  0.8054872E+02  0.7561462E-02  0.1327501E+00
          1   -1    0    0  501    0  0.00000000000E+00  0.00000000000E+00  0.41678247379E+03  0.41678247379E+03  0.00000000000E+00 0. -1.
         -1   -1    0    0    0  501 -0.00000000000E+00 -0.00000000000E+00 -0.34819902179E+02  0.34819902179E+02  0.00000000000E+00 0.  1.
         25    2    1    2    0    0 -0.12020011539E+02  0.25428111027E+02  0.29347804323E+03  0.32026329863E+03  0.12509256208E+03 0.  0.
         23    2    1    2    0    0  0.12020011539E+02 -0.25428111027E+02  0.88484528390E+02  0.13133907734E+03  0.92894412990E+02 0.  0.
          5    1    3    3  502    0 -0.27719953758E+01 -0.43774743612E+02  0.48634124293E+02  0.65625167295E+02  0.41800000000E+01 0.  1.
         -5    1    3    3    0  502 -0.92480161630E+01  0.69202854639E+02  0.24484391893E+03  0.25463813134E+03  0.41800000000E+01 0.  1.
        -11    1    4    4    0    0 -0.11162362460E+02 -0.20575631569E+02 -0.13240196517E+02  0.26893451879E+02  0.00000000000E+00 0.  1.
         11    1    4    4    0    0  0.23182373999E+02 -0.48524794581E+01  0.10172472491E+03  0.10444562546E+03  0.00000000000E+00 0. -1.
</event>
<event>
 8    1  0.3528896E-009  0.1134222E+03  0.7561462E-02  0.1254361E+00
         -2   -1    0    0    0  501 -0.00000000000E+00  0.00000000000E+00  0.46058803047E+03  0.46058803047E+03  0.00000000000E+00 0.  1.
          2   -1    0    0  501    0  0.00000000000E+00 -0.00000000000E+00 -0.59061461055E+02  0.59061461055E+02  0.00000000000E+00 0. -1.
         25    2    1    2    0    0  0.24191147535E+02  0.10042019499E+03  0.32069545289E+03  0.35940615949E+03  0.12513107845E+03 0.  0.
         23    2    1    2    0    0 -0.24191147535E+02 -0.10042019499E+03  0.80831116523E+02  0.16024333203E+03  0.92058833808E+02 0.  0.
          5    1    3    3  502    0  0.73408328577E+00  0.81535515421E+01  0.22208571200E+03  0.22227585374E+03  0.41800000000E+01 0. -1.
         -5    1    3    3    0  502  0.23457064249E+02  0.92266643449E+02  0.98609740890E+02  0.13713030575E+03  0.41800000000E+01 0. -1.
        -11    1    4    4    0    0  0.12812282132E+02  0.24425015325E+01  0.42412600814E+02  0.44372841863E+02  0.00000000000E+00 0. -1.
         11    1    4    4    0    0 -0.37003429667E+02 -0.10286269652E+03  0.38418515708E+02  0.11587049017E+03  0.00000000000E+00 0.  1.
</event>
<event>
 8    1  0.3528896E-009  0.1068754E+03  0.7561462E-02  0.1266468E+00
         -3   -1    0    0    0  501 -0.00000000000E+00  0.00000000000E+00  0.31024925635E+02  0.31024925635E+02  0.00000000000E+00 0.  1.
          3   -1    0    0  501    0  0.00000000000E+00 -0.00000000000E+00 -0.39432483450E+03  0.39432483450E+03  0.00000000000E+00 0. -1.
         25    2    1    2    0    0 -0.32878986851E+02 -0.24739682169E+02 -0.20951417447E+03  0.24746069555E+03  0.12509007509E+03 0.  0.
         23    2    1    2    0    0  0.32878986851E+02  0.24739682169E+02 -0.15378573439E+03  0.17788906459E+03  0.79381279572E+02 0.  0.
          5    1    3    3  502    0 -0.18907268413E+02 -0.73080812228E+02 -0.15889171915E+03  0.17596119097E+03  0.41800000000E+01 0.  1.
         -5    1    3    3    0  502 -0.13971718438E+02  0.48341130059E+02 -0.50622455319E+02  0.71499504572E+02  0.41800000000E+01 0.  1.
        -11    1    4    4    0    0 -0.99143742845E+01  0.40769719456E+02 -0.56211143469E+02  0.70143834313E+02  0.00000000000E+00 0. -1.
         11    1    4    4    0    0  0.42793361136E+02 -0.16030037288E+02 -0.97574590925E+02  0.10774523027E+03  0.00000000000E+00 0.  1.
</event>
<event>
 8    1  0.3528896E-009  0.9482267E+02  0.7561462E-02  0.1291576E+00
          1   -1    0    0  501    0  0.00000000000E+00  0.00000000000E+00  0.49535233749E+03  0.49535233749E+03  0.00000000000E+00 0. -1.
         -1   -1    0    0    0  501 -0.00000000000E+00 -0.00000000000E+00 -0.30286422862E+02  0.30286422862E+02  0.00000000000E+00 0.  1.
         25    2    1    2    0    0  0.52821980039E+02  0.21066501308E+02  0.22094109433E+03  0.26018513082E+03  0.12508947232E+03 0.  0.
         23    2    1    2    0    0 -0.52821980039E+02 -0.21066501308E+02  0.24412482029E+03  0.26545362952E+03  0.87377013525E+02 0.  0.
          5    1    3    3  502    0  0.71132249195E+02  0.58011778594E+01  0.49288757830E+02  0.86834927238E+02  0.41800000000E+01 0. -1.
         -5    1    3    3    0  502 -0.18310269156E+02  0.15265323448E+02  0.17165233650E+03  0.17335020359E+03  0.41800000000E+01 0. -1.
        -11    1    4    4    0    0 -0.50569212699E+02  0.18852777411E+02  0.79813443157E+02  0.96347590513E+02  0.00000000000E+00 0.  1.
         11    1    4    4    0    0 -0.22527673400E+01 -0.39919278719E+02  0.16431137714E+03  0.16910603901E+03  0.00000000000E+00 0. -1.
</event>
<event>
 8    1  0.3528896E-009  0.1270683E+03  0.7561462E-02  0.1231872E+00
         -2   -1    0    0    0  501 -0.00000000000E+00  0.00000000000E+00  0.86092873320E+02  0.86092873320E+02  0.00000000000E+00 0. -1.
          2   -1    0    0  501    0  0.00000000000E+00 -0.00000000000E+00 -0.29976951371E+03  0.29976951371E+03  0.00000000000E+00 0.  1.
         25    2    1    2    0    0  0.19269470683E+02  0.94650473636E+02 -0.14684451329E+03  0.21573275661E+03  0.12508911437E+03 0.  0.
         23    2    1    2    0    0 -0.19269470683E+02 -0.94650473636E+02 -0.66832127098E+02  0.17012963041E+03  0.12307531544E+03 0.  0.
          5    1    3    3  502    0  0.23245580869E+02  0.62065700205E+02 -0.12442136187E+01  0.66419339348E+02  0.41800000000E+01 0. -1.
         -5    1    3    3    0  502 -0.39761101864E+01  0.32584773432E+02 -0.14560029967E+03  0.14931341727E+03  0.41800000000E+01 0. -1.
        -11    1    4    4    0    0 -0.18888121023E+02  0.27019441763E+02 -0.40456719452E+01  0.33214135702E+02  0.00000000000E+00 0. -1.
         11    1    4    4    0    0 -0.38134965973E+00 -0.12166991540E+03 -0.62786455152E+02  0.13691549471E+03  0.00000000000E+00 0.  1.
</event>
<event>
 8    1  0.3528896E-009  0.1096390E+03  0.7561462E-02  0.1261240E+00
          2   -1    0    0  501    0  0.00000000000E+00  0.00000000000E+00  0.71918912020E+03  0.71918912020E+03  0.00000000000E+00 0. -1.
         -2   -1    0    0    0  501 -0.00000000000E+00 -0.00000000000E+00 -0.25600495372E+02  0.25600495372E+02  0.00000000000E+00 0.  1.
         25    2    1    2    0    0 -0.64326387956E+02  0.42484055516E+02  0.45127125842E+03  0.47459013442E+03  0.12508903968E+03 0.  0.
         23    2    1    2    0    0  0.64326387956E+02 -0.42484055516E+02  0.24231736640E+03  0.27019948115E+03  0.91363419343E+02 0.  0.
          5    1    3    3  502    0  0.24718533477E+02 -0.10465936666E+02  0.28837593217E+02  0.39618441541E+02  0.41800000000E+01 0.  1.
         -5    1    3    3    0  502 -0.89044921433E+02  0.52949992183E+02  0.42243366521E+03  0.43497169288E+03  0.41800000000E+01 0.  1.
        -11    1    4    4    0    0  0.16215437037E+02 -0.36508790774E+02  0.24084563286E+02  0.46646526031E+02  0.00000000000E+00 0.  1.
         11    1    4    4    0    0  0.48110950919E+02 -0.59752647419E+01  0.21823280312E+03  0.22355295512E+03  0.00000000000E+00 0. -1.
</event>
<event>
 8    1  0.3528896E-009  0.1170817E+03  0.7561462E-02  0.1247991E+00
         -1   -1    0    0    0  501 -0.00000000000E+00  0.00000000000E+00  0.10835134876E+03  0.10835134876E+03  0.00000000000E+00 0.  1.
          1   -1    0    0  501    0  0.00000000000E+00 -0.00000000000E+00 -0.19585364686E+03  0.19585364686E+03  0.00000000000E+00 0. -1.
         25    2    1    2    0    0 -0.43709520535E+02 -0.80923803218E+02 -0.49841504596E+02  0.16305126578E+03  0.12506940305E+03 0.  0.
         23    2    1    2    0    0  0.43709520535E+02  0.80923803218E+02 -0.37660793504E+02  0.14115372983E+03  0.10023400604E+03 0.  0.
          5    1    3    3  502    0 -0.32007306417E+02  0.14218532308E+02 -0.56787230204E+02  0.66849803585E+02  0.41800000000E+01 0.  1.
         -5    1    3    3    0  502 -0.11702214118E+02 -0.95142335526E+02  0.69457256087E+01  0.96201462197E+02  0.41800000000E+01 0.  1.
        -11    1    4    4    0    0  0.10264258163E+02  0.65166140762E+02  0.23211110729E+02  0.69933801261E+02  0.00000000000E+00 0.  1.
         11    1    4    4    0    0  0.33445262372E+02  0.15757662455E+02 -0.60871904233E+02  0.71219928574E+02  0.00000000000E+00 0. -1.
</event>
<event>
 8    1  0.3528896E-009  0.9051129E+02  0.7561462E-02  0.1301618E+00
          2   -1    0    0  501    0  0.00000000000E+00  0.00000000000E+00  0.31613217060E+02  0.31613217060E+02  0.00000000000E+00 0. -1.
         -2   -1    0    0    0  501 -0.00000000000E+00 -0.00000000000E+00 -0.39839552764E+03  0.39839552764E+03  0.00000000000E+00 0.  1.
         25    2    1    2    0    0 -0.31849793438E+01  0.26742521870E+02 -0.23801121884E+03  0.27022794653E+03  0.12509394959E+03 0.  0.
         23    2    1    2    0    0  0.31849793438E+01 -0.26742521870E+02 -0.12877109174E+03  0.15978079817E+03  0.90678568728E+02 0.  0.
          5    1    3    3  502    0 -0.48595101680E+02  0.42707333822E+02 -0.19516454092E+03  0.20565036033E+03  0.41800000000E+01 0.  1.
         -5    1    3    3    0  502  0.45410122336E+02 -0.15964811952E+02 -0.42846677917E+02  0.64577586202E+02  0.41800000000E+01 0.  1.
        -11    1    4    4    0    0 -0.17010436553E+02 -0.40171402324E+02 -0.19383589380E+02  0.47736988318E+02  0.00000000000E+00 0. -1.
         11    1    4    4    0    0  0.20195415897E+02  0.13428880454E+02 -0.10938750236E+03  0.11204380986E+03  0.00000000000E+00 0.  1.
</event>
<event>
 8    1  0.3528896E-009  0.1009979E+03  0.7561462E-02  0.1278211E+00
          1   -1    0    0  501    0  0.00000000000E+00  0.00000000000E+00  0.34577872757E+02  0.34577872757E+02  0.00000000000E+00 0.  1.
         -1   -1    0    0    0  501 -0.00000000000E+00 -0.00000000000E+00 -0.40395868394E+03  0.40395868394E+03  0.00000000000E+00 0. -1.
         25    2    1    2    0    0  0.25721233391E+02 -0.75189369541E+01 -0.25082207724E+03  0.28156015902E+03  0.12508514081E+03 0.  0.
         23    2    1    2    0    0 -0.25721233391E+02  0.75189369541E+01 -0.11855873394E+03  0.15697639768E+03  0.99334282980E+02 0.  0.
          5    1    3    3  502    0  0.25049553167E+02  0.52852389114E+02 -0.72479299543E+02  0.93228624420E+02  0.41800000000E+01 0. -1.
         -5    1    3    3    0  502  0.67168022376E+00 -0.60371326068E+02 -0.17834277770E+03  0.18833153460E+03  0.41800000000E+01 0. -1.
        -11    1    4    4    0    0 -0.51457693035E+02 -0.90259357860E+01 -0.23815559445E+02  0.57415525435E+02  0.00000000000E+00 0.  1.
         11    1    4    4    0    0  0.25736459644E+02  0.16544872740E+02 -0.94743174491E+02  0.99560872242E+02  0.00000000000E+00 0. -1.
</event>
<event>
 8    1  0.3528896E-009  0.1340591E+03  0.7561462E-02  0.1221554E+00
          1   -1    0    0  501    0  0.00000000000E+00  0.00000000000E+00  0.30913580926E+03  0.30913580926E+03  0.00000000000E+00 0. -1.
         -1   -1    0    0    0  501 -0.00000000000E+00 -0.00000000000E+00 -0.95108956491E+02  0.95108956491E+02  0.00000000000E+00 0.  1.
         25    2    1    2    0    0 -0.60363401056E+02 -0.85189249025E+02  0.17334508153E+02  0.16385709250E+03  0.12509082002E+03 0.  0.
         23    2    1    2    0    0  0.60363401056E+02  0.85189249025E+02  0.19669234461E+03  0.24038767325E+03  0.90539531059E+02 0.  0.
          5    1    3    3  502    0 -0.87827109255E+02 -0.20617612435E+02 -0.39910426807E+01  0.90399601129E+02  0.41800000000E+01 0. -1.
         -5    1    3    3    0  502  0.27463708199E+02 -0.64571636590E+02  0.21325550834E+02  0.73457491369E+02  0.41800000000E+01 0. -1.
        -11    1    4    4    0    0  0.33368003316E+02  0.67329180361E+02  0.19383752695E+03  0.20789331165E+03  0.00000000000E+00 0. -1.
         11    1    4    4    0    0  0.26995397741E+02  0.17860068664E+02  0.28548176592E+01  0.32494361599E+02  0.00000000000E+00 0.  1.
</event>
<event>
 8    1  0.3528896E-009  0.7393313E+02  0.7561462E-02  0.1347207E+00
          2   -1    0    0  501    0  0.00000000000E+00  0.00000000000E+00  0.64200151553E+03  0.64200151553E+03  0.00000000000E+00 0. -1.
         -2   -1    0    0    0  501 -0.00000000000E+00 -0.00000000000E+00 -0.23580554651E+02  0.23580554651E+02  0.00000000000E+00 0.  1.
         25    2    1    2    0    0 -0.46585644651E+02 -0.36039351418E+02  0.35091605302E+03  0.37718072700E+03  0.12511661526E+03 0.  0.
         23    2    1    2    0    0  0.46585644651E+02  0.36039351418E+02  0.26750490786E+03  0.28840134319E+03  0.90262959640E+02 0.  0.
          5    1    3    3  502    0 -0.42333375629E+02 -0.27231954954E+02  0.35979668654E+03  0.36332467864E+03  0.41800000000E+01 0. -1.
         -5    1    3    3    0  502 -0.42522690223E+01 -0.88073964636E+01 -0.88806335221E+01  0.13856048357E+02  0.41800000000E+01 0. -1.
        -11    1    4    4    0    0 -0.11078229455E+01  0.38924758677E+02  0.21026277943E+03  0.21383825785E+03  0.00000000000E+00 0.  1.
         11    1    4    4    0    0  0.47693467597E+02 -0.28854072589E+01  0.57242128436E+02  0.74563085333E+02  0.00000000000E+00 0. -1.
</event>
<event>
 8    1  0.3528896E-009  0.9292332E+02  0.7561462E-02  0.1295923E+00
          2   -1    0    0  501    0  0.00000000000E+00  0.00000000000E+00  0.66525955614E+03  0.66525955614E+03  0.00000000000E+00 0. -1.
         -2   -1    0    0    0  501 -0.00000000000E+00 -0.00000000000E+00 -0.17723332459E+02  0.17723332459E+02  0.00000000000E+00 0.  1.
         25    2    1    2    0    0  0.17932196878E+02  0.18173025883E+02  0.33522657563E+03  0.35871915425E+03  0.12510296584E+03 0.  0.
         23    2    1    2    0    0 -0.17932196878E+02 -0.18173025883E+02  0.31230964805E+03  0.32426373435E+03  0.83413611565E+02 0.  0.
          5    1    3    3  502    0  0.39905515860E+02  0.52427027764E+02  0.29132130687E+03  0.29870825177E+03  0.41800000000E+01 0.  1.
         -5    1    3    3    0  502 -0.21973318982E+02 -0.34254001881E+02  0.43905268758E+02  0.60010902482E+02  0.41800000000E+01 0.  1.
        -11    1    4    4    0    0  0.22988823254E+02 -0.28595105730E+02  0.78240963311E+02  0.86416516975E+02  0.00000000000E+00 0.  1.
         11    1    4    4    0    0 -0.40921020132E+02  0.10422079847E+02  0.23406868474E+03  0.23784721737E+03  0.00000000000E+00 0. -1.
</event>
<event>
 8    1  0.3528896E-009  0.1535174E+03  0.7561462E-02  0.1196216E+00
         -3   -1    0    0    0  501 -0.00000000000E+00  0.00000000000E+00  0.58000657832E+03  0.58000657832E+03  0.00000000000E+00 0.  1.
          3   -1    0    0  501    0  0.00000000000E+00 -0.00000000000E+00 -0.54049776563E+02  0.54049776563E+02  0.00000000000E+00 0. -1.
         25    2    1    2    0    0 -0.92652062101E+02  0.67080866789E+02  0.42260315268E+03  0.45532912420E+03  0.12508772677E+03 0.  0.
         23    2    1    2    0    0  0.92652062101E+02 -0.67080866789E+02  0.10335364908E+03  0.17872723069E+03  0.90427865783E+02 0.  0.
          5    1    3    3  502    0 -0.14495908207E+02 -0.36276531189E+02  0.11476653143E+03  0.12130518211E+03  0.41800000000E+01 0.  1.
         -5    1    3    3    0  502 -0.78156153894E+02  0.10335739798E+03  0.30783662125E+03  0.33402394209E+03  0.41800000000E+01 0.  1.
        -11    1    4    4    0    0  0.99520642269E+02 -0.35318787297E+02  0.10103221445E+03  0.14614815541E+03  0.00000000000E+00 0.  1.
         11    1    4    4    0    0 -0.68685801680E+01 -0.31762079491E+02  0.23214346343E+01  0.32579075277E+02  0.00000000000E+00 0. -1.
</event>
<event>
 8    1  0.3528896E-009  0.1145526E+03  0.7561462E-02  0.1252364E+00
         -2   -1    0    0    0  501 -0.00000000000E+00  0.00000000000E+00  0.26649229164E+03  0.26649229164E+03  0.00000000000E+00 0.  1.
          2   -1    0    0  501    0  0.00000000000E+00 -0.00000000000E+00 -0.87917840204E+02  0.87917840204E+02  0.00000000000E+00 0. -1.
         25    2    1    2    0    0 -0.93351725619E+02 -0.51126708540E+02  0.11058186837E+03  0.19799857058E+03  0.12508636751E+03 0.  0.
         23    2    1    2    0    0  0.93351725619E+02  0.51126708540E+02  0.67992583065E+02  0.15641156126E+03  0.92266462718E+02 0.  0.
          5    1    3    3  502    0 -0.51137570848E+02 -0.34142504901E+02  0.13338189386E+03  0.14693183387E+03  0.41800000000E+01 0. -1.
         -5    1    3    3    0  502 -0.42214154771E+02 -0.16984203639E+02 -0.22800025491E+02  0.51066736715E+02  0.41800000000E+01 0. -1.
        -11    1    4    4    0    0  0.91851014624E+02  0.24433010299E+02  0.13878423429E+02  0.96053066149E+02  0.00000000000E+00 0. -1.
         11    1    4    4    0    0  0.15007109955E+01  0.26693698241E+02  0.54114159636E+02  0.60358495114E+02  0.00000000000E+00 0.  1.
</event>
<event>
 8    1  0.3528896E-009  0.9464194E+02  0.7561462E-02  0.1291985E+00
          1   -1    0    0  501    0  0.00000000000E+00  0.00000000000E+00  0.28860787912E+03  0.28860787912E+03  0.00000000000E+00 0.  1.
         -1   -1    0    0    0  501 -0.00000000000E+00 -0.00000000000E+00 -0.52249846705E+02  0.52249846705E+02  0.00000000000E+00 0. -1.
         25    2    1    2    0    0  0.22176011498E+02  0.37254538821E+02  0.79403793731E+02  0.15437704849E+03  0.12509050521E+03 0.  0.
         23    2    1    2    0    0 -0.22176011498E+02 -0.37254538821E+02  0.15695423869E+03  0.18648067734E+03  0.90888579204E+02 0.  0.
          5    1    3    3  502    0 -0.56520303982E+01  0.62900672105E+02  0.94234678122E+02  0.11351690165E+03  0.41800000000E+01 0. -1.
         -5    1    3    3    0  502  0.27828041896E+02 -0.25646133285E+02 -0.14830884391E+02  0.40860146843E+02  0.41800000000E+01 0. -1.
        -11    1    4    4    0    0 -0.35616199678E+02  0.11435541997E+02  0.24484587424E+02  0.44707721051E+02  0.00000000000E+00 0. -1.
         11    1    4    4    0    0  0.13440188180E+02 -0.48690080818E+02  0.13246965126E+03  0.14177295629E+03  0.00000000000E+00 0.  1.
</event>
<event>
 8    1  0.3528896E-009  0.9586110E+02  0.7561462E-02  0.1289248E+00
         -4   -1    0    0    0  501 -0.00000000000E+00  0.00000000000E+00  0.58148096650E+02  0.58148096650E+02  0.00000000000E+00 0.  1.
          4   -1    0    0  501    0  0.00000000000E+00 -0.00000000000E+00 -0.20266492885E+03  0.20266492885E+03  0.00000000000E+00 0. -1.
         25    2    1    2    0    0 -0.87568463508E+01  0.33597996369E+01 -0.67253448339E+02  0.14233259124E+03  0.12509024584E+03 0.  0.
         23    2    1    2    0    0  0.87568463508E+01 -0.33597996369E+01 -0.77263383864E+02  0.11848043426E+03  0.89330914050E+02 0.  0.
          5    1    3    3  502    0 -0.51402991526E+02 -0.17727680315E+02 -0.76239643157E+02  0.93736299137E+02  0.41800000000E+01 0. -1.
         -5    1    3    3    0  502  0.42646145175E+02  0.21087479952E+02  0.89861948184E+01  0.48596292105E+02  0.41800000000E+01 0. -1.
        -11    1    4    4    0    0 -0.30823265285E+02 -0.28958527778E+02 -0.42081046253E+02  0.59661415233E+02  0.00000000000E+00 0. -1.
         11    1    4    4    0    0  0.39580111636E+02  0.25598728141E+02 -0.35182337612E+02  0.58819019028E+02  0.00000000000E+00 0.  1.
</event>
<event>
 8    1  0.3528896E-009  0.1050069E+03  0.7561462E-02  0.1270106E+00
         -1   -1    0    0    0  501 -0.00000000000E+00  0.00000000000E+00  0.46950472388E+02  0.46950472388E+02  0.00000000000E+00 0.  1.
          1   -1    0    0  501    0  0.00000000000E+00 -0.00000000000E+00 -0.34714121855E+03  0.34714121855E+03  0.00000000000E+00 0. -1.
         25    2    1    2    0    0  0.67187128495E+01 -0.33652125715E+02 -0.77600864355E+02  0.15115340097E+03  0.12509136585E+03 0.  0.
         23    2    1    2    0    0 -0.67187128495E+01  0.33652125715E+02 -0.22258988181E+03  0.24293828997E+03  0.91077717254E+02 0.  0.
          5    1    3    3  502    0  0.13069114753E+02  0.40831256660E+02  0.34173162626E+00  0.43076472248E+02  0.41800000000E+01 0.  1.
         -5    1    3    3    0  502 -0.63504019034E+01 -0.74483382375E+02 -0.77942595981E+02  0.10807692873E+03  0.41800000000E+01 0.  1.
        -11    1    4    4    0    0 -0.16840011454E+02  0.60803228546E+02 -0.11130680504E+03  0.12794461081E+03  0.00000000000E+00 0.  1.
         11    1    4    4    0    0  0.10121298605E+02 -0.27151102830E+02 -0.11128307677E+03  0.11499367915E+03  0.00000000000E+00 0. -1.
</event>
<event>
 8    1  0.3528896E-009  0.1716393E+03  0.7561462E-02  0.1176149E+00
         -1   -1    0    0    0  501 -0.00000000000E+00  0.00000000000E+00  0.14657686667E+03  0.14657686667E+03  0.00000000000E+00 0.  1.
          1   -1    0    0  501    0  0.00000000000E+00 -0.00000000000E+00 -0.29004844349E+03  0.29004844349E+03  0.00000000000E+00 0. -1.
         25    2    1    2    0    0 -0.23723593754E+02 -0.13226739510E+03 -0.19364260396E+03  0.26683856706E+03  0.12509152687E+03 0.  0.
         23    2    1    2    0    0  0.23723593754E+02  0.13226739510E+03  0.50171027147E+02  0.16978674310E+03  0.90845657358E+02 0.  0.
          5    1    3    3  502    0  0.49002312519E+02 -0.35878733242E+02 -0.47467064388E+02  0.77195237760E+02  0.41800000000E+01 0.  1.
         -5    1    3    3    0  502 -0.72725906273E+02 -0.96388661855E+02 -0.14617553958E+03  0.18964332930E+03  0.41800000000E+01 0.  1.
        -11    1    4    4    0    0  0.31020566067E+02  0.19721449455E+01  0.15639253779E+02  0.34795849373E+02  0.00000000000E+00 0.  1.
         11    1    4    4    0    0 -0.72969723129E+01  0.13029525015E+03  0.34531773368E+02  0.13499089373E+03  0.00000000000E+00 0. -1.
</event>
<event>
 8    1  0.3528896E-009  0.1157370E+03  0.7561462E-02  0.1250300E+00
         -1   -1    0    0    0  501 -0.00000000000E+00  0.00000000000E+00  0.30820456258E+02  0.30820456258E+02  0.00000000000E+00 0.  1.
          1   -1    0    0  501    0  0.00000000000E+00 -0.00000000000E+00 -0.69397023739E+03  0.69397023739E+03  0.00000000000E+00 0. -1.
         25    2    1    2    0    0  0.70032080197E+01 -0.94402501863E+02 -0.42450436524E+03  0.45256199447E+03  0.12509006936E+03 0.  0.
         23    2    1    2    0    0 -0.70032080197E+01  0.94402501863E+02 -0.23864541589E+03  0.27222869918E+03  0.90531501965E+02 0.  0.
          5    1    3    3  502    0 -0.40859948053E+02 -0.38620736514E+02 -0.67040121927E+02  0.87595359419E+02  0.41800000000E+01 0. -1.
         -5    1    3    3    0  502  0.47863156073E+02 -0.55781765349E+02 -0.35746424332E+03  0.36496663506E+03  0.41800000000E+01 0. -1.
        -11    1    4    4    0    0  0.14120509782E+02  0.54809479256E+02 -0.21331832134E+03  0.22069928416E+03  0.00000000000E+00 0. -1.
         11    1    4    4    0    0 -0.21123717802E+02  0.39593022607E+02 -0.25327094558E+02  0.51529415013E+02  0.00000000000E+00 0.  1.
</event>
<event>
 8    1  0.3528896E-009  0.1223521E+03  0.7561462E-02  0.1239267E+00
         -1   -1    0    0    0  501 -0.00000000000E+00  0.00000000000E+00  0.39135227462E+02  0.39135227462E+02  0.00000000000E+00 0.  1.
          1   -1    0    0  501    0  0.00000000000E+00 -0.00000000000E+00 -0.63683766688E+03  0.63683766688E+03  0.00000000000E+00 0. -1.
         25    2    1    2    0    0  0.11234359926E+03 -0.10236451561E+02 -0.34861977408E+03  0.38717816621E+03  0.12508123870E+03 0.  0.
         23    2    1    2    0    0 -0.11234359926E+03  0.10236451561E+02 -0.24908266534E+03  0.28879472813E+03  0.92921211725E+02 0.  0.
          5    1    3    3  502    0  0.73512047597E+02 -0.29672894437E+02 -0.72104860973E+02  0.10724311252E+03  0.41800000000E+01 0.  1.
         -5    1    3    3    0  502  0.38831551666E+02  0.19436442876E+02 -0.27651491311E+03  0.27993505370E+03  0.41800000000E+01 0.  1.
        -11    1    4    4    0    0 -0.45031447063E+02  0.26761494482E+02 -0.33103342367E+02  0.61966443236E+02  0.00000000000E+00 0. -1.
         11    1    4    4    0    0 -0.67312152201E+02 -0.16525042921E+02 -0.21597932297E+03  0.22682828490E+03  0.00000000000E+00 0.  1.
</event>
<event>
 7    1  0.3528896E-009  0.9785518E+02  0.7561462E-02  0.1284872E+00
          2   -1    0    0  501    0  0.00000000000E+00  0.00000000000E+00  0.44166815958E+02  0.44166815958E+02  0.00000000000E+00 0. -1.
         -2   -1    0    0    0  501 -0.00000000000E+00 -0.00000000000E+00 -0.26594691725E+03  0.26594691725E+03  0.00000000000E+00 0.  1.
         25    2    1    2    0    0 -0.56786179707E+02 -0.30296974732E+02 -0.17626618952E+03  0.22552294912E+03  0.12509298192E+03 0.  0.
          5    1    3    3  502    0 -0.74110425311E+02  0.20596304243E+02 -0.60974832715E+02  0.98244417209E+02  0.41800000000E+01 0.  1.
         -5    1    3    3    0  502  0.17324245603E+02 -0.50893278975E+02 -0.11529135680E+03  0.12727853191E+03  0.41800000000E+01 0.  1.
        -11    1    1    2    0    0  0.33747823012E+02  0.21912366909E+02 -0.10043521637E+02  0.41472155821E+02  0.00000000000E+00 0. -1.
         11    1    1    2    0    0  0.23038356696E+02  0.83846078230E+01 -0.35470390138E+02  0.43118628273E+02  0.00000000000E+00 0.  1.
</event>
<event>
 8    1  0.3528896E-009  0.9208845E+02  0.7561462E-02  0.1297872E+00
         -1   -1    0    0    0  501 -0.00000000000E+00  0.00000000000E+00  0.56801309680E+02  0.56801309680E+02  0.00000000000E+00 0.  1.
          1   -1    0    0  501    0  0.00000000000E+00 -0.00000000000E+00 -0.34480301335E+03  0.34480301335E+03  0.00000000000E+00 0. -1.
         25    2    1    2    0    0  0.34639266212E+02 -0.83725349322E+02 -0.96555771675E+02  0.18215581057E+03  0.12509160403E+03 0.  0.
         23    2    1    2    0    0 -0.34639266212E+02  0.83725349322E+02 -0.19144593200E+03  0.21944851246E+03  0.57413342185E+02 0.  0.
          5    1    3    3  502    0  0.23370286217E+02 -0.29971304205E+02  0.27047685501E+02  0.46834805909E+02  0.41800000000E+01 0. -1.
         -5    1    3    3    0  502  0.11268979995E+02 -0.53754045117E+02 -0.12360345718E+03  0.13532100466E+03  0.41800000000E+01 0. -1.
        -11    1    4    4    0    0 -0.25356713674E+02  0.52818801346E+02 -0.17215440964E+03  0.18185139390E+03  0.00000000000E+00 0. -1.
         11    1    4    4    0    0 -0.92825525380E+01  0.30906547976E+02 -0.19291522354E+02  0.37597118562E+02  0.00000000000E+00 0.  1.
</event>
<event>
 8    1  0.3528896E-009  0.1125545E+03  0.7561462E-02  0.1255911E+00
         -1   -1    0    0    0  501 -0.00000000000E+00  0.00000000000E+00  0.10458128404E+03  0.10458128404E+03  0.00000000000E+00 0.  1.
          1   -1    0    0  501    0  0.00000000000E+00 -0.00000000000E+00 -0.22642477204E+03  0.22642477204E+03  0.00000000000E+00 0. -1.
         25    2    1    2    0    0 -0.66079893672E+02  0.42873607407E+02 -0.14619908683E+03  0.20790801789E+03  0.12508745881E+03 0.  0.
         23    2    1    2    0    0  0.66079893672E+02 -0.42873607407E+02  0.24355598832E+02  0.12309803819E+03  0.91406965001E+02 0.  0.
          5    1    3    3  502    0 -0.82654749971E+01 -0.20095401178E+02 -0.11453344801E+03  0.11665130235E+03  0.41800000000E+01 0.  1.
         -5    1    3    3    0  502 -0.57814418675E+02  0.62969008585E+02 -0.31665638817E+02  0.91256715537E+02  0.41800000000E+01 0.  1.
        -11    1    4    4    0    0  0.73861200760E+02 -0.62199067632E+02  0.30692483021E+02  0.10132240377E+03  0.00000000000E+00 0. -1.
         11    1    4    4    0    0 -0.77813070875E+01  0.19325460225E+02 -0.63368841892E+01  0.21775634414E+02  0.00000000000E+00 0.  1.
</event>
<event>
 8    1  0.3528896E-009  0.1598135E+03  0.7561462E-02  0.1188908E+00
          1   -1    0    0  501    0  0.00000000000E+00  0.00000000000E+00  0.14981126964E+03  0.14981126964E+03  0.00000000000E+00 0. -1.
         -1   -1    0    0    0  501 -0.00000000000E+00 -0.00000000000E+00 -0.19397580982E+03  0.19397580982E+03  0.00000000000E+00 0.  1.
         25    2    1    2    0    0 -0.11670032353E+03 -0.51024423345E+02  0.98443135617E+01  0.17879012013E+03  0.12508612737E+03 0.  0.
         23    2    1    2    0    0  0.11670032353E+03  0.51024423345E+02 -0.54008853749E+02  0.16499695933E+03  0.89914309290E+02 0.  0.
          5    1    3    3  502    0  0.63212461288E+01 -0.40717614701E+02  0.33196471917E+02  0.53078813544E+02  0.41800000000E+01 0.  1.
         -5    1    3    3    0  502 -0.12302156965E+03 -0.10306808644E+02 -0.23352158355E+02  0.12571130659E+03  0.41800000000E+01 0.  1.
        -11    1    4    4    0    0  0.12430064757E+03  0.63878565817E+02 -0.42282355053E+02  0.14600999865E+03  0.00000000000E+00 0.  1.
         11    1    4    4    0    0 -0.76003240395E+01 -0.12854142472E+02 -0.11726498695E+02  0.18986960680E+02  0.00000000000E+00 0. -1.
</event>
<event>
 8    1  0.3528896E-009  0.8672055E+02  0.7561462E-02  0.1310993E+00
          1   -1    0    0  501    0  0.00000000000E+00  0.00000000000E+00  0.31813272099E+02  0.31813272099E+02  0.00000000000E+00 0. -1.
         -1   -1    0    0    0  501 -0.00000000000E+00 -0.00000000000E+00 -0.52462694864E+03  0.52462694864E+03  0.00000000000E+00 0.  1.
         25    2    1    2    0    0  0.13413753346E+02 -0.41893599067E+02 -0.41061585283E+03  0.43149556836E+03  0.12509214402E+03 0.  0.
         23    2    1    2    0    0 -0.13413753346E+02  0.41893599067E+02 -0.82197823708E+02  0.12494465238E+03  0.83184623060E+02 0.  0.
          5    1    3    3  502    0 -0.16663469801E+02  0.10963758521E+02 -0.45528951094E+01  0.20882444315E+02  0.41800000000E+01 0.  1.
         -5    1    3    3    0  502  0.30077223146E+02 -0.52857357589E+02 -0.40606295773E+03  0.41061312405E+03  0.41800000000E+01 0.  1.
        -11    1    4    4    0    0  0.31180009082E+02  0.35174732381E+02 -0.54715249540E+02  0.72133302272E+02  0.00000000000E+00 0.  1.
         11    1    4    4    0    0 -0.44593762428E+02  0.67188666866E+01 -0.27482574168E+02  0.52811350105E+02  0.00000000000E+00 0. -1.
</event>
<event>
 8    1  0.3528896E-009  0.1137710E+03  0.7561462E-02  0.1253742E+00
          2   -1    0    0  501    0  0.00000000000E+00  0.00000000000E+00  0.62684988578E+03  0.62684988578E+03  0.00000000000E+00 0. -1.
         -2   -1    0    0    0  501 -0.00000000000E+00 -0.00000000000E+00 -0.36006731983E+02  0.36006731983E+02  0.00000000000E+00 0.  1.
         25    2    1    2    0    0 -0.55532476452E+02 -0.61871272665E+02  0.36806888719E+03  0.39753191400E+03  0.12508000083E+03 0.  0.
         23    2    1    2    0    0  0.55532476452E+02  0.61871272665E+02  0.22277426660E+03  0.26532470376E+03  0.11771539510E+03 0.  0.
          5    1    3    3  502    0 -0.31543545470E+02  0.21650901896E+02  0.31007034962E+02  0.49423328812E+02  0.41800000000E+01 0. -1.
         -5    1    3    3    0  502 -0.23988930982E+02 -0.83522174562E+02  0.33706185223E+03  0.34810858519E+03  0.41800000000E+01 0. -1.
        -11    1    4    4    0    0  0.13999186515E+02  0.58761734059E+02  0.21452324859E+03  0.22286575062E+03  0.00000000000E+00 0. -1.
         11    1    4    4    0    0  0.41533289937E+02  0.31095386068E+01  0.82510180061E+01  0.42458953137E+02  0.00000000000E+00 0.  1.
</event>
<event>
 8    1  0.3528896E-009  0.1299273E+03  0.7561462E-02  0.1227564E+00
         -2   -1    0    0    0  501 -0.00000000000E+00  0.00000000000E+00  0.25686664630E+03  0.25686664630E+03  0.00000000000E+00 0.  1.
          2   -1    0    0  501    0  0.00000000000E+00 -0.00000000000E+00 -0.80282072025E+02  0.80282072025E+02  0.00000000000E+00 0. -1.
         25    2    1    2    0    0  0.74858191173E+02 -0.47669871929E+02  0.59769233669E+02  0.16460821044E+03  0.12508931279E+03 0.  0.
         23    2    1    2    0    0 -0.74858191173E+02  0.47669871929E+02  0.11681534060E+03  0.17254050789E+03  0.90819808332E+02 0.  0.
          5    1    3    3  502    0  0.10146350734E+03 -0.51945021647E+02  0.19113494202E+02  0.11565434128E+03  0.41800000000E+01 0.  1.
         -5    1    3    3    0  502 -0.26605316171E+02  0.42751497180E+01  0.40655739467E+02  0.48953869155E+02  0.41800000000E+01 0.  1.
        -11    1    4    4    0    0  0.14497637972E+02 -0.43378352475E+01  0.42778988879E+02  0.45376648300E+02  0.00000000000E+00 0.  1.
         11    1    4    4    0    0 -0.89355829145E+02  0.52007707177E+02  0.74036351724E+02  0.12716385959E+03  0.00000000000E+00 0. -1.
</event>
<event>
 8    1  0.3528896E-009  0.1009265E+03  0.7561462E-02  0.1278360E+00
         -1   -1    0    0    0  501 -0.00000000000E+00  0.00000000000E+00  0.27924137327E+03  0.27924137327E+03  0.00000000000E+00 0.  1.
          1   -1    0    0  501    0  0.00000000000E+00 -0.00000000000E+00 -0.61713303721E+02  0.61713303721E+02  0.00000000000E+00 0. -1.
         25    2    1    2    0    0  0.55939389640E+02  0.15212123414E+02  0.17703632000E+03  0.22438675339E+03  0.12508769918E+03 0.  0.
         23    2    1    2    0    0 -0.55939389640E+02 -0.15212123414E+02  0.40491749542E+02  0.11656792360E+03  0.92670788377E+02 0.  0.
          5    1    3    3  502    0  0.28139302484E+02  0.49807470661E+02  0.19372652051E+02  0.60542353153E+02  0.41800000000E+01 0. -1.
         -5    1    3    3    0  502  0.27800087156E+02 -0.34595347246E+02  0.15766366795E+03  0.16384440024E+03  0.41800000000E+01 0. -1.
        -11    1    4    4    0    0 -0.46987374385E+02 -0.47258988430E+02  0.48404386868E+02  0.82366315974E+02  0.00000000000E+00 0.  1.
         11    1    4    4    0    0 -0.89520152549E+01  0.32046865016E+02 -0.79126373263E+01  0.34201607622E+02  0.00000000000E+00 0. -1.
</event>
<event>
 8    1  0.3528896E-009  0.1066758E+03  0.7561462E-02  0.1266853E+00
          3   -1    0    0  501    0  0.00000000000E+00  0.00000000000E+00  0.72540042634E+02  0.72540042634E+02  0.00000000000E+00 0. -1.
         -3   -1    0    0    0  501 -0.00000000000E+00 -0.00000000000E+00 -0.19685952272E+03  0.19685952272E+03  0.00000000000E+00 0.  1.
         25    2    1    2    0    0 -0.24638788355E+02  0.30637944747E+02 -0.11532524405E+03  0.17462289414E+03  0.12508992642E+03 0.  0.
         23    2    1    2    0    0  0.24638788355E+02 -0.30637944747E+02 -0.89942360378E+01  0.94776671217E+02  0.85766937541E+02 0.  0.
          5    1    3    3  502    0 -0.60026899514E+01  0.75341330761E+02 -0.41770873042E+02  0.86455923118E+02  0.41800000000E+01 0. -1.
         -5    1    3    3    0  502 -0.18636098404E+02 -0.44703386014E+02 -0.73554371010E+02  0.88166971024E+02  0.41800000000E+01 0. -1.
        -11    1    4    4    0    0  0.49231115918E+02 -0.39275759366E+02 -0.20575562713E+02  0.66254372152E+02  0.00000000000E+00 0.  1.
         11    1    4    4    0    0 -0.24592327563E+02  0.86378146195E+01  0.11581326675E+02  0.28522299064E+02  0.00000000000E+00 0. -1.
</event>
<event>
 8    1  0.3528896E-009  0.1299324E+03  0.7561462E-02  0.1227556E+00
         -1   -1    0    0    0  501 -0.00000000000E+00  0.00000000000E+00  0.45177848213E+03  0.45177848213E+03  0.00000000000E+00 0.  1.
          1   -1    0    0  501    0  0.00000000000E+00 -0.00000000000E+00 -0.62455779955E+02  0.62455779955E+02  0.00000000000E+00 0. -1.
         25    2    1    2    0    0  0.60014445354E+02 -0.75769912788E+02  0.33625131680E+03  0.37155739233E+03  0.12508850631E+03 0.  0.
         23    2    1    2    0    0 -0.60014445354E+02  0.75769912788E+02  0.53071385372E+02  0.14267686975E+03  0.90538963338E+02 0.  0.
          5    1    3    3  502    0  0.88971068857E+02 -0.88961777188E+02  0.27317990489E+03  0.30079026203E+03  0.41800000000E+01 0.  1.
         -5    1    3    3    0  502 -0.28956623503E+02  0.13191864401E+02  0.63071411912E+02  0.70767130305E+02  0.41800000000E+01 0.  1.
        -11    1    4    4    0    0 -0.36886901776E+02  0.21032733190E+02  0.69123958508E+02  0.81124232064E+02  0.00000000000E+00 0.  1.
         11    1    4    4    0    0 -0.23127543578E+02  0.54737179598E+02 -0.16052573136E+02  0.61552637690E+02  0.00000000000E+00 0. -1.
</event>
<event>
 8    1  0.3528896E-009  0.1233857E+03  0.7561462E-02  0.1237614E+00
         -2   -1    0    0    0  501 -0.00000000000E+00  0.00000000000E+00  0.17752354827E+02  0.17752354827E+02  0.00000000000E+00 0.  1.
          2   -1    0    0  501    0  0.00000000000E+00 -0.00000000000E+00 -0.10231046487E+04  0.10231046487E+04  0.00000000000E+00 0. -1.
         25    2    1    2    0    0 -0.15263683379E+02 -0.67200359639E+02 -0.77424493178E+03  0.78730607337E+03  0.12508705134E+03 0.  0.
         23    2    1    2    0    0  0.15263683379E+02  0.67200359639E+02 -0.23110736210E+03  0.25355093017E+03  0.78285330709E+02 0.  0.
          5    1    3    3  502    0 -0.70191048197E+02 -0.33281290539E+02 -0.39601233222E+03  0.40358105409E+03  0.41800000000E+01 0. -1.
         -5    1    3    3    0  502  0.54927364818E+02 -0.33919069100E+02 -0.37823259956E+03  0.38372501928E+03  0.41800000000E+01 0. -1.
        -11    1    4    4    0    0  0.44503443480E+02  0.59029776684E+02 -0.16229918071E+03  0.17834263393E+03  0.00000000000E+00 0. -1.
         11    1    4    4    0    0 -0.29239760102E+02  0.81705829554E+01 -0.68808181394E+02  0.75208296240E+02  0.00000000000E+00 0.  1.
</event>
<event>
 8    1  0.3528896E-009  0.9287378E+02  0.7561462E-02  0.1296038E+00
         -2   -1    0    0    0  501 -0.00000000000E+00  0.00000000000E+00  0.35630342279E+03  0.35630342279E+03  0.00000000000E+00 0.  1.
          2   -1    0    0  501    0  0.00000000000E+00 -0.00000000000E+00 -0.42099534189E+02  0.42099534189E+02  0.00000000000E+00 0. -1.
         25    2    1    2    0    0  0.12281427092E+02 -0.34521377555E+01  0.87571337012E+02  0.15319792896E+03  0.12505245165E+03 0.  0.
         23    2    1    2    0    0 -0.12281427092E+02  0.34521377555E+01  0.22663255159E+03  0.24520502802E+03  0.92738565979E+02 0.  0.
          5    1    3    3  502    0  0.57672262991E+02 -0.37218683502E+02  0.43587394961E+02  0.81416544508E+02  0.41800000000E+01 0.  1.
         -5    1    3    3    0  502 -0.45390835899E+02  0.33766545747E+02  0.43983942050E+02  0.71781384450E+02  0.41800000000E+01 0.  1.
        -11    1    4    4    0    0  0.23927983509E+02  0.65785988215E+00  0.10665311815E+02  0.26205534732E+02  0.00000000000E+00 0. -1.
         11    1    4    4    0    0 -0.36209410601E+02  0.27942778733E+01  0.21596723978E+03  0.21899949329E+03  0.00000000000E+00 0.  1.
</event>
<event>
 8    1  0.3528896E-009  0.1192918E+03  0.7561462E-02  0.1244270E+00
         -1   -1    0    0    0  501 -0.00000000000E+00  0.00000000000E+00  0.33914467622E+02  0.33914467622E+02  0.00000000000E+00 0.  1.
          1   -1    0    0  501    0  0.00000000000E+00 -0.00000000000E+00 -0.49725705146E+03  0.49725705146E+03  0.00000000000E+00 0. -1.
         25    2    1    2    0    0  0.39358661516E+02  0.47003528977E+02 -0.18051314030E+03  0.22801559590E+03  0.12509069582E+03 0.  0.
         23    2    1    2    0    0 -0.39358661516E+02 -0.47003528977E+02 -0.28282944353E+03  0.30315592318E+03  0.90291658841E+02 0.  0.
          5    1    3    3  502    0  0.33572365070E+02 -0.34118425131E+02 -0.29325032095E+02  0.56290323655E+02  0.41800000000E+01 0.  1.
         -5    1    3    3    0  502  0.57862964457E+01  0.81121954109E+02 -0.15118810821E+03  0.17172527225E+03  0.41800000000E+01 0.  1.
        -11    1    4    4    0    0 -0.46332320259E+02 -0.70627317000E+02 -0.22225196374E+03  0.23776214415E+03  0.00000000000E+00 0. -1.
         11    1    4    4    0    0  0.69736587438E+01  0.23623788022E+02 -0.60577479795E+02  0.65393779025E+02  0.00000000000E+00 0.  1.
</event>
<event>
 8    1  0.3528896E-009  0.7525580E+02  0.7561462E-02  0.1343081E+00
         -2   -1    0    0    0  501 -0.00000000000E+00  0.00000000000E+00  0.24790797857E+03  0.24790797857E+03  0.00000000000E+00 0. -1.
          2   -1    0    0  501    0  0.00000000000E+00 -0.00000000000E+00 -0.49190306130E+02  0.49190306130E+02  0.00000000000E+00 0.  1.
         25    2    1    2    0    0 -0.37012685268E+01 -0.13213502333E+02  0.91955872818E+02  0.15585849676E+03  0.12509073680E+03 0.  0.
         23    2    1    2    0    0  0.37012685268E+01  0.13213502333E+02  0.10676179963E+03  0.14123978795E+03  0.91445611199E+02 0.  0.
          5    1    3    3  502    0  0.22537799330E+02  0.33328434445E+02  0.93888667715E+02  0.10223155710E+03  0.41800000000E+01 0.  1.
         -5    1    3    3    0  502 -0.26239067857E+02 -0.46541936779E+02 -0.19327948965E+01  0.53626939659E+02  0.41800000000E+01 0.  1.
        -11    1    4    4    0    0 -0.42107159038E+01 -0.20966749720E+02 -0.67535104585E+01  0.22426426950E+02  0.00000000000E+00 0.  1.
         11    1    4    4    0    0  0.79119844306E+01  0.34180252053E+02  0.11351531008E+03  0.11881336100E+03  0.00000000000E+00 0. -1.
</event>
<event>
 8    1  0.3528896E-009  0.1673793E+03  0.7561462E-02  0.1180609E+00
          2   -1    0    0  501    0  0.00000000000E+00  0.00000000000E+00  0.36062181534E+03  0.36062181534E+03  0.00000000000E+00 0.  1.
         -2   -1    0    0    0  501 -0.00000000000E+00 -0.00000000000E+00 -0.89511086086E+02  0.89511086086E+02  0.00000000000E+00 0. -1.
         25    2    1    2    0    0 -0.12866833086E+03  0.49678948144E+02  0.91188365148E+02  0.20733575032E+03  0.12509699505E+03 0.  0.
         23    2    1    2    0    0  0.12866833086E+03 -0.49678948144E+02  0.17992236411E+03  0.24279715111E+03  0.86918710439E+02 0.  0.
          5    1    3    3  502    0 -0.77665690359E+02 -0.31096474541E+02  0.15051806452E+02  0.85105695845E+02  0.41800000000E+01 0. -1.
         -5    1    3    3    0  502 -0.51002640498E+02  0.80775422684E+02  0.76136558696E+02  0.12223005448E+03  0.41800000000E+01 0. -1.
        -11    1    4    4    0    0  0.84393447545E+02 -0.67076389380E+02  0.15580036690E+03  0.18946041889E+03  0.00000000000E+00 0. -1.
         11    1    4    4    0    0  0.44274883312E+02  0.17397441237E+02  0.24121997210E+02  0.53336732214E+02  0.00000000000E+00 0.  1.
</event>
<event>
 8    1  0.3528896E-009  0.1161365E+03  0.7561462E-02  0.1249610E+00
         -2   -1    0    0    0  501 -0.00000000000E+00  0.00000000000E+00  0.16381230474E+02  0.16381230474E+02  0.00000000000E+00 0.  1.
          2   -1    0    0  501    0  0.00000000000E+00 -0.00000000000E+00 -0.11721570286E+04  0.11721570286E+04  0.00000000000E+00 0. -1.
         25    2    1    2    0    0 -0.39899423116E+02 -0.62450270749E+02 -0.81369658510E+03  0.82658468205E+03  0.12509238073E+03 0.  0.
         23    2    1    2    0    0  0.39899423116E+02  0.62450270749E+02 -0.34207921306E+03  0.36195357705E+03  0.92196549040E+02 0.  0.
          5    1    3    3  502    0 -0.59215058165E+02 -0.10447924521E+02 -0.66660613355E+03  0.66932562474E+03  0.41800000000E+01 0.  1.
         -5    1    3    3    0  502  0.19315635049E+02 -0.52002346228E+02 -0.14709045155E+03  0.15725905731E+03  0.41800000000E+01 0.  1.
        -11    1    4    4    0    0  0.54127649594E+02  0.18929248845E+01 -0.12718257971E+03  0.13823456224E+03  0.00000000000E+00 0.  1.
         11    1    4    4    0    0 -0.14228226478E+02  0.60557345864E+02 -0.21489663334E+03  0.22371901481E+03  0.00000000000E+00 0. -1.
</event>
<event>
 7    1  0.3528896E-009  0.1100685E+03  0.7561462E-02  0.1260443E+00
          1   -1    0    0  501    0  0.00000000000E+00  0.00000000000E+00  0.20759587254E+03  0.20759587254E+03  0.00000000000E+00 0. -1.
         -1   -1    0    0    0  501 -0.00000000000E+00 -0.00000000000E+00 -0.62175723732E+02  0.62175723732E+02  0.00000000000E+00 0.  1.
         23    2    1    2    0    0  0.12218827353E+02  0.27755377719E+02  0.81271437969E+02  0.12606348757E+03  0.91472922405E+02 0.  0.
          5    1    1    2  502    0 -0.65405455430E+02 -0.32003169565E+01  0.52026817292E+02  0.83739941164E+02  0.41800000000E+01 0. -1.
         -5    1    1    2    0  502  0.53186628078E+02 -0.24555060762E+02  0.12121893547E+02  0.59968167543E+02  0.41800000000E+01 0. -1.
        -11    1    3    3    0    0  0.48568391022E+02  0.33483256347E+02  0.56652022200E+02  0.81789172152E+02  0.00000000000E+00 0.  1.
         11    1    3    3    0    0 -0.36349563669E+02 -0.57278786279E+01  0.24619415769E+02  0.44274315413E+02  0.00000000000E+00 0. -1.
</event>
<event>
 8    1  0.3528896E-009  0.2458775E+03  0.7561462E-02  0.1115938E+00
          1   -1    0    0  501    0  0.00000000000E+00  0.00000000000E+00  0.23979438802E+03  0.23979438802E+03  0.00000000000E+00 0. -1.
         -1   -1    0    0    0  501 -0.00000000000E+00 -0.00000000000E+00 -0.27082111885E+03  0.27082111885E+03  0.00000000000E+00 0.  1.
         25    2    1    2    0    0 -0.15468667202E+03 -0.16773486661E+03  0.13376058765E+02  0.26055934731E+03  0.12509717240E+03 0.  0.
         23    2    1    2    0    0  0.15468667202E+03  0.16773486661E+03 -0.44402789600E+02  0.25005615956E+03  0.92160312676E+02 0.  0.
          5    1    3    3  502    0 -0.85607174598E+02 -0.15950646228E+03  0.40884096877E+02  0.18563372977E+03  0.41800000000E+01 0. -1.
         -5    1    3    3    0  502 -0.69079497426E+02 -0.82284043308E+01 -0.27508038112E+02  0.74925617536E+02  0.41800000000E+01 0. -1.
        -11    1    4    4    0    0  0.13806010502E+03  0.17494836437E+03 -0.54333657845E+02  0.22938977564E+03  0.00000000000E+00 0.  1.
         11    1    4    4    0    0  0.16626567007E+02 -0.72134977604E+01  0.99308682449E+01  0.20666383924E+02  0.00000000000E+00 0. -1.
</event>
<event>
 8    1  0.3528896E-009  0.1348176E+03  0.7561462E-02  0.1220477E+00
          2   -1    0    0  501    0  0.00000000000E+00  0.00000000000E+00  0.38798034828E+03  0.38798034828E+03  0.00000000000E+00 0. -1.
         -2   -1    0    0    0  501 -0.00000000000E+00 -0.00000000000E+00 -0.81322355889E+02  0.81322355889E+02  0.00000000000E+00 0.  1.
         25    2    1    2    0    0 -0.12791245462E+03 -0.29411079937E+02  0.21862566781E+03  0.28402816070E+03  0.12509278867E+03 0.  0.
         23    2    1    2    0    0  0.12791245462E+03  0.29411079937E+02  0.88032324586E+02  0.18527454346E+03  0.96697252354E+02 0.  0.
          5    1    3    3  502    0 -0.38785544081E+02 -0.51583752633E+01 -0.72032930381E+01  0.40003588534E+02  0.41800000000E+01 0. -1.
         -5    1    3    3    0  502 -0.89126910544E+02 -0.24252704673E+02  0.22582896084E+03  0.24402457217E+03  0.41800000000E+01 0. -1.
        -11    1    4    4    0    0  0.19306802612E+02  0.21549565039E+02  0.68884262743E+02  0.74713974825E+02  0.00000000000E+00 0. -1.
         11    1    4    4    0    0  0.10860565201E+03  0.78615148979E+01  0.19148061843E+02  0.11056056864E+03  0.00000000000E+00 0.  1.
</event>
<event>
 8    1  0.3528896E-009  0.1092766E+03  0.7561462E-02  0.1261915E+00
         -2   -1    0    0    0  501 -0.00000000000E+00  0.00000000000E+00  0.45885889077E+03  0.45885889077E+03  0.00000000000E+00 0.  1.
          2   -1    0    0  501    0  0.00000000000E+00 -0.00000000000E+00 -0.38528175674E+02  0.38528175674E+02  0.00000000000E+00 0. -1.
         25    2    1    2    0    0 -0.15097356042E+02 -0.53985677439E+02  0.12417815741E+03  0.18495553961E+03  0.12508378523E+03 0.  0.
         23    2    1    2    0    0  0.15097356042E+02  0.53985677439E+02  0.29615255768E+03  0.31243152683E+03  0.82248027372E+02 0.  0.
          5    1    3    3  502    0  0.16124131632E+02 -0.82960727308E+02  0.11216408078E+03  0.14050168438E+03  0.41800000000E+01 0.  1.
         -5    1    3    3    0  502 -0.31221487673E+02  0.28975049870E+02  0.12014076627E+02  0.44453855228E+02  0.41800000000E+01 0.  1.
        -11    1    4    4    0    0 -0.14367751160E+02  0.59457059519E+02  0.25021145072E+03  0.25757978234E+03  0.00000000000E+00 0.  1.
         11    1    4    4    0    0  0.29465107202E+02 -0.54713820807E+01  0.45941106966E+02  0.54851744490E+02  0.00000000000E+00 0. -1.
</event>
<event>
 8    1  0.3528896E-009  0.1235754E+03  0.7561462E-02  0.1237313E+00
          2   -1    0    0  501    0  0.00000000000E+00  0.00000000000E+00  0.90235839968E+03  0.90235839968E+03  0.00000000000E+00 0. -1.
         -2   -1    0    0    0  501 -0.00000000000E+00 -0.00000000000E+00 -0.25053763805E+02  0.25053763805E+02  0.00000000000E+00 0.  1.
         25    2    1    2    0    0  0.82875263258E+02  0.59876019165E+02  0.36882850186E+03  0.40266010963E+03  0.12508898101E+03 0.  0.
         23    2    1    2    0    0 -0.82875263258E+02 -0.59876019165E+02  0.50847613401E+03  0.52475205386E+03  0.79770246533E+02 0.  0.
          5    1    3    3  502    0  0.78808936398E+02  0.73718388583E+02  0.37195683462E+03  0.38731719364E+03  0.41800000000E+01 0.  1.
         -5    1    3    3    0  502  0.40663268598E+01 -0.13842369418E+02 -0.31283327555E+01  0.15342915989E+02  0.41800000000E+01 0.  1.
        -11    1    4    4    0    0 -0.75337980525E+02 -0.75581043773E+02  0.47685373812E+03  0.48864894663E+03  0.00000000000E+00 0. -1.
         11    1    4    4    0    0 -0.75372827324E+01  0.15705024608E+02  0.31622395894E+02  0.36103107221E+02  0.00000000000E+00 0.  1.
</event>
<event>
 8    1  0.3528896E-009  0.9025186E+02  0.7561462E-02  0.1302243E+00
          1   -1    0    0  501    0  0.00000000000E+00  0.00000000000E+00  0.52969992928E+03  0.52969992928E+03  0.00000000000E+00 0. -1.
         -1   -1    0    0    0  501 -0.00000000000E+00 -0.00000000000E+00 -0.26554756609E+02  0.26554756609E+02  0.00000000000E+00 0.  1.
         25    2    1    2    0    0  0.41924705618E+01  0.23378707847E+02  0.37366794580E+03  0.39476572203E+03  0.12509236900E+03 0.  0.
         23    2    1    2    0    0 -0.41924705618E+01 -0.23378707847E+02  0.12947722688E+03  0.16148896386E+03  0.93542462975E+02 0.  0.
          5    1    3    3  502    0 -0.59638011350E+02  0.97357792127E+01  0.20845696330E+03  0.21707891594E+03  0.41800000000E+01 0.  1.
         -5    1    3    3    0  502  0.63830481912E+02  0.13642928634E+02  0.16521098250E+03  0.17768680610E+03  0.41800000000E+01 0.  1.
        -11    1    4    4    0    0  0.69810752354E+01  0.13929232250E+02 -0.87572740668E+01  0.17873129877E+02  0.00000000000E+00 0.  1.
         11    1    4    4    0    0 -0.11173545797E+02 -0.37307940097E+02  0.13823450094E+03  0.14361583398E+03  0.00000000000E+00 0. -1.
</event>
<event>
 8    1  0.3528896E-009  0.1090468E+03  0.7561462E-02  0.1262345E+00
          1   -1    0    0  501    0  0.00000000000E+00  0.00000000000E+00  0.10211224851E+03  0.10211224851E+03  0.00000000000E+00 0. -1.
         -1   -1    0    0    0  501 -0.00000000000E+00 -0.00000000000E+00 -0.13595125887E+03  0.13595125887E+03  0.00000000000E+00 0.  1.
         25    2    1    2    0    0  0.11504426709E+02 -0.40867028706E+02 -0.95022623394E+01  0.13244709427E+03  0.12509785739E+03 0.  0.
         23    2    1    2    0    0 -0.11504426709E+02  0.40867028706E+02 -0.24336748015E+02  0.10561641311E+03  0.93595317965E+02 0.  0.
          5    1    3    3  502    0  0.41170844553E+02  0.30178833467E+02 -0.19277326276E+02  0.54725571162E+02  0.41800000000E+01 0.  1.
         -5    1    3    3    0  502 -0.29666417844E+02 -0.71045862174E+02  0.97750639363E+01  0.77721523111E+02  0.41800000000E+01 0.  1.
        -11    1    4    4    0    0  0.79937928989E+01  0.61130196048E+02 -0.39939354947E+02  0.73457155318E+02  0.00000000000E+00 0.  1.
         11    1    4    4    0    0 -0.19498219608E+02 -0.20263167342E+02  0.15602606932E+02  0.32159257791E+02  0.00000000000E+00 0. -1.
</event>
<event>
 8    1  0.3528896E-009  0.1214601E+03  0.7561462E-02  0.1240708E+00
          4   -1    0    0  501    0  0.00000000000E+00  0.00000000000E+00  0.23913142901E+03  0.23913142901E+03  0.00000000000E+00 0. -1.
         -4   -1    0    0    0  501 -0.00000000000E+00 -0.00000000000E+00 -0.16636269712E+03  0.16636269712E+03  0.00000000000E+00 0.  1.
         25    2    1    2    0    0  0.84415840665E+02 -0.53774755876E+02  0.17448394757E+03  0.23685545158E+03  0.12505238287E+03 0.  0.
         23    2    1    2    0    0 -0.84415840665E+02  0.53774755876E+02 -0.10171521569E+03  0.16863867455E+03  0.89862444474E+02 0.  0.
          5    1    3    3  502    0  0.71333138646E+02 -0.79675079772E+02  0.68916470623E+02  0.12729291940E+03  0.41800000000E+01 0. -1.
         -5    1    3    3    0  502  0.13082702018E+02  0.25900323896E+02  0.10556747694E+03  0.10956253218E+03  0.41800000000E+01 0. -1.
        -11    1    4    4    0    0 -0.52160697583E+02  0.52932523456E+02 -0.14592940851E+02  0.75733376621E+02  0.00000000000E+00 0. -1.
         11    1    4    4    0    0 -0.32255143082E+02  0.84223241974E+00 -0.87122274834E+02  0.92905297927E+02  0.00000000000E+00 0.  1.
</event>
<event>
 8    1  0.3528896E-009  0.6144729E+02  0.7561462E-02  0.1391857E+00
          3   -1    0    0  501    0  0.00000000000E+00  0.00000000000E+00  0.23165567710E+02  0.23165567710E+02  0.00000000000E+00 0. -1.
         -3   -1    0    0    0  501 -0.00000000000E+00 -0.00000000000E+00 -0.51964253357E+03  0.51964253357E+03  0.00000000000E+00 0.  1.
         25    2    1    2    0    0 -0.14085070875E+02  0.16874062737E+02 -0.29332299534E+03  0.31964190390E+03  0.12509773746E+03 0.  0.
         23    2    1    2    0    0  0.14085070875E+02 -0.16874062737E+02 -0.20315397052E+03  0.22316619738E+03  0.89713391982E+02 0.  0.
          5    1    3    3  502    0  0.12788618139E+02  0.36910913554E+02 -0.19713950005E+02  0.43955392366E+02  0.41800000000E+01 0. -1.
         -5    1    3    3    0  502 -0.26873689014E+02 -0.20036850817E+02 -0.27360904533E+03  0.27568651153E+03  0.41800000000E+01 0. -1.
        -11    1    4    4    0    0  0.31472268788E+01  0.15416463239E+02  0.13944169104E+01  0.15796099973E+02  0.00000000000E+00 0. -1.
         11    1    4    4    0    0  0.10937843996E+02 -0.32290525976E+02 -0.20454838743E+03  0.20737009741E+03  0.00000000000E+00 0.  1.
</event>
<event>
 8    1  0.3528896E-009  0.1670927E+03  0.7561462E-02  0.1180914E+00
         -2   -1    0    0    0  501 -0.00000000000E+00  0.00000000000E+00  0.47066618973E+02  0.47066618973E+02  0.00000000000E+00 0.  1.
          2   -1    0    0  501    0  0.00000000000E+00 -0.00000000000E+00 -0.73236093548E+03  0.73236093548E+03  0.00000000000E+00 0. -1.
         25    2    1    2    0    0 -0.48434914134E+02 -0.13648392247E+03 -0.27832001229E+03  0.33776266154E+03  0.12509110395E+03 0.  0.
         23    2    1    2    0    0  0.48434914134E+02  0.13648392247E+03 -0.40697430422E+03  0.44166489291E+03  0.92010821868E+02 0.  0.
          5    1    3    3  502    0  0.27435263254E+02 -0.89645197357E+02 -0.93269979198E+02  0.13230917012E+03  0.41800000000E+01 0.  1.
         -5    1    3    3    0  502 -0.75870177389E+02 -0.46838725115E+02 -0.18505003310E+03  0.20545349142E+03  0.41800000000E+01 0.  1.
        -11    1    4    4    0    0  0.17549041445E+02  0.86424328382E+01 -0.72536050763E+01  0.20863252086E+02  0.00000000000E+00 0.  1.
         11    1    4    4    0    0  0.30885872689E+02  0.12784148963E+03 -0.39972069914E+03  0.42080164083E+03  0.00000000000E+00 0. -1.
</event>
<event>
 8    1  0.3528896E-009  0.1443803E+03  0.7561462E-02  0.1207554E+00
         -2   -1    0    0    0  501 -0.00000000000E+00  0.00000000000E+00  0.71005587942E+02  0.71005587942E+02  0.00000000000E+00 0.  1.
          2   -1    0    0  501    0  0.00000000000E+00 -0.00000000000E+00 -0.43709045127E+03  0.43709045127E+03  0.00000000000E+00 0. -1.
         25    2    1    2    0    0 -0.46997072435E+02  0.12623575428E+03 -0.15163409181E+03  0.23829382241E+03  0.12508739954E+03 0.  0.
         23    2    1    2    0    0  0.46997072435E+02 -0.12623575428E+03 -0.21445077151E+03  0.26980221679E+03  0.93058649831E+02 0.  0.
          5    1    3    3  502    0 -0.60261012430E+01  0.31965667706E+02  0.19838333708E+02  0.38329488548E+02  0.41800000000E+01 0.  1.
         -5    1    3    3    0  502 -0.40970971192E+02  0.94270086579E+02 -0.17147242552E+03  0.19996433387E+03  0.41800000000E+01 0.  1.
        -11    1    4    4    0    0  0.51839422738E+02 -0.36916914443E+02 -0.13863532033E+03  0.15254486673E+03  0.00000000000E+00 0. -1.
         11    1    4    4    0    0 -0.48423503031E+01 -0.89318839842E+02 -0.75815451183E+02  0.11725735007E+03  0.00000000000E+00 0.  1.
</event>
<event>
 8    1  0.3528896E-009  0.1165854E+03  0.7561462E-02  0.1248839E+00
          1   -1    0    0  501    0  0.00000000000E+00  0.00000000000E+00  0.69620273515E+02  0.69620273515E+02  0.00000000000E+00 0. -1.
         -1   -1    0    0    0  501 -0.00000000000E+00 -0.00000000000E+00 -0.23453585893E+03  0.23453585893E+03  0.00000000000E+00 0.  1.
         25    2    1    2    0    0  0.11188605402E+01 -0.66995204476E+02 -0.10471381074E+03  0.17636082400E+03  0.12509415978E+03 0.  0.
         23    2    1    2    0    0 -0.11188605402E+01  0.66995204476E+02 -0.60201774677E+02  0.12779530845E+03  0.90651960351E+02 0.  0.
          5    1    3    3  502    0 -0.54200688213E+02  0.29288399718E+00 -0.34353731274E+02  0.64307477297E+02  0.41800000000E+01 0. -1.
         -5    1    3    3    0  502  0.55319548753E+02 -0.67288088473E+02 -0.70360079465E+02  0.11205334670E+03  0.41800000000E+01 0. -1.
        -11    1    4    4    0    0 -0.17517026569E+02 -0.46320350608E+01 -0.50530986411E+02  0.53681305463E+02  0.00000000000E+00 0.  1.
         11    1    4    4    0    0  0.16398166028E+02  0.71627239536E+02 -0.96707882662E+01  0.74114002985E+02  0.00000000000E+00 0. -1.
</event>
<event>
 8    1  0.3528896E-009  0.1190363E+03  0.7561462E-02  0.1244695E+00
          1   -1    0    0  501    0  0.00000000000E+00  0.00000000000E+00  0.35839533507E+03  0.35839533507E+03  0.00000000000E+00 0. -1.
         -1   -1    0    0    0  501 -0.00000000000E+00 -0.00000000000E+00 -0.44967732899E+02  0.44967732899E+02  0.00000000000E+00 0.  1.
         25    2    1    2    0    0 -0.47448274411E+02  0.41088710162E+02  0.14375256138E+03  0.20063011483E+03  0.12509205901E+03 0.  0.
         23    2    1    2    0    0  0.47448274411E+02 -0.41088710162E+02  0.16967504079E+03  0.20273295314E+03  0.91495409572E+02 0.  0.
          5    1    3    3  502    0  0.14449487354E+02  0.67765110669E+02  0.93515087181E+02  0.11646219060E+03  0.41800000000E+01 0. -1.
         -5    1    3    3    0  502 -0.61897761765E+02 -0.26676400507E+02  0.50237474194E+02  0.84167924228E+02  0.41800000000E+01 0. -1.
        -11    1    4    4    0    0  0.92467173647E+01 -0.58441888693E+02  0.55627017186E+02  0.81211582777E+02  0.00000000000E+00 0.  1.
         11    1    4    4    0    0  0.38201557047E+02  0.17353178532E+02  0.11404802361E+03  0.12152137036E+03  0.00000000000E+00 0. -1.
</event>
<event>
 8    1  0.3528896E-009  0.7307458E+02  0.7561462E-02  0.1349939E+00
          1   -1    0    0  501    0  0.00000000000E+00  0.00000000000E+00  0.10481965452E+03  0.10481965452E+03  0.00000000000E+00 0. -1.
         -1   -1    0    0    0  501 -0.00000000000E+00 -0.00000000000E+00 -0.13380043002E+03  0.13380043002E+03  0.00000000000E+00 0.  1.
         25    2    1    2    0    0 -0.49329449718E+02  0.13751693617E+02 -0.34576996210E+02  0.13951790310E+03  0.12508866029E+03 0.  0.
         23    2    1    2    0    0  0.49329449718E+02 -0.13751693617E+02  0.55962207046E+01  0.99102181434E+02  0.84660622440E+02 0.  0.
          5    1    3    3  502    0 -0.38034911390E+02  0.45356578492E+02  0.30094825882E+02  0.66536040172E+02  0.41800000000E+01 0.  1.
         -5    1    3    3    0  502 -0.11294538328E+02 -0.31604884875E+02 -0.64671822092E+02  0.72981862930E+02  0.41800000000E+01 0.  1.
        -11    1    4    4    0    0  0.19442665047E+02 -0.12418041965E+02 -0.39052282064E+02  0.45357532173E+02  0.00000000000E+00 0.  1.
         11    1    4    4    0    0  0.29886784671E+02 -0.13336516516E+01  0.44648502769E+02  0.53744649261E+02  0.00000000000E+00 0. -1.
</event>
<event>
 8    1  0.3528896E-009  0.9994967E+02  0.7561462E-02  0.1280402E+00
         -2   -1    0    0    0  501 -0.00000000000E+00  0.00000000000E+00  0.13650048000E+03  0.13650048000E+03  0.00000000000E+00 0.  1.
          2   -1    0    0  501    0  0.00000000000E+00 -0.00000000000E+00 -0.11369279893E+03  0.11369279893E+03  0.00000000000E+00 0. -1.
         25    2    1    2    0    0 -0.41768370592E+02 -0.31681144902E+01  0.63695017153E+02  0.14648904702E+03  0.12508937588E+03 0.  0.
         23    2    1    2    0    0  0.41768370592E+02  0.31681144902E+01 -0.40887336085E+02  0.10370423190E+03  0.85604671201E+02 0.  0.
          5    1    3    3  502    0  0.13886324908E+02 -0.37411292983E+02  0.70023966923E+02  0.80704790476E+02  0.41800000000E+01 0.  1.
         -5    1    3    3    0  502 -0.55654695500E+02  0.34243178493E+02 -0.63289497708E+01  0.65784256549E+02  0.41800000000E+01 0.  1.
        -11    1    4    4    0    0 -0.19680082463E+02  0.22487203674E+02 -0.61073185342E+01  0.30500480562E+02  0.00000000000E+00 0.  1.
         11    1    4    4    0    0  0.61448453055E+02 -0.19319089184E+02 -0.34780017551E+02  0.73203751343E+02  0.00000000000E+00 0. -1.
</event>
<event>
 8    1  0.3528896E-009  0.1328568E+03  0.7561462E-02  0.1223277E+00
          2   -1    0    0  501    0  0.00000000000E+00  0.00000000000E+00  0.10049137551E+03  0.10049137551E+03  0.00000000000E+00 0. -1.
         -2   -1    0    0    0  501 -0.00000000000E+00 -0.00000000000E+00 -0.31113625677E+03  0.31113625677E+03  0.00000000000E+00 0.  1.
         25    2    1    2    0    0  0.54476422526E+02 -0.84421824557E+02 -0.22439249604E+03  0.27584796880E+03  0.12508151158E+03 0.  0.
         23    2    1    2    0    0 -0.54476422526E+02  0.84421824557E+02  0.13747614779E+02  0.13577966348E+03  0.90290614294E+02 0.  0.
          5    1    3    3  502    0 -0.32402909934E+02  0.25831363809E+01 -0.23685586129E+02  0.40436376644E+02  0.41800000000E+01 0.  1.
         -5    1    3    3    0  502  0.86879332461E+02 -0.87004960938E+02 -0.20070690991E+03  0.23541159216E+03  0.41800000000E+01 0.  1.
        -11    1    4    4    0    0 -0.46659709866E+02  0.31219343751E+02  0.46430379129E+02  0.72852975609E+02  0.00000000000E+00 0. -1.
         11    1    4    4    0    0 -0.78167126603E+01  0.53202480806E+02 -0.32682764350E+02  0.62926687871E+02  0.00000000000E+00 0.  1.
</event>
<event>
 8    1  0.3528896E-009  0.1789040E+03  0.7561462E-02  0.1168868E+00
         -2   -1    0    0    0  501 -0.00000000000E+00  0.00000000000E+00  0.21039776871E+02  0.21039776871E+02  0.00000000000E+00 0. -1.
          2   -1    0    0  501    0  0.00000000000E+00 -0.00000000000E+00 -0.30041959353E+04  0.30041959353E+04  0.00000000000E+00 0.  1.
         25    2    1    2    0    0  0.12020206147E+03  0.12325137335E+03 -0.24188911448E+04  0.24282338490E+04  0.12508324723E+03 0.  0.
         23    2    1    2    0    0 -0.12020206147E+03 -0.12325137335E+03 -0.56426501360E+03  0.59700186308E+03  0.91524763481E+02 0.  0.
          5    1    3    3  502    0  0.81611772949E+01  0.50770641718E+02 -0.25163354059E+03  0.25686800896E+03  0.41800000000E+01 0. -1.
         -5    1    3    3    0  502  0.11204088417E+03  0.72480731637E+02 -0.21672576042E+04  0.21713658401E+04  0.41800000000E+01 0. -1.
        -11    1    4    4    0    0 -0.77382649926E+02 -0.69713729499E+02 -0.46396304582E+03  0.47551002774E+03  0.00000000000E+00 0.  1.
         11    1    4    4    0    0 -0.42819411542E+02 -0.53537643856E+02 -0.10030196778E+03  0.12149183535E+03  0.00000000000E+00 0. -1.
</event>
<event>
 8    1  0.3528896E-009  0.1331089E+03  0.7561462E-02  0.1222914E+00
         -2   -1    0    0    0  501 -0.00000000000E+00  0.00000000000E+00  0.20443290821E+03  0.20443290821E+03  0.00000000000E+00 0. -1.
          2   -1    0    0  501    0  0.00000000000E+00 -0.00000000000E+00 -0.98862332316E+02  0.98862332316E+02  0.00000000000E+00 0.  1.
         25    2    1    2    0    0  0.76076404028E+02 -0.29582448741E+02  0.10368330278E+03  0.18182160796E+03  0.12508448873E+03 0.  0.
         23    2    1    2    0    0 -0.76076404028E+02  0.29582448741E+02  0.18872731073E+01  0.12147363257E+03  0.89941876152E+02 0.  0.
          5    1    3    3  502    0  0.17390074996E+02 -0.70765483267E+02  0.74514886254E+02  0.10430776100E+03  0.41800000000E+01 0.  1.
         -5    1    3    3    0  502  0.58686329031E+02  0.41183034526E+02  0.29168416530E+02  0.77513846962E+02  0.41800000000E+01 0.  1.
        -11    1    4    4    0    0  0.20757575810E+02  0.76633699584E+01  0.16658775477E+01  0.22189622364E+02  0.00000000000E+00 0. -1.
         11    1    4    4    0    0 -0.96833979838E+02  0.21919078782E+02  0.22139555954E+00  0.99284010203E+02  0.00000000000E+00 0.  1.
</event>
<event>
 8    1  0.3528896E-009  0.8014220E+02  0.7561462E-02  0.1328648E+00
         -2   -1    0    0    0  501 -0.00000000000E+00  0.00000000000E+00  0.25111759636E+02  0.25111759636E+02  0.00000000000E+00 0.  1.
          2   -1    0    0  501    0  0.00000000000E+00 -0.00000000000E+00 -0.68425164091E+03  0.68425164091E+03  0.00000000000E+00 0. -1.
         25    2    1    2    0    0 -0.51156493884E+01  0.60036006438E+01 -0.56072955307E+03  0.57456699651E+03  0.12508952273E+03 0.  0.
         23    2    1    2    0    0  0.51156493884E+01 -0.60036006438E+01 -0.98410328204E+02  0.13479640404E+03  0.91778345789E+02 0.  0.
          5    1    3    3  502    0 -0.12675239457E+02  0.63238137174E+02 -0.35567156872E+03  0.36149614228E+03  0.41800000000E+01 0. -1.
         -5    1    3    3    0  502  0.75595900688E+01 -0.57234536530E+02 -0.20505798435E+03  0.21307085423E+03  0.41800000000E+01 0. -1.
        -11    1    4    4    0    0  0.25995463085E+01 -0.21709333218E+02 -0.11185352416E+03  0.11397045081E+03  0.00000000000E+00 0. -1.
         11    1    4    4    0    0  0.25161030799E+01  0.15705732574E+02  0.13443195960E+02  0.20825953232E+02  0.00000000000E+00 0.  1.
</event>
<event>
 8    1  0.3528896E-009  0.9977123E+02  0.7561462E-02  0.1280778E+00
         -2   -1    0    0    0  501 -0.00000000000E+00  0.00000000000E+00  0.10889246037E+03  0.10889246037E+03  0.00000000000E+00 0.  1.
          2   -1    0    0  501    0  0.00000000000E+00 -0.00000000000E+00 -0.15316550277E+03  0.15316550277E+03  0.00000000000E+00 0. -1.
         25    2    1    2    0    0  0.42695357616E+02 -0.42859283557E+02 -0.69362440451E+02  0.15529768843E+03  0.12508561923E+03 0.  0.
         23    2    1    2    0    0 -0.42695357616E+02  0.42859283557E+02  0.25089398052E+02  0.10676027471E+03  0.84311722864E+02 0.  0.
          5    1    3    3  502    0 -0.19156026478E+02 -0.33403031412E+02 -0.82578411818E+02  0.91210648261E+02  0.41800000000E+01 0.  1.
         -5    1    3    3    0  502  0.61851384094E+02 -0.94562521444E+01  0.13215971366E+02  0.64087040173E+02  0.41800000000E+01 0.  1.
        -11    1    4    4    0    0 -0.29095396242E+02  0.65510082552E+02  0.33377601442E+02  0.79070710611E+02  0.00000000000E+00 0.  1.
         11    1    4    4    0    0 -0.13599961374E+02 -0.22650798995E+02 -0.82882033904E+01  0.27689564098E+02  0.00000000000E+00 0. -1.
</event>
<event>
 8    1  0.3528896E-009  0.1160701E+03  0.7561462E-02  0.1249725E+00
          2   -1    0    0  501    0  0.00000000000E+00  0.00000000000E+00  0.78309837037E+02  0.78309837037E+02  0.00000000000E+00 0. -1.
         -2   -1    0    0    0  501 -0.00000000000E+00 -0.00000000000E+00 -0.20255331872E+03  0.20255331872E+03  0.00000000000E+00 0.  1.
         25    2    1    2    0    0  0.40420181295E+02 -0.12790810565E+02 -0.15603826522E+02  0.13299958169E+03  0.12509201987E+03 0.  0.
         23    2    1    2    0    0 -0.40420181295E+02  0.12790810565E+02 -0.10863965516E+03  0.14786357407E+03  0.90904708194E+02 0.  0.
          5    1    3    3  502    0 -0.37455147376E+02  0.24957586963E+02 -0.91313706093E+01  0.46115328701E+02  0.41800000000E+01 0.  1.
         -5    1    3    3    0  502  0.77875328671E+02 -0.37748397528E+02 -0.64724559127E+01  0.86884252987E+02  0.41800000000E+01 0.  1.
        -11    1    4    4    0    0 -0.59976733261E+02  0.35995083723E+02 -0.74823913559E+02  0.10242788988E+03  0.00000000000E+00 0.  1.
         11    1    4    4    0    0  0.19556551966E+02 -0.23204273158E+02 -0.33815741601E+02  0.45435684188E+02  0.00000000000E+00 0. -1.
</event>
<event>
 8    1  0.3528896E-009  0.1117047E+03  0.7561462E-02  0.1257445E+00
          2   -1    0    0  501    0  0.00000000000E+00  0.00000000000E+00  0.43712788749E+03  0.43712788749E+03  0.00000000000E+00 0.  1.
         -2   -1    0    0    0  501 -0.00000000000E+00 -0.00000000000E+00 -0.49786393327E+02  0.49786393327E+02  0.00000000000E+00 0. -1.
         25    2    1    2    0    0 -0.27664758434E+02  0.10405809586E+03  0.22659831890E+03  0.28033956497E+03  0.12510014942E+03 0.  0.
         23    2    1    2    0    0  0.27664758434E+02 -0.10405809586E+03  0.16074317527E+03  0.20657471585E+03  0.72396952009E+02 0.  0.
          5    1    3    3  502    0 -0.93879716884E+01  0.21103523661E+02  0.18350109803E+03  0.18499626510E+03  0.41800000000E+01 0. -1.
         -5    1    3    3    0  502 -0.18276786745E+02  0.82954572202E+02  0.43097220870E+02  0.95343299868E+02  0.41800000000E+01 0. -1.
        -11    1    4    4    0    0  0.38178847807E+02 -0.80828963201E+02  0.73645264958E+02  0.11582128804E+03  0.00000000000E+00 0.  1.
         11    1    4    4    0    0 -0.10514089373E+02 -0.23229132662E+02  0.87097910311E+02  0.90753427814E+02  0.00000000000E+00 0. -1.
</event>
<event>
 8    1  0.3528896E-009  0.8903269E+02  0.7561462E-02  0.1305211E+00
         -2   -1    0    0    0  501 -0.00000000000E+00  0.00000000000E+00  0.25210155870E+03  0.25210155870E+03  0.00000000000E+00 0. -1.
          2   -1    0    0  501    0  0.00000000000E+00 -0.00000000000E+00 -0.12000150026E+03  0.12000150026E+03  0.00000000000E+00 0.  1.
         25    2    1    2    0    0  0.15358696472E+01 -0.62480331592E+02 -0.58173510503E+02  0.15145156028E+03  0.12508903652E+03 0.  0.
         23    2    1    2    0    0 -0.15358696472E+01  0.62480331592E+02  0.19027356894E+03  0.22065149867E+03  0.92611565684E+02 0.  0.
          5    1    3    3  502    0  0.32487234153E+02 -0.52482296939E+02 -0.87699642646E+02  0.10732432900E+03  0.41800000000E+01 0. -1.
         -5    1    3    3    0  502 -0.30951364505E+02 -0.99980346527E+01  0.29526132143E+02  0.44127231286E+02  0.41800000000E+01 0. -1.
        -11    1    4    4    0    0  0.49478225456E+01  0.71845785801E+02  0.19533445355E+03  0.20818704722E+03  0.00000000000E+00 0. -1.
         11    1    4    4    0    0 -0.64836921928E+01 -0.93654542094E+01 -0.50608846123E+01  0.12464451454E+02  0.00000000000E+00 0.  1.
</event>
<event>
 8    1  0.3528896E-009  0.1450028E+03  0.7561462E-02  0.1206752E+00
          2   -1    0    0  501    0  0.00000000000E+00  0.00000000000E+00  0.30694575943E+03  0.30694575943E+03  0.00000000000E+00 0. -1.
         -2   -1    0    0    0  501 -0.00000000000E+00 -0.00000000000E+00 -0.11491800163E+03  0.11491800163E+03  0.00000000000E+00 0.  1.
         25    2    1    2    0    0  0.11565710191E+03 -0.15478538004E+02  0.20957202209E+03  0.27052659248E+03  0.12509218376E+03 0.  0.
         23    2    1    2    0    0 -0.11565710191E+03  0.15478538004E+02 -0.17544264290E+02  0.15133716858E+03  0.94757516972E+02 0.  0.
          5    1    3    3  502    0  0.10529806425E+02 -0.37085422444E+02  0.13321662539E+03  0.13874561997E+03  0.41800000000E+01 0. -1.
         -5    1    3    3    0  502  0.10512729548E+03  0.21606884440E+02  0.76355396701E+02  0.13178097251E+03  0.41800000000E+01 0. -1.
        -11    1    4    4    0    0 -0.60052304494E+02  0.50196778570E+02 -0.31405232894E+02  0.84334361366E+02  0.00000000000E+00 0.  1.
         11    1    4    4    0    0 -0.55604797414E+02 -0.34718240566E+02  0.13860968604E+02  0.67002807210E+02  0.00000000000E+00 0. -1.
</event>
<event>
 8    1  0.3528896E-009  0.1422671E+03  0.7561462E-02  0.1210311E+00
         -2   -1    0    0    0  501 -0.00000000000E+00  0.00000000000E+00  0.78183567742E+02  0.78183567742E+02  0.00000000000E+00 0.  1.
          2   -1    0    0  501    0  0.00000000000E+00 -0.00000000000E+00 -0.30528995578E+03  0.30528995578E+03  0.00000000000E+00 0. -1.
         25    2    1    2    0    0  0.35656453700E+02  0.99189355590E+02 -0.16180784889E+03  0.23008442500E+03  0.12508857547E+03 0.  0.
         23    2    1    2    0    0 -0.35656453700E+02 -0.99189355590E+02 -0.65298539145E+02  0.15338909852E+03  0.90301746257E+02 0.  0.
          5    1    3    3  502    0  0.48623528576E+02 -0.88931424131E+01 -0.26075990953E+02  0.56042530433E+02  0.41800000000E+01 0. -1.
         -5    1    3    3    0  502 -0.12967074877E+02  0.10808249800E+03 -0.13573185794E+03  0.17404189457E+03  0.41800000000E+01 0. -1.
        -11    1    4    4    0    0  0.97131469728E+01 -0.72919920163E+02 -0.68964199738E+02  0.10083511703E+03  0.00000000000E+00 0. -1.
         11    1    4    4    0    0 -0.45369600673E+02 -0.26269435427E+02  0.36656605930E+01  0.52553981490E+02  0.00000000000E+00 0.  1.
</event>
<event>
 8    1  0.3528896E-009  0.1576041E+03  0.7561462E-02  0.1191429E+00
          1   -1    0    0  501    0  0.00000000000E+00  0.00000000000E+00  0.50467136874E+03  0.50467136874E+03  0.00000000000E+00 0. -1.
         -1   -1    0    0    0  501 -0.00000000000E+00 -0.00000000000E+00 -0.56412913405E+02  0.56412913405E+02  0.00000000000E+00 0.  1.
         25    2    1    2    0    0  0.43761767086E+02 -0.12110557610E+03  0.24393531814E+03  0.30287463289E+03  0.12508777315E+03 0.  0.
         23    2    1    2    0    0 -0.43761767086E+02  0.12110557610E+03  0.20432313719E+03  0.25820964926E+03  0.91337975425E+02 0.  0.
          5    1    3    3  502    0 -0.43109417294E+02 -0.56126524068E+02  0.92447695079E+02  0.11650174801E+03  0.41800000000E+01 0.  1.
         -5    1    3    3    0  502  0.86871184381E+02 -0.64979052031E+02  0.15148762306E+03  0.18637288488E+03  0.41800000000E+01 0.  1.
        -11    1    4    4    0    0 -0.52324889919E+02  0.97768809112E+02  0.94764135088E+02  0.14586595024E+03  0.00000000000E+00 0.  1.
         11    1    4    4    0    0  0.85631228322E+01  0.23336766986E+02  0.10955900211E+03  0.11234369902E+03  0.00000000000E+00 0. -1.
</event>
<event>
 8    1  0.3528896E-009  0.6046910E+02  0.7561462E-02  0.1395874E+00
          1   -1    0    0  501    0  0.00000000000E+00  0.00000000000E+00  0.77636865566E+02  0.77636865566E+02  0.00000000000E+00 0. -1.
         -1   -1    0    0    0  501 -0.00000000000E+00 -0.00000000000E+00 -0.19160791848E+03  0.19160791848E+03  0.00000000000E+00 0.  1.
         25    2    1    2    0    0  0.36700681941E+02 -0.39588058705E+02 -0.62435746057E+02  0.14986022499E+03  0.12508281337E+03 0.  0.
         23    2    1    2    0    0 -0.36700681941E+02  0.39588058705E+02 -0.51535306856E+02  0.11938455905E+03  0.93180634474E+02 0.  0.
          5    1    3    3  502    0  0.43116653231E+02 -0.32656152543E+02  0.26465958714E+02  0.60360495818E+02  0.41800000000E+01 0. -1.
         -5    1    3    3    0  502 -0.64159712904E+01 -0.69319061627E+01 -0.88901704771E+02  0.89499729172E+02  0.41800000000E+01 0. -1.
        -11    1    4    4    0    0 -0.10203938256E+02  0.20421749579E+01  0.26697209156E+02  0.28653652668E+02  0.00000000000E+00 0. -1.
         11    1    4    4    0    0 -0.26496743685E+02  0.37545883747E+02 -0.78232516012E+02  0.90730906387E+02  0.00000000000E+00 0.  1.
</event>
<event>
 8    1  0.3528896E-009  0.3124212E+03  0.7561462E-02  0.1079191E+00
          2   -1    0    0  501    0  0.00000000000E+00  0.00000000000E+00  0.23829688803E+04  0.23829688803E+04  0.00000000000E+00 0. -1.
         -2   -1    0    0    0  501 -0.00000000000E+00 -0.00000000000E+00 -0.47148645840E+02  0.47148645840E+02  0.00000000000E+00 0.  1.
         25    2    1    2    0    0  0.18964523498E+03 -0.23321042851E+03  0.15502516035E+04  0.15840702498E+04  0.12508438389E+03 0.  0.
         23    2    1    2    0    0 -0.18964523498E+03  0.23321042851E+03  0.78556863099E+03  0.84604727635E+03  0.91244181801E+02 0.  0.
          5    1    3    3  502    0  0.10347817467E+03 -0.19849213681E+03  0.12449304665E+04  0.12649016562E+04  0.41800000000E+01 0. -1.
         -5    1    3    3    0  502  0.86167060308E+02 -0.34718291697E+02  0.30532113698E+03  0.31916859361E+03  0.41800000000E+01 0. -1.
        -11    1    4    4    0    0 -0.63490231531E+02  0.13109818177E+03  0.28910670850E+03  0.32372894783E+03  0.00000000000E+00 0.  1.
         11    1    4    4    0    0 -0.12615500345E+03  0.10211224674E+03  0.49646192249E+03  0.52231832852E+03  0.00000000000E+00 0. -1.
</event>
<event>
 8    1  0.3528896E-009  0.7308171E+02  0.7561462E-02  0.1349916E+00
         -2   -1    0    0    0  501 -0.00000000000E+00  0.00000000000E+00  0.14148584568E+02  0.14148584568E+02  0.00000000000E+00 0. -1.
          2   -1    0    0  501    0  0.00000000000E+00 -0.00000000000E+00 -0.98698628523E+03  0.98698628523E+03  0.00000000000E+00 0.  1.
         25    2    1    2    0    0 -0.22805340849E+02  0.37616278632E+02 -0.64541145169E+03  0.65889293222E+03  0.12509550817E+03 0.  0.
         23    2    1    2    0    0  0.22805340849E+02 -0.37616278632E+02 -0.32742624897E+03  0.34224193758E+03  0.89367372873E+02 0.  0.
          5    1    3    3  502    0 -0.22017284990E+02  0.26652865617E+02 -0.38672726623E+02  0.52040256229E+02  0.41800000000E+01 0. -1.
         -5    1    3    3    0  502 -0.78805585903E+00  0.10963413015E+02 -0.60673872507E+03  0.60685267599E+03  0.41800000000E+01 0. -1.
        -11    1    4    4    0    0 -0.19804384618E+02  0.19850920484E+02 -0.95751195976E+02  0.99772562486E+02  0.00000000000E+00 0. -1.
         11    1    4    4    0    0  0.42609725467E+02 -0.57467199115E+02 -0.23167505300E+03  0.24246937510E+03  0.00000000000E+00 0.  1.
</event>
<event>
 8    1  0.3528896E-009  0.8456323E+02  0.7561462E-02  0.1316579E+00
         -2   -1    0    0    0  501 -0.00000000000E+00  0.00000000000E+00  0.35126404757E+02  0.35126404757E+02  0.00000000000E+00 0. -1.
          2   -1    0    0  501    0  0.00000000000E+00 -0.00000000000E+00 -0.52379652649E+03  0.52379652649E+03  0.00000000000E+00 0.  1.
         25    2    1    2    0    0 -0.15903553817E+02  0.64931178252E+02 -0.36624408397E+03  0.39274860782E+03  0.12509100272E+03 0.  0.
         23    2    1    2    0    0  0.15903553817E+02 -0.64931178252E+02 -0.12242603776E+03  0.16617432343E+03  0.90314949553E+02 0.  0.
          5    1    3    3  502    0 -0.28861788606E+02  0.32316615651E+02 -0.26061449715E+02  0.50734978564E+02  0.41800000000E+01 0.  1.
         -5    1    3    3    0  502  0.12958234789E+02  0.32614562601E+02 -0.34018263426E+03  0.34201362925E+03  0.41800000000E+01 0.  1.
        -11    1    4    4    0    0 -0.23294757378E+02 -0.27692149916E+02 -0.45269444188E+01  0.36469084360E+02  0.00000000000E+00 0. -1.
         11    1    4    4    0    0  0.39198311196E+02 -0.37239028336E+02 -0.11789909334E+03  0.12970523907E+03  0.00000000000E+00 0.  1.
</event>
<event>
 7    1  0.3528896E-009  0.1969792E+03  0.7561462E-02  0.1152313E+00
         -1   -1    0    0    0  501 -0.00000000000E+00  0.00000000000E+00  0.75506942218E+03  0.75506942218E+03  0.00000000000E+00 0.  1.
          1   -1    0    0  501    0  0.00000000000E+00 -0.00000000000E+00 -0.60467114319E+02  0.60467114319E+02  0.00000000000E+00 0. -1.
         23    2    1    2    0    0 -0.14118504327E+03 -0.10817136336E+03  0.25969172673E+03  0.32926946054E+03  0.96666045836E+02 0.  0.
          5    1    1    2  502    0 -0.78625772723E+01  0.10886758927E+02 -0.22499488076E+01  0.14243465552E+02  0.41800000000E+01 0.  1.
         -5    1    1    2    0  502  0.14904762054E+03  0.97284604434E+02  0.43716052994E+03  0.47202361041E+03  0.41800000000E+01 0.  1.
        -11    1    3    3    0    0 -0.10912916869E+03 -0.23928693449E+02  0.15597560008E+03  0.19185970304E+03  0.00000000000E+00 0.  1.
         11    1    3    3    0    0 -0.32055874571E+02 -0.84242669911E+02  0.10371612665E+03  0.13740975750E+03  0.00000000000E+00 0. -1.
</event>
<event>
 8    1  0.3528896E-009  0.1100825E+03  0.7561462E-02  0.1260417E+00
         -2   -1    0    0    0  501 -0.00000000000E+00  0.00000000000E+00  0.54277265052E+03  0.54277265052E+03  0.00000000000E+00 0.  1.
          2   -1    0    0  501    0  0.00000000000E+00 -0.00000000000E+00 -0.25223449067E+02  0.25223449067E+02  0.00000000000E+00 0. -1.
         25    2    1    2    0    0 -0.37129006794E+02 -0.20761865818E+02  0.33146150969E+03  0.35681981934E+03  0.12507610822E+03 0.  0.
         23    2    1    2    0    0  0.37129006794E+02  0.20761865818E+02  0.18608769176E+03  0.21117628025E+03  0.90317075329E+02 0.  0.
          5    1    3    3  502    0 -0.47900310051E+02 -0.67416537673E+02  0.23244975276E+03  0.24675856462E+03  0.41800000000E+01 0. -1.
         -5    1    3    3    0  502  0.10771303258E+02  0.46654671855E+02  0.99011756923E+02  0.11006125471E+03  0.41800000000E+01 0. -1.
        -11    1    4    4    0    0 -0.18851358146E+02  0.27040722105E+02  0.11947171625E+03  0.12393573068E+03  0.00000000000E+00 0.  1.
         11    1    4    4    0    0  0.55980364939E+02 -0.62788562863E+01  0.66615975509E+02  0.87240549562E+02  0.00000000000E+00 0. -1.
</event>
<event>
 8    1  0.3528896E-009  0.1026299E+03  0.7561462E-02  0.1274861E+00
          1   -1    0    0  501    0  0.00000000000E+00  0.00000000000E+00  0.70938721122E+03  0.70938721122E+03  0.00000000000E+00 0. -1.
         -1   -1    0    0    0  501 -0.00000000000E+00 -0.00000000000E+00 -0.21065981781E+02  0.21065981781E+02  0.00000000000E+00 0.  1.
         25    2    1    2    0    0  0.56416562309E+02  0.63122330618E+01  0.41532956356E+03  0.43746812458E+03  0.12512809783E+03 0.  0.
         23    2    1    2    0    0 -0.56416562309E+02 -0.63122330618E+01  0.27299166589E+03  0.29298506843E+03  0.89961813504E+02 0.  0.
          5    1    3    3  502    0  0.44668633806E+02 -0.38007078178E+02  0.81599136902E+02  0.10057691773E+03  0.41800000000E+01 0. -1.
         -5    1    3    3    0  502  0.11747928503E+02  0.44319311240E+02  0.33373042665E+03  0.33689120684E+03  0.41800000000E+01 0. -1.
        -11    1    4    4    0    0 -0.54175471607E+02 -0.39569944443E+02  0.22321197248E+03  0.23307583934E+03  0.00000000000E+00 0. -1.
         11    1    4    4    0    0 -0.22410907019E+01  0.33257711381E+02  0.49779693406E+02  0.59909229084E+02  0.00000000000E+00 0.  1.
</event>
<event>
 8    1  0.3528896E-009  0.1091088E+03  0.7561462E-02  0.1262229E+00
         -1   -1    0    0    0  501 -0.00000000000E+00  0.00000000000E+00  0.87337852506E+02  0.87337852506E+02  0.00000000000E+00 0.  1.
          1   -1    0    0  501    0  0.00000000000E+00 -0.00000000000E+00 -0.23871691234E+03  0.23871691234E+03  0.00000000000E+00 0. -1.
         25    2    1    2    0    0 -0.49357790292E+02 -0.27825203167E+02 -0.16822377743E+03  0.21715692634E+03  0.12508979963E+03 0.  0.
         23    2    1    2    0    0  0.49357790292E+02  0.27825203167E+02  0.16844717592E+02  0.10889783851E+03  0.91457975744E+02 0.  0.
          5    1    3    3  502    0  0.34561971588E+02  0.95684073169E+01 -0.16411456128E+02  0.39659709919E+02  0.41800000000E+01 0. -1.
         -5    1    3    3    0  502 -0.83919761879E+02 -0.37393610484E+02 -0.15181232130E+03  0.17749721642E+03  0.41800000000E+01 0. -1.
        -11    1    4    4    0    0 -0.11806651305E+02 -0.12255062745E+02 -0.20617949619E+02  0.26733563631E+02  0.00000000000E+00 0. -1.
         11    1    4    4    0    0  0.61164441596E+02  0.40080265912E+02  0.37462667212E+02  0.82164274877E+02  0.00000000000E+00 0.  1.
</event>
<event>
 8    1  0.3528896E-009  0.2998676E+03  0.7561462E-02  0.1085307E+00
          2   -1    0    0  501    0  0.00000000000E+00  0.00000000000E+00  0.25843186008E+03  0.25843186008E+03  0.00000000000E+00 0. -1.
         -2   -1    0    0    0  501 -0.00000000000E+00 -0.00000000000E+00 -0.38760942282E+03  0.38760942282E+03  0.00000000000E+00 0.  1.
         25    2    1    2    0    0 -0.11280243164E+02  0.28467497743E+03  0.20399070208E+02  0.31181704007E+03  0.12508660101E+03 0.  0.
         23    2    1    2    0    0  0.11280243164E+02 -0.28467497743E+03 -0.14957663295E+03  0.33422424283E+03  0.90363647050E+02 0.  0.
          5    1    3    3  502    0  0.56873252248E+02  0.12741631569E+03  0.13289044705E+02  0.14022679998E+03  0.41800000000E+01 0.  1.
         -5    1    3    3    0  502 -0.68153495412E+02  0.15725866174E+03  0.71100255034E+01  0.17159024008E+03  0.41800000000E+01 0.  1.
        -11    1    4    4    0    0 -0.18120687492E+02 -0.12940507480E+03 -0.11125545748E+03  0.17161529511E+03  0.00000000000E+00 0.  1.
         11    1    4    4    0    0  0.29400930656E+02 -0.15526990263E+03 -0.38321175476E+02  0.16260894772E+03  0.00000000000E+00 0. -1.
</event>
<event>
 7    1  0.3528896E-009  0.1423970E+03  0.7561462E-02  0.1210140E+00
         -1   -1    0    0    0  501 -0.00000000000E+00  0.00000000000E+00  0.43893672762E+02  0.43893672762E+02  0.00000000000E+00 0.  1.
          1   -1    0    0  501    0  0.00000000000E+00 -0.00000000000E+00 -0.64836759470E+03  0.64836759470E+03  0.00000000000E+00 0. -1.
         23    2    1    2    0    0  0.11801829019E+03  0.51618511096E+02 -0.29586424297E+03  0.33519040206E+03  0.90687197885E+02 0.  0.
          5    1    1    2  502    0 -0.78485426091E+02 -0.85900191430E+01 -0.28173548112E+03  0.29261938463E+03  0.41800000000E+01 0.  1.
         -5    1    1    2    0  502 -0.39532864097E+02 -0.43028491953E+02 -0.26874197843E+02  0.64451480768E+02  0.41800000000E+01 0.  1.
        -11    1    3    3    0    0  0.64501664959E+02  0.65429974900E+02 -0.12183460182E+03  0.15259494290E+03  0.00000000000E+00 0.  1.
         11    1    3    3    0    0  0.53516625228E+02 -0.13811463804E+02 -0.17402964115E+03  0.18259545916E+03  0.00000000000E+00 0. -1.
</event>
<event>
 8    1  0.3528896E-009  0.1024640E+03  0.7561462E-02  0.1275198E+00
         -1   -1    0    0    0  501 -0.00000000000E+00  0.00000000000E+00  0.22299999542E+03  0.22299999542E+03  0.00000000000E+00 0.  1.
          1   -1    0    0  501    0  0.00000000000E+00 -0.00000000000E+00 -0.73419667732E+02  0.73419667732E+02  0.00000000000E+00 0. -1.
         25    2    1    2    0    0  0.22935709807E+02 -0.16446178249E+02  0.11953176427E+02  0.12879176003E+03  0.12509162826E+03 0.  0.
         23    2    1    2    0    0 -0.22935709807E+02  0.16446178249E+02  0.13762715126E+03  0.16762790312E+03  0.91440459191E+02 0.  0.
          5    1    3    3  502    0  0.76667501726E+01 -0.70898749676E+02  0.91151386921E+01  0.72013678682E+02  0.41800000000E+01 0.  1.
         -5    1    3    3    0  502  0.15268959634E+02  0.54452571428E+02  0.28380377345E+01  0.56778081348E+02  0.41800000000E+01 0.  1.
        -11    1    4    4    0    0 -0.24427588011E+01 -0.27861913883E+02  0.10560235026E+03  0.10924335081E+03  0.00000000000E+00 0.  1.
         11    1    4    4    0    0 -0.20492951006E+02  0.44308092131E+02  0.32024800999E+02  0.58384552308E+02  0.00000000000E+00 0. -1.
</event>
<event>
 8    1  0.3528896E-009  0.7881914E+02  0.7561462E-02  0.1332436E+00
          4   -1    0    0  501    0  0.00000000000E+00  0.00000000000E+00  0.12202284788E+03  0.12202284788E+03  0.00000000000E+00 0. -1.
         -4   -1    0    0    0  501 -0.00000000000E+00 -0.00000000000E+00 -0.12748887554E+03  0.12748887554E+03  0.00000000000E+00 0.  1.
         25    2    1    2    0    0  0.11104969332E+02  0.57237024998E+02 -0.23063170203E+02  0.13992306404E+03  0.12508859523E+03 0.  0.
         23    2    1    2    0    0 -0.11104969332E+02 -0.57237024998E+02  0.17597142547E+02  0.10958865937E+03  0.91107724497E+02 0.  0.
          5    1    3    3  502    0  0.14145768461E+02  0.49756852650E+01 -0.68642607125E+02  0.70385652814E+02  0.41800000000E+01 0. -1.
         -5    1    3    3    0  502 -0.30407991289E+01  0.52261339733E+02  0.45579436922E+02  0.69537411227E+02  0.41800000000E+01 0. -1.
        -11    1    4    4    0    0  0.27839901419E+02 -0.34953155697E+02 -0.21943779084E+02  0.49782654055E+02  0.00000000000E+00 0.  1.
         11    1    4    4    0    0 -0.38944870750E+02 -0.22283869301E+02  0.39540921632E+02  0.59806005320E+02  0.00000000000E+00 0. -1.
</event>
<event>
 7    1  0.3528896E-009  0.9929847E+02  0.7561462E-02  0.1281778E+00
         -1   -1    0    0    0  501 -0.00000000000E+00  0.00000000000E+00  0.59827507153E+02  0.59827507153E+02  0.00000000000E+00 0.  1.
          1   -1    0    0  501    0  0.00000000000E+00 -0.00000000000E+00 -0.25030179881E+03  0.25030179881E+03  0.00000000000E+00 0. -1.
         23    2    1    2    0    0  0.51372561009E+02  0.20894503519E+02 -0.90928054123E+02  0.14081364131E+03  0.92113246884E+02 0.  0.
          5    1    1    2  502    0 -0.80164470654E+02 -0.16388404313E+02 -0.19770546650E+02  0.84280893837E+02  0.41800000000E+01 0.  1.
         -5    1    1    2    0  502  0.28791909644E+02 -0.45060992064E+01 -0.79775690881E+02  0.85034770809E+02  0.41800000000E+01 0.  1.
        -11    1    3    3    0    0 -0.93343120561E+01  0.24696141313E+02 -0.72653798283E+02  0.77302025732E+02  0.00000000000E+00 0. -1.
         11    1    3    3    0    0  0.60706873065E+02 -0.38016377937E+01 -0.18274255840E+02  0.63511615582E+02  0.00000000000E+00 0.  1.
</event>
<event>
 8    1  0.3528896E-009  0.4678384E+02  0.7561462E-02  0.1463503E+00
          3   -1    0    0  501    0  0.00000000000E+00  0.00000000000E+00  0.10652001526E+03  0.10652001526E+03  0.00000000000E+00 0. -1.
         -3   -1    0    0    0  501 -0.00000000000E+00 -0.00000000000E+00 -0.11178131219E+03  0.11178131219E+03  0.00000000000E+00 0.  1.
         25    2    1    2    0    0 -0.28788221376E+02  0.19323227453E+02  0.16015660927E+02  0.13078757565E+03  0.12508692873E+03 0.  0.
         23    2    1    2    0    0  0.28788221376E+02 -0.19323227453E+02 -0.21276957855E+02  0.87513751808E+02  0.77484185552E+02 0.  0.
          5    1    3    3  502    0 -0.22728741176E+02  0.13653750075E+02 -0.53923006326E+02  0.60234405266E+02  0.41800000000E+01 0.  1.
         -5    1    3    3    0  502 -0.60594802001E+01  0.56694773772E+01  0.69938667253E+02  0.70553170383E+02  0.41800000000E+01 0.  1.
        -11    1    4    4    0    0  0.56896789819E+01  0.15011051033E+02  0.22262377185E+02  0.27446630721E+02  0.00000000000E+00 0. -1.
         11    1    4    4    0    0  0.23098542394E+02 -0.34334278486E+02 -0.43539335040E+02  0.60067121086E+02  0.00000000000E+00 0.  1.
</event>
<event>
 8    1  0.3528896E-009  0.2041974E+03  0.7561462E-02  0.1146245E+00
          2   -1    0    0  501    0  0.00000000000E+00  0.00000000000E+00  0.93528222891E+03  0.93528222891E+03  0.00000000000E+00 0. -1.
         -2   -1    0    0    0  501 -0.00000000000E+00 -0.00000000000E+00 -0.71510254838E+02  0.71510254838E+02  0.00000000000E+00 0.  1.
         25    2    1    2    0    0  0.18300399171E+03  0.89823475799E+02  0.66857711893E+03  0.71007180386E+03  0.12509150610E+03 0.  0.
         23    2    1    2    0    0 -0.18300399171E+03 -0.89823475799E+02  0.19519485514E+03  0.29672067989E+03  0.91560977549E+02 0.  0.
          5    1    3    3  502    0  0.14102155109E+03  0.65986536370E+02  0.29713135575E+03  0.33547848787E+03  0.41800000000E+01 0.  1.
         -5    1    3    3    0  502  0.41982440617E+02  0.23836939429E+02  0.37144576318E+03  0.37459331599E+03  0.41800000000E+01 0.  1.
        -11    1    4    4    0    0 -0.71543150530E+02 -0.28897793216E+02  0.18917835121E+02  0.79444252946E+02  0.00000000000E+00 0. -1.
         11    1    4    4    0    0 -0.11146084118E+03 -0.60925682583E+02  0.17627702002E+03  0.21727642694E+03  0.00000000000E+00 0.  1.
</event>
<event>
 8    1  0.3528896E-009  0.1391898E+03  0.7561462E-02  0.1214423E+00
          1   -1    0    0  501    0  0.00000000000E+00  0.00000000000E+00  0.89392283490E+02  0.89392283490E+02  0.00000000000E+00 0. -1.
         -1   -1    0    0    0  501 -0.00000000000E+00 -0.00000000000E+00 -0.22719574559E+03  0.22719574559E+03  0.00000000000E+00 0.  1.
         25    2    1    2    0    0  0.77175429548E+02 -0.40890929087E+02 -0.43868944063E+02  0.15874173296E+03  0.12508532496E+03 0.  0.
         23    2    1    2    0    0 -0.77175429548E+02  0.40890929087E+02 -0.93934518040E+02  0.15784629613E+03  0.91998067991E+02 0.  0.
          5    1    3    3  502    0  0.72607600596E+01 -0.73720753378E+02 -0.30610373543E+02  0.80261668832E+02  0.41800000000E+01 0. -1.
         -5    1    3    3    0  502  0.69914669489E+02  0.32829824291E+02 -0.13258570520E+02  0.78480064124E+02  0.41800000000E+01 0. -1.
        -11    1    4    4    0    0  0.27701098078E+00  0.48959955503E+02 -0.34868693805E+02  0.60108067558E+02  0.00000000000E+00 0. -1.
         11    1    4    4    0    0 -0.77452440529E+02 -0.80690264158E+01 -0.59065824235E+02  0.97738228569E+02  0.00000000000E+00 0.  1.
</event>
<event>
 8    1  0.3528896E-009  0.1022493E+03  0.7561462E-02  0.1275636E+00
         -1   -1    0    0    0  501 -0.00000000000E+00  0.00000000000E+00  0.18594411382E+02  0.18594411382E+02  0.00000000000E+00 0.  1.
          1   -1    0    0  501    0  0.00000000000E+00 -0.00000000000E+00 -0.72113669094E+03  0.72113669094E+03  0.00000000000E+00 0. -1.
         25    2    1    2    0    0  0.31224770593E+02 -0.15726498582E+02 -0.32386818050E+03  0.34894252812E+03  0.12509188836E+03 0.  0.
         23    2    1    2    0    0 -0.31224770593E+02  0.15726498582E+02 -0.37867409906E+03  0.39078857420E+03  0.89996263113E+02 0.  0.
          5    1    3    3  502    0  0.15714968043E+02 -0.61634974089E+02 -0.91349381647E+02  0.11139125719E+03  0.41800000000E+01 0.  1.
         -5    1    3    3    0  502  0.15509802549E+02  0.45908475507E+02 -0.23251879885E+03  0.23755127093E+03  0.41800000000E+01 0.  1.
        -11    1    4    4    0    0 -0.13625512917E+02 -0.35460916598E+02 -0.21683395308E+03  0.22013653585E+03  0.00000000000E+00 0. -1.
         11    1    4    4    0    0 -0.17599257676E+02  0.51187415180E+02 -0.16184014597E+03  0.17065203835E+03  0.00000000000E+00 0.  1.
</event>
<event>
 8    1  0.3528896E-009  0.1251068E+03  0.7561462E-02  0.1234902E+00
          1   -1    0    0  501    0  0.00000000000E+00  0.00000000000E+00  0.97801698790E+02  0.97801698790E+02  0.00000000000E+00 0. -1.
         -1   -1    0    0    0  501 -0.00000000000E+00 -0.00000000000E+00 -0.21301615650E+03  0.21301615650E+03  0.00000000000E+00 0.  1.
         25    2    1    2    0    0 -0.86366969142E+02 -0.19901178364E+02 -0.26784424166E+02  0.15562913406E+03  0.12509081394E+03 0.  0.
         23    2    1    2    0    0  0.86366969142E+02  0.19901178364E+02 -0.88430033546E+02  0.15518872123E+03  0.91697099768E+02 0.  0.
          5    1    3    3  502    0 -0.30502821186E+02  0.44819353918E+02 -0.41977311722E+02  0.68693257932E+02  0.41800000000E+01 0. -1.
         -5    1    3    3    0  502 -0.55864147956E+02 -0.64720532282E+02  0.15192887557E+02  0.86935876127E+02  0.41800000000E+01 0. -1.
        -11    1    4    4    0    0  0.41983882298E+02  0.43092763713E+02 -0.86126092277E+02  0.10505872847E+03  0.00000000000E+00 0.  1.
         11    1    4    4    0    0  0.44383086843E+02 -0.23191585349E+02 -0.23039412686E+01  0.50129992760E+02  0.00000000000E+00 0. -1.
</event>
<event>
 8    1  0.3528896E-009  0.7375217E+02  0.7561462E-02  0.1347779E+00
          2   -1    0    0  501    0  0.00000000000E+00  0.00000000000E+00  0.26114038691E+03  0.26114038691E+03  0.00000000000E+00 0. -1.
         -2   -1    0    0    0  501 -0.00000000000E+00 -0.00000000000E+00 -0.54600988093E+02  0.54600988093E+02  0.00000000000E+00 0.  1.
         25    2    1    2    0    0  0.51204271501E+02 -0.91350879554E+01  0.97894831687E+02  0.16713705044E+03  0.12508424483E+03 0.  0.
         23    2    1    2    0    0 -0.51204271501E+02  0.91350879554E+01  0.10864456713E+03  0.14860432457E+03  0.87030316909E+02 0.  0.
          5    1    3    3  502    0  0.16393563797E+01 -0.82264307712E+01  0.11435283588E+03  0.11473624156E+03  0.41800000000E+01 0.  1.
         -5    1    3    3    0  502  0.49564915121E+02 -0.90865718417E+00 -0.16458004196E+02  0.52400808877E+02  0.41800000000E+01 0.  1.
        -11    1    4    4    0    0  0.32127048312E+01  0.29949488868E+02  0.62022172753E+01  0.30753225114E+02  0.00000000000E+00 0.  1.
         11    1    4    4    0    0 -0.54416976332E+02 -0.20814400913E+02  0.10244234985E+03  0.11785109945E+03  0.00000000000E+00 0. -1.
</event>
<event>
 8    1  0.3528896E-009  0.1012542E+03  0.7561462E-02  0.1277680E+00
         -1   -1    0    0    0  501 -0.00000000000E+00  0.00000000000E+00  0.17150537620E+02  0.17150537620E+02  0.00000000000E+00 0.  1.
          1   -1    0    0  501    0  0.00000000000E+00 -0.00000000000E+00 -0.11420304636E+04  0.11420304636E+04  0.00000000000E+00 0. -1.
         25    2    1    2    0    0  0.53255214456E+02  0.24053203204E+02 -0.88921216028E+03  0.89986672834E+03  0.12508872189E+03 0.  0.
         23    2    1    2    0    0 -0.53255214456E+02 -0.24053203204E+02 -0.23566776575E+03  0.25931427292E+03  0.91049008103E+02 0.  0.
          5    1    3    3  502    0 -0.34713522503E+02 -0.13337798648E+02 -0.37217704465E+03  0.37405367327E+03  0.41800000000E+01 0. -1.
         -5    1    3    3    0  502  0.87968736960E+02  0.37391001852E+02 -0.51703511563E+03  0.52581305508E+03  0.41800000000E+01 0. -1.
        -11    1    4    4    0    0 -0.41686943984E+02  0.11238749425E+01 -0.22623298455E+03  0.23004440374E+03  0.00000000000E+00 0. -1.
         11    1    4    4    0    0 -0.11568270473E+02 -0.25177078147E+02 -0.94347812011E+01  0.29269869184E+02  0.00000000000E+00 0.  1.
</event>
<event>
 8    1  0.3528896E-009  0.1824422E+03  0.7561462E-02  0.1165460E+00
         -1   -1    0    0    0  501 -0.00000000000E+00  0.00000000000E+00  0.14466743919E+03  0.14466743919E+03  0.00000000000E+00 0.  1.
          1   -1    0    0  501    0  0.00000000000E+00 -0.00000000000E+00 -0.32740508001E+03  0.32740508001E+03  0.00000000000E+00 0. -1.
         25    2    1    2    0    0  0.16481069366E+03 -0.35113812823E+02 -0.18777260812E+03  0.28160679624E+03  0.12509312824E+03 0.  0.
         23    2    1    2    0    0 -0.16481069366E+03  0.35113812823E+02  0.50349673062E+01  0.19046572296E+03  0.88635749734E+02 0.  0.
          5    1    3    3  502    0  0.65585258842E+02 -0.37766535934E+02 -0.16217417713E+03  0.17901305411E+03  0.41800000000E+01 0.  1.
         -5    1    3    3    0  502  0.99225434819E+02  0.26527231104E+01 -0.25598430986E+02  0.10259374213E+03  0.41800000000E+01 0.  1.
        -11    1    4    4    0    0 -0.64181761198E+02 -0.28990690787E+02 -0.57876699721E+01  0.70662972953E+02  0.00000000000E+00 0. -1.
         11    1    4    4    0    0 -0.10062893246E+03  0.64104503610E+02  0.10822637278E+02  0.11980275001E+03  0.00000000000E+00 0.  1.
</event>
<event>
 8    1  0.3528896E-009  0.9521974E+02  0.7561462E-02  0.1290682E+00
          1   -1    0    0  501    0  0.00000000000E+00  0.00000000000E+00  0.66165386717E+02  0.66165386717E+02  0.00000000000E+00 0. -1.
         -1   -1    0    0    0  501 -0.00000000000E+00 -0.00000000000E+00 -0.21638291425E+03  0.21638291425E+03  0.00000000000E+00 0.  1.
         25    2    1    2    0    0 -0.38718354305E+02 -0.28641214072E+02 -0.10198087233E+03  0.16842490509E+03  0.12508964877E+03 0.  0.
         23    2    1    2    0    0  0.38718354305E+02  0.28641214072E+02 -0.48236655204E+02  0.11412339588E+03  0.91531112083E+02 0.  0.
          5    1    3    3  502    0  0.78756452578E+01 -0.50416631774E+02  0.31681957055E+01  0.51296904504E+02  0.41800000000E+01 0.  1.
         -5    1    3    3    0  502 -0.46593999563E+02  0.21775417702E+02 -0.10514906804E+03  0.11712800058E+03  0.41800000000E+01 0.  1.
        -11    1    4    4    0    0 -0.21981747084E+02  0.53415893489E+01 -0.43380038647E+02  0.48923997533E+02  0.00000000000E+00 0.  1.
         11    1    4    4    0    0  0.60700101389E+02  0.23299624723E+02 -0.48566165567E+01  0.65199398350E+02  0.00000000000E+00 0. -1.
</event>
<event>
 8    1  0.3528896E-009  0.9955104E+02  0.7561462E-02  0.1281243E+00
         -2   -1    0    0    0  501 -0.00000000000E+00  0.00000000000E+00  0.13332444716E+02  0.13332444716E+02  0.00000000000E+00 0.  1.
          2   -1    0    0  501    0  0.00000000000E+00 -0.00000000000E+00 -0.12445522197E+04  0.12445522197E+04  0.00000000000E+00 0. -1.
         25    2    1    2    0    0  0.31478013513E+02  0.44090163347E+02 -0.91114609976E+03  0.92128734737E+03  0.12509337902E+03 0.  0.
         23    2    1    2    0    0 -0.31478013513E+02 -0.44090163347E+02 -0.32007367524E+03  0.33659731706E+03  0.88970716721E+02 0.  0.
          5    1    3    3  502    0 -0.19612254472E+02 -0.24674092705E+02 -0.85886826662E+02  0.91583135841E+02  0.41800000000E+01 0.  1.
         -5    1    3    3    0  502  0.51090267985E+02  0.68764256052E+02 -0.82525927310E+03  0.82970421153E+03  0.41800000000E+01 0.  1.
        -11    1    4    4    0    0 -0.13413552530E+02 -0.57498172800E+02 -0.30206307523E+03  0.30777924668E+03  0.00000000000E+00 0. -1.
         11    1    4    4    0    0 -0.18064460983E+02  0.13408009453E+02 -0.18010600009E+02  0.28818070386E+02  0.00000000000E+00 0.  1.
</event>
<event>
 8    1  0.3528896E-009  0.1507906E+03  0.7561462E-02  0.1199505E+00
         -2   -1    0    0    0  501 -0.00000000000E+00  0.00000000000E+00  0.28102199318E+03  0.28102199318E+03  0.00000000000E+00 0. -1.
          2   -1    0    0  501    0  0.00000000000E+00 -0.00000000000E+00 -0.14904210857E+03  0.14904210857E+03  0.00000000000E+00 0.  1.
         25    2    1    2    0    0  0.17983734783E+02 -0.11466016999E+03  0.20549700850E+03  0.26710902726E+03  0.12509133718E+03 0.  0.
         23    2    1    2    0    0 -0.17983734783E+02  0.11466016999E+03 -0.73517123892E+02  0.16295507449E+03  0.87631155977E+02 0.  0.
          5    1    3    3  502    0  0.33485187603E+02  0.16626776449E+02  0.35557548782E+02  0.51764072089E+02  0.41800000000E+01 0. -1.
         -5    1    3    3    0  502 -0.15501452819E+02 -0.13128694644E+03  0.16993945972E+03  0.21534495517E+03  0.41800000000E+01 0. -1.
        -11    1    4    4    0    0  0.23256314261E+02  0.47464830418E+02 -0.64815487365E+02  0.83635002732E+02  0.00000000000E+00 0.  1.
         11    1    4    4    0    0 -0.41240049044E+02  0.67195339577E+02 -0.87016365271E+01  0.79320071762E+02  0.00000000000E+00 0. -1.
</event>
<event>
 8    1  0.3528896E-009  0.1514749E+03  0.7561462E-02  0.1198672E+00
          1   -1    0    0  501    0  0.00000000000E+00  0.00000000000E+00  0.38492386325E+03  0.38492386325E+03  0.00000000000E+00 0. -1.
         -1   -1    0    0    0  501 -0.00000000000E+00 -0.00000000000E+00 -0.70503055080E+02  0.70503055080E+02  0.00000000000E+00 0.  1.
         25    2    1    2    0    0  0.97425649530E+02 -0.59094477395E+02  0.23507854698E+03  0.28964310027E+03  0.12508911959E+03 0.  0.
         23    2    1    2    0    0 -0.97425649530E+02  0.59094477395E+02  0.79342261195E+02  0.16578381806E+03  0.90582368458E+02 0.  0.
          5    1    3    3  502    0 -0.27699959220E+02 -0.40091068956E+01  0.68431232104E+02  0.74051783274E+02  0.41800000000E+01 0. -1.
         -5    1    3    3    0  502  0.12512560875E+03 -0.55085370499E+02  0.16664731487E+03  0.21559131699E+03  0.41800000000E+01 0. -1.
        -11    1    4    4    0    0 -0.96562912670E+02  0.74798860806E+02  0.85282857415E+02  0.14897124370E+03  0.00000000000E+00 0.  1.
         11    1    4    4    0    0 -0.86273686042E+00 -0.15704383411E+02 -0.59405962205E+01  0.16812574362E+02  0.00000000000E+00 0. -1.
</event>
<event>
 7    1  0.3528896E-009  0.8991566E+02  0.7561462E-02  0.1303056E+00
         -4   -1    0    0    0  501 -0.00000000000E+00  0.00000000000E+00  0.27658307013E+03  0.27658307013E+03  0.00000000000E+00 0.  1.
          4   -1    0    0  501    0  0.00000000000E+00 -0.00000000000E+00 -0.58747733660E+02  0.58747733660E+02  0.00000000000E+00 0. -1.
         23    2    1    2    0    0  0.18939777804E+02 -0.36020494893E+02  0.26974573239E+02  0.10359867938E+03  0.91372137617E+02 0.  0.
          5    1    1    2  502    0  0.51500408091E+02  0.64634104461E+01  0.10163789806E+03  0.11420071116E+03  0.41800000000E+01 0. -1.
         -5    1    1    2    0  502 -0.70440185895E+02  0.29557084447E+02  0.89222865168E+02  0.11753141324E+03  0.41800000000E+01 0. -1.
        -11    1    3    3    0    0  0.27479432152E+02 -0.23844602031E+02 -0.28467778980E+02  0.46196305886E+02  0.00000000000E+00 0. -1.
         11    1    3    3    0    0 -0.85396543478E+01 -0.12175892862E+02  0.55442352220E+02  0.57402373496E+02  0.00000000000E+00 0.  1.
</event>
<event>
 8    1  0.3528896E-009  0.7835179E+02  0.7561462E-02  0.1333795E+00
         -2   -1    0    0    0  501 -0.00000000000E+00  0.00000000000E+00  0.31651283984E+02  0.31651283984E+02  0.00000000000E+00 0. -1.
          2   -1    0    0  501    0  0.00000000000E+00 -0.00000000000E+00 -0.38037604320E+03  0.38037604320E+03  0.00000000000E+00 0.  1.
         25    2    1    2    0    0  0.84903485287E+01 -0.28790898739E+02 -0.19545562465E+03  0.23399035420E+03  0.12509029853E+03 0.  0.
         23    2    1    2    0    0 -0.84903485287E+01  0.28790898739E+02 -0.15326913456E+03  0.17803697298E+03  0.85467738170E+02 0.  0.
          5    1    3    3  502    0  0.43449910023E+02 -0.11227335656E+02 -0.12388764548E+02  0.46742931380E+02  0.41800000000E+01 0. -1.
         -5    1    3    3    0  502 -0.34959561495E+02 -0.17563563083E+02 -0.18306686010E+03  0.18724742282E+03  0.41800000000E+01 0. -1.
        -11    1    4    4    0    0  0.28337797266E+02  0.19199814377E+02 -0.12765221903E+03  0.13216184264E+03  0.00000000000E+00 0.  1.
         11    1    4    4    0    0 -0.36828145795E+02  0.95910843621E+01 -0.25616915531E+02  0.45875130335E+02  0.00000000000E+00 0. -1.
</event>
<event>
 8    1  0.3528896E-009  0.1149179E+03  0.7561462E-02  0.1251724E+00
         -1   -1    0    0    0  501 -0.00000000000E+00  0.00000000000E+00  0.60148881050E+02  0.60148881050E+02  0.00000000000E+00 0.  1.
          1   -1    0    0  501    0  0.00000000000E+00 -0.00000000000E+00 -0.72029718863E+03  0.72029718863E+03  0.00000000000E+00 0. -1.
         25    2    1    2    0    0  0.62348957296E+02 -0.56748782201E+02 -0.64052440412E+03  0.65804764479E+03  0.12508946311E+03 0.  0.
         23    2    1    2    0    0 -0.62348957296E+02  0.56748782201E+02 -0.19623903452E+02  0.12239842488E+03  0.86535888913E+02 0.  0.
          5    1    3    3  502    0  0.77127826390E+02 -0.54264889336E+02 -0.63430785458E+03  0.64129346371E+03  0.41800000000E+01 0. -1.
         -5    1    3    3    0  502 -0.14778869094E+02 -0.24838928651E+01 -0.62165495450E+01  0.16754181081E+02  0.41800000000E+01 0. -1.
        -11    1    4    4    0    0 -0.28352892746E+02 -0.20828413203E+02  0.11091717400E+01  0.35198573630E+02  0.00000000000E+00 0. -1.
         11    1    4    4    0    0 -0.33996064550E+02  0.77577195404E+02 -0.20733075192E+02  0.87199851253E+02  0.00000000000E+00 0.  1.
</event>
<event>
 8    1  0.3528896E-009  0.1542844E+03  0.7561462E-02  0.1195305E+00
         -2   -1    0    0    0  501 -0.00000000000E+00  0.00000000000E+00  0.27735049183E+02  0.27735049183E+02  0.00000000000E+00 0.  1.
          2   -1    0    0  501    0  0.00000000000E+00 -0.00000000000E+00 -0.11588903835E+04  0.11588903835E+04  0.00000000000E+00 0. -1.
         25    2    1    2    0    0 -0.20264295252E+02  0.13876291081E+03 -0.69585566608E+03  0.72078273111E+03  0.12508737094E+03 0.  0.
         23    2    1    2    0    0  0.20264295252E+02 -0.13876291081E+03 -0.43529966823E+03  0.46584270157E+03  0.88644426592E+02 0.  0.
          5    1    3    3  502    0  0.45386477551E+01  0.67380919292E+02 -0.56941941146E+03  0.57342543208E+03  0.41800000000E+01 0.  1.
         -5    1    3    3    0  502 -0.24802943007E+02  0.71381991516E+02 -0.12643625462E+03  0.14735729903E+03  0.41800000000E+01 0.  1.
        -11    1    4    4    0    0  0.54916317956E+02 -0.89119200143E+02 -0.25500506607E+03  0.27565488847E+03  0.00000000000E+00 0.  1.
         11    1    4    4    0    0 -0.34652022705E+02 -0.49643710665E+02 -0.18029460215E+03  0.19018781310E+03  0.00000000000E+00 0. -1.
</event>
<event>
 8    1  0.3528896E-009  0.2525176E+03  0.7561462E-02  0.1111724E+00
          1   -1    0    0  501    0  0.00000000000E+00  0.00000000000E+00  0.16587474995E+04  0.16587474995E+04  0.00000000000E+00 0. -1.
         -1   -1    0    0    0  501 -0.00000000000E+00 -0.00000000000E+00 -0.40976679083E+02  0.40976679083E+02  0.00000000000E+00 0.  1.
         25    2    1    2    0    0 -0.12303549614E+03  0.19639706517E+03  0.67193805875E+03  0.72170467918E+03  0.12508936259E+03 0.  0.
         23    2    1    2    0    0  0.12303549614E+03 -0.19639706517E+03  0.94583276171E+03  0.97801949945E+03  0.90625535344E+02 0.  0.
          5    1    3    3  502    0 -0.14665263763E+03  0.18361240115E+03  0.57927604210E+03  0.62513895682E+03  0.41800000000E+01 0.  1.
         -5    1    3    3    0  502  0.23617141482E+02  0.12784664021E+02  0.92662016645E+02  0.96565722359E+02  0.41800000000E+01 0.  1.
        -11    1    4    4    0    0  0.63486996418E+02 -0.16214740165E+03  0.76524516968E+03  0.78480733196E+03  0.00000000000E+00 0. -1.
         11    1    4    4    0    0  0.59548499726E+02 -0.34249663520E+02  0.18058759203E+03  0.19321216749E+03  0.00000000000E+00 0.  1.
</event>
<event>
 7    1  0.3528896E-009  0.1088348E+03  0.7561462E-02  0.1262743E+00
          1   -1    0    0  501    0  0.00000000000E+00  0.00000000000E+00  0.10597165582E+03  0.10597165582E+03  0.00000000000E+00 0. -1.
         -1   -1    0    0    0  501 -0.00000000000E+00 -0.00000000000E+00 -0.13110484955E+03  0.13110484955E+03  0.00000000000E+00 0.  1.
         23    2    1    2    0    0  0.18925397702E+02  0.23233050886E+02  0.21596614087E+02  0.10011821771E+03  0.93055351511E+02 0.  0.
          5    1    1    2  502    0  0.20050052577E+02  0.41025009995E+02 -0.40931461099E+02  0.61464729407E+02  0.41800000000E+01 0. -1.
         -5    1    1    2    0  502 -0.38975450278E+02 -0.64258060881E+02 -0.57983467175E+01  0.75493558250E+02  0.41800000000E+01 0. -1.
        -11    1    3    3    0    0 -0.37389729074E+02  0.96948596612E+01  0.97945726491E+00  0.38638600914E+02  0.00000000000E+00 0. -1.
         11    1    3    3    0    0  0.56315126776E+02  0.13538191225E+02  0.20617156822E+02  0.61479616791E+02  0.00000000000E+00 0.  1.
</event>
<event>
 8    1  0.3528896E-009  0.1727846E+03  0.7561462E-02  0.1174975E+00
         -1   -1    0    0    0  501 -0.00000000000E+00  0.00000000000E+00  0.34633574866E+02  0.34633574866E+02  0.00000000000E+00 0.  1.
          1   -1    0    0  501    0  0.00000000000E+00 -0.00000000000E+00 -0.11751641680E+04  0.11751641680E+04  0.00000000000E+00 0. -1.
         25    2    1    2    0    0 -0.12297874530E+03 -0.88634165922E+02 -0.83151411842E+03  0.85442566592E+03  0.12509077624E+03 0.  0.
         23    2    1    2    0    0  0.12297874530E+03  0.88634165922E+02 -0.30901647469E+03  0.35537207691E+03  0.88421401570E+02 0.  0.
          5    1    3    3  502    0 -0.14512324741E+03 -0.85815575886E+02 -0.78159260967E+03  0.79958085889E+03  0.41800000000E+01 0.  1.
         -5    1    3    3    0  502  0.22144502112E+02 -0.28185900362E+01 -0.49921508741E+02  0.54844807034E+02  0.41800000000E+01 0.  1.
        -11    1    4    4    0    0  0.61198980931E+02  0.26829872443E+02 -0.54364302450E+02  0.86143105953E+02  0.00000000000E+00 0.  1.
         11    1    4    4    0    0  0.61779764370E+02  0.61804293479E+02 -0.25465217224E+03  0.26922897096E+03  0.00000000000E+00 0. -1.
</event>
<event>
 8    1  0.3528896E-009  0.1433400E+03  0.7561462E-02  0.1208904E+00
         -2   -1    0    0    0  501 -0.00000000000E+00  0.00000000000E+00  0.60875732578E+02  0.60875732578E+02  0.00000000000E+00 0.  1.
          2   -1    0    0  501    0  0.00000000000E+00 -0.00000000000E+00 -0.35679185338E+03  0.35679185338E+03  0.00000000000E+00 0. -1.
         25    2    1    2    0    0  0.22461142911E+02  0.93355764188E+02 -0.19942798638E+03  0.25424208284E+03  0.12509082016E+03 0.  0.
         23    2    1    2    0    0 -0.22461142911E+02 -0.93355764188E+02 -0.96488134424E+02  0.16342550312E+03  0.90433032330E+02 0.  0.
          5    1    3    3  502    0 -0.50816347398E+02  0.54478533842E+02 -0.96411100117E+02  0.12191301997E+03  0.41800000000E+01 0. -1.
         -5    1    3    3    0  502  0.73277490309E+02  0.38877230346E+02 -0.10301688626E+03  0.13232906287E+03  0.41800000000E+01 0. -1.
        -11    1    4    4    0    0 -0.50397841275E+02 -0.27370783380E+02 -0.60053097766E+02  0.83039007335E+02  0.00000000000E+00 0.  1.
         11    1    4    4    0    0  0.27936698364E+02 -0.65984980808E+02 -0.36435036659E+02  0.80386495782E+02  0.00000000000E+00 0. -1.
</event>
<event>
 8    1  0.3528896E-009  0.1256845E+03  0.7561462E-02  0.1234003E+00
         -1   -1    0    0    0  501 -0.00000000000E+00  0.00000000000E+00  0.28739264298E+02  0.28739264298E+02  0.00000000000E+00 0.  1.
          1   -1    0    0  501    0  0.00000000000E+00 -0.00000000000E+00 -0.79679141493E+03  0.79679141493E+03  0.00000000000E+00 0. -1.
         25    2    1    2    0    0  0.16885782731E+02  0.79238527189E+02 -0.59714007871E+03  0.61545676442E+03  0.12508749505E+03 0.  0.
         23    2    1    2    0    0 -0.16885782731E+02 -0.79238527189E+02 -0.17091207192E+03  0.21007391481E+03  0.91412469088E+02 0.  0.
          5    1    3    3  502    0  0.40982260609E+02 -0.13952853630E+02 -0.29870040156E+03  0.30185034388E+03  0.41800000000E+01 0. -1.
         -5    1    3    3    0  502 -0.24096477879E+02  0.93191380820E+02 -0.29843967715E+03  0.31360642054E+03  0.41800000000E+01 0. -1.
        -11    1    4    4    0    0  0.12171518941E+02  0.11197544389E+02 -0.25088613509E+01  0.16727978328E+02  0.00000000000E+00 0.  1.
         11    1    4    4    0    0 -0.29057301671E+02 -0.90436071578E+02 -0.16840321057E+03  0.19334593648E+03  0.00000000000E+00 0. -1.
</event>
<event>
 8    1  0.3528896E-009  0.1509476E+03  0.7561462E-02  0.1199313E+00
          2   -1    0    0  501    0  0.00000000000E+00  0.00000000000E+00  0.64332310723E+03  0.64332310723E+03  0.00000000000E+00 0. -1.
         -2   -1    0    0    0  501 -0.00000000000E+00 -0.00000000000E+00 -0.51031633872E+02  0.51031633872E+02  0.00000000000E+00 0.  1.
         25    2    1    2    0    0  0.50839428864E+02 -0.92507384574E+02  0.12283903818E+03  0.20463941701E+03  0.12508236473E+03 0.  0.
         23    2    1    2    0    0 -0.50839428864E+02  0.92507384574E+02  0.46945243519E+03  0.48971532410E+03  0.91067260991E+02 0.  0.
          5    1    3    3  502    0  0.50060260862E+02 -0.12249226046E+03  0.90712388558E+02  0.16048860841E+03  0.41800000000E+01 0.  1.
         -5    1    3    3    0  502  0.77916800272E+00  0.29984875887E+02  0.32126649618E+02  0.44150808604E+02  0.41800000000E+01 0.  1.
        -11    1    4    4    0    0 -0.42381714066E+02 -0.37887094648E+01  0.15563134968E+03  0.16134336370E+03  0.00000000000E+00 0. -1.
         11    1    4    4    0    0 -0.84577147986E+01  0.96296094038E+02  0.31382108551E+03  0.32837196040E+03  0.00000000000E+00 0.  1.
</event>
<event>
 8    1  0.3528896E-009  0.1410226E+03  0.7561462E-02  0.1211960E+00
          1   -1    0    0  501    0  0.00000000000E+00  0.00000000000E+00  0.38948143908E+03  0.38948143908E+03  0.00000000000E+00 0. -1.
         -1   -1    0    0    0  501 -0.00000000000E+00 -0.00000000000E+00 -0.85096301440E+02  0.85096301440E+02  0.00000000000E+00 0.  1.
         25    2    1    2    0    0 -0.60044996167E+02 -0.98878648092E+02  0.27770815950E+03  0.32580971656E+03  0.12509101061E+03 0.  0.
         23    2    1    2    0    0  0.60044996167E+02  0.98878648092E+02  0.26676978141E+02  0.14876802397E+03  0.89654197779E+02 0.  0.
          5    1    3    3  502    0 -0.53296929914E+02 -0.12313030062E+03  0.17831692000E+03  0.22319504929E+03  0.41800000000E+01 0. -1.
         -5    1    3    3    0  502 -0.67480662526E+01  0.24251652527E+02  0.99391239499E+02  0.10261466726E+03  0.41800000000E+01 0. -1.
        -11    1    4    4    0    0  0.40301852354E+02  0.28929083639E+02 -0.28772165772E+02  0.57349531006E+02  0.00000000000E+00 0.  1.
         11    1    4    4    0    0  0.19743143813E+02  0.69949564453E+02  0.55449143913E+02  0.91418492962E+02  0.00000000000E+00 0. -1.
</event>
<event>
 8    1  0.3528896E-009  0.8224583E+02  0.7561462E-02  0.1322796E+00
          1   -1    0    0  501    0  0.00000000000E+00  0.00000000000E+00  0.12788091325E+03  0.12788091325E+03  0.00000000000E+00 0.  1.
         -1   -1    0    0    0  501 -0.00000000000E+00 -0.00000000000E+00 -0.11480003354E+03  0.11480003354E+03  0.00000000000E+00 0. -1.
         25    2    1    2    0    0  0.17289067189E+02  0.48980081460E+02  0.25657256289E+02  0.13785302369E+03  0.12508877295E+03 0.  0.
         23    2    1    2    0    0 -0.17289067189E+02 -0.48980081460E+02 -0.12576376580E+02  0.10482792310E+03  0.90181860647E+02 0.  0.
          5    1    3    3  502    0  0.25447040277E+02  0.44049611442E+02  0.73169444263E+02  0.89214125007E+02  0.41800000000E+01 0. -1.
         -5    1    3    3    0  502 -0.81579730885E+01  0.49304700186E+01 -0.47512187974E+02  0.48638898688E+02  0.41800000000E+01 0. -1.
        -11    1    4    4    0    0 -0.49448173506E+02 -0.66705902526E+01  0.12604527822E+01  0.49911996339E+02  0.00000000000E+00 0. -1.
         11    1    4    4    0    0  0.32159106317E+02 -0.42309491208E+02 -0.13836829363E+02  0.54915926762E+02  0.00000000000E+00 0.  1.
</event>
<event>
 8    1  0.3528896E-009  0.1470573E+03  0.7561462E-02  0.1204136E+00
         -1   -1    0    0    0  501 -0.00000000000E+00  0.00000000000E+00  0.57752332735E+02  0.57752332735E+02  0.00000000000E+00 0.  1.
          1   -1    0    0  501    0  0.00000000000E+00 -0.00000000000E+00 -0.44477476751E+03  0.44477476751E+03  0.00000000000E+00 0. -1.
         25    2    1    2    0    0 -0.50994417966E+02 -0.10297472811E+03 -0.24817705038E+03  0.30073203580E+03  0.12507471258E+03 0.  0.
         23    2    1    2    0    0  0.50994417966E+02  0.10297472811E+03 -0.13884538440E+03  0.20179506445E+03  0.90768838126E+02 0.  0.
          5    1    3    3  502    0 -0.80643942989E+02 -0.74655923653E+02 -0.23145914134E+03  0.25625721255E+03  0.41800000000E+01 0.  1.
         -5    1    3    3    0  502  0.29649525023E+02 -0.28318804456E+02 -0.16717909042E+02  0.44474823244E+02  0.41800000000E+01 0.  1.
        -11    1    4    4    0    0  0.13358534856E+02 -0.14414029195E+02 -0.59620952386E+01  0.20536827184E+02  0.00000000000E+00 0.  1.
         11    1    4    4    0    0  0.37635883110E+02  0.11738875730E+03 -0.13288328916E+03  0.18125823727E+03  0.00000000000E+00 0. -1.
</event>
<event>
 8    1  0.3528896E-009  0.7462213E+02  0.7561462E-02  0.1345045E+00
          1   -1    0    0  501    0  0.00000000000E+00  0.00000000000E+00  0.82909824758E+03  0.82909824758E+03  0.00000000000E+00 0. -1.
         -1   -1    0    0    0  501 -0.00000000000E+00 -0.00000000000E+00 -0.23579803355E+02  0.23579803355E+02  0.00000000000E+00 0.  1.
         25    2    1    2    0    0  0.19758646851E+02 -0.27134688817E+01  0.69498629932E+03  0.70643528249E+03  0.12508830904E+03 0.  0.
         23    2    1    2    0    0 -0.19758646851E+02  0.27134688817E+01  0.11053214490E+03  0.14624276844E+03  0.93658022762E+02 0.  0.
          5    1    3    3  502    0 -0.14830976199E+02 -0.31085137186E+02  0.60364172811E+03  0.60463795111E+03  0.41800000000E+01 0. -1.
         -5    1    3    3    0  502  0.34589623050E+02  0.28371668305E+02  0.91344571214E+02  0.10179733138E+03  0.41800000000E+01 0. -1.
        -11    1    4    4    0    0 -0.38314558884E+02 -0.17549277806E+02  0.11806236655E+02  0.43764937997E+02  0.00000000000E+00 0.  1.
         11    1    4    4    0    0  0.18555912033E+02  0.20262746688E+02  0.98725908243E+02  0.10247783045E+03  0.00000000000E+00 0. -1.
</event>
<event>
 8    1  0.3528896E-009  0.9118206E+02  0.7561462E-02  0.1300014E+00
         -3   -1    0    0    0  501 -0.00000000000E+00  0.00000000000E+00  0.11156789563E+03  0.11156789563E+03  0.00000000000E+00 0.  1.
          3   -1    0    0  501    0  0.00000000000E+00 -0.00000000000E+00 -0.13204665851E+03  0.13204665851E+03  0.00000000000E+00 0. -1.
         25    2    1    2    0    0 -0.11222335830E+02 -0.48493855985E+02  0.82465196965E+01  0.13488198422E+03  0.12509016624E+03 0.  0.
         23    2    1    2    0    0  0.11222335830E+02  0.48493855985E+02 -0.28725282567E+02  0.10873256992E+03  0.92304035736E+02 0.  0.
          5    1    3    3  502    0  0.50344024863E+01 -0.78986621219E+02 -0.28538936519E+02  0.84238796511E+02  0.41800000000E+01 0. -1.
         -5    1    3    3    0  502 -0.16256738316E+02  0.30492765234E+02  0.36785456216E+02  0.50643187709E+02  0.41800000000E+01 0. -1.
        -11    1    4    4    0    0 -0.17516695841E+02  0.97095111001E+01 -0.51574142793E+02  0.55326317822E+02  0.00000000000E+00 0. -1.
         11    1    4    4    0    0  0.28739031671E+02  0.38784344885E+02  0.22848860225E+02  0.53406252098E+02  0.00000000000E+00 0.  1.
</event>
<event>
 8    1  0.3528896E-009  0.1744807E+03  0.7561462E-02  0.1173254E+00
          1   -1    0    0  501    0  0.00000000000E+00  0.00000000000E+00  0.35006927485E+03  0.35006927485E+03  0.00000000000E+00 0. -1.
         -1   -1    0    0    0  501 -0.00000000000E+00 -0.00000000000E+00 -0.11494204694E+03  0.11494204694E+03  0.00000000000E+00 0.  1.
         25    2    1    2    0    0 -0.11928656229E+03  0.11104763650E+03  0.71475972324E+02  0.21752454899E+03  0.12508898144E+03 0.  0.
         23    2    1    2    0    0  0.11928656229E+03 -0.11104763650E+03  0.16365125559E+03  0.24748677280E+03  0.88921919345E+02 0.  0.
          5    1    3    3  502    0 -0.30278103910E+02  0.22146600870E+02 -0.35889029068E+02  0.52083877678E+02  0.41800000000E+01 0.  1.
         -5    1    3    3    0  502 -0.89008458380E+02  0.88901035629E+02  0.10736500139E+03  0.16544067131E+03  0.41800000000E+01 0.  1.
        -11    1    4    4    0    0  0.93424178508E+01  0.15258432287E+02  0.20251506244E+02  0.27022657758E+02  0.00000000000E+00 0.  1.
         11    1    4    4    0    0  0.10994414444E+03 -0.12630606879E+03  0.14339974935E+03  0.22046411504E+03  0.00000000000E+00 0. -1.
</event>
<event>
 8    1  0.3528896E-009  0.1602814E+03  0.7561462E-02  0.1188379E+00
         -2   -1    0    0    0  501 -0.00000000000E+00  0.00000000000E+00  0.14079482716E+03  0.14079482716E+03  0.00000000000E+00 0.  1.
          2   -1    0    0  501    0  0.00000000000E+00 -0.00000000000E+00 -0.30968128114E+03  0.30968128114E+03  0.00000000000E+00 0. -1.
         25    2    1    2    0    0  0.12594328712E+03  0.17759602729E+02  0.49132672705E+02  0.18503677069E+03  0.12508985538E+03 0.  0.
         23    2    1    2    0    0 -0.12594328712E+03 -0.17759602729E+02 -0.21801912669E+03  0.26543933761E+03  0.82149785699E+02 0.  0.
          5    1    3    3  502    0 -0.56758821708E+01 -0.35447487547E+02  0.13737413909E+02  0.38664311099E+02  0.41800000000E+01 0.  1.
         -5    1    3    3    0  502  0.13161916929E+03  0.53207090277E+02  0.35395258796E+02  0.14637245959E+03  0.41800000000E+01 0.  1.
        -11    1    4    4    0    0 -0.27834990459E+02 -0.32930473982E+02 -0.11289311147E+03  0.12084724833E+03  0.00000000000E+00 0. -1.
         11    1    4    4    0    0 -0.98108296661E+02  0.15170871252E+02 -0.10512601521E+03  0.14459208928E+03  0.00000000000E+00 0.  1.
</event>
<event>
 8    1  0.3528896E-009  0.5935855E+02  0.7561462E-02  0.1400543E+00
         -1   -1    0    0    0  501 -0.00000000000E+00  0.00000000000E+00  0.25881705877E+03  0.25881705877E+03  0.00000000000E+00 0.  1.
          1   -1    0    0  501    0  0.00000000000E+00 -0.00000000000E+00 -0.56831113347E+02  0.56831113347E+02  0.00000000000E+00 0. -1.
         25    2    1    2    0    0  0.12828333915E+02  0.17779946602E+02  0.47014824706E+02  0.13541970757E+03  0.12508961109E+03 0.  0.
         23    2    1    2    0    0 -0.12828333915E+02 -0.17779946602E+02  0.15497112072E+03  0.18022846455E+03  0.89361952344E+02 0.  0.
          5    1    3    3  502    0  0.22876882949E+02 -0.62291811704E+01  0.85470456685E+02  0.88796541811E+02  0.41800000000E+01 0. -1.
         -5    1    3    3    0  502 -0.10048549034E+02  0.24009127772E+02 -0.38455631979E+02  0.46623165754E+02  0.41800000000E+01 0. -1.
        -11    1    4    4    0    0 -0.13027476131E+01  0.24461112668E+02  0.12449277003E+03  0.12687983675E+03  0.00000000000E+00 0.  1.
         11    1    4    4    0    0 -0.11525586302E+02 -0.42241059270E+02  0.30478350690E+02  0.53348627805E+02  0.00000000000E+00 0. -1.
</event>
<event>
 8    1  0.3528896E-009  0.1174591E+03  0.7561462E-02  0.1247349E+00
         -1   -1    0    0    0  501 -0.00000000000E+00  0.00000000000E+00  0.11234564491E+03  0.11234564491E+03  0.00000000000E+00 0.  1.
          1   -1    0    0  501    0  0.00000000000E+00 -0.00000000000E+00 -0.16580967153E+03  0.16580967153E+03  0.00000000000E+00 0. -1.
         25    2    1    2    0    0 -0.59557175679E+02 -0.56865057733E+02 -0.33428586540E+02  0.15344616221E+03  0.12509021677E+03 0.  0.
         23    2    1    2    0    0  0.59557175679E+02  0.56865057733E+02 -0.20035440078E+02  0.12470915422E+03  0.91489137728E+02 0.  0.
          5    1    3    3  502    0  0.22906688199E+02 -0.25647809910E+02  0.29123116465E+02  0.45256544611E+02  0.41800000000E+01 0.  1.
         -5    1    3    3    0  502 -0.82463863878E+02 -0.31217247823E+02 -0.62551703005E+02  0.10818961760E+03  0.41800000000E+01 0.  1.
        -11    1    4    4    0    0  0.75369930791E+02  0.30598453119E+02 -0.37338407908E+02  0.89504460815E+02  0.00000000000E+00 0. -1.
         11    1    4    4    0    0 -0.15812755113E+02  0.26266604614E+02  0.17302967830E+02  0.35204693408E+02  0.00000000000E+00 0.  1.
</event>
<event>
 8    1  0.3528896E-009  0.1194907E+03  0.7561462E-02  0.1243940E+00
         -2   -1    0    0    0  501 -0.00000000000E+00  0.00000000000E+00  0.17545848101E+04  0.17545848101E+04  0.00000000000E+00 0.  1.
          2   -1    0    0  501    0  0.00000000000E+00 -0.00000000000E+00 -0.97624508936E+01  0.97624508936E+01  0.00000000000E+00 0. -1.
         25    2    1    2    0    0  0.79437346164E+00  0.52256670085E+02  0.13082931295E+04  0.13152982545E+04  0.12508874867E+03 0.  0.
         23    2    1    2    0    0 -0.79437346164E+00 -0.52256670085E+02  0.43652922973E+03  0.44904900650E+03  0.91410345321E+02 0.  0.
          5    1    3    3  502    0  0.10527214018E+01 -0.40566257645E+02  0.30597996491E+03  0.30868744842E+03  0.41800000000E+01 0. -1.
         -5    1    3    3    0  502 -0.25834794018E+00  0.92822927730E+02  0.10023131646E+04  0.10066108061E+04  0.41800000000E+01 0. -1.
        -11    1    4    4    0    0 -0.29958065177E+02  0.13858209140E+02  0.13224108720E+03  0.13629835205E+03  0.00000000000E+00 0.  1.
         11    1    4    4    0    0  0.29163691715E+02 -0.66114879225E+02  0.30428814253E+03  0.31275065445E+03  0.00000000000E+00 0. -1.
</event>
<event>
 8    1  0.3528896E-009  0.1629875E+03  0.7561462E-02  0.1185365E+00
         -4   -1    0    0    0  501 -0.00000000000E+00  0.00000000000E+00  0.38698792853E+03  0.38698792853E+03  0.00000000000E+00 0.  1.
          4   -1    0    0  501    0  0.00000000000E+00 -0.00000000000E+00 -0.90020438543E+02  0.90020438543E+02  0.00000000000E+00 0. -1.
         25    2    1    2    0    0  0.24184600362E+02  0.15028159091E+03  0.18669156374E+03  0.27142226759E+03  0.12508739311E+03 0.  0.
         23    2    1    2    0    0 -0.24184600362E+02 -0.15028159091E+03  0.11027592624E+03  0.20558609948E+03  0.83279126607E+02 0.  0.
          5    1    3    3  502    0  0.17317668876E+02  0.10857015609E+03  0.37400283105E+02  0.11620513769E+03  0.41800000000E+01 0. -1.
         -5    1    3    3    0  502  0.68669314866E+01  0.41711434814E+02  0.14929128064E+03  0.15521712991E+03  0.41800000000E+01 0. -1.
        -11    1    4    4    0    0 -0.43130842893E+02 -0.32053177760E+02  0.36038197238E+02  0.64702607933E+02  0.00000000000E+00 0.  1.
         11    1    4    4    0    0  0.18946242531E+02 -0.11822841315E+03  0.74237729007E+02  0.14088349154E+03  0.00000000000E+00 0. -1.
</event>
<event>
 8    1  0.3528896E-009  0.7727253E+02  0.7561462E-02  0.1336975E+00
         -1   -1    0    0    0  501 -0.00000000000E+00  0.00000000000E+00  0.63817244162E+03  0.63817244162E+03  0.00000000000E+00 0.  1.
          1   -1    0    0  501    0  0.00000000000E+00 -0.00000000000E+00 -0.22884408524E+02  0.22884408524E+02  0.00000000000E+00 0. -1.
         25    2    1    2    0    0  0.45931951873E+02  0.21442805538E+02  0.28369219368E+03  0.31416201801E+03  0.12508786787E+03 0.  0.
         23    2    1    2    0    0 -0.45931951873E+02 -0.21442805538E+02  0.33159583942E+03  0.34689483214E+03  0.88378084029E+02 0.  0.
          5    1    3    3  502    0  0.42463787307E+02  0.17775621319E+02  0.19960944420E+02  0.50349355983E+02  0.41800000000E+01 0. -1.
         -5    1    3    3    0  502  0.34681645659E+01  0.36671842193E+01  0.26373124926E+03  0.26381266202E+03  0.41800000000E+01 0. -1.
        -11    1    4    4    0    0 -0.69285514429E+02 -0.31783084687E+02  0.25534907838E+03  0.26648414364E+03  0.00000000000E+00 0.  1.
         11    1    4    4    0    0  0.23353562556E+02  0.10340279149E+02  0.76246761032E+02  0.80410688498E+02  0.00000000000E+00 0. -1.
</event>
<event>
 8    1  0.3528896E-009  0.8882053E+02  0.7561462E-02  0.1305733E+00
         -1   -1    0    0    0  501 -0.00000000000E+00  0.00000000000E+00  0.60876788607E+02  0.60876788607E+02  0.00000000000E+00 0.  1.
          1   -1    0    0  501    0  0.00000000000E+00 -0.00000000000E+00 -0.21649413332E+03  0.21649413332E+03  0.00000000000E+00 0. -1.
         25    2    1    2    0    0 -0.12449518705E+02 -0.11451372663E+02 -0.13035590969E+03  0.18145683291E+03  0.12509114503E+03 0.  0.
         23    2    1    2    0    0  0.12449518705E+02  0.11451372663E+02 -0.25261435019E+02  0.95914089015E+02  0.90968389678E+02 0.  0.
          5    1    3    3  502    0 -0.28969430581E+02 -0.42006566134E+02 -0.13663491146E+03  0.14591213430E+03  0.41800000000E+01 0. -1.
         -5    1    3    3    0  502  0.16519911876E+02  0.30555193471E+02  0.62790017619E+01  0.35544698614E+02  0.41800000000E+01 0. -1.
        -11    1    4    4    0    0  0.46971577362E+02  0.26349692878E+02 -0.76636591623E+01  0.54400064948E+02  0.00000000000E+00 0.  1.
         11    1    4    4    0    0 -0.34522058657E+02 -0.14898320215E+02 -0.17597775856E+02  0.41514024067E+02  0.00000000000E+00 0. -1.
</event>
<event>
 8    1  0.3528896E-009  0.1402229E+03  0.7561462E-02  0.1213029E+00
         -2   -1    0    0    0  501 -0.00000000000E+00  0.00000000000E+00  0.11489169660E+02  0.11489169660E+02  0.00000000000E+00 0.  1.
          2   -1    0    0  501    0  0.00000000000E+00 -0.00000000000E+00 -0.41140923987E+04  0.41140923987E+04  0.00000000000E+00 0. -1.
         25    2    1    2    0    0  0.87775301393E+02  0.72182217422E+02 -0.35539479562E+04  0.35579640866E+04  0.12509032937E+03 0.  0.
         23    2    1    2    0    0 -0.87775301393E+02 -0.72182217422E+02 -0.54865527285E+03  0.56761748172E+03  0.90841736423E+02 0.  0.
          5    1    3    3  502    0 -0.18021246610E+02  0.39668969060E+02 -0.47161935914E+03  0.47364615986E+03  0.41800000000E+01 0.  1.
         -5    1    3    3    0  502  0.10579654800E+03  0.32513248362E+02 -0.30823285970E+04  0.30843179268E+04  0.41800000000E+01 0.  1.
        -11    1    4    4    0    0 -0.22588617885E+02  0.67225442871E+01 -0.26236778677E+02  0.35267645442E+02  0.00000000000E+00 0.  1.
         11    1    4    4    0    0 -0.65186683508E+02 -0.78904761709E+02 -0.52241849417E+03  0.53234983627E+03  0.00000000000E+00 0. -1.
</event>
<event>
 8    1  0.3528896E-009  0.2344374E+03  0.7561462E-02  0.1123555E+00
         -1   -1    0    0    0  501 -0.00000000000E+00  0.00000000000E+00  0.44750097011E+02  0.44750097011E+02  0.00000000000E+00 0.  1.
          1   -1    0    0  501    0  0.00000000000E+00 -0.00000000000E+00 -0.12966981065E+04  0.12966981065E+04  0.00000000000E+00 0. -1.
         25    2    1    2    0    0  0.17309425723E+03  0.12481123739E+03 -0.58138869638E+03  0.63182283261E+03  0.12509120138E+03 0.  0.
         23    2    1    2    0    0 -0.17309425723E+03 -0.12481123739E+03 -0.67055931307E+03  0.70962537086E+03  0.91536374006E+02 0.  0.
          5    1    3    3  502    0 -0.95490819421E+01  0.40587173571E+02 -0.61971400500E+02  0.74809294238E+02  0.41800000000E+01 0.  1.
         -5    1    3    3    0  502  0.18264333917E+03  0.84224063820E+02 -0.51941729588E+03  0.55701353837E+03  0.41800000000E+01 0.  1.
        -11    1    4    4    0    0 -0.66367165342E+02 -0.93339366978E+02 -0.42259997368E+03  0.43784423693E+03  0.00000000000E+00 0. -1.
         11    1    4    4    0    0 -0.10672709188E+03 -0.31471870413E+02 -0.24795933940E+03  0.27178113393E+03  0.00000000000E+00 0.  1.
</event>
<event>
 8    1  0.3528896E-009  0.1502294E+03  0.7561462E-02  0.1200191E+00
         -1   -1    0    0    0  501 -0.00000000000E+00  0.00000000000E+00  0.85917176963E+02  0.85917176963E+02  0.00000000000E+00 0.  1.
          1   -1    0    0  501    0  0.00000000000E+00 -0.00000000000E+00 -0.33581742800E+03  0.33581742800E+03  0.00000000000E+00 0. -1.
         25    2    1    2    0    0  0.12690485556E+03  0.26738145362E+02 -0.14862673717E+03  0.23357449184E+03  0.12508942982E+03 0.  0.
         23    2    1    2    0    0 -0.12690485556E+03 -0.26738145362E+02 -0.10127351387E+03  0.18816011313E+03  0.91258603861E+02 0.  0.
          5    1    3    3  502    0  0.84835691307E+02  0.66288892440E+02 -0.49032100021E+02  0.11837622655E+03  0.41800000000E+01 0. -1.
         -5    1    3    3    0  502  0.42069164254E+02 -0.39550747079E+02 -0.99594637148E+02  0.11519826528E+03  0.41800000000E+01 0. -1.
        -11    1    4    4    0    0 -0.62071510376E+02 -0.31890274057E+02 -0.24149528550E+01  0.69826169715E+02  0.00000000000E+00 0.  1.
         11    1    4    4    0    0 -0.64833345186E+02  0.51521286950E+01 -0.98858561014E+02  0.11833394341E+03  0.00000000000E+00 0. -1.
</event>
<event>
 8    1  0.3528896E-009  0.7631806E+02  0.7561462E-02  0.1339837E+00
          4   -1    0    0  501    0  0.00000000000E+00  0.00000000000E+00  0.11987037779E+03  0.11987037779E+03  0.00000000000E+00 0. -1.
         -4   -1    0    0    0  501 -0.00000000000E+00 -0.00000000000E+00 -0.10334114766E+03  0.10334114766E+03  0.00000000000E+00 0.  1.
         25    2    1    2    0    0 -0.25982291824E+02  0.96765796491E+01  0.45487374781E+01  0.12821035376E+03  0.12509391718E+03 0.  0.
         23    2    1    2    0    0  0.25982291824E+02 -0.96765796491E+01  0.11980492651E+02  0.95001171701E+02  0.90072053037E+02 0.  0.
          5    1    3    3  502    0 -0.44413942108E+02  0.22526480325E+01 -0.51750496138E+02  0.68361238486E+02  0.41800000000E+01 0.  1.
         -5    1    3    3    0  502  0.18431650284E+02  0.74239316166E+01  0.56299233616E+02  0.59849115270E+02  0.41800000000E+01 0.  1.
        -11    1    4    4    0    0 -0.30431567825E+02 -0.34123842705E-01 -0.12310928095E+02  0.32827434187E+02  0.00000000000E+00 0. -1.
         11    1    4    4    0    0  0.56413859649E+02 -0.96424558064E+01  0.24291420746E+02  0.62173737513E+02  0.00000000000E+00 0.  1.
</event>
<event>
 8    1  0.3528896E-009  0.9931230E+02  0.7561462E-02  0.1281749E+00
          1   -1    0    0  501    0  0.00000000000E+00  0.00000000000E+00  0.45965171118E+02  0.45965171118E+02  0.00000000000E+00 0. -1.
         -1   -1    0    0    0  501 -0.00000000000E+00 -0.00000000000E+00 -0.45002780434E+03  0.45002780434E+03  0.00000000000E+00 0.  1.
         25    2    1    2    0    0 -0.63859795869E+02 -0.29987593038E+01 -0.33735482634E+03  0.36543342246E+03  0.12508493636E+03 0.  0.
         23    2    1    2    0    0  0.63859795869E+02  0.29987593038E+01 -0.66707806876E+02  0.13055955300E+03  0.92243153107E+02 0.  0.
          5    1    3    3  502    0 -0.18021294809E+02  0.56323263790E+02 -0.20347810447E+03  0.21193840735E+03  0.41800000000E+01 0. -1.
         -5    1    3    3    0  502 -0.45838501060E+02 -0.59322023094E+02 -0.13387672187E+03  0.15349501511E+03  0.41800000000E+01 0. -1.
        -11    1    4    4    0    0  0.18316873218E+02  0.37963077569E+01  0.23181806028E+02  0.29787848660E+02  0.00000000000E+00 0. -1.
         11    1    4    4    0    0  0.45542922651E+02 -0.79754845312E+00 -0.89889612904E+02  0.10077170434E+03  0.00000000000E+00 0.  1.
</event>
<event>
 8    1  0.3528896E-009  0.7549276E+02  0.7561462E-02  0.1342352E+00
          1   -1    0    0  501    0  0.00000000000E+00  0.00000000000E+00  0.70066649462E+03  0.70066649462E+03  0.00000000000E+00 0. -1.
         -1   -1    0    0    0  501 -0.00000000000E+00 -0.00000000000E+00 -0.18461754154E+02  0.18461754154E+02  0.00000000000E+00 0.  1.
         25    2    1    2    0    0 -0.52022358617E+01 -0.57788627967E+01  0.49526846155E+03  0.51088411298E+03  0.12510503337E+03 0.  0.
         23    2    1    2    0    0  0.52022358617E+01  0.57788627967E+01  0.18693627891E+03  0.20824413579E+03  0.91432976572E+02 0.  0.
          5    1    3    3  502    0  0.29785236303E+02 -0.34048047165E+02  0.42451467199E+03  0.42693864776E+03  0.41800000000E+01 0.  1.
         -5    1    3    3    0  502 -0.34987472165E+02  0.28269184368E+02  0.70753789561E+02  0.83945465217E+02  0.41800000000E+01 0.  1.
        -11    1    4    4    0    0  0.21549192640E+02 -0.20298040080E+02  0.14283017365E+02  0.32869175828E+02  0.00000000000E+00 0.  1.
         11    1    4    4    0    0 -0.16346956778E+02  0.26076902877E+02  0.17265326154E+03  0.17537495996E+03  0.00000000000E+00 0. -1.
</event>
<event>
 8    1  0.3528896E-009  0.1323728E+03  0.7561462E-02  0.1223977E+00
         -1   -1    0    0    0  501 -0.00000000000E+00  0.00000000000E+00  0.28233903966E+02  0.28233903966E+02  0.00000000000E+00 0.  1.
          1   -1    0    0  501    0  0.00000000000E+00 -0.00000000000E+00 -0.11137230114E+04  0.11137230114E+04  0.00000000000E+00 0. -1.
         25    2    1    2    0    0 -0.98264505113E+02 -0.28346375683E+02 -0.88002773641E+03  0.89473750325E+03  0.12508778072E+03 0.  0.
         23    2    1    2    0    0  0.98264505113E+02  0.28346375683E+02 -0.20546137101E+03  0.24721941211E+03  0.91889241837E+02 0.  0.
          5    1    3    3  502    0  0.24859180054E+02  0.28037419314E+01 -0.63448101569E+02  0.68329889466E+02  0.41800000000E+01 0. -1.
         -5    1    3    3    0  502 -0.12312368517E+03 -0.31150117614E+02 -0.81657963484E+03  0.82640761378E+03  0.41800000000E+01 0. -1.
        -11    1    4    4    0    0  0.33872407238E+02  0.33591670384E+02 -0.21655075867E+02  0.52389718477E+02  0.00000000000E+00 0.  1.
         11    1    4    4    0    0  0.64392097875E+02 -0.52452947015E+01 -0.18380629515E+03  0.19482969363E+03  0.00000000000E+00 0. -1.
</event>
<event>
 8    1  0.3528896E-009  0.1139702E+03  0.7561462E-02  0.1253389E+00
         -1   -1    0    0    0  501 -0.00000000000E+00  0.00000000000E+00  0.14421993889E+02  0.14421993889E+02  0.00000000000E+00 0.  1.
          1   -1    0    0  501    0  0.00000000000E+00 -0.00000000000E+00 -0.12800276135E+04  0.12800276135E+04  0.00000000000E+00 0. -1.
         25    2    1    2    0    0 -0.27482889228E+02  0.46169738034E+02 -0.99434692862E+03  0.10036235952E+04  0.12509017711E+03 0.  0.
         23    2    1    2    0    0  0.27482889228E+02 -0.46169738034E+02 -0.27125869095E+03  0.29082601218E+03  0.90064077382E+02 0.  0.
          5    1    3    3  502    0  0.43156840699E+02  0.25693151001E+02 -0.21616675474E+03  0.22196438715E+03  0.41800000000E+01 0. -1.
         -5    1    3    3    0  502 -0.70639729926E+02  0.20476587033E+02 -0.77818017388E+03  0.78165920802E+03  0.41800000000E+01 0. -1.
        -11    1    4    4    0    0 -0.18766020645E+02 -0.53819231055E+02 -0.16852507766E+03  0.17790271207E+03  0.00000000000E+00 0. -1.
         11    1    4    4    0    0  0.46248909872E+02  0.76494930214E+01 -0.10273361329E+03  0.11292330011E+03  0.00000000000E+00 0.  1.
</event>
<event>
 8    1  0.3528896E-009  0.1034556E+03  0.7561462E-02  0.1273193E+00
          2   -1    0    0  501    0  0.00000000000E+00  0.00000000000E+00  0.46205842502E+03  0.46205842502E+03  0.00000000000E+00 0. -1.
         -2   -1    0    0    0  501 -0.00000000000E+00 -0.00000000000E+00 -0.33396171647E+02  0.33396171647E+02  0.00000000000E+00 0.  1.
         25    2    1    2    0    0 -0.15805880391E+02  0.41079602871E+02  0.32035172592E+03  0.34671404363E+03  0.12509212655E+03 0.  0.
         23    2    1    2    0    0  0.15805880391E+02 -0.41079602871E+02  0.10831052745E+03  0.14874055304E+03  0.91952281827E+02 0.  0.
          5    1    3    3  502    0  0.44767190837E+02  0.54271022308E+02  0.17022285941E+03  0.18423555440E+03  0.41800000000E+01 0. -1.
         -5    1    3    3    0  502 -0.60573071228E+02 -0.13191419437E+02  0.15012886651E+03  0.16247848923E+03  0.41800000000E+01 0. -1.
        -11    1    4    4    0    0  0.67927966915E+01 -0.56248195628E+02  0.22216357290E+02  0.60856948080E+02  0.00000000000E+00 0.  1.
         11    1    4    4    0    0  0.90130836994E+01  0.15168592757E+02  0.86094170163E+02  0.87883604956E+02  0.00000000000E+00 0. -1.
</event>
<event>
 8    1  0.3528896E-009  0.9805104E+02  0.7561462E-02  0.1284449E+00
          1   -1    0    0  501    0  0.00000000000E+00  0.00000000000E+00  0.12554065769E+03  0.12554065769E+03  0.00000000000E+00 0. -1.
         -1   -1    0    0    0  501 -0.00000000000E+00 -0.00000000000E+00 -0.12464705189E+03  0.12464705189E+03  0.00000000000E+00 0.  1.
         25    2    1    2    0    0  0.45406377715E+01 -0.37826662961E+02  0.39115416841E+02  0.13648731740E+03  0.12508916082E+03 0.  0.
         23    2    1    2    0    0 -0.45406377715E+01  0.37826662961E+02 -0.38221811040E+02  0.11370039217E+03  0.10007696298E+03 0.  0.
          5    1    3    3  502    0  0.51021500159E+02  0.19676911905E+02  0.53788502488E+01  0.55106975698E+02  0.41800000000E+01 0.  1.
         -5    1    3    3    0  502 -0.46480862387E+02 -0.57503574866E+02  0.33736566592E+02  0.81380341705E+02  0.41800000000E+01 0.  1.
        -11    1    4    4    0    0  0.92698345886E+01  0.48730293909E+02 -0.64934395149E+02  0.81713199981E+02  0.00000000000E+00 0.  1.
         11    1    4    4    0    0 -0.13810472360E+02 -0.10903630948E+02  0.26712584109E+02  0.31987192194E+02  0.00000000000E+00 0. -1.
</event>
<event>
 8    1  0.3528896E-009  0.2486270E+03  0.7561462E-02  0.1114176E+00
          1   -1    0    0  501    0  0.00000000000E+00  0.00000000000E+00  0.17159508742E+04  0.17159508742E+04  0.00000000000E+00 0. -1.
         -1   -1    0    0    0  501 -0.00000000000E+00 -0.00000000000E+00 -0.43231063810E+02  0.43231063810E+02  0.00000000000E+00 0.  1.
         25    2    1    2    0    0  0.11754742619E+03  0.19029406774E+03  0.12143055216E+04  0.12410538431E+04  0.12509001568E+03 0.  0.
         23    2    1    2    0    0 -0.11754742619E+03 -0.19029406774E+03  0.45841428880E+03  0.51812809493E+03  0.91015564428E+02 0.  0.
          5    1    3    3  502    0  0.12421627155E+03  0.85899438760E+02  0.75500666133E+03  0.76997462734E+03  0.41800000000E+01 0.  1.
         -5    1    3    3    0  502 -0.66688453671E+01  0.10439462898E+03  0.45929886025E+03  0.47107921572E+03  0.41800000000E+01 0.  1.
        -11    1    4    4    0    0  0.11382286838E+02 -0.48570121125E+02  0.94988943835E+02  0.10729171716E+03  0.00000000000E+00 0.  1.
         11    1    4    4    0    0 -0.12892971302E+03 -0.14172394661E+03  0.36342534496E+03  0.41083637778E+03  0.00000000000E+00 0. -1.
</event>
<event>
 8    1  0.3528896E-009  0.2004523E+03  0.7561462E-02  0.1149358E+00
          2   -1    0    0  501    0  0.00000000000E+00  0.00000000000E+00  0.19978657678E+03  0.19978657678E+03  0.00000000000E+00 0. -1.
         -2   -1    0    0    0  501 -0.00000000000E+00 -0.00000000000E+00 -0.20890390608E+03  0.20890390608E+03  0.00000000000E+00 0.  1.
         25    2    1    2    0    0  0.16770615219E+03  0.38685775178E+02 -0.18705983020E+02  0.21358887380E+03  0.12509336723E+03 0.  0.
         23    2    1    2    0    0 -0.16770615219E+03 -0.38685775178E+02  0.95886537275E+01  0.19510160906E+03  0.91382453963E+02 0.  0.
          5    1    3    3  502    0  0.12370787796E+03  0.80466290720E+02 -0.32627924956E+02  0.15119694738E+03  0.41800000000E+01 0.  1.
         -5    1    3    3    0  502  0.43998274239E+02 -0.41780515542E+02  0.13921941935E+02  0.62391926418E+02  0.41800000000E+01 0.  1.
        -11    1    4    4    0    0 -0.13658476700E+02  0.22806648704E+02  0.12116683314E+02  0.29214914434E+02  0.00000000000E+00 0. -1.
         11    1    4    4    0    0 -0.15404767549E+03 -0.61492423882E+02 -0.25280295869E+01  0.16588669463E+03  0.00000000000E+00 0.  1.
</event>
<event>
 8    1  0.3528896E-009  0.9952283E+02  0.7561462E-02  0.1281303E+00
          2   -1    0    0  501    0  0.00000000000E+00  0.00000000000E+00  0.92998582608E+03  0.92998582608E+03  0.00000000000E+00 0. -1.
         -2   -1    0    0    0  501 -0.00000000000E+00 -0.00000000000E+00 -0.19506646538E+02  0.19506646538E+02  0.00000000000E+00 0.  1.
         25    2    1    2    0    0 -0.34500605625E+02 -0.61894388178E+02  0.63414911232E+03  0.65024106135E+03  0.12508850518E+03 0.  0.
         23    2    1    2    0    0  0.34500605625E+02  0.61894388178E+02  0.27633006722E+03  0.29925141127E+03  0.90398528864E+02 0.  0.
          5    1    3    3  502    0  0.31860297682E+02 -0.35091368423E+02  0.45190448162E+03  0.45440248196E+03  0.41800000000E+01 0. -1.
         -5    1    3    3    0  502 -0.66360903307E+02 -0.26803019755E+02  0.18224463070E+03  0.19583857938E+03  0.41800000000E+01 0. -1.
        -11    1    4    4    0    0 -0.44395439919E+01  0.27384129575E+02  0.12655325749E+02  0.30491923082E+02  0.00000000000E+00 0.  1.
         11    1    4    4    0    0  0.38940149617E+02  0.34510258603E+02  0.26367474147E+03  0.26875948819E+03  0.00000000000E+00 0. -1.
</event>
<event>
 8    1  0.3528896E-009  0.9561436E+02  0.7561462E-02  0.1289798E+00
         -1   -1    0    0    0  501 -0.00000000000E+00  0.00000000000E+00  0.89156552826E+03  0.89156552826E+03  0.00000000000E+00 0.  1.
          1   -1    0    0  501    0  0.00000000000E+00 -0.00000000000E+00 -0.15664260385E+02  0.15664260385E+02  0.00000000000E+00 0. -1.
         25    2    1    2    0    0 -0.14740006744E+02 -0.29022527479E+01  0.67528256220E+03  0.68693544324E+03  0.12509225994E+03 0.  0.
         23    2    1    2    0    0  0.14740006744E+02  0.29022527479E+01  0.20061870568E+03  0.22029434541E+03  0.89755460454E+02 0.  0.
          5    1    3    3  502    0 -0.30182691066E+02 -0.46155745859E+02  0.56068929350E+03  0.56341042231E+03  0.41800000000E+01 0. -1.
         -5    1    3    3    0  502  0.15442684322E+02  0.43253493111E+02  0.11459326870E+03  0.12352502093E+03  0.41800000000E+01 0. -1.
        -11    1    4    4    0    0 -0.37508313546E+02  0.98519739563E+00  0.10183928361E+03  0.10853148799E+03  0.00000000000E+00 0.  1.
         11    1    4    4    0    0  0.52248320291E+02  0.19170553523E+01  0.98779422063E+02  0.11176285741E+03  0.00000000000E+00 0. -1.
</event>
<event>
 8    1  0.3528896E-009  0.1260002E+03  0.7561462E-02  0.1233514E+00
         -1   -1    0    0    0  501 -0.00000000000E+00  0.00000000000E+00  0.62764449822E+03  0.62764449822E+03  0.00000000000E+00 0.  1.
          1   -1    0    0  501    0  0.00000000000E+00 -0.00000000000E+00 -0.31268460116E+02  0.31268460116E+02  0.00000000000E+00 0. -1.
         25    2    1    2    0    0 -0.23191781087E+02 -0.85093016773E+02  0.35611103634E+03  0.38761004461E+03  0.12509115184E+03 0.  0.
         23    2    1    2    0    0  0.23191781087E+02  0.85093016773E+02  0.24026500177E+03  0.27130291373E+03  0.89996220521E+02 0.  0.
          5    1    3    3  502    0  0.14150864970E+02  0.13911018401E+02  0.18688761819E+03  0.18798462077E+03  0.41800000000E+01 0. -1.
         -5    1    3    3    0  502 -0.37342646056E+02 -0.99004035174E+02  0.16922341815E+03  0.19962542384E+03  0.41800000000E+01 0. -1.
        -11    1    4    4    0    0  0.17568094679E+02  0.10432258718E+03  0.20710406991E+03  0.23255953199E+03  0.00000000000E+00 0. -1.
         11    1    4    4    0    0  0.56236864072E+01 -0.19229570403E+02  0.33160931855E+02  0.38743381734E+02  0.00000000000E+00 0.  1.
</event>
<event>
 8    1  0.3528896E-009  0.8719338E+02  0.7561462E-02  0.1309794E+00
         -1   -1    0    0    0  501 -0.00000000000E+00  0.00000000000E+00  0.15586377051E+03  0.15586377051E+03  0.00000000000E+00 0.  1.
          1   -1    0    0  501    0  0.00000000000E+00 -0.00000000000E+00 -0.11771630425E+03  0.11771630425E+03  0.00000000000E+00 0. -1.
         25    2    1    2    0    0  0.62212646543E+02 -0.56707233637E+00  0.50766002962E+02  0.14866676160E+03  0.12511548261E+03 0.  0.
         23    2    1    2    0    0 -0.62212646543E+02  0.56707233637E+00 -0.12618536696E+02  0.12491331316E+03  0.10757961413E+03 0.  0.
          5    1    3    3  502    0 -0.12399682426E+02 -0.17260772522E+02  0.66982191814E+02  0.70397250035E+02  0.41800000000E+01 0.  1.
         -5    1    3    3    0  502  0.74612328969E+02  0.16693700185E+02 -0.16216188852E+02  0.78269511567E+02  0.41800000000E+01 0.  1.
        -11    1    4    4    0    0 -0.15389670470E+02 -0.19814406186E+02  0.42764134304E+02  0.49580478340E+02  0.00000000000E+00 0.  1.
         11    1    4    4    0    0 -0.46822976073E+02  0.20381478522E+02 -0.55382671000E+02  0.75332834821E+02  0.00000000000E+00 0. -1.
</event>
<event>
 8    1  0.3528896E-009  0.1188778E+03  0.7561462E-02  0.1244960E+00
          4   -1    0    0  501    0  0.00000000000E+00  0.00000000000E+00  0.22668356146E+03  0.22668356146E+03  0.00000000000E+00 0. -1.
         -4   -1    0    0    0  501 -0.00000000000E+00 -0.00000000000E+00 -0.87474321484E+02  0.87474321484E+02  0.00000000000E+00 0.  1.
         25    2    1    2    0    0 -0.52536119854E+02  0.51792103729E+02  0.19514351378E+02  0.14649577059E+03  0.12505092960E+03 0.  0.
         23    2    1    2    0    0  0.52536119854E+02 -0.51792103729E+02  0.11969488860E+03  0.16766211236E+03  0.91330453105E+02 0.  0.
          5    1    3    3  502    0 -0.81173679539E+02  0.40410810196E+02  0.49417679410E+02  0.10335269357E+03  0.41800000000E+01 0. -1.
         -5    1    3    3    0  502  0.28637559685E+02  0.11381293533E+02 -0.29903328032E+02  0.43143077018E+02  0.41800000000E+01 0. -1.
        -11    1    4    4    0    0  0.24120970531E+02  0.24555245818E+02  0.48495450633E+02  0.59469236153E+02  0.00000000000E+00 0. -1.
         11    1    4    4    0    0  0.28415149323E+02 -0.76347349547E+02  0.71199437970E+02  0.10819287620E+03  0.00000000000E+00 0.  1.
</event>
<event>
 8    1  0.3528896E-009  0.1355707E+03  0.7561462E-02  0.1219416E+00
         -2   -1    0    0    0  501 -0.00000000000E+00  0.00000000000E+00  0.79127250739E+02  0.79127250739E+02  0.00000000000E+00 0.  1.
          2   -1    0    0  501    0  0.00000000000E+00 -0.00000000000E+00 -0.44552738172E+03  0.44552738172E+03  0.00000000000E+00 0. -1.
         25    2    1    2    0    0  0.13110040071E+02  0.10799789795E+03 -0.34288010653E+03  0.38085120371E+03  0.12508178445E+03 0.  0.
         23    2    1    2    0    0 -0.13110040071E+02 -0.10799789795E+03 -0.23520024450E+02  0.14380342875E+03  0.91053915110E+02 0.  0.
          5    1    3    3  502    0 -0.36523543811E+02  0.94795999485E+02 -0.28869647122E+03  0.30607740143E+03  0.41800000000E+01 0. -1.
         -5    1    3    3    0  502  0.49633583881E+02  0.13201898466E+02 -0.54183635308E+02  0.74773802279E+02  0.41800000000E+01 0. -1.
        -11    1    4    4    0    0  0.10835255007E+02 -0.81524527283E+02 -0.52717489381E+02  0.97687179233E+02  0.00000000000E+00 0.  1.
         11    1    4    4    0    0 -0.23945295078E+02 -0.26473370669E+02  0.29197464931E+02  0.46116249515E+02  0.00000000000E+00 0. -1.
</event>
<event>
 8    1  0.3528896E-009  0.9743309E+02  0.7561462E-02  0.1285788E+00
         -2   -1    0    0    0  501 -0.00000000000E+00  0.00000000000E+00  0.10467674358E+03  0.10467674358E+03  0.00000000000E+00 0.  1.
          2   -1    0    0  501    0  0.00000000000E+00 -0.00000000000E+00 -0.13941020144E+03  0.13941020144E+03  0.00000000000E+00 0. -1.
         25    2    1    2    0    0 -0.46268078404E+02 -0.27373272392E+02 -0.16905367477E+02  0.13720154910E+03  0.12509373487E+03 0.  0.
         23    2    1    2    0    0  0.46268078404E+02  0.27373272392E+02 -0.17828090382E+02  0.10688539592E+03  0.90645551100E+02 0.  0.
          5    1    3    3  502    0 -0.25129717689E+02  0.46294725970E+02  0.13670836310E+02  0.54580843976E+02  0.41800000000E+01 0.  1.
         -5    1    3    3    0  502 -0.21138360716E+02 -0.73667998362E+02 -0.30576203787E+02  0.82620705119E+02  0.41800000000E+01 0.  1.
        -11    1    4    4    0    0 -0.35026561717E+01  0.13003311125E+02 -0.45990410456E+02  0.47921524959E+02  0.00000000000E+00 0. -1.
         11    1    4    4    0    0  0.49770734576E+02  0.14369961267E+02  0.28162320074E+02  0.58963870964E+02  0.00000000000E+00 0.  1.
</event>
<event>
 8    1  0.3528896E-009  0.1048438E+03  0.7561462E-02  0.1270428E+00
          1   -1    0    0  501    0  0.00000000000E+00  0.00000000000E+00  0.10156932828E+04  0.10156932828E+04  0.00000000000E+00 0.  1.
         -1   -1    0    0    0  501 -0.00000000000E+00 -0.00000000000E+00 -0.25054631302E+02  0.25054631302E+02  0.00000000000E+00 0. -1.
         25    2    1    2    0    0 -0.94176169027E+02  0.12364931773E+02  0.59521839173E+03  0.61559288569E+03  0.12509046610E+03 0.  0.
         23    2    1    2    0    0  0.94176169027E+02 -0.12364931773E+02  0.39542025975E+03  0.42515502839E+03  0.12400634659E+03 0.  0.
          5    1    3    3  502    0 -0.73635117359E+02 -0.18721729245E+02  0.14443671947E+03  0.16325462317E+03  0.41800000000E+01 0.  1.
         -5    1    3    3    0  502 -0.20541051668E+02  0.31086661019E+02  0.45078167226E+03  0.45233826252E+03  0.41800000000E+01 0.  1.
        -11    1    4    4    0    0  0.62708348054E+02 -0.15143118269E+02  0.38716670346E+03  0.39250440407E+03  0.00000000000E+00 0.  1.
         11    1    4    4    0    0  0.31467820973E+02  0.27781864959E+01  0.82535562862E+01  0.32650624318E+02  0.00000000000E+00 0. -1.
</event>
<event>
 8    1  0.3528896E-009  0.1351463E+03  0.7561462E-02  0.1220013E+00
          2   -1    0    0  501    0  0.00000000000E+00  0.00000000000E+00  0.88556391408E+02  0.88556391408E+02  0.00000000000E+00 0. -1.
         -2   -1    0    0    0  501 -0.00000000000E+00 -0.00000000000E+00 -0.27900665824E+03  0.27900665824E+03  0.00000000000E+00 0.  1.
         25    2    1    2    0    0  0.43982111430E+02 -0.10173919649E+03 -0.13091619114E+03  0.21229925721E+03  0.12508651118E+03 0.  0.
         23    2    1    2    0    0 -0.43982111430E+02  0.10173919649E+03 -0.59534075685E+02  0.15526379244E+03  0.90979386921E+02 0.  0.
          5    1    3    3  502    0 -0.69873484314E+01 -0.84503867905E+02 -0.17474389223E+02  0.86674987209E+02  0.41800000000E+01 0.  1.
         -5    1    3    3    0  502  0.50969459861E+02 -0.17235328590E+02 -0.11344180192E+03  0.12562427000E+03  0.41800000000E+01 0.  1.
        -11    1    4    4    0    0 -0.62655717878E+02  0.88932024320E+02 -0.70976463125E+02  0.12989342651E+03  0.00000000000E+00 0.  1.
         11    1    4    4    0    0  0.18673606448E+02  0.12807172174E+02  0.11442387441E+02  0.25370365926E+02  0.00000000000E+00 0. -1.
</event>
<event>
 8    1  0.3528896E-009  0.1218049E+03  0.7561462E-02  0.1240149E+00
          2   -1    0    0  501    0  0.00000000000E+00  0.00000000000E+00  0.72312830462E+03  0.72312830462E+03  0.00000000000E+00 0. -1.
         -2   -1    0    0    0  501 -0.00000000000E+00 -0.00000000000E+00 -0.26558476179E+02  0.26558476179E+02  0.00000000000E+00 0.  1.
         25    2    1    2    0    0 -0.42814765334E+02 -0.58472099242E+02  0.50736764870E+03  0.52755726778E+03  0.12507057737E+03 0.  0.
         23    2    1    2    0    0  0.42814765334E+02  0.58472099242E+02  0.18920217974E+03  0.22212951302E+03  0.91060228494E+02 0.  0.
          5    1    3    3  502    0  0.99676024843E+01 -0.71832275791E+02  0.15738313015E+03  0.17333825602E+03  0.41800000000E+01 0. -1.
         -5    1    3    3    0  502 -0.52782367818E+02  0.13360176549E+02  0.34998451855E+03  0.35421901176E+03  0.41800000000E+01 0. -1.
        -11    1    4    4    0    0  0.67498121202E+02  0.19549410764E+02  0.11612641256E+03  0.13573326608E+03  0.00000000000E+00 0.  1.
         11    1    4    4    0    0 -0.24683355868E+02  0.38922688478E+02  0.73075767182E+02  0.86396246935E+02  0.00000000000E+00 0. -1.
</event>
<event>
 8    1  0.3528896E-009  0.1315328E+03  0.7561462E-02  0.1225199E+00
         -1   -1    0    0    0  501 -0.00000000000E+00  0.00000000000E+00  0.30199521558E+02  0.30199521558E+02  0.00000000000E+00 0.  1.
          1   -1    0    0  501    0  0.00000000000E+00 -0.00000000000E+00 -0.65524034068E+03  0.65524034068E+03  0.00000000000E+00 0. -1.
         25    2    1    2    0    0 -0.63669099907E+02 -0.60941443454E+02 -0.32324628883E+03  0.35763261598E+03  0.12508121744E+03 0.  0.
         23    2    1    2    0    0  0.63669099907E+02  0.60941443454E+02 -0.30179453029E+03  0.32780724626E+03  0.92790292445E+02 0.  0.
          5    1    3    3  502    0 -0.70332522875E+02  0.16724554058E+02 -0.12336205525E+03  0.14304559957E+03  0.41800000000E+01 0. -1.
         -5    1    3    3    0  502  0.66634229679E+01 -0.77665997513E+02 -0.19988423358E+03  0.21458701641E+03  0.41800000000E+01 0. -1.
        -11    1    4    4    0    0  0.79166613155E+02  0.51377858829E+02 -0.29252577029E+03  0.30737332887E+03  0.00000000000E+00 0. -1.
         11    1    4    4    0    0 -0.15497513248E+02  0.95635846259E+01 -0.92687599962E+01  0.20433917384E+02  0.00000000000E+00 0.  1.
</event>
<event>
 8    1  0.3528896E-009  0.8796144E+02  0.7561462E-02  0.1307865E+00
          3   -1    0    0  501    0  0.00000000000E+00  0.00000000000E+00  0.56617755235E+02  0.56617755235E+02  0.00000000000E+00 0. -1.
         -3   -1    0    0    0  501 -0.00000000000E+00 -0.00000000000E+00 -0.22736998364E+03  0.22736998364E+03  0.00000000000E+00 0.  1.
         25    2    1    2    0    0 -0.21832210903E+02  0.77394441977E+01 -0.11960680479E+03  0.17461420303E+03  0.12509111767E+03 0.  0.
         23    2    1    2    0    0  0.21832210903E+02 -0.77394441977E+01 -0.51145423615E+02  0.10937353584E+03  0.93862514113E+02 0.  0.
          5    1    3    3  502    0  0.42152328067E+01  0.48819424442E+02 -0.42627515854E+01  0.49363426152E+02  0.41800000000E+01 0. -1.
         -5    1    3    3    0  502 -0.26047443710E+02 -0.41079980244E+02 -0.11534405320E+03  0.12525077688E+03  0.41800000000E+01 0. -1.
        -11    1    4    4    0    0  0.44191699626E+01 -0.40543420365E+02 -0.58696728230E+02  0.71474498270E+02  0.00000000000E+00 0.  1.
         11    1    4    4    0    0  0.17413040941E+02  0.32803976168E+02  0.75513046147E+01  0.37899037568E+02  0.00000000000E+00 0. -1.
</event>
<event>
 8    1  0.3528896E-009  0.1085338E+03  0.7561462E-02  0.1263309E+00
          1   -1    0    0  501    0  0.00000000000E+00  0.00000000000E+00  0.81504102043E+03  0.81504102043E+03  0.00000000000E+00 0. -1.
         -1   -1    0    0    0  501 -0.00000000000E+00 -0.00000000000E+00 -0.35158559633E+02  0.35158559633E+02  0.00000000000E+00 0.  1.
         25    2    1    2    0    0 -0.83970743685E+02  0.59334228499E+02  0.61363787023E+03  0.63464218289E+03  0.12509047946E+03 0.  0.
         23    2    1    2    0    0  0.83970743685E+02 -0.59334228499E+02  0.16624459057E+03  0.21555739718E+03  0.90863034938E+02 0.  0.
          5    1    3    3  502    0 -0.43594622530E+02  0.19226755181E+01  0.49421889109E+02  0.66061965743E+02  0.41800000000E+01 0. -1.
         -5    1    3    3    0  502 -0.40376121154E+02  0.57411552981E+02  0.56421598112E+03  0.56858021714E+03  0.41800000000E+01 0. -1.
        -11    1    4    4    0    0  0.56431573591E+02 -0.42454829827E+02  0.32087001073E+02  0.77566169891E+02  0.00000000000E+00 0.  1.
         11    1    4    4    0    0  0.27539170093E+02 -0.16879398672E+02  0.13415758949E+03  0.13799122729E+03  0.00000000000E+00 0. -1.
</event>
<event>
 8    1  0.3528896E-009  0.2996839E+03  0.7561462E-02  0.1085399E+00
          2   -1    0    0  501    0  0.00000000000E+00  0.00000000000E+00  0.10592615604E+04  0.10592615604E+04  0.00000000000E+00 0.  1.
         -2   -1    0    0    0  501 -0.00000000000E+00 -0.00000000000E+00 -0.87885875036E+02  0.87885875036E+02  0.00000000000E+00 0. -1.
         25    2    1    2    0    0  0.89360911846E+02 -0.26849581754E+03  0.55601770060E+03  0.63630054735E+03  0.12508927440E+03 0.  0.
         23    2    1    2    0    0 -0.89360911846E+02  0.26849581754E+03  0.41535798471E+03  0.51084688804E+03  0.91470820206E+02 0.  0.
          5    1    3    3  502    0 -0.98727664026E+01 -0.14130211834E+03  0.19692625387E+03  0.24261323547E+03  0.41800000000E+01 0. -1.
         -5    1    3    3    0  502  0.99233678249E+02 -0.12719369921E+03  0.35909144673E+03  0.39368731188E+03  0.41800000000E+01 0. -1.
        -11    1    4    4    0    0  0.91847546634E+01  0.10486993055E+03  0.16915463193E+03  0.19923692317E+03  0.00000000000E+00 0. -1.
         11    1    4    4    0    0 -0.98545666510E+02  0.16362588699E+03  0.24620335279E+03  0.31160996487E+03  0.00000000000E+00 0.  1.
</event>
<event>
 8    1  0.3528896E-009  0.8268535E+02  0.7561462E-02  0.1321599E+00
          3   -1    0    0  501    0  0.00000000000E+00  0.00000000000E+00  0.16919140108E+03  0.16919140108E+03  0.00000000000E+00 0. -1.
         -3   -1    0    0    0  501 -0.00000000000E+00 -0.00000000000E+00 -0.96585746351E+02  0.96585746351E+02  0.00000000000E+00 0.  1.
         25    2    1    2    0    0 -0.38786478120E+02  0.10174634963E+01  0.98389490147E+02  0.16380746095E+03  0.12508783463E+03 0.  0.
         23    2    1    2    0    0  0.38786478120E+02 -0.10174634963E+01 -0.25783835421E+02  0.10196968648E+03  0.90706034391E+02 0.  0.
          5    1    3    3  502    0 -0.40971659655E+02  0.35604127472E+02  0.11341476066E+03  0.12580425717E+03  0.41800000000E+01 0. -1.
         -5    1    3    3    0  502  0.21851815352E+01 -0.34586663976E+02 -0.15025270508E+02  0.38003203775E+02  0.41800000000E+01 0. -1.
        -11    1    4    4    0    0  0.33443431987E+02 -0.30980201500E+02  0.17691153180E+02  0.48900029947E+02  0.00000000000E+00 0. -1.
         11    1    4    4    0    0  0.53430461330E+01  0.29962738004E+02 -0.43474988601E+02  0.53069656533E+02  0.00000000000E+00 0.  1.
</event>
<event>
 8    1  0.3528896E-009  0.1664248E+03  0.7561462E-02  0.1181628E+00
         -2   -1    0    0    0  501 -0.00000000000E+00  0.00000000000E+00  0.10058718445E+03  0.10058718445E+03  0.00000000000E+00 0.  1.
          2   -1    0    0  501    0  0.00000000000E+00 -0.00000000000E+00 -0.29674844813E+03  0.29674844813E+03  0.00000000000E+00 0. -1.
         25    2    1    2    0    0 -0.12394665238E+03 -0.37616813786E+02 -0.59919051044E+02  0.18977835330E+03  0.12509090050E+03 0.  0.
         23    2    1    2    0    0  0.12394665238E+03  0.37616813786E+02 -0.13624221263E+03  0.20755727929E+03  0.87978897282E+02 0.  0.
          5    1    3    3  502    0 -0.14609267110E+03 -0.49386104278E+02 -0.55626836664E+02  0.16399351573E+03  0.41800000000E+01 0.  1.
         -5    1    3    3    0  502  0.22146018722E+02  0.11769290492E+02 -0.42922143798E+01  0.25784837564E+02  0.41800000000E+01 0.  1.
        -11    1    4    4    0    0  0.99280343241E+02  0.63141376780E+02 -0.84696136892E+02  0.14497191321E+03  0.00000000000E+00 0.  1.
         11    1    4    4    0    0  0.24666309136E+02 -0.25524562995E+02 -0.51546075741E+02  0.62585366075E+02  0.00000000000E+00 0. -1.
</event>
<event>
 8    1  0.3528896E-009  0.1213763E+03  0.7561462E-02  0.1240844E+00
         -1   -1    0    0    0  501 -0.00000000000E+00  0.00000000000E+00  0.41031812968E+03  0.41031812968E+03  0.00000000000E+00 0.  1.
          1   -1    0    0  501    0  0.00000000000E+00 -0.00000000000E+00 -0.46377353511E+02  0.46377353511E+02  0.00000000000E+00 0. -1.
         25    2    1    2    0    0 -0.14409876721E+02 -0.64367568638E+02  0.28747888971E+03  0.32037883359E+03  0.12509059334E+03 0.  0.
         23    2    1    2    0    0  0.14409876721E+02  0.64367568638E+02  0.76461886463E+02  0.13631664961E+03  0.91569538816E+02 0.  0.
          5    1    3    3  502    0 -0.63202619911E+02 -0.29365910153E+02  0.21561021727E+03  0.22663222638E+03  0.41800000000E+01 0.  1.
         -5    1    3    3    0  502  0.48792743190E+02 -0.35001658485E+02  0.71868672439E+02  0.93746607207E+02  0.41800000000E+01 0.  1.
        -11    1    4    4    0    0 -0.34837057359E+02  0.50911399263E+02  0.44844474724E+02  0.76266755888E+02  0.00000000000E+00 0. -1.
         11    1    4    4    0    0  0.49246934080E+02  0.13456169375E+02  0.31617411739E+02  0.60049893719E+02  0.00000000000E+00 0.  1.
</event>
<event>
 8    1  0.3528896E-009  0.1145364E+03  0.7561462E-02  0.1252393E+00
         -2   -1    0    0    0  501 -0.00000000000E+00  0.00000000000E+00  0.25419825960E+02  0.25419825960E+02  0.00000000000E+00 0. -1.
          2   -1    0    0  501    0  0.00000000000E+00 -0.00000000000E+00 -0.62392442596E+03  0.62392442596E+03  0.00000000000E+00 0.  1.
         25    2    1    2    0    0  0.47107554981E+02  0.21255387680E+02 -0.42880663553E+03  0.44965944098E+03  0.12509024319E+03 0.  0.
         23    2    1    2    0    0 -0.47107554981E+02 -0.21255387680E+02 -0.16969796447E+03  0.19968481094E+03  0.91682666493E+02 0.  0.
          5    1    3    3  502    0  0.83946555428E+02  0.73392273693E+01 -0.19422454447E+03  0.21175819820E+03  0.41800000000E+01 0. -1.
         -5    1    3    3    0  502 -0.36839000448E+02  0.13916160310E+02 -0.23458209106E+03  0.23790124278E+03  0.41800000000E+01 0. -1.
        -11    1    4    4    0    0  0.26905150023E+02 -0.15051450924E+02 -0.45114550721E+02  0.54642071332E+02  0.00000000000E+00 0.  1.
         11    1    4    4    0    0 -0.74012705003E+02 -0.62039367553E+01 -0.12458341375E+03  0.14504273961E+03  0.00000000000E+00 0. -1.
</event>
<event>
 8    1  0.3528896E-009  0.2652889E+03  0.7561462E-02  0.1104007E+00
          2   -1    0    0  501    0  0.00000000000E+00  0.00000000000E+00  0.49163494664E+03  0.49163494664E+03  0.00000000000E+00 0.  1.
         -2   -1    0    0    0  501 -0.00000000000E+00 -0.00000000000E+00 -0.17433123891E+03  0.17433123891E+03  0.00000000000E+00 0. -1.
         25    2    1    2    0    0  0.24882566570E+03 -0.29427286522E+02  0.28131341939E+03  0.39694447555E+03  0.12508996615E+03 0.  0.
         23    2    1    2    0    0 -0.24882566570E+03  0.29427286522E+02  0.35990288343E+02  0.26902171001E+03  0.91088981193E+02 0.  0.
          5    1    3    3  502    0  0.40859128782E+02 -0.56835592955E+02  0.65494763064E+02  0.95952016239E+02  0.41800000000E+01 0.  1.
         -5    1    3    3    0  502  0.20796653692E+03  0.27408306433E+02  0.21581865633E+03  0.30099245931E+03  0.41800000000E+01 0.  1.
        -11    1    4    4    0    0 -0.14319340219E+02  0.13795096956E+00 -0.21470807302E+02  0.25808101460E+02  0.00000000000E+00 0. -1.
         11    1    4    4    0    0 -0.23450632549E+03  0.29289335552E+02  0.57461095645E+02  0.24321360855E+03  0.00000000000E+00 0.  1.
</event>
<event>
 8    1  0.3528896E-009  0.1290103E+03  0.7561462E-02  0.1228932E+00
         -1   -1    0    0    0  501 -0.00000000000E+00  0.00000000000E+00  0.54264590380E+03  0.54264590380E+03  0.00000000000E+00 0.  1.
          1   -1    0    0  501    0  0.00000000000E+00 -0.00000000000E+00 -0.49276257018E+02  0.49276257018E+02  0.00000000000E+00 0. -1.
         25    2    1    2    0    0 -0.11451393218E+03 -0.33885141659E+02  0.22138901634E+03  0.28092275197E+03  0.12507138973E+03 0.  0.
         23    2    1    2    0    0  0.11451393218E+03  0.33885141659E+02  0.27198063044E+03  0.31099940885E+03  0.92116912018E+02 0.  0.
          5    1    3    3  502    0 -0.13834148165E+02  0.11486686657E+02  0.14596343273E+03  0.14712621697E+03  0.41800000000E+01 0.  1.
         -5    1    3    3    0  502 -0.10067978402E+03 -0.45371828316E+02  0.75425583615E+02  0.13379653500E+03  0.41800000000E+01 0.  1.
        -11    1    4    4    0    0  0.94083830821E+02  0.46593924458E+02  0.13051374890E+03  0.16750104379E+03  0.00000000000E+00 0. -1.
         11    1    4    4    0    0  0.20430101362E+02 -0.12708782800E+02  0.14146688154E+03  0.14349836506E+03  0.00000000000E+00 0.  1.
</event>
<event>
 8    1  0.3528896E-009  0.1448243E+03  0.7561462E-02  0.1206981E+00
         -1   -1    0    0    0  501 -0.00000000000E+00  0.00000000000E+00  0.26168571168E+02  0.26168571168E+02  0.00000000000E+00 0.  1.
          1   -1    0    0  501    0  0.00000000000E+00 -0.00000000000E+00 -0.89242847977E+03  0.89242847977E+03  0.00000000000E+00 0. -1.
         25    2    1    2    0    0 -0.93046872888E+02 -0.44349614095E+02 -0.56583458992E+03  0.58859233994E+03  0.12509017011E+03 0.  0.
         23    2    1    2    0    0  0.93046872888E+02  0.44349614095E+02 -0.30042531868E+03  0.33000471100E+03  0.89571917206E+02 0.  0.
          5    1    3    3  502    0 -0.11462721855E+03 -0.59078842930E+02 -0.51902705275E+03  0.53482358101E+03  0.41800000000E+01 0.  1.
         -5    1    3    3    0  502  0.21580345663E+02  0.14729228835E+02 -0.46807537166E+02  0.53768758927E+02  0.41800000000E+01 0.  1.
        -11    1    4    4    0    0  0.60515519731E+02 -0.18597045056E+02 -0.17275796309E+03  0.18399264122E+03  0.00000000000E+00 0. -1.
         11    1    4    4    0    0  0.32531353157E+02  0.62946659151E+02 -0.12766735559E+03  0.14601206978E+03  0.00000000000E+00 0.  1.
</event>
<event>
 8    1  0.3528896E-009  0.1342009E+03  0.7561462E-02  0.1221352E+00
          1   -1    0    0  501    0  0.00000000000E+00  0.00000000000E+00  0.14515231427E+03  0.14515231427E+03  0.00000000000E+00 0. -1.
         -1   -1    0    0    0  501 -0.00000000000E+00 -0.00000000000E+00 -0.18141170883E+03  0.18141170883E+03  0.00000000000E+00 0.  1.
         25    2    1    2    0    0  0.88546523516E+02 -0.93363536423E+01 -0.10077206155E+03  0.18366399345E+03  0.12509915976E+03 0.  0.
         23    2    1    2    0    0 -0.88546523516E+02  0.93363536423E+01  0.64512667003E+02  0.14290002965E+03  0.91273654167E+02 0.  0.
          5    1    3    3  502    0 -0.11657811716E+02 -0.41778755426E+02 -0.10354243663E+02  0.44788968963E+02  0.41800000000E+01 0. -1.
         -5    1    3    3    0  502  0.10020433523E+03  0.32442401784E+02 -0.90417817891E+02  0.13887502448E+03  0.41800000000E+01 0. -1.
        -11    1    4    4    0    0 -0.10277567826E+03  0.15450808872E+02  0.35168359024E+02  0.10971955620E+03  0.00000000000E+00 0.  1.
         11    1    4    4    0    0  0.14229154747E+02 -0.61144552297E+01  0.29344307978E+02  0.33180473449E+02  0.00000000000E+00 0. -1.
</event>
<event>
 8    1  0.3528896E-009  0.6837142E+02  0.7561462E-02  0.1365720E+00
         -3   -1    0    0    0  501 -0.00000000000E+00  0.00000000000E+00  0.11105090239E+04  0.11105090239E+04  0.00000000000E+00 0.  1.
          3   -1    0    0  501    0  0.00000000000E+00 -0.00000000000E+00 -0.11568585450E+02  0.11568585450E+02  0.00000000000E+00 0. -1.
         25    2    1    2    0    0  0.75609928759E+01 -0.64661632633E+01  0.78145151257E+03  0.79146236092E+03  0.12508885794E+03 0.  0.
         23    2    1    2    0    0 -0.75609928759E+01  0.64661632633E+01  0.31748892586E+03  0.33061524840E+03  0.91696480602E+02 0.  0.
          5    1    3    3  502    0  0.16712326158E+02 -0.27583274464E+02  0.50054563001E+02  0.59691461307E+02  0.41800000000E+01 0. -1.
         -5    1    3    3    0  502 -0.91513332825E+01  0.21117111200E+02  0.73139694957E+03  0.73177089962E+03  0.41800000000E+01 0. -1.
        -11    1    4    4    0    0  0.23375778831E+02  0.32749539674E+02  0.23782569307E+03  0.24120534751E+03  0.00000000000E+00 0.  1.
         11    1    4    4    0    0 -0.30936771707E+02 -0.26283376411E+02  0.79663232788E+02  0.89409900892E+02  0.00000000000E+00 0. -1.
</event>
<event>
 8    1  0.3528896E-009  0.1101127E+03  0.7561462E-02  0.1260361E+00
         -2   -1    0    0    0  501 -0.00000000000E+00  0.00000000000E+00  0.49082791292E+02  0.49082791292E+02  0.00000000000E+00 0.  1.
          2   -1    0    0  501    0  0.00000000000E+00 -0.00000000000E+00 -0.31601971359E+03  0.31601971359E+03  0.00000000000E+00 0. -1.
         25    2    1    2    0    0 -0.16066763092E+01  0.71739635227E+01 -0.22664928850E+03  0.25898092303E+03  0.12508865399E+03 0.  0.
         23    2    1    2    0    0  0.16066763092E+01 -0.71739635227E+01 -0.40287633800E+02  0.10612158185E+03  0.97901223362E+02 0.  0.
          5    1    3    3  502    0  0.27372560906E+02  0.57880150318E+02 -0.14445637357E+03  0.15806481315E+03  0.41800000000E+01 0. -1.
         -5    1    3    3    0  502 -0.28979237216E+02 -0.50706186796E+02 -0.82192914928E+02  0.10091610988E+03  0.41800000000E+01 0. -1.
        -11    1    4    4    0    0  0.47182578640E+02  0.10994566047E+02 -0.13846283869E+02  0.50386464320E+02  0.00000000000E+00 0.  1.
         11    1    4    4    0    0 -0.45575902330E+02 -0.18168529570E+02 -0.26441349931E+02  0.55735117531E+02  0.00000000000E+00 0. -1.
</event>
<event>
 8    1  0.3528896E-009  0.1455299E+03  0.7561462E-02  0.1206076E+00
         -1   -1    0    0    0  501 -0.00000000000E+00  0.00000000000E+00  0.27906205682E+03  0.27906205682E+03  0.00000000000E+00 0.  1.
          1   -1    0    0  501    0  0.00000000000E+00 -0.00000000000E+00 -0.10093043227E+03  0.10093043227E+03  0.00000000000E+00 0. -1.
         25    2    1    2    0    0  0.11526409071E+03 -0.29743741069E+02  0.42246594447E+02  0.17777132650E+03  0.12508944417E+03 0.  0.
         23    2    1    2    0    0 -0.11526409071E+03  0.29743741069E+02  0.13588503010E+03  0.20222116259E+03  0.90874399338E+02 0.  0.
          5    1    3    3  502    0  0.42765546039E+02 -0.51491659047E+02  0.70096574490E+02  0.97011777814E+02  0.41800000000E+01 0. -1.
         -5    1    3    3    0  502  0.72498544671E+02  0.21747917978E+02 -0.27849980042E+02  0.80759548687E+02  0.41800000000E+01 0. -1.
        -11    1    4    4    0    0  0.79959336792E+01 -0.15049805705E+02  0.26187301119E+02  0.31244301033E+02  0.00000000000E+00 0. -1.
         11    1    4    4    0    0 -0.12326002439E+03  0.44793546774E+02  0.10969772898E+03  0.17097686156E+03  0.00000000000E+00 0.  1.
</event>
<event>
 8    1  0.3528896E-009  0.8445146E+02  0.7561462E-02  0.1316873E+00
          2   -1    0    0  501    0  0.00000000000E+00  0.00000000000E+00  0.57990136698E+03  0.57990136698E+03  0.00000000000E+00 0.  1.
         -2   -1    0    0    0  501 -0.00000000000E+00 -0.00000000000E+00 -0.27479201236E+02  0.27479201236E+02  0.00000000000E+00 0. -1.
         25    2    1    2    0    0  0.17110985331E+02  0.63259953844E+02  0.34990601900E+03  0.37732721078E+03  0.12508794619E+03 0.  0.
         23    2    1    2    0    0 -0.17110985331E+02 -0.63259953844E+02  0.20251614674E+03  0.23005335744E+03  0.87276285424E+02 0.  0.
          5    1    3    3  502    0  0.25031307251E+02  0.38421147338E+02  0.34780500513E+03  0.35083977098E+03  0.41800000000E+01 0. -1.
         -5    1    3    3    0  502 -0.79203219203E+01  0.24838806506E+02  0.21010138718E+01  0.26487439802E+02  0.41800000000E+01 0. -1.
        -11    1    4    4    0    0  0.74443609073E+01  0.13742962702E+02  0.90974684690E+02  0.92307533753E+02  0.00000000000E+00 0.  1.
         11    1    4    4    0    0 -0.24555346238E+02 -0.77002916547E+02  0.11154146205E+03  0.13774582368E+03  0.00000000000E+00 0. -1.
</event>
<event>
 8    1  0.3528896E-009  0.8492005E+02  0.7561462E-02  0.1315642E+00
         -1   -1    0    0    0  501 -0.00000000000E+00  0.00000000000E+00  0.21312822991E+03  0.21312822991E+03  0.00000000000E+00 0.  1.
          1   -1    0    0  501    0  0.00000000000E+00 -0.00000000000E+00 -0.61731713031E+02  0.61731713031E+02  0.00000000000E+00 0. -1.
         25    2    1    2    0    0  0.35135387750E+02 -0.71268256061E+00  0.50418348675E+02  0.13937471182E+03  0.12509315338E+03 0.  0.
         23    2    1    2    0    0 -0.35135387750E+02  0.71268256061E+00  0.10097816820E+03  0.13548523112E+03  0.83214506007E+02 0.  0.
          5    1    3    3  502    0  0.82159782715E+02  0.43964016003E+01  0.34129468680E+02  0.89173153332E+02  0.41800000000E+01 0. -1.
         -5    1    3    3    0  502 -0.47024394965E+02 -0.51090841609E+01  0.16288879995E+02  0.50201558485E+02  0.41800000000E+01 0. -1.
        -11    1    4    4    0    0 -0.24747115057E+02  0.93567343099E+01  0.11381286552E+03  0.11684749265E+03  0.00000000000E+00 0.  1.
         11    1    4    4    0    0 -0.10388272693E+02 -0.86440517493E+01 -0.12834697317E+02  0.18637738473E+02  0.00000000000E+00 0. -1.
</event>
<event>
 8    1  0.3528896E-009  0.1300443E+03  0.7561462E-02  0.1227390E+00
         -1   -1    0    0    0  501 -0.00000000000E+00  0.00000000000E+00  0.42738333761E+03  0.42738333761E+03  0.00000000000E+00 0.  1.
          1   -1    0    0  501    0  0.00000000000E+00 -0.00000000000E+00 -0.64779865202E+02  0.64779865202E+02  0.00000000000E+00 0. -1.
         25    2    1    2    0    0  0.74732901966E+01 -0.11405703192E+03  0.27454096300E+03  0.32262186165E+03  0.12508904288E+03 0.  0.
         23    2    1    2    0    0 -0.74732901966E+01  0.11405703192E+03  0.88062509404E+02  0.16954134117E+03  0.89019122687E+02 0.  0.
          5    1    3    3  502    0  0.25828189007E+02 -0.39022405962E+02  0.11400374537E+02  0.48345469840E+02  0.41800000000E+01 0.  1.
         -5    1    3    3    0  502 -0.18354898811E+02 -0.75034625963E+02  0.26314058847E+03  0.27427639181E+03  0.41800000000E+01 0.  1.
        -11    1    4    4    0    0 -0.40279365847E+02  0.70808812854E+02  0.80862912705E+02  0.11478295144E+03  0.00000000000E+00 0.  1.
         11    1    4    4    0    0  0.32806075651E+02  0.43248219070E+02  0.71995966987E+01  0.54758389722E+02  0.00000000000E+00 0. -1.
</event>
<event>
 8    1  0.3528896E-009  0.8769847E+02  0.7561462E-02  0.1308523E+00
          2   -1    0    0  501    0  0.00000000000E+00  0.00000000000E+00  0.57865954938E+03  0.57865954938E+03  0.00000000000E+00 0. -1.
         -2   -1    0    0    0  501 -0.00000000000E+00 -0.00000000000E+00 -0.24168641073E+02  0.24168641073E+02  0.00000000000E+00 0.  1.
         25    2    1    2    0    0  0.30133782959E+02  0.12757335069E+02  0.39399074139E+03  0.41466503158E+03  0.12509032593E+03 0.  0.
         23    2    1    2    0    0 -0.30133782959E+02 -0.12757335069E+02  0.16050016692E+03  0.18816315888E+03  0.92597388210E+02 0.  0.
          5    1    3    3  502    0  0.53436748912E+02 -0.51750536052E+01  0.37622109776E+03  0.38005533033E+03  0.41800000000E+01 0. -1.
         -5    1    3    3    0  502 -0.23302965953E+02  0.17932388674E+02  0.17769643628E+02  0.34609701247E+02  0.41800000000E+01 0. -1.
        -11    1    4    4    0    0 -0.19110756501E+02  0.36592368863E+02  0.39995284671E+02  0.57479085492E+02  0.00000000000E+00 0.  1.
         11    1    4    4    0    0 -0.11023026458E+02 -0.49349703932E+02  0.12050488225E+03  0.13068407338E+03  0.00000000000E+00 0. -1.
</event>
<event>
 8    1  0.3528896E-009  0.2103326E+03  0.7561462E-02  0.1141303E+00
         -2   -1    0    0    0  501 -0.00000000000E+00  0.00000000000E+00  0.21371435178E+03  0.21371435178E+03  0.00000000000E+00 0.  1.
          2   -1    0    0  501    0  0.00000000000E+00 -0.00000000000E+00 -0.25719297910E+03  0.25719297910E+03  0.00000000000E+00 0. -1.
         25    2    1    2    0    0  0.87873187487E+02 -0.18134860049E+03  0.18803792034E+02  0.23792393557E+03  0.12508079205E+03 0.  0.
         23    2    1    2    0    0 -0.87873187487E+02  0.18134860049E+03 -0.62282419347E+02  0.23298339531E+03  0.98960349393E+02 0.  0.
          5    1    3    3  502    0  0.37727584812E+02 -0.13387430410E+03 -0.42492593175E+02  0.14549499245E+03  0.41800000000E+01 0.  1.
         -5    1    3    3    0  502  0.50145602675E+02 -0.47474296397E+02  0.61296385210E+02  0.92428943117E+02  0.41800000000E+01 0.  1.
        -11    1    4    4    0    0 -0.45401715756E+02  0.15688079542E+03 -0.13573309196E+02  0.16388146475E+03  0.00000000000E+00 0.  1.
         11    1    4    4    0    0 -0.42471471731E+02  0.24467805072E+02 -0.48709110151E+02  0.69101930565E+02  0.00000000000E+00 0. -1.
</event>
<event>
 8    1  0.3528896E-009  0.1135794E+03  0.7561462E-02  0.1254081E+00
         -1   -1    0    0    0  501 -0.00000000000E+00  0.00000000000E+00  0.31987750509E+03  0.31987750509E+03  0.00000000000E+00 0.  1.
          1   -1    0    0  501    0  0.00000000000E+00 -0.00000000000E+00 -0.64509683897E+02  0.64509683897E+02  0.00000000000E+00 0. -1.
         25    2    1    2    0    0  0.35267936631E+02  0.20479656583E+02  0.24748692566E+03  0.28027951787E+03  0.12507432221E+03 0.  0.
         23    2    1    2    0    0 -0.35267936631E+02 -0.20479656583E+02  0.78808955332E+01  0.10410767112E+03  0.95462322321E+02 0.  0.
          5    1    3    3  502    0  0.69804985911E+02  0.44980657461E+02  0.12089660990E+03  0.14672920054E+03  0.41800000000E+01 0. -1.
         -5    1    3    3    0  502 -0.34537049279E+02 -0.24501000878E+02  0.12659031576E+03  0.13355031734E+03  0.41800000000E+01 0. -1.
        -11    1    4    4    0    0 -0.48774605758E+02  0.24439346046E+02  0.15203463960E+02  0.56633816033E+02  0.00000000000E+00 0.  1.
         11    1    4    4    0    0  0.13506669127E+02 -0.44919002629E+02 -0.73225684269E+01  0.47473855083E+02  0.00000000000E+00 0. -1.
</event>
<event>
 8    1  0.3528896E-009  0.9075047E+02  0.7561462E-02  0.1301044E+00
          2   -1    0    0  501    0  0.00000000000E+00  0.00000000000E+00  0.15427600158E+03  0.15427600158E+03  0.00000000000E+00 0. -1.
         -2   -1    0    0    0  501 -0.00000000000E+00 -0.00000000000E+00 -0.10058449437E+03  0.10058449437E+03  0.00000000000E+00 0.  1.
         25    2    1    2    0    0  0.25933764339E+02 -0.48153601466E+02  0.33642899436E+01  0.13656357562E+03  0.12508781825E+03 0.  0.
         23    2    1    2    0    0 -0.25933764339E+02  0.48153601466E+02  0.50327217275E+02  0.11829692033E+03  0.92032619723E+02 0.  0.
          5    1    3    3  502    0  0.41046062533E+02 -0.34498462077E+02 -0.53595944723E+02  0.75927075710E+02  0.41800000000E+01 0.  1.
         -5    1    3    3    0  502 -0.15112298194E+02 -0.13655139389E+02  0.56960234667E+02  0.60636499914E+02  0.41800000000E+01 0.  1.
        -11    1    4    4    0    0 -0.44645099374E+02 -0.10073974674E+02  0.18667464733E+02  0.49428171152E+02  0.00000000000E+00 0.  1.
         11    1    4    4    0    0  0.18711335035E+02  0.58227576139E+02  0.31659752542E+02  0.68868749175E+02  0.00000000000E+00 0. -1.
</event>
<event>
 8    1  0.3528896E-009  0.1369737E+03  0.7561462E-02  0.1217460E+00
          1   -1    0    0  501    0  0.00000000000E+00  0.00000000000E+00  0.33170043337E+03  0.33170043337E+03  0.00000000000E+00 0. -1.
         -1   -1    0    0    0  501 -0.00000000000E+00 -0.00000000000E+00 -0.76298595584E+02  0.76298595584E+02  0.00000000000E+00 0.  1.
         25    2    1    2    0    0 -0.26145806878E+02  0.11091697271E+03  0.16366812118E+03  0.23542937882E+03  0.12511418972E+03 0.  0.
         23    2    1    2    0    0  0.26145806878E+02 -0.11091697271E+03  0.91733716607E+02  0.17256965013E+03  0.91537048962E+02 0.  0.
          5    1    3    3  502    0 -0.10494153793E+02  0.13117610944E+03  0.95954661584E+02  0.16291736688E+03  0.41800000000E+01 0.  1.
         -5    1    3    3    0  502 -0.15651653085E+02 -0.20259136732E+02  0.67713459594E+02  0.72512011940E+02  0.41800000000E+01 0.  1.
        -11    1    4    4    0    0 -0.18657368718E+01 -0.40771634847E+02 -0.13541046210E+02  0.43001943150E+02  0.00000000000E+00 0.  1.
         11    1    4    4    0    0  0.28011543750E+02 -0.70145337860E+02  0.10527476282E+03  0.12956770698E+03  0.00000000000E+00 0. -1.
</event>
<event>
 8    1  0.3528896E-009  0.1471332E+03  0.7561462E-02  0.1204041E+00
         -2   -1    0    0    0  501 -0.00000000000E+00  0.00000000000E+00  0.28329899811E+03  0.28329899811E+03  0.00000000000E+00 0.  1.
          2   -1    0    0  501    0  0.00000000000E+00 -0.00000000000E+00 -0.95381951697E+02  0.95381951697E+02  0.00000000000E+00 0. -1.
         25    2    1    2    0    0  0.99218380255E+02  0.61598362708E+02  0.56554462553E+02  0.18023331810E+03  0.12508795486E+03 0.  0.
         23    2    1    2    0    0 -0.99218380255E+02 -0.61598362708E+02  0.13136258386E+03  0.19844763170E+03  0.92123226291E+02 0.  0.
          5    1    3    3  502    0  0.83296881311E+02  0.88607836275E+02  0.75646820170E+01  0.12191971087E+03  0.41800000000E+01 0. -1.
         -5    1    3    3    0  502  0.15921498944E+02 -0.27009473567E+02  0.48989780537E+02  0.58313607229E+02  0.41800000000E+01 0. -1.
        -11    1    4    4    0    0 -0.34265182577E+02  0.17602614690E+02  0.67564851758E+02  0.77775085818E+02  0.00000000000E+00 0.  1.
         11    1    4    4    0    0 -0.64953197678E+02 -0.79200977398E+02  0.63797732098E+02  0.12067254588E+03  0.00000000000E+00 0. -1.
</event>
<event>
 8    1  0.3528896E-009  0.1278960E+03  0.7561462E-02  0.1230611E+00
         -2   -1    0    0    0  501 -0.00000000000E+00  0.00000000000E+00  0.47248030634E+02  0.47248030634E+02  0.00000000000E+00 0. -1.
          2   -1    0    0  501    0  0.00000000000E+00 -0.00000000000E+00 -0.45227723770E+03  0.45227723770E+03  0.00000000000E+00 0.  1.
         25    2    1    2    0    0  0.76501718212E+02 -0.59960063033E+02 -0.22485168048E+03  0.27505152150E+03  0.12508932495E+03 0.  0.
         23    2    1    2    0    0 -0.76501718212E+02  0.59960063033E+02 -0.18017752658E+03  0.22447374683E+03  0.92069538301E+02 0.  0.
          5    1    3    3  502    0 -0.10785972927E+02  0.11637799562E+02 -0.11936197963E+03  0.12048456404E+03  0.41800000000E+01 0.  1.
         -5    1    3    3    0  502  0.87287691139E+02 -0.71597862596E+02 -0.10548970085E+03  0.15456695746E+03  0.41800000000E+01 0.  1.
        -11    1    4    4    0    0 -0.42279256546E+02 -0.14309746261E+02 -0.30972125670E+02  0.54328417432E+02  0.00000000000E+00 0.  1.
         11    1    4    4    0    0 -0.34222461665E+02  0.74269809294E+02 -0.14920540091E+03  0.17014532940E+03  0.00000000000E+00 0. -1.
</event>
<event>
 8    1  0.3528896E-009  0.1013052E+03  0.7561462E-02  0.1277575E+00
         -1   -1    0    0    0  501 -0.00000000000E+00  0.00000000000E+00  0.61844092167E+03  0.61844092167E+03  0.00000000000E+00 0.  1.
          1   -1    0    0  501    0  0.00000000000E+00 -0.00000000000E+00 -0.34429598417E+02  0.34429598417E+02  0.00000000000E+00 0. -1.
         25    2    1    2    0    0  0.95389946214E+02 -0.13323933002E+02  0.29099500724E+03  0.33106199222E+03  0.12508868624E+03 0.  0.
         23    2    1    2    0    0 -0.95389946214E+02  0.13323933002E+02  0.29301631601E+03  0.32180852786E+03  0.91789967472E+02 0.  0.
          5    1    3    3  502    0  0.27360126602E+02 -0.12020302889E+02  0.24936759963E+03  0.25118665640E+03  0.41800000000E+01 0.  1.
         -5    1    3    3    0  502  0.68029819613E+02 -0.13036301128E+01  0.41627407613E+02  0.79875335822E+02  0.41800000000E+01 0.  1.
        -11    1    4    4    0    0 -0.50824125009E+02  0.27126763983E+02  0.56348403807E+02  0.80585951746E+02  0.00000000000E+00 0. -1.
         11    1    4    4    0    0 -0.44565821205E+02 -0.13802830981E+02  0.23666791220E+03  0.24122257612E+03  0.00000000000E+00 0.  1.
</event>
<event>
 8    1  0.3528896E-009  0.1299491E+03  0.7561462E-02  0.1227531E+00
         -2   -1    0    0    0  501 -0.00000000000E+00  0.00000000000E+00  0.60986276814E+02  0.60986276814E+02  0.00000000000E+00 0.  1.
          2   -1    0    0  501    0  0.00000000000E+00 -0.00000000000E+00 -0.28920723004E+03  0.28920723004E+03  0.00000000000E+00 0. -1.
         25    2    1    2    0    0 -0.61466353142E+02 -0.28225081042E+02 -0.91104438579E+02  0.16888554025E+03  0.12509012434E+03 0.  0.
         23    2    1    2    0    0  0.61466353142E+02  0.28225081042E+02 -0.13711651465E+03  0.18130796661E+03  0.97451897868E+02 0.  0.
          5    1    3    3  502    0 -0.10515618089E+02 -0.73153818414E+02 -0.43964418103E+02  0.86095306675E+02  0.41800000000E+01 0.  1.
         -5    1    3    3    0  502 -0.50950735053E+02  0.44928737372E+02 -0.47140020476E+02  0.82790233571E+02  0.41800000000E+01 0.  1.
        -11    1    4    4    0    0  0.57297408843E+02 -0.26360729971E+02 -0.62795779557E+02  0.89001073448E+02  0.00000000000E+00 0.  1.
         11    1    4    4    0    0  0.41689442997E+01  0.54585811013E+02 -0.74320735090E+02  0.92306893160E+02  0.00000000000E+00 0. -1.
</event>
<event>
 8    1  0.3528896E-009  0.1000004E+03  0.7561462E-02  0.1280295E+00
         -1   -1    0    0    0  501 -0.00000000000E+00  0.00000000000E+00  0.35715214725E+02  0.35715214725E+02  0.00000000000E+00 0.  1.
          1   -1    0    0  501    0  0.00000000000E+00 -0.00000000000E+00 -0.42294729771E+03  0.42294729771E+03  0.00000000000E+00 0. -1.
         25    2    1    2    0    0 -0.11802849045E+02 -0.56640774285E+02 -0.22078486240E+03  0.26027093544E+03  0.12509004681E+03 0.  0.
         23    2    1    2    0    0  0.11802849045E+02  0.56640774285E+02 -0.16644722058E+03  0.19839157700E+03  0.91143052538E+02 0.  0.
          5    1    3    3  502    0  0.24107691487E+02 -0.87134768482E+02 -0.14281694722E+03  0.16907927573E+03  0.41800000000E+01 0.  1.
         -5    1    3    3    0  502 -0.35910540532E+02  0.30493994197E+02 -0.77967915183E+02  0.91191659714E+02  0.41800000000E+01 0.  1.
        -11    1    4    4    0    0 -0.45591032866E+01  0.33784490335E+02 -0.16683235882E+03  0.17027980844E+03  0.00000000000E+00 0. -1.
         11    1    4    4    0    0  0.16361952331E+02  0.22856283950E+02  0.38513824168E+00  0.28111768560E+02  0.00000000000E+00 0.  1.
</event>
<event>
 8    1  0.3528896E-009  0.1138735E+03  0.7561462E-02  0.1253560E+00
         -2   -1    0    0    0  501 -0.00000000000E+00  0.00000000000E+00  0.31764065357E+02  0.31764065357E+02  0.00000000000E+00 0.  1.
          2   -1    0    0  501    0  0.00000000000E+00 -0.00000000000E+00 -0.62306004609E+03  0.62306004609E+03  0.00000000000E+00 0. -1.
         25    2    1    2    0    0  0.12194001453E+02  0.66020401946E+02 -0.45995671382E+03  0.48136897082E+03  0.12509404599E+03 0.  0.
         23    2    1    2    0    0 -0.12194001453E+02 -0.66020401946E+02 -0.13133926692E+03  0.17345514063E+03  0.91264974828E+02 0.  0.
          5    1    3    3  502    0  0.15332878246E+02  0.10140963510E+03 -0.38278489320E+03  0.39630891752E+03  0.41800000000E+01 0.  1.
         -5    1    3    3    0  502 -0.31388767933E+01 -0.35389233150E+02 -0.77171820614E+02  0.85060053300E+02  0.41800000000E+01 0.  1.
        -11    1    4    4    0    0  0.24037342137E+01 -0.73074228404E+02 -0.45537925321E+02  0.86135494644E+02  0.00000000000E+00 0.  1.
         11    1    4    4    0    0 -0.14597735667E+02  0.70538264588E+01 -0.85801341600E+02  0.87319645983E+02  0.00000000000E+00 0. -1.
</event>
<event>
 8    1  0.3528896E-009  0.1994873E+03  0.7561462E-02  0.1150172E+00
          3   -1    0    0  501    0  0.00000000000E+00  0.00000000000E+00  0.11689167228E+03  0.11689167228E+03  0.00000000000E+00 0. -1.
         -3   -1    0    0    0  501 -0.00000000000E+00 -0.00000000000E+00 -0.41134423927E+03  0.41134423927E+03  0.00000000000E+00 0.  1.
         25    2    1    2    0    0 -0.17334640041E+02  0.18842253532E+03 -0.15160134677E+03  0.27282368210E+03  0.12508497756E+03 0.  0.
         23    2    1    2    0    0  0.17334640041E+02 -0.18842253532E+03 -0.14285122023E+03  0.25541222945E+03  0.95002075057E+02 0.  0.
          5    1    3    3  502    0 -0.24190770575E+02  0.17058240616E+03 -0.65241496735E+02  0.18427554360E+03  0.41800000000E+01 0. -1.
         -5    1    3    3    0  502  0.68561305335E+01  0.17840129162E+02 -0.86359850032E+02  0.88548138501E+02  0.41800000000E+01 0. -1.
        -11    1    4    4    0    0  0.51453343817E+02 -0.10459020451E+03 -0.53584057932E+02  0.12828799139E+03  0.00000000000E+00 0. -1.
         11    1    4    4    0    0 -0.34118703776E+02 -0.83832330814E+02 -0.89267162299E+02  0.12712423806E+03  0.00000000000E+00 0.  1.
</event>
<event>
 8    1  0.3528896E-009  0.1774018E+03  0.7561462E-02  0.1170342E+00
         -2   -1    0    0    0  501 -0.00000000000E+00  0.00000000000E+00  0.23058032239E+03  0.23058032239E+03  0.00000000000E+00 0.  1.
          2   -1    0    0  501    0  0.00000000000E+00 -0.00000000000E+00 -0.17565990425E+03  0.17565990425E+03  0.00000000000E+00 0. -1.
         25    2    1    2    0    0 -0.11769688746E+03  0.10150783604E+03 -0.39106052827E+02  0.20330732964E+03  0.12509272090E+03 0.  0.
         23    2    1    2    0    0  0.11769688746E+03 -0.10150783604E+03  0.94026470960E+02  0.20293289701E+03  0.90467592826E+02 0.  0.
          5    1    3    3  502    0 -0.14290785514E+03  0.86966162174E+02 -0.45072140133E+02  0.17330533356E+03  0.41800000000E+01 0.  1.
         -5    1    3    3    0  502  0.25210967687E+02  0.14541673867E+02  0.59660873062E+01  0.30001996073E+02  0.41800000000E+01 0.  1.
        -11    1    4    4    0    0  0.69943234444E+02 -0.78217098669E+02  0.10526196423E+03  0.14862722389E+03  0.00000000000E+00 0.  1.
         11    1    4    4    0    0  0.47753653012E+02 -0.23290737372E+02 -0.11235493269E+02  0.54305673114E+02  0.00000000000E+00 0. -1.
</event>
<event>
 8    1  0.3528896E-009  0.1421709E+03  0.7561462E-02  0.1210437E+00
         -2   -1    0    0    0  501 -0.00000000000E+00  0.00000000000E+00  0.65871690839E+03  0.65871690839E+03  0.00000000000E+00 0.  1.
          2   -1    0    0  501    0  0.00000000000E+00 -0.00000000000E+00 -0.45558835658E+02  0.45558835658E+02  0.00000000000E+00 0. -1.
         25    2    1    2    0    0  0.10841423676E+03 -0.72583163083E+02  0.25718270356E+03  0.31434446488E+03  0.12509011670E+03 0.  0.
         23    2    1    2    0    0 -0.10841423676E+03  0.72583163083E+02  0.35597536917E+03  0.38993127917E+03  0.91137131394E+02 0.  0.
          5    1    3    3  502    0  0.78229389443E+02 -0.57954664906E+02  0.60331420839E+02  0.11461209926E+03  0.41800000000E+01 0.  1.
         -5    1    3    3    0  502  0.30184847321E+02 -0.14628498176E+02  0.19685128272E+03  0.19973236562E+03  0.41800000000E+01 0.  1.
        -11    1    4    4    0    0 -0.64016708381E+02  0.85540328673E+02  0.19391739892E+03  0.22140290058E+03  0.00000000000E+00 0.  1.
         11    1    4    4    0    0 -0.44397528383E+02 -0.12957165590E+02  0.16205797025E+03  0.16852837859E+03  0.00000000000E+00 0. -1.
</event>
<event>
 8    1  0.3528896E-009  0.1058031E+03  0.7561462E-02  0.1268545E+00
          1   -1    0    0  501    0  0.00000000000E+00  0.00000000000E+00  0.11096303757E+03  0.11096303757E+03  0.00000000000E+00 0. -1.
         -1   -1    0    0    0  501 -0.00000000000E+00 -0.00000000000E+00 -0.14409545874E+03  0.14409545874E+03  0.00000000000E+00 0.  1.
         25    2    1    2    0    0  0.43716654589E+02  0.15379087368E+02  0.29371790208E+02  0.13659774516E+03  0.12509428327E+03 0.  0.
         23    2    1    2    0    0 -0.43716654589E+02 -0.15379087368E+02 -0.62504211376E+02  0.11846075116E+03  0.89322510645E+02 0.  0.
          5    1    3    3  502    0  0.56960311684E+02 -0.35869250396E+02  0.45204065376E+02  0.81190887158E+02  0.41800000000E+01 0.  1.
         -5    1    3    3    0  502 -0.13243657094E+02  0.51248337764E+02 -0.15832275168E+02  0.55406858003E+02  0.41800000000E+01 0.  1.
        -11    1    4    4    0    0  0.72708257848E+01  0.24994187915E+02 -0.43519469798E+02  0.50710142858E+02  0.00000000000E+00 0.  1.
         11    1    4    4    0    0 -0.50987480374E+02 -0.40373275283E+02 -0.18984741578E+02  0.67750608298E+02  0.00000000000E+00 0. -1.
</event>
<event>
 7    1  0.3528896E-009  0.1048088E+03  0.7561462E-02  0.1270497E+00
          1   -1    0    0  501    0  0.00000000000E+00  0.00000000000E+00  0.13058146153E+04  0.13058146153E+04  0.00000000000E+00 0. -1.
         -1   -1    0    0    0  501 -0.00000000000E+00 -0.00000000000E+00 -0.17416109786E+02  0.17416109786E+02  0.00000000000E+00 0.  1.
         23    2    1    2    0    0 -0.81278909960E+02 -0.47937890847E+02  0.40907701079E+03  0.42987363351E+03  0.92428553170E+02 0.  0.
          5    1    1    2  502    0  0.45268669349E+02  0.11272396977E+02  0.78039986309E+03  0.78180415583E+03  0.41800000000E+01 0.  1.
         -5    1    1    2    0  502  0.36010240611E+02  0.36665493870E+02  0.98921631601E+02  0.11155293572E+03  0.41800000000E+01 0.  1.
        -11    1    3    3    0    0 -0.27073613540E+02  0.12683254947E+02  0.30684827662E+02  0.42841617089E+02  0.00000000000E+00 0.  1.
         11    1    3    3    0    0 -0.54205296421E+02 -0.60621145794E+02  0.37839218313E+03  0.38703201642E+03  0.00000000000E+00 0. -1.
</event>
<event>
 8    1  0.3528896E-009  0.1134212E+03  0.7561462E-02  0.1254362E+00
          2   -1    0    0  501    0  0.00000000000E+00  0.00000000000E+00  0.10105572622E+04  0.10105572622E+04  0.00000000000E+00 0. -1.
         -2   -1    0    0    0  501 -0.00000000000E+00 -0.00000000000E+00 -0.13693648368E+02  0.13693648368E+02  0.00000000000E+00 0.  1.
         25    2    1    2    0    0 -0.71128548720E+00 -0.44577386369E+02  0.60583713784E+03  0.62021957517E+03  0.12508410982E+03 0.  0.
         23    2    1    2    0    0  0.71128548720E+00  0.44577386369E+02  0.39102647594E+03  0.40403133535E+03  0.91389089917E+02 0.  0.
          5    1    3    3  502    0 -0.17865696710E+02  0.38396957531E+02  0.29341544795E+03  0.29648542454E+03  0.41800000000E+01 0. -1.
         -5    1    3    3    0  502  0.17154411222E+02 -0.82974343901E+02  0.31242168989E+03  0.32373415063E+03  0.41800000000E+01 0. -1.
        -11    1    4    4    0    0  0.38719290974E+02 -0.26767749615E+01  0.11336950050E+03  0.11982901260E+03  0.00000000000E+00 0.  1.
         11    1    4    4    0    0 -0.38008005487E+02  0.47254161331E+02  0.27765697544E+03  0.28420232275E+03  0.00000000000E+00 0. -1.
</event>
<event>
 8    1  0.3528896E-009  0.3306648E+03  0.7561462E-02  0.1070843E+00
         -2   -1    0    0    0  501 -0.00000000000E+00  0.00000000000E+00  0.19948347060E+04  0.19948347060E+04  0.00000000000E+00 0.  1.
          2   -1    0    0  501    0  0.00000000000E+00 -0.00000000000E+00 -0.90824384696E+02  0.90824384696E+02  0.00000000000E+00 0. -1.
         25    2    1    2    0    0  0.26950380559E+03  0.18639273137E+03  0.15705631725E+04  0.16092513295E+04  0.12508641441E+03 0.  0.
         23    2    1    2    0    0 -0.26950380559E+03 -0.18639273137E+03  0.33344714880E+03  0.47640776121E+03  0.91666800786E+02 0.  0.
          5    1    3    3  502    0  0.90202783899E+02  0.98882954182E+02  0.89052497793E+03  0.90053683410E+03  0.41800000000E+01 0.  1.
         -5    1    3    3    0  502  0.17930102169E+03  0.87509777188E+02  0.68003819455E+03  0.70871449536E+03  0.41800000000E+01 0.  1.
        -11    1    4    4    0    0 -0.10275599538E+03 -0.77497342017E+02  0.19580322807E+03  0.23431503735E+03  0.00000000000E+00 0. -1.
         11    1    4    4    0    0 -0.16674781021E+03 -0.10889538935E+03  0.13764392073E+03  0.24209272386E+03  0.00000000000E+00 0.  1.
</event>
<event>
 8    1  0.3528896E-009  0.1032458E+03  0.7561462E-02  0.1273615E+00
          3   -1    0    0  501    0  0.00000000000E+00  0.00000000000E+00  0.18789214937E+03  0.18789214937E+03  0.00000000000E+00 0. -1.
         -3   -1    0    0    0  501 -0.00000000000E+00 -0.00000000000E+00 -0.61383283385E+02  0.61383283385E+02  0.00000000000E+00 0.  1.
         25    2    1    2    0    0  0.18961717423E+02  0.16573468804E+02  0.72090900645E+02  0.14655894664E+03  0.12509276673E+03 0.  0.
         23    2    1    2    0    0 -0.18961717423E+02 -0.16573468804E+02  0.54417965339E+02  0.10271648612E+03  0.83397451837E+02 0.  0.
          5    1    3    3  502    0  0.45443957347E+02  0.56660506202E+02  0.19746776628E+02  0.75385501323E+02  0.41800000000E+01 0. -1.
         -5    1    3    3    0  502 -0.26482239924E+02 -0.40087037398E+02  0.52344124018E+02  0.71173445315E+02  0.41800000000E+01 0. -1.
        -11    1    4    4    0    0  0.84760705487E+01 -0.45124914584E+02  0.38931462157E+02  0.60197677977E+02  0.00000000000E+00 0. -1.
         11    1    4    4    0    0 -0.27437787972E+02  0.28551445780E+02  0.15486503182E+02  0.42518808140E+02  0.00000000000E+00 0.  1.
</event>
<event>
 8    1  0.3528896E-009  0.9394904E+02  0.7561462E-02  0.1293561E+00
          3   -1    0    0  501    0  0.00000000000E+00  0.00000000000E+00  0.28323838447E+02  0.28323838447E+02  0.00000000000E+00 0. -1.
         -3   -1    0    0    0  501 -0.00000000000E+00 -0.00000000000E+00 -0.63796710714E+03  0.63796710714E+03  0.00000000000E+00 0.  1.
         25    2    1    2    0    0 -0.58517898280E+02 -0.88475239196E+01 -0.20135515488E+03  0.24430771420E+03  0.12505893700E+03 0.  0.
         23    2    1    2    0    0  0.58517898280E+02  0.88475239196E+01 -0.40828811382E+03  0.42198323139E+03  0.88701976251E+02 0.  0.
          5    1    3    3  502    0  0.65225896859E+00 -0.20476951395E+02  0.10923343831E+02  0.23590735907E+02  0.41800000000E+01 0. -1.
         -5    1    3    3    0  502 -0.59170157249E+02  0.11629427475E+02 -0.21227849871E+03  0.22071697829E+03  0.41800000000E+01 0. -1.
        -11    1    4    4    0    0 -0.33438359261E+01  0.38005806544E+02 -0.15468816255E+03  0.15932372769E+03  0.00000000000E+00 0. -1.
         11    1    4    4    0    0  0.61861734206E+02 -0.29158282624E+02 -0.25359995126E+03  0.26265950370E+03  0.00000000000E+00 0.  1.
</event>
<event>
 8    1  0.3528896E-009  0.2306071E+03  0.7561462E-02  0.1126213E+00
         -3   -1    0    0    0  501 -0.00000000000E+00  0.00000000000E+00  0.62273033900E+03  0.62273033900E+03  0.00000000000E+00 0.  1.
          3   -1    0    0  501    0  0.00000000000E+00 -0.00000000000E+00 -0.91614827421E+02  0.91614827421E+02  0.00000000000E+00 0. -1.
         25    2    1    2    0    0  0.18454500905E+03  0.10331869812E+03  0.30289146763E+03  0.39002970286E+03  0.12509322203E+03 0.  0.
         23    2    1    2    0    0 -0.18454500905E+03 -0.10331869812E+03  0.22822404394E+03  0.32431546356E+03  0.91447755145E+02 0.  0.
          5    1    3    3  502    0  0.18148681480E+03  0.12676258456E+03  0.27870956007E+03  0.35595323859E+03  0.41800000000E+01 0.  1.
         -5    1    3    3    0  502  0.30581942543E+01 -0.23443886439E+02  0.24181907563E+02  0.34076464265E+02  0.41800000000E+01 0.  1.
        -11    1    4    4    0    0 -0.73709491481E+02 -0.65718996066E+02  0.48950236242E+02  0.11021887863E+03  0.00000000000E+00 0. -1.
         11    1    4    4    0    0 -0.11083551757E+03 -0.37599702058E+02  0.17927380770E+03  0.21409658493E+03  0.00000000000E+00 0.  1.
</event>
<event>
 8    1  0.3528896E-009  0.1257924E+03  0.7561462E-02  0.1233836E+00
         -2   -1    0    0    0  501 -0.00000000000E+00  0.00000000000E+00  0.43125989930E+02  0.43125989930E+02  0.00000000000E+00 0.  1.
          2   -1    0    0  501    0  0.00000000000E+00 -0.00000000000E+00 -0.49026210338E+03  0.49026210338E+03  0.00000000000E+00 0. -1.
         25    2    1    2    0    0 -0.41181224202E+02 -0.84393588514E+02 -0.20107728486E+03  0.25474943970E+03  0.12508809509E+03 0.  0.
         23    2    1    2    0    0  0.41181224202E+02  0.84393588514E+02 -0.24605882859E+03  0.27863865361E+03  0.90974618158E+02 0.  0.
          5    1    3    3  502    0  0.17862568478E+02 -0.93985194824E+02 -0.13508781700E+03  0.16558526172E+03  0.41800000000E+01 0. -1.
         -5    1    3    3    0  502 -0.59043792680E+02  0.95916063103E+01 -0.65989467862E+02  0.89164177977E+02  0.41800000000E+01 0. -1.
        -11    1    4    4    0    0  0.90759198476E+01  0.40356445965E+02 -0.19707714673E+02  0.45819308917E+02  0.00000000000E+00 0.  1.
         11    1    4    4    0    0  0.32105304355E+02  0.44037142549E+02 -0.22635111392E+03  0.23281934469E+03  0.00000000000E+00 0. -1.
</event>
<event>
 8    1  0.3528896E-009  0.1009766E+03  0.7561462E-02  0.1278256E+00
         -2   -1    0    0    0  501 -0.00000000000E+00  0.00000000000E+00  0.43734960552E+02  0.43734960552E+02  0.00000000000E+00 0. -1.
          2   -1    0    0  501    0  0.00000000000E+00 -0.00000000000E+00 -0.43062274947E+03  0.43062274947E+03  0.00000000000E+00 0.  1.
         25    2    1    2    0    0  0.39353678245E+02 -0.29220932135E+02 -0.95528069973E+02  0.16485257487E+03  0.12509270331E+03 0.  0.
         23    2    1    2    0    0 -0.39353678245E+02  0.29220932135E+02 -0.29135971895E+03  0.30950513515E+03  0.92197440295E+02 0.  0.
          5    1    3    3  502    0  0.62592612870E+02  0.14008018762E+02 -0.84793656767E+01  0.64833878626E+02  0.41800000000E+01 0. -1.
         -5    1    3    3    0  502 -0.23238934625E+02 -0.43228950896E+02 -0.87048704296E+02  0.10001869624E+03  0.41800000000E+01 0. -1.
        -11    1    4    4    0    0 -0.48470969079E+02 -0.88494370391E+01 -0.75712003007E+02  0.90333021530E+02  0.00000000000E+00 0. -1.
         11    1    4    4    0    0  0.91172908343E+01  0.38070369174E+02 -0.21564771594E+03  0.21917211363E+03  0.00000000000E+00 0.  1.
</event>
<event>
 8    1  0.3528896E-009  0.1321304E+03  0.7561462E-02  0.1224328E+00
         -1   -1    0    0    0  501 -0.00000000000E+00  0.00000000000E+00  0.28740199133E+02  0.28740199133E+02  0.00000000000E+00 0.  1.
          1   -1    0    0  501    0  0.00000000000E+00 -0.00000000000E+00 -0.71717653899E+03  0.71717653899E+03  0.00000000000E+00 0. -1.
         25    2    1    2    0    0 -0.87932206561E+02  0.28556604905E+02 -0.43438635070E+03  0.46139692870E+03  0.12509225200E+03 0.  0.
         23    2    1    2    0    0  0.87932206561E+02 -0.28556604905E+02 -0.25404998916E+03  0.28451980942E+03  0.88671147086E+02 0.  0.
          5    1    3    3  502    0 -0.84998825494E+02  0.63399531742E+02 -0.39290226124E+03  0.40698152322E+03  0.41800000000E+01 0. -1.
         -5    1    3    3    0  502 -0.29333810667E+01 -0.34842926837E+02 -0.41484089458E+02  0.54415405477E+02  0.41800000000E+01 0. -1.
        -11    1    4    4    0    0  0.20729243446E+02 -0.48566613088E+02 -0.15022056563E+03  0.15923139068E+03  0.00000000000E+00 0. -1.
         11    1    4    4    0    0  0.67202963115E+02  0.20010008183E+02 -0.10382942353E+03  0.12528841874E+03  0.00000000000E+00 0.  1.
</event>
<event>
 8    1  0.3528896E-009  0.1026216E+03  0.7561462E-02  0.1274878E+00
          1   -1    0    0  501    0  0.00000000000E+00  0.00000000000E+00  0.77998269539E+02  0.77998269539E+02  0.00000000000E+00 0. -1.
         -1   -1    0    0    0  501 -0.00000000000E+00 -0.00000000000E+00 -0.30411779086E+03  0.30411779086E+03  0.00000000000E+00 0.  1.
         25    2    1    2    0    0  0.49404969271E+02 -0.85977705172E+02 -0.64250243959E+02  0.17207099592E+03  0.12508923621E+03 0.  0.
         23    2    1    2    0    0 -0.49404969271E+02  0.85977705172E+02 -0.16186927736E+03  0.21004506447E+03  0.89912453981E+02 0.  0.
          5    1    3    3  502    0  0.47204392564E+02 -0.48022883597E+02 -0.99393706861E+02  0.12012923620E+03  0.41800000000E+01 0.  1.
         -5    1    3    3    0  502  0.22005767071E+01 -0.37954821574E+02  0.35143462902E+02  0.51941759725E+02  0.41800000000E+01 0.  1.
        -11    1    4    4    0    0 -0.36818114653E+02  0.70873115347E+02 -0.45278421846E+02  0.91807992737E+02  0.00000000000E+00 0. -1.
         11    1    4    4    0    0 -0.12586854618E+02  0.15104589825E+02 -0.11659085552E+03  0.11823707174E+03  0.00000000000E+00 0.  1.
</event>
<event>
 8    1  0.3528896E-009  0.1742510E+03  0.7561462E-02  0.1173486E+00
          1   -1    0    0  501    0  0.00000000000E+00  0.00000000000E+00  0.25671672569E+03  0.25671672569E+03  0.00000000000E+00 0. -1.
         -1   -1    0    0    0  501 -0.00000000000E+00 -0.00000000000E+00 -0.13320221487E+03  0.13320221487E+03  0.00000000000E+00 0.  1.
         25    2    1    2    0    0  0.12694987728E+03  0.78561264663E+02  0.86070901578E+02  0.21294202560E+03  0.12509181637E+03 0.  0.
         23    2    1    2    0    0 -0.12694987728E+03 -0.78561264663E+02  0.37443609246E+02  0.17697691496E+03  0.87353654228E+02 0.  0.
          5    1    3    3  502    0  0.12481346727E+03  0.97406766680E+02  0.40604480145E+02  0.16350130279E+03  0.41800000000E+01 0.  1.
         -5    1    3    3    0  502  0.21364100112E+01 -0.18845502017E+02  0.45466421433E+02  0.49440722810E+02  0.41800000000E+01 0.  1.
        -11    1    4    4    0    0 -0.23543326319E+02 -0.61557785207E+02  0.64787157002E+00  0.65909550683E+02  0.00000000000E+00 0.  1.
         11    1    4    4    0    0 -0.10340655096E+03 -0.17003479456E+02  0.36795737676E+02  0.11106736427E+03  0.00000000000E+00 0. -1.
</event>
<event>
 8    1  0.3528896E-009  0.1382245E+03  0.7561462E-02  0.1215738E+00
         -2   -1    0    0    0  501 -0.00000000000E+00  0.00000000000E+00  0.25768671445E+02  0.25768671445E+02  0.00000000000E+00 0.  1.
          2   -1    0    0  501    0  0.00000000000E+00 -0.00000000000E+00 -0.97035918226E+03  0.97035918226E+03  0.00000000000E+00 0. -1.
         25    2    1    2    0    0  0.65802153444E+01 -0.11192064949E+03 -0.58342269652E+03  0.60712354372E+03  0.12508966187E+03 0.  0.
         23    2    1    2    0    0 -0.65802153444E+01  0.11192064949E+03 -0.36116781429E+03  0.38900430999E+03  0.91173637023E+02 0.  0.
          5    1    3    3  502    0  0.61670317755E+02 -0.57392574743E+02 -0.38334789059E+03  0.39251778730E+03  0.41800000000E+01 0.  1.
         -5    1    3    3    0  502 -0.55090102411E+02 -0.54528074752E+02 -0.20007480593E+03  0.21460575641E+03  0.41800000000E+01 0.  1.
        -11    1    4    4    0    0  0.86316022404E+01  0.33576712440E+02 -0.23136362541E+02  0.41679628683E+02  0.00000000000E+00 0.  1.
         11    1    4    4    0    0 -0.15211817585E+02  0.78343937054E+02 -0.33803145175E+03  0.34732468130E+03  0.00000000000E+00 0. -1.
</event>
<event>
 8    1  0.3528896E-009  0.1015788E+03  0.7561462E-02  0.1277010E+00
          1   -1    0    0  501    0  0.00000000000E+00  0.00000000000E+00  0.33934195338E+02  0.33934195338E+02  0.00000000000E+00 0. -1.
         -1   -1    0    0    0  501 -0.00000000000E+00 -0.00000000000E+00 -0.39656847787E+03  0.39656847787E+03  0.00000000000E+00 0.  1.
         25    2    1    2    0    0  0.31653647238E+02  0.30064938297E+02 -0.21835029519E+03  0.25540066779E+03  0.12508715281E+03 0.  0.
         23    2    1    2    0    0 -0.31653647238E+02 -0.30064938297E+02 -0.14428398735E+03  0.17510200543E+03  0.89089782808E+02 0.  0.
          5    1    3    3  502    0 -0.34528131622E+02  0.10204439497E+02 -0.12691261581E+02  0.38403944840E+02  0.41800000000E+01 0.  1.
         -5    1    3    3    0  502  0.66181778860E+02  0.19860498799E+02 -0.20565903361E+03  0.21699672295E+03  0.41800000000E+01 0.  1.
        -11    1    4    4    0    0  0.29348183666E+02 -0.20833954899E+02 -0.38974871257E+02  0.53051014606E+02  0.00000000000E+00 0.  1.
         11    1    4    4    0    0 -0.61001830904E+02 -0.92309833974E+01 -0.10530911609E+03  0.12205099082E+03  0.00000000000E+00 0. -1.
</event>
<event>
 8    1  0.3528896E-009  0.1272251E+03  0.7561462E-02  0.1231632E+00
         -2   -1    0    0    0  501 -0.00000000000E+00  0.00000000000E+00  0.14240245825E+02  0.14240245825E+02  0.00000000000E+00 0.  1.
          2   -1    0    0  501    0  0.00000000000E+00 -0.00000000000E+00 -0.14873695894E+04  0.14873695894E+04  0.00000000000E+00 0. -1.
         25    2    1    2    0    0  0.60558040047E+02  0.54388696956E+02 -0.10625868176E+04  0.10730159849E+04  0.12508857771E+03 0.  0.
         23    2    1    2    0    0 -0.60558040047E+02 -0.54388696956E+02 -0.41054252590E+03  0.42859385028E+03  0.92315309440E+02 0.  0.
          5    1    3    3  502    0 -0.29540728699E+02  0.33860748959E+02 -0.57248760785E+03  0.57426364895E+03  0.41800000000E+01 0.  1.
         -5    1    3    3    0  502  0.90098768746E+02  0.20527947997E+02 -0.49009920979E+03  0.49875233595E+03  0.41800000000E+01 0.  1.
        -11    1    4    4    0    0 -0.69876456575E+02 -0.89654052089E+01 -0.17723779531E+03  0.19072580780E+03  0.00000000000E+00 0.  1.
         11    1    4    4    0    0  0.93184165279E+01 -0.45423291747E+02 -0.23330473059E+03  0.23786804248E+03  0.00000000000E+00 0. -1.
</event>
<event>
 8    1  0.3528896E-009  0.9862931E+02  0.7561462E-02  0.1283205E+00
         -1   -1    0    0    0  501 -0.00000000000E+00  0.00000000000E+00  0.35741380887E+02  0.35741380887E+02  0.00000000000E+00 0.  1.
          1   -1    0    0  501    0  0.00000000000E+00 -0.00000000000E+00 -0.36757389043E+03  0.36757389043E+03  0.00000000000E+00 0. -1.
         25    2    1    2    0    0 -0.35866745934E+02 -0.29375595670E+00 -0.18861776433E+03  0.22916214997E+03  0.12510843377E+03 0.  0.
         23    2    1    2    0    0  0.35866745934E+02  0.29375595670E+00 -0.14321474521E+03  0.17415312135E+03  0.92370648334E+02 0.  0.
          5    1    3    3  502    0  0.35993340588E+02 -0.29322054106E+02 -0.39682551430E+02  0.61216670211E+02  0.41800000000E+01 0.  1.
         -5    1    3    3    0  502 -0.71860086522E+02  0.29028298149E+02 -0.14893521290E+03  0.16794547976E+03  0.41800000000E+01 0.  1.
        -11    1    4    4    0    0 -0.35720200340E+01 -0.25602433814E+02 -0.11771961445E+03  0.12052448536E+03  0.00000000000E+00 0. -1.
         11    1    4    4    0    0  0.39438765968E+02  0.25896189771E+02 -0.25495130755E+02  0.53628635988E+02  0.00000000000E+00 0.  1.
</event>
<event>
 8    1  0.3528896E-009  0.1707472E+03  0.7561462E-02  0.1177071E+00
          1   -1    0    0  501    0  0.00000000000E+00  0.00000000000E+00  0.39469512240E+03  0.39469512240E+03  0.00000000000E+00 0. -1.
         -1   -1    0    0    0  501 -0.00000000000E+00 -0.00000000000E+00 -0.11338470613E+03  0.11338470613E+03  0.00000000000E+00 0.  1.
         25    2    1    2    0    0 -0.52283434515E+02  0.12416201064E+03  0.29094398555E+03  0.34415758086E+03  0.12508507236E+03 0.  0.
         23    2    1    2    0    0  0.52283434515E+02 -0.12416201064E+03 -0.96335692866E+01  0.16392224767E+03  0.92886679426E+02 0.  0.
          5    1    3    3  502    0  0.36768352200E+02  0.69680644889E+02  0.13733306282E+03  0.15838291113E+03  0.41800000000E+01 0.  1.
         -5    1    3    3    0  502 -0.89051786715E+02  0.54481365746E+02  0.15361092273E+03  0.18577466973E+03  0.41800000000E+01 0.  1.
        -11    1    4    4    0    0  0.26253549614E+02 -0.12899812199E+03 -0.23981382022E+02  0.13380908425E+03  0.00000000000E+00 0.  1.
         11    1    4    4    0    0  0.26029884901E+02  0.48361113536E+01  0.14347812736E+02  0.30113163422E+02  0.00000000000E+00 0. -1.
</event>
<event>
 8    1  0.3528896E-009  0.9170489E+02  0.7561462E-02  0.1298775E+00
          4   -1    0    0  501    0  0.00000000000E+00  0.00000000000E+00  0.83630679556E+02  0.83630679556E+02  0.00000000000E+00 0.  1.
         -4   -1    0    0    0  501 -0.00000000000E+00 -0.00000000000E+00 -0.15279217801E+03  0.15279217801E+03  0.00000000000E+00 0. -1.
         25    2    1    2    0    0 -0.28547310105E+01 -0.32900222266E+02 -0.44551599554E+02  0.13683282107E+03  0.12509117388E+03 0.  0.
         23    2    1    2    0    0  0.28547310105E+01  0.32900222266E+02 -0.24609898895E+02  0.99590036495E+02  0.90674991762E+02 0.  0.
          5    1    3    3  502    0 -0.37303061531E+02  0.21345074661E+01  0.29552511986E+02  0.47821521164E+02  0.41800000000E+01 0. -1.
         -5    1    3    3    0  502  0.34448330521E+02 -0.35034729732E+02 -0.74104111540E+02  0.89011299902E+02  0.41800000000E+01 0. -1.
        -11    1    4    4    0    0 -0.30031493219E+02  0.50834666273E+02 -0.15034840539E+02  0.60927008051E+02  0.00000000000E+00 0. -1.
         11    1    4    4    0    0  0.32886224230E+02 -0.17934444007E+02 -0.95750583569E+01  0.38663028444E+02  0.00000000000E+00 0.  1.
</event>
<event>
 8    1  0.3528896E-009  0.1981578E+03  0.7561462E-02  0.1151303E+00
         -1   -1    0    0    0  501 -0.00000000000E+00  0.00000000000E+00  0.30625007204E+02  0.30625007204E+02  0.00000000000E+00 0.  1.
          1   -1    0    0  501    0  0.00000000000E+00 -0.00000000000E+00 -0.15616641329E+04  0.15616641329E+04  0.00000000000E+00 0. -1.
         25    2    1    2    0    0  0.32653738540E+01 -0.17997615961E+03 -0.10126987997E+04  0.10361507179E+04  0.12508945073E+03 0.  0.
         23    2    1    2    0    0 -0.32653738540E+01  0.17997615961E+03 -0.51834032598E+03  0.55613842214E+03  0.90615508374E+02 0.  0.
          5    1    3    3  502    0 -0.13899282510E+02  0.13500598704E+02 -0.45472736663E+02  0.49605427115E+02  0.41800000000E+01 0. -1.
         -5    1    3    3    0  502  0.17164656364E+02 -0.19347675831E+03 -0.96722606304E+03  0.98654529083E+03  0.41800000000E+01 0. -1.
        -11    1    4    4    0    0  0.11096855463E+02  0.12116584167E+03 -0.21705956438E+03  0.24883560010E+03  0.00000000000E+00 0.  1.
         11    1    4    4    0    0 -0.14362229317E+02  0.58810317933E+02 -0.30128076160E+03  0.30730282204E+03  0.00000000000E+00 0. -1.
</event>
<event>
 8    1  0.3528896E-009  0.1115796E+03  0.7561462E-02  0.1257672E+00
         -2   -1    0    0    0  501 -0.00000000000E+00  0.00000000000E+00  0.11924556779E+03  0.11924556779E+03  0.00000000000E+00 0.  1.
          2   -1    0    0  501    0  0.00000000000E+00 -0.00000000000E+00 -0.17732856505E+03  0.17732856505E+03  0.00000000000E+00 0. -1.
         25    2    1    2    0    0 -0.61555785492E+02  0.40325985453E+02  0.31666788644E+02  0.14855001744E+03  0.12509605249E+03 0.  0.
         23    2    1    2    0    0  0.61555785492E+02 -0.40325985453E+02 -0.89749785903E+02  0.14802411539E+03  0.91873907275E+02 0.  0.
          5    1    3    3  502    0 -0.57342273065E+02  0.61694117367E+02  0.66404027791E+02  0.10733716833E+03  0.41800000000E+01 0. -1.
         -5    1    3    3    0  502 -0.42135124264E+01 -0.21368131914E+02 -0.34737239147E+02  0.41212849113E+02  0.41800000000E+01 0. -1.
        -11    1    4    4    0    0  0.44814255224E+02 -0.69686591135E+02 -0.54393340320E+02  0.99111926258E+02  0.00000000000E+00 0.  1.
         11    1    4    4    0    0  0.16741530267E+02  0.29360605682E+02 -0.35356445582E+02  0.48912189134E+02  0.00000000000E+00 0. -1.
</event>
<event>
 8    1  0.3528896E-009  0.6567947E+02  0.7561462E-02  0.1375434E+00
          1   -1    0    0  501    0  0.00000000000E+00  0.00000000000E+00  0.22008420398E+03  0.22008420398E+03  0.00000000000E+00 0. -1.
         -1   -1    0    0    0  501 -0.00000000000E+00 -0.00000000000E+00 -0.56055403818E+02  0.56055403818E+02  0.00000000000E+00 0.  1.
         25    2    1    2    0    0 -0.10150155191E+02  0.15322932040E+02  0.11766638337E+03  0.17271557421E+03  0.12508986331E+03 0.  0.
         23    2    1    2    0    0  0.10150155191E+02 -0.15322932040E+02  0.46362416787E+02  0.10342403358E+03  0.90604851613E+02 0.  0.
          5    1    3    3  502    0 -0.32876783872E+02 -0.22538044147E+02  0.12174536438E+03  0.12817274476E+03  0.41800000000E+01 0. -1.
         -5    1    3    3    0  502  0.22726628680E+02  0.37860976188E+02 -0.40789810104E+01  0.44542829447E+02  0.41800000000E+01 0. -1.
        -11    1    4    4    0    0  0.80105631519E+01 -0.30532090854E+02 -0.18622105538E+02  0.36649154269E+02  0.00000000000E+00 0.  1.
         11    1    4    4    0    0  0.21395920396E+01  0.15209158814E+02  0.64984522325E+02  0.66774879316E+02  0.00000000000E+00 0. -1.
</event>
<event>
 8    1  0.3528896E-009  0.1069387E+03  0.7561462E-02  0.1266346E+00
         -2   -1    0    0    0  501 -0.00000000000E+00  0.00000000000E+00  0.28528848428E+03  0.28528848428E+03  0.00000000000E+00 0.  1.
          2   -1    0    0  501    0  0.00000000000E+00 -0.00000000000E+00 -0.50304209110E+02  0.50304209110E+02  0.00000000000E+00 0. -1.
         25    2    1    2    0    0  0.29818154650E+02 -0.20646978746E+02  0.17858478161E+03  0.22103192972E+03  0.12508864719E+03 0.  0.
         23    2    1    2    0    0 -0.29818154650E+02  0.20646978746E+02  0.56399493563E+02  0.11456076367E+03  0.92886197147E+02 0.  0.
          5    1    3    3  502    0 -0.17753887292E+02 -0.62288257799E+02  0.71156949900E+02  0.96311014389E+02  0.41800000000E+01 0.  1.
         -5    1    3    3    0  502  0.47572041942E+02  0.41641279053E+02  0.10742783171E+03  0.12472091533E+03  0.41800000000E+01 0.  1.
        -11    1    4    4    0    0  0.10344976118E+02  0.39795961158E+02  0.56730691942E+02  0.70065030248E+02  0.00000000000E+00 0.  1.
         11    1    4    4    0    0 -0.40163130767E+02 -0.19148982411E+02 -0.33119837934E+00  0.44495733422E+02  0.00000000000E+00 0. -1.
</event>
<event>
 8    1  0.3528896E-009  0.1154884E+03  0.7561462E-02  0.1250731E+00
         -2   -1    0    0    0  501 -0.00000000000E+00  0.00000000000E+00  0.85161666209E+02  0.85161666209E+02  0.00000000000E+00 0.  1.
          2   -1    0    0  501    0  0.00000000000E+00 -0.00000000000E+00 -0.19010222571E+03  0.19010222571E+03  0.00000000000E+00 0. -1.
         25    2    1    2    0    0 -0.49648477440E+02 -0.14769555883E+02 -0.12562822924E+02  0.13597388234E+03  0.12509181054E+03 0.  0.
         23    2    1    2    0    0  0.49648477440E+02  0.14769555883E+02 -0.92377736582E+02  0.13929000959E+03  0.90470710518E+02 0.  0.
          5    1    3    3  502    0  0.38508085000E+02 -0.47253314385E+01  0.16710836625E+02  0.42449096908E+02  0.41800000000E+01 0.  1.
         -5    1    3    3    0  502 -0.88156562441E+02 -0.10044224445E+02 -0.29273659549E+02  0.93524785428E+02  0.41800000000E+01 0.  1.
        -11    1    4    4    0    0  0.44587791399E+01  0.47261806086E+02 -0.32450951412E+02  0.57503245765E+02  0.00000000000E+00 0. -1.
         11    1    4    4    0    0  0.45189698300E+02 -0.32492250203E+02 -0.59926785169E+02  0.81786763822E+02  0.00000000000E+00 0.  1.
</event>
<event>
 8    1  0.3528896E-009  0.1956939E+03  0.7561462E-02  0.1153424E+00
         -1   -1    0    0    0  501 -0.00000000000E+00  0.00000000000E+00  0.24459414952E+02  0.24459414952E+02  0.00000000000E+00 0.  1.
          1   -1    0    0  501    0  0.00000000000E+00 -0.00000000000E+00 -0.16501644720E+04  0.16501644720E+04  0.00000000000E+00 0. -1.
         25    2    1    2    0    0 -0.16715089071E+03 -0.52089033711E+01 -0.95571113116E+03  0.97826256007E+03  0.12508923723E+03 0.  0.
         23    2    1    2    0    0  0.16715089071E+03  0.52089033711E+01 -0.66999392592E+03  0.69636132692E+03  0.89781311622E+02 0.  0.
          5    1    3    3  502    0 -0.12790328350E+03  0.49118921444E+02 -0.53797530823E+03  0.55516378037E+03  0.41800000000E+01 0. -1.
         -5    1    3    3    0  502 -0.39247607210E+02 -0.54327824815E+02 -0.41773582293E+03  0.42309877969E+03  0.41800000000E+01 0. -1.
        -11    1    4    4    0    0  0.16677143995E+03  0.23892544675E+02 -0.56008419925E+03  0.58487424043E+03  0.00000000000E+00 0.  1.
         11    1    4    4    0    0  0.37945075161E+00 -0.18683641304E+02 -0.10990972667E+03  0.11148708648E+03  0.00000000000E+00 0. -1.
</event>
<event>
 8    1  0.3528896E-009  0.7671085E+02  0.7561462E-02  0.1338653E+00
         -2   -1    0    0    0  501 -0.00000000000E+00  0.00000000000E+00  0.67306244899E+02  0.67306244899E+02  0.00000000000E+00 0.  1.
          2   -1    0    0  501    0  0.00000000000E+00 -0.00000000000E+00 -0.22835444987E+03  0.22835444987E+03  0.00000000000E+00 0. -1.
         25    2    1    2    0    0  0.37298746710E+02  0.16742018711E+02 -0.14194816932E+03  0.19356598035E+03  0.12508802612E+03 0.  0.
         23    2    1    2    0    0 -0.37298746710E+02 -0.16742018711E+02 -0.19100035649E+02  0.10209471442E+03  0.91580716605E+02 0.  0.
          5    1    3    3  502    0 -0.10061108391E+02 -0.45410759924E+01 -0.14097329595E+03  0.14146656794E+03  0.41800000000E+01 0.  1.
         -5    1    3    3    0  502  0.47359855101E+02  0.21283094704E+02 -0.97487337110E+00  0.52099412410E+02  0.41800000000E+01 0.  1.
        -11    1    4    4    0    0  0.22764722075E+02 -0.18658207852E+02  0.14962047030E+02  0.33018542408E+02  0.00000000000E+00 0.  1.
         11    1    4    4    0    0 -0.60063468785E+02  0.19161891403E+01 -0.34062082679E+02  0.69076172011E+02  0.00000000000E+00 0. -1.
</event>
<event>
 8    1  0.3528896E-009  0.1302261E+03  0.7561462E-02  0.1227121E+00
         -2   -1    0    0    0  501 -0.00000000000E+00  0.00000000000E+00  0.52738507295E+02  0.52738507295E+02  0.00000000000E+00 0.  1.
          2   -1    0    0  501    0  0.00000000000E+00 -0.00000000000E+00 -0.47152830135E+03  0.47152830135E+03  0.00000000000E+00 0. -1.
         25    2    1    2    0    0  0.66773943975E+02  0.91955478539E+02 -0.23668625403E+03  0.29082409205E+03  0.12507477780E+03 0.  0.
         23    2    1    2    0    0 -0.66773943975E+02 -0.91955478539E+02 -0.18210354003E+03  0.23344271660E+03  0.91756378606E+02 0.  0.
          5    1    3    3  502    0  0.28289289347E+02  0.50157611788E+02 -0.11925472483E+02  0.58955569762E+02  0.41800000000E+01 0.  1.
         -5    1    3    3    0  502  0.38484654628E+02  0.41797866751E+02 -0.22476078154E+03  0.23186852229E+03  0.41800000000E+01 0.  1.
        -11    1    4    4    0    0 -0.89648729191E+02 -0.78795371357E+02 -0.15479558083E+03  0.19546681825E+03  0.00000000000E+00 0.  1.
         11    1    4    4    0    0  0.22874785216E+02 -0.13160107181E+02 -0.27307959203E+02  0.37975898351E+02  0.00000000000E+00 0. -1.
</event>
<event>
 8    1  0.3528896E-009  0.1970464E+03  0.7561462E-02  0.1152255E+00
         -3   -1    0    0    0  501 -0.00000000000E+00  0.00000000000E+00  0.63875893037E+03  0.63875893037E+03  0.00000000000E+00 0.  1.
          3   -1    0    0  501    0  0.00000000000E+00 -0.00000000000E+00 -0.70627314889E+02  0.70627314889E+02  0.00000000000E+00 0. -1.
         25    2    1    2    0    0  0.11823051729E+02  0.17655754059E+03  0.36580225954E+03  0.42517190995E+03  0.12509000854E+03 0.  0.
         23    2    1    2    0    0 -0.11823051729E+02 -0.17655754059E+03  0.20232935594E+03  0.28421433531E+03  0.92348635226E+02 0.  0.
          5    1    3    3  502    0  0.67952866507E+02  0.10260130357E+03  0.22434529744E+03  0.25591581515E+03  0.41800000000E+01 0.  1.
         -5    1    3    3    0  502 -0.56129814778E+02  0.73956237014E+02  0.14145696210E+03  0.16925609480E+03  0.41800000000E+01 0.  1.
        -11    1    4    4    0    0 -0.13591441677E+02 -0.63033965798E+02  0.14129057138E+03  0.15530947715E+03  0.00000000000E+00 0.  1.
         11    1    4    4    0    0  0.17683899476E+01 -0.11352357479E+03  0.61038784558E+02  0.12890485816E+03  0.00000000000E+00 0. -1.
</event>
<event>
 8    1  0.3528896E-009  0.2196720E+03  0.7561462E-02  0.1134128E+00
         -4   -1    0    0    0  501 -0.00000000000E+00  0.00000000000E+00  0.21918215851E+03  0.21918215851E+03  0.00000000000E+00 0.  1.
          4   -1    0    0  501    0  0.00000000000E+00 -0.00000000000E+00 -0.24970342430E+03  0.24970342430E+03  0.00000000000E+00 0. -1.
         25    2    1    2    0    0 -0.16580563344E+03  0.10460923549E+03 -0.82389911660E+02  0.24671879678E+03  0.12508983535E+03 0.  0.
         23    2    1    2    0    0  0.16580563344E+03 -0.10460923549E+03  0.51868645872E+02  0.22216678604E+03  0.90736564634E+02 0.  0.
          5    1    3    3  502    0 -0.12023884199E+03  0.42453539395E+01 -0.27384338177E+02  0.12346163991E+03  0.41800000000E+01 0. -1.
         -5    1    3    3    0  502 -0.45566791454E+02  0.10036388155E+03 -0.55005573483E+02  0.12325715686E+03  0.41800000000E+01 0. -1.
        -11    1    4    4    0    0  0.96064960497E+02 -0.18472657745E+02  0.53146416980E+02  0.11132949904E+03  0.00000000000E+00 0.  1.
         11    1    4    4    0    0  0.69740672945E+02 -0.86136577749E+02 -0.12777711076E+01  0.11083728699E+03  0.00000000000E+00 0. -1.
</event>
<event>
 8    1  0.3528896E-009  0.1556256E+03  0.7561462E-02  0.1193726E+00
          1   -1    0    0  501    0  0.00000000000E+00  0.00000000000E+00  0.37527913585E+03  0.37527913585E+03  0.00000000000E+00 0. -1.
         -1   -1    0    0    0  501 -0.00000000000E+00 -0.00000000000E+00 -0.75392178579E+02  0.75392178579E+02  0.00000000000E+00 0.  1.
         25    2    1    2    0    0 -0.11208678651E+03  0.14890857475E+02  0.79248642127E+02  0.18632091690E+03  0.12509976598E+03 0.  0.
         23    2    1    2    0    0  0.11208678651E+03 -0.14890857475E+02  0.22063831514E+03  0.26435039753E+03  0.91731571550E+02 0.  0.
          5    1    3    3  502    0  0.74546671262E+01  0.42122746314E+02  0.58842173827E+01  0.43381957461E+02  0.41800000000E+01 0. -1.
         -5    1    3    3    0  502 -0.11954145363E+03 -0.27231888839E+02  0.73364424744E+02  0.14293895944E+03  0.41800000000E+01 0. -1.
        -11    1    4    4    0    0  0.83597386910E+02  0.32996603762E+02  0.13496008442E+03  0.16214661065E+03  0.00000000000E+00 0. -1.
         11    1    4    4    0    0  0.28489399598E+02 -0.47887461237E+02  0.85678230718E+02  0.10220378688E+03  0.00000000000E+00 0.  1.
</event>
<event>
 8    1  0.3528896E-009  0.8848081E+02  0.7561462E-02  0.1306573E+00
         -1   -1    0    0    0  501 -0.00000000000E+00  0.00000000000E+00  0.44374661906E+02  0.44374661906E+02  0.00000000000E+00 0.  1.
          1   -1    0    0  501    0  0.00000000000E+00 -0.00000000000E+00 -0.41929153249E+03  0.41929153249E+03  0.00000000000E+00 0. -1.
         25    2    1    2    0    0 -0.42750917687E+01  0.70501557783E+02 -0.27336404980E+03  0.30881125018E+03  0.12509092074E+03 0.  0.
         23    2    1    2    0    0  0.42750917687E+01 -0.70501557783E+02 -0.10155282078E+03  0.15485494422E+03  0.93157566955E+02 0.  0.
          5    1    3    3  502    0  0.36729871080E+02  0.42411799624E+02 -0.37223694880E+02  0.67460507243E+02  0.41800000000E+01 0.  1.
         -5    1    3    3    0  502 -0.41004962849E+02  0.28089758159E+02 -0.23614035492E+03  0.24135074293E+03  0.41800000000E+01 0.  1.
        -11    1    4    4    0    0  0.50595489381E+01 -0.41210436178E+02  0.72741581838E+01  0.42152253353E+02  0.00000000000E+00 0.  1.
         11    1    4    4    0    0 -0.78445716944E+00 -0.29291121605E+02 -0.10882697896E+03  0.11270269086E+03  0.00000000000E+00 0. -1.
</event>
<event>
 8    1  0.3528896E-009  0.1101520E+03  0.7561462E-02  0.1260289E+00
          3   -1    0    0  501    0  0.00000000000E+00  0.00000000000E+00  0.39668724231E+03  0.39668724231E+03  0.00000000000E+00 0. -1.
         -3   -1    0    0    0  501 -0.00000000000E+00 -0.00000000000E+00 -0.61958485568E+02  0.61958485568E+02  0.00000000000E+00 0.  1.
         25    2    1    2    0    0 -0.99654636938E+02 -0.26283313324E+02  0.96599260910E+02  0.18868334419E+03  0.12509247756E+03 0.  0.
         23    2    1    2    0    0  0.99654636938E+02  0.26283313324E+02  0.23812949583E+03  0.26996238369E+03  0.74512902247E+02 0.  0.
          5    1    3    3  502    0 -0.87890859107E+02 -0.14821439980E+02 -0.13886584161E+01  0.89240567960E+02  0.41800000000E+01 0.  1.
         -5    1    3    3    0  502 -0.11763777831E+02 -0.11461873344E+02  0.97987919326E+02  0.99442776225E+02  0.41800000000E+01 0.  1.
        -11    1    4    4    0    0  0.77595825080E+02  0.40850113545E+02  0.11833227432E+03  0.14728330181E+03  0.00000000000E+00 0.  1.
         11    1    4    4    0    0  0.22058811858E+02 -0.14566800221E+02  0.11979722152E+03  0.12267908189E+03  0.00000000000E+00 0. -1.
</event>
<event>
 8    1  0.3528896E-009  0.9972003E+02  0.7561462E-02  0.1280886E+00
         -2   -1    0    0    0  501 -0.00000000000E+00  0.00000000000E+00  0.38340423579E+02  0.38340423579E+02  0.00000000000E+00 0.  1.
          2   -1    0    0  501    0  0.00000000000E+00 -0.00000000000E+00 -0.40461478312E+03  0.40461478312E+03  0.00000000000E+00 0. -1.
         25    2    1    2    0    0 -0.40027926244E+02 -0.22817334956E+02 -0.13190962278E+03  0.18753814293E+03  0.12509013077E+03 0.  0.
         23    2    1    2    0    0  0.40027926244E+02  0.22817334956E+02 -0.23436473676E+03  0.25541706377E+03  0.90488568208E+02 0.  0.
          5    1    3    3  502    0 -0.45132286619E+01  0.49864339189E+02 -0.66952513876E+02  0.83707425418E+02  0.41800000000E+01 0. -1.
         -5    1    3    3    0  502 -0.35514697582E+02 -0.72681674145E+02 -0.64957108906E+02  0.10383071751E+03  0.41800000000E+01 0. -1.
        -11    1    4    4    0    0  0.35794184860E+02  0.38135754821E+02 -0.23373126975E+03  0.23951172399E+03  0.00000000000E+00 0. -1.
         11    1    4    4    0    0  0.42337413840E+01 -0.15318419865E+02 -0.63346700376E+00  0.15905339786E+02  0.00000000000E+00 0.  1.
</event>
<event>
 8    1  0.3528896E-009  0.9628143E+02  0.7561462E-02  0.1288316E+00
          2   -1    0    0  501    0  0.00000000000E+00  0.00000000000E+00  0.83323292292E+03  0.83323292292E+03  0.00000000000E+00 0. -1.
         -2   -1    0    0    0  501 -0.00000000000E+00 -0.00000000000E+00 -0.16880426775E+02  0.16880426775E+02  0.00000000000E+00 0.  1.
         25    2    1    2    0    0  0.12673006394E+02 -0.45304056506E+02  0.50954336187E+03  0.52677667255E+03  0.12508462132E+03 0.  0.
         23    2    1    2    0    0 -0.12673006394E+02  0.45304056506E+02  0.30680913427E+03  0.32333667714E+03  0.90563233629E+02 0.  0.
          5    1    3    3  502    0  0.40269382591E+02 -0.65937860477E+02  0.18706525076E+03  0.20243592828E+03  0.41800000000E+01 0. -1.
         -5    1    3    3    0  502 -0.27596376197E+02  0.20633803971E+02  0.32247811112E+03  0.32434074427E+03  0.41800000000E+01 0. -1.
        -11    1    4    4    0    0 -0.84247364304E+01  0.62346849868E+02  0.29621993584E+03  0.30282727133E+03  0.00000000000E+00 0. -1.
         11    1    4    4    0    0 -0.42482699636E+01 -0.17042793362E+02  0.10589198430E+02  0.20509405809E+02  0.00000000000E+00 0.  1.
</event>
<event>
 8    1  0.3528896E-009  0.6721700E+02  0.7561462E-02  0.1369821E+00
          3   -1    0    0  501    0  0.00000000000E+00  0.00000000000E+00  0.86699745763E+02  0.86699745763E+02  0.00000000000E+00 0. -1.
         -3   -1    0    0    0  501 -0.00000000000E+00 -0.00000000000E+00 -0.14410531024E+03  0.14410531024E+03  0.00000000000E+00 0.  1.
         25    2    1    2    0    0 -0.29351546964E+02 -0.98544078992E+01 -0.46487429261E+02  0.13699452539E+03  0.12509115174E+03 0.  0.
         23    2    1    2    0    0  0.29351546964E+02  0.98544078992E+01 -0.10918135219E+02  0.93810530616E+02  0.87878252791E+02 0.  0.
          5    1    3    3  502    0  0.51649473112E+01 -0.18967636926E+02 -0.83213804213E+02  0.85606410642E+02  0.41800000000E+01 0. -1.
         -5    1    3    3    0  502 -0.34516494275E+02  0.91132290271E+01  0.36726374952E+02  0.51388114749E+02  0.41800000000E+01 0. -1.
        -11    1    4    4    0    0 -0.15179231887E+02  0.26756645495E+02 -0.29558962881E+02  0.42662154721E+02  0.00000000000E+00 0.  1.
         11    1    4    4    0    0  0.44530778851E+02 -0.16902237596E+02  0.18640827662E+02  0.51148375895E+02  0.00000000000E+00 0. -1.
</event>
<event>
 8    1  0.3528896E-009  0.2988984E+03  0.7561462E-02  0.1085793E+00
          3   -1    0    0  501    0  0.00000000000E+00  0.00000000000E+00  0.27214180787E+03  0.27214180787E+03  0.00000000000E+00 0. -1.
         -3   -1    0    0    0  501 -0.00000000000E+00 -0.00000000000E+00 -0.37230823610E+03  0.37230823610E+03  0.00000000000E+00 0.  1.
         25    2    1    2    0    0 -0.23430504437E+03  0.16956209982E+03  0.25822104163E+02  0.31617065283E+03  0.12508773374E+03 0.  0.
         23    2    1    2    0    0  0.23430504437E+03 -0.16956209982E+03 -0.12598853239E+03  0.32827939113E+03  0.90796964882E+02 0.  0.
          5    1    3    3  502    0 -0.15003479011E+03  0.66623249162E+02 -0.38010079061E+02  0.16855661981E+03  0.41800000000E+01 0.  1.
         -5    1    3    3    0  502 -0.84270254265E+02  0.10293885066E+03  0.63832183224E+02  0.14761403302E+03  0.41800000000E+01 0.  1.
        -11    1    4    4    0    0  0.11574123325E+03 -0.13321718095E+03 -0.95161710917E+02  0.20049588923E+03  0.00000000000E+00 0.  1.
         11    1    4    4    0    0  0.11856381112E+03 -0.36344918877E+02 -0.30826821478E+02  0.12778350190E+03  0.00000000000E+00 0. -1.
</event>
<event>
 8    1  0.3528896E-009  0.1601113E+03  0.7561462E-02  0.1188571E+00
          1   -1    0    0  501    0  0.00000000000E+00  0.00000000000E+00  0.12597558747E+03  0.12597558747E+03  0.00000000000E+00 0. -1.
         -1   -1    0    0    0  501 -0.00000000000E+00 -0.00000000000E+00 -0.24945636388E+03  0.24945636388E+03  0.00000000000E+00 0.  1.
         25    2    1    2    0    0  0.12431900109E+03 -0.39177324086E+02 -0.23057169542E+02  0.18212479068E+03  0.12509088519E+03 0.  0.
         23    2    1    2    0    0 -0.12431900109E+03  0.39177324086E+02 -0.10042360687E+03  0.19330716067E+03  0.10145285010E+03 0.  0.
          5    1    3    3  502    0  0.11379860818E+03  0.19597418234E+01 -0.57228005252E+02  0.12746168364E+03  0.41800000000E+01 0.  1.
         -5    1    3    3    0  502  0.10520392918E+02 -0.41137065909E+02  0.34170835709E+02  0.54663107045E+02  0.41800000000E+01 0.  1.
        -11    1    4    4    0    0 -0.11828359368E+03 -0.56633047831E+01 -0.83945918899E+02  0.14515508552E+03  0.00000000000E+00 0.  1.
         11    1    4    4    0    0 -0.60354074198E+01  0.44840628869E+02 -0.16477687971E+02  0.48152075147E+02  0.00000000000E+00 0. -1.
</event>
<event>
 8    1  0.3528896E-009  0.7232134E+02  0.7561462E-02  0.1352373E+00
          1   -1    0    0  501    0  0.00000000000E+00  0.00000000000E+00  0.79192904600E+03  0.79192904600E+03  0.00000000000E+00 0. -1.
         -1   -1    0    0    0  501 -0.00000000000E+00 -0.00000000000E+00 -0.19422374787E+02  0.19422374787E+02  0.00000000000E+00 0.  1.
         25    2    1    2    0    0 -0.37475329783E+02 -0.26421804928E+02  0.54418699743E+03  0.56026439954E+03  0.12511673393E+03 0.  0.
         23    2    1    2    0    0  0.37475329783E+02  0.26421804928E+02  0.22831967379E+03  0.25108702125E+03  0.93873887113E+02 0.  0.
          5    1    3    3  502    0 -0.26931588206E+02 -0.17508461098E+02  0.54486122359E+03  0.54582330659E+03  0.41800000000E+01 0.  1.
         -5    1    3    3    0  502 -0.10543741577E+02 -0.89133438296E+01 -0.67422615913E+00  0.14441092950E+02  0.41800000000E+01 0.  1.
        -11    1    4    4    0    0  0.61390071886E+02 -0.10528734002E+01  0.96915104693E+02  0.11472744653E+03  0.00000000000E+00 0.  1.
         11    1    4    4    0    0 -0.23914742103E+02  0.27474678328E+02  0.13140456909E+03  0.13635957472E+03  0.00000000000E+00 0. -1.
</event>
<event>
 8    1  0.3528896E-009  0.7329054E+02  0.7561462E-02  0.1349248E+00
          2   -1    0    0  501    0  0.00000000000E+00  0.00000000000E+00  0.52590259266E+02  0.52590259266E+02  0.00000000000E+00 0.  1.
         -2   -1    0    0    0  501 -0.00000000000E+00 -0.00000000000E+00 -0.24447429350E+03  0.24447429350E+03  0.00000000000E+00 0. -1.
         25    2    1    2    0    0 -0.44508466019E+01 -0.71509619748E+01 -0.15576579735E+03  0.19995317748E+03  0.12508934114E+03 0.  0.
         23    2    1    2    0    0  0.44508466019E+01  0.71509619748E+01 -0.36118236885E+02  0.97111375290E+02  0.89750464524E+02 0.  0.
          5    1    3    3  502    0 -0.47346319160E+02  0.16362365007E+02 -0.17495874136E+02  0.53225735678E+02  0.41800000000E+01 0.  1.
         -5    1    3    3    0  502  0.42895472558E+02 -0.23513326982E+02 -0.13826992321E+03  0.14672744180E+03  0.41800000000E+01 0.  1.
        -11    1    4    4    0    0  0.12498306027E+01 -0.19919400006E+02  0.23932932733E+02  0.31162956251E+02  0.00000000000E+00 0.  1.
         11    1    4    4    0    0  0.32010159992E+01  0.27070361980E+02 -0.60051169618E+02  0.65948419038E+02  0.00000000000E+00 0. -1.
</event>
<event>
 8    1  0.3528896E-009  0.9173756E+02  0.7561462E-02  0.1298698E+00
         -2   -1    0    0    0  501 -0.00000000000E+00  0.00000000000E+00  0.57731754358E+02  0.57731754358E+02  0.00000000000E+00 0.  1.
          2   -1    0    0  501    0  0.00000000000E+00 -0.00000000000E+00 -0.50096584323E+03  0.50096584323E+03  0.00000000000E+00 0. -1.
         25    2    1    2    0    0  0.57613228670E+02 -0.43502559941E+02 -0.41370637113E+03  0.43819319629E+03  0.12509420018E+03 0.  0.
         23    2    1    2    0    0 -0.57613228670E+02  0.43502559941E+02 -0.29527717744E+02  0.12050440130E+03  0.91856778622E+02 0.  0.
          5    1    3    3  502    0  0.17756259367E+02 -0.79787678836E+00  0.20123839398E+01  0.18369633726E+02  0.41800000000E+01 0.  1.
         -5    1    3    3    0  502  0.39856969303E+02 -0.42704683152E+02 -0.41571875507E+03  0.41982356256E+03  0.41800000000E+01 0.  1.
        -11    1    4    4    0    0 -0.56073074557E+02 -0.66587979434E+01  0.90729513296E+01  0.57191325620E+02  0.00000000000E+00 0.  1.
         11    1    4    4    0    0 -0.15401541135E+01  0.50161357884E+02 -0.38600669073E+02  0.63313075682E+02  0.00000000000E+00 0. -1.
</event>
<event>
 8    1  0.3528896E-009  0.1212508E+03  0.7561462E-02  0.1241048E+00
          3   -1    0    0  501    0  0.00000000000E+00  0.00000000000E+00  0.90376083882E+02  0.90376083882E+02  0.00000000000E+00 0. -1.
         -3   -1    0    0    0  501 -0.00000000000E+00 -0.00000000000E+00 -0.25086922124E+03  0.25086922124E+03  0.00000000000E+00 0.  1.
         25    2    1    2    0    0  0.16356351139E+02  0.85558408921E+02 -0.22314154807E+02  0.15405075305E+03  0.12508373776E+03 0.  0.
         23    2    1    2    0    0 -0.16356351139E+02 -0.85558408921E+02 -0.13817898255E+03  0.18719455207E+03  0.91436303222E+02 0.  0.
          5    1    3    3  502    0 -0.32054843326E+02  0.14829285996E+02  0.35759733526E+02  0.50434627446E+02  0.41800000000E+01 0. -1.
         -5    1    3    3    0  502  0.48411194465E+02  0.70729122924E+02 -0.58073888332E+02  0.10361612560E+03  0.41800000000E+01 0. -1.
        -11    1    4    4    0    0 -0.45662291175E+02 -0.21069983042E+02 -0.32173063684E+02  0.59700042274E+02  0.00000000000E+00 0. -1.
         11    1    4    4    0    0  0.29305940036E+02 -0.64488425878E+02 -0.10600591887E+03  0.12749450980E+03  0.00000000000E+00 0.  1.
</event>
<event>
 8    1  0.3528896E-009  0.1216136E+03  0.7561462E-02  0.1240459E+00
         -2   -1    0    0    0  501 -0.00000000000E+00  0.00000000000E+00  0.15119971367E+03  0.15119971367E+03  0.00000000000E+00 0.  1.
          2   -1    0    0  501    0  0.00000000000E+00 -0.00000000000E+00 -0.12879617515E+03  0.12879617515E+03  0.00000000000E+00 0. -1.
         25    2    1    2    0    0  0.28843025048E+02 -0.78279245074E+02  0.35955986522E+02  0.15460030390E+03  0.12509540638E+03 0.  0.
         23    2    1    2    0    0 -0.28843025048E+02  0.78279245074E+02 -0.13552448005E+02  0.12539558492E+03  0.92632734858E+02 0.  0.
          5    1    3    3  502    0  0.39138284058E+02  0.21551318633E+00  0.59998444963E+02  0.71757491058E+02  0.41800000000E+01 0. -1.
         -5    1    3    3    0  502 -0.10295259011E+02 -0.78494758260E+02 -0.24042458441E+02  0.82842812846E+02  0.41800000000E+01 0. -1.
        -11    1    4    4    0    0 -0.29069027310E+02  0.99350593776E+02 -0.96504336129E+01  0.10396480030E+03  0.00000000000E+00 0. -1.
         11    1    4    4    0    0  0.22600226257E+00 -0.21071348702E+02 -0.39020143924E+01  0.21430784621E+02  0.00000000000E+00 0.  1.
</event>
<event>
 8    1  0.3528896E-009  0.1145550E+03  0.7561462E-02  0.1252360E+00
          2   -1    0    0  501    0  0.00000000000E+00  0.00000000000E+00  0.11629376388E+04  0.11629376388E+04  0.00000000000E+00 0. -1.
         -2   -1    0    0    0  501 -0.00000000000E+00 -0.00000000000E+00 -0.16838908860E+02  0.16838908860E+02  0.00000000000E+00 0.  1.
         25    2    1    2    0    0 -0.89674573886E-01  0.68598438091E+02  0.86946098874E+03  0.88108795181E+03  0.12509122323E+03 0.  0.
         23    2    1    2    0    0  0.89674573886E-01 -0.68598438091E+02  0.27663774115E+03  0.29868859580E+03  0.89334672346E+02 0.  0.
          5    1    3    3  502    0 -0.21715364347E+02 -0.18644623326E+02  0.59647828767E+02  0.66291137449E+02  0.41800000000E+01 0. -1.
         -5    1    3    3    0  502  0.21625689773E+02  0.87243061417E+02  0.80981315998E+03  0.81479681436E+03  0.41800000000E+01 0. -1.
        -11    1    4    4    0    0 -0.13938910218E+02  0.17837425733E+02  0.35094168919E+02  0.41762036193E+02  0.00000000000E+00 0. -1.
         11    1    4    4    0    0  0.14028584792E+02 -0.86435863824E+02  0.24154357223E+03  0.25692655961E+03  0.00000000000E+00 0.  1.
</event>
<event>
 8    1  0.3528896E-009  0.1107493E+03  0.7561462E-02  0.1259189E+00
         -2   -1    0    0    0  501 -0.00000000000E+00  0.00000000000E+00  0.12505159474E+03  0.12505159474E+03  0.00000000000E+00 0.  1.
          2   -1    0    0  501    0  0.00000000000E+00 -0.00000000000E+00 -0.16725938386E+03  0.16725938386E+03  0.00000000000E+00 0. -1.
         25    2    1    2    0    0  0.18873462897E+02 -0.83049159898E+02  0.19869934732E+02  0.15262709345E+03  0.12508734863E+03 0.  0.
         23    2    1    2    0    0 -0.18873462897E+02  0.83049159898E+02 -0.62077723853E+02  0.13968388514E+03  0.91676460494E+02 0.  0.
          5    1    3    3  502    0  0.54123032536E+02 -0.63131102089E+02  0.54226923410E+02  0.99362318433E+02  0.41800000000E+01 0. -1.
         -5    1    3    3    0  502 -0.35249569639E+02 -0.19918057809E+02 -0.34356988678E+02  0.53264775017E+02  0.41800000000E+01 0. -1.
        -11    1    4    4    0    0 -0.34219775829E+02  0.45195491352E+02 -0.77502593135E+02  0.96022275744E+02  0.00000000000E+00 0. -1.
         11    1    4    4    0    0  0.15346312933E+02  0.37853668546E+02  0.15424869282E+02  0.43661609400E+02  0.00000000000E+00 0.  1.
</event>
<event>
 8    1  0.3528896E-009  0.2356468E+03  0.7561462E-02  0.1122727E+00
          1   -1    0    0  501    0  0.00000000000E+00  0.00000000000E+00  0.88876622717E+02  0.88876622717E+02  0.00000000000E+00 0. -1.
         -1   -1    0    0    0  501 -0.00000000000E+00 -0.00000000000E+00 -0.69057691920E+03  0.69057691920E+03  0.00000000000E+00 0.  1.
         25    2    1    2    0    0  0.20956456045E+03 -0.74488370273E+02 -0.31055491233E+03  0.40194385144E+03  0.12509469949E+03 0.  0.
         23    2    1    2    0    0 -0.20956456045E+03  0.74488370273E+02 -0.29114538415E+03  0.37750969047E+03  0.91006095333E+02 0.  0.
          5    1    3    3  502    0  0.14670579345E+03 -0.12019455845E+02 -0.26265931216E+03  0.30112197498E+03  0.41800000000E+01 0.  1.
         -5    1    3    3    0  502  0.62858766992E+02 -0.62468914428E+02 -0.47895600168E+02  0.10082187646E+03  0.41800000000E+01 0.  1.
        -11    1    4    4    0    0 -0.44642684932E+02  0.52535236047E+02 -0.12275390125E+03  0.14078863810E+03  0.00000000000E+00 0.  1.
         11    1    4    4    0    0 -0.16492187551E+03  0.21953134226E+02 -0.16839148290E+03  0.23672105238E+03  0.00000000000E+00 0. -1.
</event>
<event>
 8    1  0.3528896E-009  0.8485624E+02  0.7561462E-02  0.1315809E+00
         -4   -1    0    0    0  501 -0.00000000000E+00  0.00000000000E+00  0.15112037304E+03  0.15112037304E+03  0.00000000000E+00 0.  1.
          4   -1    0    0  501    0  0.00000000000E+00 -0.00000000000E+00 -0.99522081715E+02  0.99522081715E+02  0.00000000000E+00 0. -1.
         25    2    1    2    0    0  0.32025050420E+02 -0.37714247639E+02  0.62033134087E+01  0.13466220471E+03  0.12508980754E+03 0.  0.
         23    2    1    2    0    0 -0.32025050420E+02  0.37714247639E+02  0.45394977914E+02  0.11598025005E+03  0.94566093564E+02 0.  0.
          5    1    3    3  502    0 -0.93178789149E+01  0.24977228262E+02  0.43128325359E+02  0.50874449848E+02  0.41800000000E+01 0.  1.
         -5    1    3    3    0  502  0.41342929335E+02 -0.62691475901E+02 -0.36925011950E+02  0.83787754858E+02  0.41800000000E+01 0.  1.
        -11    1    4    4    0    0 -0.38265801056E+02  0.10620470225E+02  0.68931367624E+02  0.79552494371E+02  0.00000000000E+00 0.  1.
         11    1    4    4    0    0  0.62407506357E+01  0.27093777414E+02 -0.23536389710E+02  0.36427755676E+02  0.00000000000E+00 0. -1.
</event>
<event>
 8    1  0.3528896E-009  0.1599555E+03  0.7561462E-02  0.1188747E+00
         -2   -1    0    0    0  501 -0.00000000000E+00  0.00000000000E+00  0.41599301533E+02  0.41599301533E+02  0.00000000000E+00 0.  1.
          2   -1    0    0  501    0  0.00000000000E+00 -0.00000000000E+00 -0.69647562647E+03  0.69647562647E+03  0.00000000000E+00 0. -1.
         25    2    1    2    0    0  0.59626331472E+02  0.11462741928E+03 -0.36413032427E+03  0.40612036788E+03  0.12509242782E+03 0.  0.
         23    2    1    2    0    0 -0.59626331472E+02 -0.11462741928E+03 -0.29074600067E+03  0.33195456012E+03  0.94688164130E+02 0.  0.
          5    1    3    3  502    0  0.60184388137E+02  0.13986618875E+03 -0.33003956077E+03  0.36349456035E+03  0.41800000000E+01 0. -1.
         -5    1    3    3    0  502 -0.55805666495E+00 -0.25238769469E+02 -0.34090763498E+02  0.42625807529E+02  0.41800000000E+01 0. -1.
        -11    1    4    4    0    0  0.12067330382E+02 -0.14822322459E+02 -0.33716798691E+01  0.19408501508E+02  0.00000000000E+00 0.  1.
         11    1    4    4    0    0 -0.71693661854E+02 -0.99805096821E+02 -0.28737432080E+03  0.31254605861E+03  0.00000000000E+00 0. -1.
</event>
<event>
 8    1  0.3528896E-009  0.9765612E+02  0.7561462E-02  0.1285303E+00
         -2   -1    0    0    0  501 -0.00000000000E+00  0.00000000000E+00  0.18336573654E+03  0.18336573654E+03  0.00000000000E+00 0. -1.
          2   -1    0    0  501    0  0.00000000000E+00 -0.00000000000E+00 -0.88026743284E+02  0.88026743284E+02  0.00000000000E+00 0.  1.
         25    2    1    2    0    0  0.13874411630E+02  0.35702563517E+02 -0.41012678536E+01  0.13088678828E+03  0.12508940246E+03 0.  0.
         23    2    1    2    0    0 -0.13874411630E+02 -0.35702563517E+02  0.99440261114E+02  0.14050569155E+03  0.91576806493E+02 0.  0.
          5    1    3    3  502    0  0.66317799432E+02  0.25053511025E+02 -0.21933606178E+02  0.74325530043E+02  0.41800000000E+01 0.  1.
         -5    1    3    3    0  502 -0.52443387802E+02  0.10649052492E+02  0.17832338324E+02  0.56561258236E+02  0.41800000000E+01 0.  1.
        -11    1    4    4    0    0 -0.36130954454E+02 -0.31575925438E+02  0.10648658189E+03  0.11679844631E+03  0.00000000000E+00 0. -1.
         11    1    4    4    0    0  0.22256542824E+02 -0.41266380790E+01 -0.70463207789E+01  0.23707245240E+02  0.00000000000E+00 0.  1.
</event>
<event>
 8    1  0.3528896E-009  0.1292842E+03  0.7561462E-02  0.1228522E+00
         -2   -1    0    0    0  501 -0.00000000000E+00  0.00000000000E+00  0.47937013160E+02  0.47937013160E+02  0.00000000000E+00 0.  1.
          2   -1    0    0  501    0  0.00000000000E+00 -0.00000000000E+00 -0.55567245151E+03  0.55567245151E+03  0.00000000000E+00 0. -1.
         25    2    1    2    0    0  0.93955635156E+01 -0.11037239740E+03 -0.35217749568E+03  0.38980356145E+03  0.12508990902E+03 0.  0.
         23    2    1    2    0    0 -0.93955635156E+01  0.11037239740E+03 -0.15555794267E+03  0.21380590322E+03  0.96147532475E+02 0.  0.
          5    1    3    3  502    0  0.81120638164E+01 -0.26686581897E+02 -0.42521257254E+00  0.28206957270E+02  0.41800000000E+01 0. -1.
         -5    1    3    3    0  502  0.12834996992E+01 -0.83685815501E+02 -0.35175228310E+03  0.36159660418E+03  0.41800000000E+01 0. -1.
        -11    1    4    4    0    0  0.35069650230E+02  0.91992435758E+02 -0.10841153557E+03  0.14644299112E+03  0.00000000000E+00 0.  1.
         11    1    4    4    0    0 -0.44465213746E+02  0.18379961640E+02 -0.47146407105E+02  0.67362912098E+02  0.00000000000E+00 0. -1.
</event>
<event>
 8    1  0.3528896E-009  0.1337091E+03  0.7561462E-02  0.1222054E+00
         -3   -1    0    0    0  501 -0.00000000000E+00  0.00000000000E+00  0.11110076481E+03  0.11110076481E+03  0.00000000000E+00 0.  1.
          3   -1    0    0  501    0  0.00000000000E+00 -0.00000000000E+00 -0.19241215823E+03  0.19241215823E+03  0.00000000000E+00 0. -1.
         25    2    1    2    0    0  0.67208078343E+02  0.49135245207E+02 -0.95981429640E+02  0.17830053711E+03  0.12508976210E+03 0.  0.
         23    2    1    2    0    0 -0.67208078343E+02 -0.49135245207E+02  0.14670036220E+02  0.12521238594E+03  0.92367383388E+02 0.  0.
          5    1    3    3  502    0  0.97537731994E+02  0.14829624294E+02 -0.41777724577E+02  0.10722116204E+03  0.41800000000E+01 0.  1.
         -5    1    3    3    0  502 -0.30329653651E+02  0.34305620913E+02 -0.54203705063E+02  0.71079375064E+02  0.41800000000E+01 0.  1.
        -11    1    4    4    0    0 -0.63805631066E+01  0.25569443674E+02  0.11688926323E+02  0.28829482027E+02  0.00000000000E+00 0.  1.
         11    1    4    4    0    0 -0.60827515237E+02 -0.74704688881E+02  0.29811098973E+01  0.96382903914E+02  0.00000000000E+00 0. -1.
</event>
<event>
 8    1  0.3528896E-009  0.2933454E+03  0.7561462E-02  0.1088615E+00
          2   -1    0    0  501    0  0.00000000000E+00  0.00000000000E+00  0.12112612027E+04  0.12112612027E+04  0.00000000000E+00 0.  1.
         -2   -1    0    0    0  501 -0.00000000000E+00 -0.00000000000E+00 -0.77992510890E+02  0.77992510890E+02  0.00000000000E+00 0. -1.
         25    2    1    2    0    0 -0.28337611199E+03  0.39541800952E+02  0.52898987926E+03  0.61428465944E+03  0.12509906311E+03 0.  0.
         23    2    1    2    0    0  0.28337611199E+03 -0.39541800952E+02  0.60427881256E+03  0.67496905416E+03  0.92546020441E+02 0.  0.
          5    1    3    3  502    0 -0.16244893594E+03  0.18996661357E+02  0.17474813783E+03  0.23938444813E+03  0.41800000000E+01 0. -1.
         -5    1    3    3    0  502 -0.12092717605E+03  0.20545139595E+02  0.35424174143E+03  0.37490021131E+03  0.41800000000E+01 0. -1.
        -11    1    4    4    0    0  0.24721273326E+03 -0.65609629097E+02  0.50222091112E+03  0.56359968283E+03  0.00000000000E+00 0. -1.
         11    1    4    4    0    0  0.36163378724E+02  0.26067828145E+02  0.10205790144E+03  0.11136937133E+03  0.00000000000E+00 0.  1.
</event>
<event>
 8    1  0.3528896E-009  0.1150402E+03  0.7561462E-02  0.1251511E+00
         -3   -1    0    0    0  501 -0.00000000000E+00  0.00000000000E+00  0.27640971259E+03  0.27640971259E+03  0.00000000000E+00 0.  1.
          3   -1    0    0  501    0  0.00000000000E+00 -0.00000000000E+00 -0.13481997503E+03  0.13481997503E+03  0.00000000000E+00 0. -1.
         25    2    1    2    0    0 -0.19923522661E+02  0.82854712985E+02  0.21911641535E+03  0.26631405862E+03  0.12509725864E+03 0.  0.
         23    2    1    2    0    0  0.19923522661E+02 -0.82854712985E+02 -0.77526677790E+02  0.14491562901E+03  0.87910770340E+02 0.  0.
          5    1    3    3  502    0  0.36416848232E+02  0.52922801159E+02  0.18046546754E+03  0.19160445479E+03  0.41800000000E+01 0. -1.
         -5    1    3    3    0  502 -0.56340370894E+02  0.29931911827E+02  0.38650947810E+02  0.74709603831E+02  0.41800000000E+01 0. -1.
        -11    1    4    4    0    0  0.28414032670E+02 -0.12736764948E+02  0.97602451157E+01  0.32631960079E+02  0.00000000000E+00 0.  1.
         11    1    4    4    0    0 -0.84905100086E+01 -0.70117948038E+02 -0.87286922906E+02  0.11228366893E+03  0.00000000000E+00 0. -1.
</event>
<event>
 8    1  0.3528896E-009  0.1027029E+03  0.7561462E-02  0.1274713E+00
          2   -1    0    0  501    0  0.00000000000E+00  0.00000000000E+00  0.29664245314E+04  0.29664245314E+04  0.00000000000E+00 0. -1.
         -2   -1    0    0    0  501 -0.00000000000E+00 -0.00000000000E+00 -0.63948924230E+01  0.63948924230E+01  0.00000000000E+00 0.  1.
         25    2    1    2    0    0  0.49946599729E+01 -0.45964735208E+02  0.23917076909E+04  0.23954228668E+04  0.12508928231E+03 0.  0.
         23    2    1    2    0    0 -0.49946599729E+01  0.45964735208E+02  0.56832194810E+03  0.57739655705E+03  0.90880382315E+02 0.  0.
          5    1    3    3  502    0  0.39592508886E+02  0.67609918240E+01  0.17801583701E+04  0.17806163463E+04  0.41800000000E+01 0.  1.
         -5    1    3    3    0  502 -0.34597848913E+02 -0.52725727032E+02  0.61154932084E+03  0.61480652050E+03  0.41800000000E+01 0.  1.
        -11    1    4    4    0    0 -0.47810478802E+02  0.27854601618E+02  0.32406485821E+03  0.32875485250E+03  0.00000000000E+00 0.  1.
         11    1    4    4    0    0  0.42815818829E+02  0.18110133590E+02  0.24425708989E+03  0.24864170455E+03  0.00000000000E+00 0. -1.
</event>
<event>
 8    1  0.3528896E-009  0.1364727E+03  0.7561462E-02  0.1218156E+00
         -1   -1    0    0    0  501 -0.00000000000E+00  0.00000000000E+00  0.18578005290E+02  0.18578005290E+02  0.00000000000E+00 0.  1.
          1   -1    0    0  501    0  0.00000000000E+00 -0.00000000000E+00 -0.16408295189E+04  0.16408295189E+04  0.00000000000E+00 0. -1.
         25    2    1    2    0    0  0.11850188799E+03 -0.22560124419E+02 -0.11638383602E+04  0.11767454069E+04  0.12513339783E+03 0.  0.
         23    2    1    2    0    0 -0.11850188799E+03  0.22560124419E+02 -0.45841315341E+03  0.48266211732E+03  0.90930982624E+02 0.  0.
          5    1    3    3  502    0  0.10512854335E+03  0.20358485300E+02 -0.10286600648E+04  0.10342269963E+04  0.41800000000E+01 0. -1.
         -5    1    3    3    0  502  0.13373344639E+02 -0.42918609720E+02 -0.13517829544E+03  0.14251841062E+03  0.41800000000E+01 0. -1.
        -11    1    4    4    0    0 -0.84983386503E+02  0.15722822031E+02 -0.42877984952E+03  0.43740318068E+03  0.00000000000E+00 0. -1.
         11    1    4    4    0    0 -0.33518501489E+02  0.68373023879E+01 -0.29633303889E+02  0.45258936636E+02  0.00000000000E+00 0.  1.
</event>
<event>
 8    1  0.3528896E-009  0.1177620E+03  0.7561462E-02  0.1246835E+00
         -2   -1    0    0    0  501 -0.00000000000E+00  0.00000000000E+00  0.16328628626E+02  0.16328628626E+02  0.00000000000E+00 0.  1.
          2   -1    0    0  501    0  0.00000000000E+00 -0.00000000000E+00 -0.11354272251E+04  0.11354272251E+04  0.00000000000E+00 0. -1.
         25    2    1    2    0    0  0.19804372340E+02  0.81995529510E+02 -0.76000778476E+03  0.77483869375E+03  0.12509072072E+03 0.  0.
         23    2    1    2    0    0 -0.19804372340E+02 -0.81995529510E+02 -0.35909081173E+03  0.37691715999E+03  0.77490995641E+02 0.  0.
          5    1    3    3  502    0  0.68186395552E+02  0.18282008879E+02 -0.34683677287E+03  0.35397293089E+03  0.41800000000E+01 0.  1.
         -5    1    3    3    0  502 -0.48382023213E+02  0.63713520631E+02 -0.41317101189E+03  0.42086576286E+03  0.41800000000E+01 0.  1.
        -11    1    4    4    0    0 -0.49153153985E+01 -0.96096701372E+01 -0.51600359959E+00  0.10806125361E+02  0.00000000000E+00 0.  1.
         11    1    4    4    0    0 -0.14889056941E+02 -0.72385859372E+02 -0.35857480813E+03  0.36611103463E+03  0.00000000000E+00 0. -1.
</event>
<event>
 8    1  0.3528896E-009  0.1177753E+03  0.7561462E-02  0.1246813E+00
          2   -1    0    0  501    0  0.00000000000E+00  0.00000000000E+00  0.30421521623E+02  0.30421521623E+02  0.00000000000E+00 0. -1.
         -2   -1    0    0    0  501 -0.00000000000E+00 -0.00000000000E+00 -0.55480159331E+03  0.55480159331E+03  0.00000000000E+00 0.  1.
         25    2    1    2    0    0  0.36421929290E+02 -0.40776257136E+02 -0.19067045801E+03  0.23450506905E+03  0.12509254084E+03 0.  0.
         23    2    1    2    0    0 -0.36421929290E+02  0.40776257136E+02 -0.33370961368E+03  0.35071804588E+03  0.93014952383E+02 0.  0.
          5    1    3    3  502    0  0.80041517408E+02 -0.22879813328E+02 -0.86706190905E+02  0.12027288268E+03  0.41800000000E+01 0. -1.
         -5    1    3    3    0  502 -0.43619588118E+02 -0.17896443808E+02 -0.10396426711E+03  0.11423218637E+03  0.41800000000E+01 0. -1.
        -11    1    4    4    0    0  0.13107957147E+02  0.52379154834E+02 -0.13031097279E+03  0.14105440097E+03  0.00000000000E+00 0. -1.
         11    1    4    4    0    0 -0.49529886438E+02 -0.11602897698E+02 -0.20339864088E+03  0.20966364491E+03  0.00000000000E+00 0.  1.
</event>
<event>
 8    1  0.3528896E-009  0.1150192E+03  0.7561462E-02  0.1251548E+00
          2   -1    0    0  501    0  0.00000000000E+00  0.00000000000E+00  0.26998075313E+03  0.26998075313E+03  0.00000000000E+00 0.  1.
         -2   -1    0    0    0  501 -0.00000000000E+00 -0.00000000000E+00 -0.91585845344E+02  0.91585845344E+02  0.00000000000E+00 0. -1.
         25    2    1    2    0    0  0.93742416320E+02 -0.40636340216E+02  0.15496760739E+03  0.22383171448E+03  0.12508686703E+03 0.  0.
         23    2    1    2    0    0 -0.93742416320E+02  0.40636340216E+02  0.23427300389E+02  0.13773488399E+03  0.89348235010E+02 0.  0.
          5    1    3    3  502    0  0.24380841764E+02  0.13903851023E+02  0.12852979224E+03  0.13162493081E+03  0.41800000000E+01 0.  1.
         -5    1    3    3    0  502  0.69361574556E+02 -0.54540191240E+02  0.26437815158E+02  0.92206783675E+02  0.41800000000E+01 0.  1.
        -11    1    4    4    0    0 -0.34984874279E+02  0.41862451489E+02  0.49290661707E+02  0.73525339880E+02  0.00000000000E+00 0.  1.
         11    1    4    4    0    0 -0.58757542042E+02 -0.12261112730E+01 -0.25863361317E+02  0.64209544106E+02  0.00000000000E+00 0. -1.
</event>
<event>
 8    1  0.3528896E-009  0.2249103E+03  0.7561462E-02  0.1130274E+00
         -1   -1    0    0    0  501 -0.00000000000E+00  0.00000000000E+00  0.11815776868E+03  0.11815776868E+03  0.00000000000E+00 0.  1.
          1   -1    0    0  501    0  0.00000000000E+00 -0.00000000000E+00 -0.74839579758E+03  0.74839579758E+03  0.00000000000E+00 0. -1.
         25    2    1    2    0    0 -0.18025262464E+03 -0.83109354800E+02 -0.41998724251E+02  0.23834159816E+03  0.12507857943E+03 0.  0.
         23    2    1    2    0    0  0.18025262464E+03  0.83109354800E+02 -0.58823930464E+03  0.62821196809E+03  0.96055316272E+02 0.  0.
          5    1    3    3  502    0 -0.19927770417E+03 -0.75040784847E+02 -0.33447865518E+02  0.21558978379E+03  0.41800000000E+01 0.  1.
         -5    1    3    3    0  502  0.19025079528E+02 -0.80685699532E+01 -0.85508587331E+01  0.22751814372E+02  0.41800000000E+01 0.  1.
        -11    1    4    4    0    0  0.92567536402E+02 -0.33330298378E+01 -0.19007154281E+03  0.21144041541E+03  0.00000000000E+00 0.  1.
         11    1    4    4    0    0  0.87685088236E+02  0.86442384638E+02 -0.39816776183E+03  0.41677155268E+03  0.00000000000E+00 0. -1.
</event>
<event>
 8    1  0.3528896E-009  0.1790647E+03  0.7561462E-02  0.1168711E+00
          1   -1    0    0  501    0  0.00000000000E+00  0.00000000000E+00  0.43127561676E+03  0.43127561676E+03  0.00000000000E+00 0. -1.
         -1   -1    0    0    0  501 -0.00000000000E+00 -0.00000000000E+00 -0.92781488870E+02  0.92781488870E+02  0.00000000000E+00 0.  1.
         25    2    1    2    0    0  0.66921951500E+02 -0.15394024576E+03  0.18267088516E+03  0.27783586915E+03  0.12509185042E+03 0.  0.
         23    2    1    2    0    0 -0.66921951500E+02  0.15394024576E+03  0.15582324273E+03  0.24622123648E+03  0.90376254966E+02 0.  0.
          5    1    3    3  502    0 -0.16926046342E+02 -0.31936108025E+01  0.68931748720E+02  0.71174072360E+02  0.41800000000E+01 0. -1.
         -5    1    3    3    0  502  0.83847997842E+02 -0.15074663496E+03  0.11373913644E+03  0.20666179679E+03  0.41800000000E+01 0. -1.
        -11    1    4    4    0    0 -0.15924267716E+02  0.36341846372E+02 -0.56272599982E+01  0.40074657267E+02  0.00000000000E+00 0.  1.
         11    1    4    4    0    0 -0.50997683784E+02  0.11759839939E+03  0.16145050273E+03  0.20614657921E+03  0.00000000000E+00 0. -1.
</event>
<event>
 8    1  0.3528896E-009  0.1186733E+03  0.7561462E-02  0.1245302E+00
         -1   -1    0    0    0  501 -0.00000000000E+00  0.00000000000E+00  0.22644185845E+03  0.22644185845E+03  0.00000000000E+00 0.  1.
          1   -1    0    0  501    0  0.00000000000E+00 -0.00000000000E+00 -0.64679283174E+02  0.64679283174E+02  0.00000000000E+00 0. -1.
         25    2    1    2    0    0  0.16292177466E+02 -0.47719858129E+02  0.10861839281E+03  0.17317087816E+03  0.12509027892E+03 0.  0.
         23    2    1    2    0    0 -0.16292177466E+02  0.47719858129E+02  0.53144182461E+02  0.11795026346E+03  0.92441011538E+02 0.  0.
          5    1    3    3  502    0  0.49717684140E+02 -0.75478902163E+02  0.64552876561E+02  0.11114611581E+03  0.41800000000E+01 0.  1.
         -5    1    3    3    0  502 -0.33425506674E+02  0.27759044033E+02  0.44065516251E+02  0.62024762349E+02  0.41800000000E+01 0.  1.
        -11    1    4    4    0    0  0.11248368397E+02  0.68058415106E+02  0.46180510779E+02  0.83012729350E+02  0.00000000000E+00 0.  1.
         11    1    4    4    0    0 -0.27540545863E+02 -0.20338556977E+02  0.69636716829E+01  0.34937534109E+02  0.00000000000E+00 0. -1.
</event>
<event>
 8    1  0.3528896E-009  0.1106091E+03  0.7561462E-02  0.1259446E+00
          1   -1    0    0  501    0  0.00000000000E+00  0.00000000000E+00  0.30369101226E+03  0.30369101226E+03  0.00000000000E+00 0. -1.
         -1   -1    0    0    0  501 -0.00000000000E+00 -0.00000000000E+00 -0.81405483104E+02  0.81405483104E+02  0.00000000000E+00 0.  1.
         25    2    1    2    0    0 -0.70473308248E+02 -0.35179653729E+02  0.25038283568E+02  0.14992747884E+03  0.12508892060E+03 0.  0.
         23    2    1    2    0    0  0.70473308248E+02  0.35179653729E+02  0.19724724559E+03  0.23516901653E+03  0.10096482174E+03 0.  0.
          5    1    3    3  502    0 -0.56173328017E+02 -0.70946314575E+02 -0.17634548216E+02  0.92289067734E+02  0.41800000000E+01 0. -1.
         -5    1    3    3    0  502 -0.14299980230E+02  0.35766660846E+02  0.42672831784E+02  0.57638411109E+02  0.41800000000E+01 0. -1.
        -11    1    4    4    0    0  0.63622197438E+02  0.83192823323E+01  0.40250091577E+02  0.75743411181E+02  0.00000000000E+00 0.  1.
         11    1    4    4    0    0  0.68511108093E+01  0.26860371397E+02  0.15699715401E+03  0.15942560534E+03  0.00000000000E+00 0. -1.
</event>
<event>
 8    1  0.3528896E-009  0.8209108E+02  0.7561462E-02  0.1323220E+00
         -2   -1    0    0    0  501 -0.00000000000E+00  0.00000000000E+00  0.50120125223E+02  0.50120125223E+02  0.00000000000E+00 0.  1.
          2   -1    0    0  501    0  0.00000000000E+00 -0.00000000000E+00 -0.38461458843E+03  0.38461458843E+03  0.00000000000E+00 0. -1.
         25    2    1    2    0    0  0.31177961453E+02 -0.52792394416E+02 -0.72815249580E+02  0.15718577726E+03  0.12508479449E+03 0.  0.
         23    2    1    2    0    0 -0.31177961453E+02  0.52792394416E+02 -0.26167921362E+03  0.27754893639E+03  0.69269755737E+02 0.  0.
          5    1    3    3  502    0 -0.91043921309E+00 -0.36372784962E+02 -0.10342170750E+03  0.10971476823E+03  0.41800000000E+01 0.  1.
         -5    1    3    3    0  502  0.32088400666E+02 -0.16419609453E+02  0.30606457920E+02  0.47471009030E+02  0.41800000000E+01 0.  1.
        -11    1    4    4    0    0 -0.52077660195E+02  0.45444690568E+02 -0.21584621486E+03  0.22664265058E+03  0.00000000000E+00 0. -1.
         11    1    4    4    0    0  0.20899698742E+02  0.73477038474E+01 -0.45832998766E+02  0.50906285812E+02  0.00000000000E+00 0.  1.
</event>
<event>
 7    1  0.3528896E-009  0.1230241E+03  0.7561462E-02  0.1238190E+00
         -1   -1    0    0    0  501 -0.00000000000E+00  0.00000000000E+00  0.14227795631E+03  0.14227795631E+03  0.00000000000E+00 0.  1.
          1   -1    0    0  501    0  0.00000000000E+00 -0.00000000000E+00 -0.19477351704E+03  0.19477351704E+03  0.00000000000E+00 0. -1.
         23    2    1    2    0    0  0.41702187629E+02 -0.78235723612E+02 -0.11528549203E+03  0.17142344882E+03  0.90748846992E+02 0.  0.
          5    1    1    2  502    0  0.19094022921E+01 -0.33204494731E+02  0.13512945187E+02  0.36142168932E+02  0.41800000000E+01 0. -1.
         -5    1    1    2    0  502 -0.43611589922E+02  0.11144021834E+03  0.49276986107E+02  0.12948585560E+03  0.41800000000E+01 0. -1.
        -11    1    3    3    0    0  0.37284583179E+02 -0.41519482539E+02 -0.60886515861E+01  0.56134474712E+02  0.00000000000E+00 0.  1.
         11    1    3    3    0    0  0.44176044508E+01 -0.36716241073E+02 -0.10919684045E+03  0.11528897411E+03  0.00000000000E+00 0. -1.
</event>
<event>
 8    1  0.3528896E-009  0.1484944E+03  0.7561462E-02  0.1202335E+00
          1   -1    0    0  501    0  0.00000000000E+00  0.00000000000E+00  0.48411717350E+03  0.48411717350E+03  0.00000000000E+00 0. -1.
         -1   -1    0    0    0  501 -0.00000000000E+00 -0.00000000000E+00 -0.15864500254E+03  0.15864500254E+03  0.00000000000E+00 0.  1.
         25    2    1    2    0    0  0.11371373633E+03  0.25499687744E+02 -0.95934883461E+02  0.19603983199E+03  0.12508823268E+03 0.  0.
         23    2    1    2    0    0 -0.11371373633E+03 -0.25499687744E+02  0.42140705442E+03  0.44672234405E+03  0.91629139767E+02 0.  0.
          5    1    3    3  502    0  0.93212728594E+02 -0.25320502417E+02 -0.14452306324E+02  0.97755215578E+02  0.41800000000E+01 0. -1.
         -5    1    3    3    0  502  0.20501007736E+02  0.50820190161E+02 -0.81482577137E+02  0.98284616411E+02  0.41800000000E+01 0. -1.
        -11    1    4    4    0    0 -0.11967268269E+03 -0.42765183289E+02  0.39218778043E+03  0.41226407435E+03  0.00000000000E+00 0. -1.
         11    1    4    4    0    0  0.59589463586E+01  0.17265495545E+02  0.29219273995E+02  0.34458269703E+02  0.00000000000E+00 0.  1.
</event>
<event>
 7    1  0.3528896E-009  0.9992899E+02  0.7561462E-02  0.1280445E+00
          2   -1    0    0  501    0  0.00000000000E+00  0.00000000000E+00  0.31847720097E+02  0.31847720097E+02  0.00000000000E+00 0. -1.
         -2   -1    0    0    0  501 -0.00000000000E+00 -0.00000000000E+00 -0.60681164546E+03  0.60681164546E+03  0.00000000000E+00 0.  1.
         23    2    1    2    0    0 -0.74545656809E+02  0.16031672054E+02 -0.16975308250E+03  0.20779924580E+03  0.92468092221E+02 0.  0.
          5    1    1    2  502    0  0.58412104681E+02 -0.21635013334E+02 -0.40826772759E+03  0.41301338666E+03  0.41800000000E+01 0. -1.
         -5    1    1    2    0  502  0.16133552128E+02  0.56033412800E+01  0.30568847267E+01  0.17846733091E+02  0.41800000000E+01 0. -1.
        -11    1    3    3    0    0 -0.32907874744E+02 -0.38876710339E+02 -0.73239018848E+02  0.89209196324E+02  0.00000000000E+00 0.  1.
         11    1    3    3    0    0 -0.41637782065E+02  0.54908382392E+02 -0.96514063657E+02  0.11859004948E+03  0.00000000000E+00 0. -1.
</event>
<event>
 8    1  0.3528896E-009  0.2169324E+03  0.7561462E-02  0.1136191E+00
          1   -1    0    0  501    0  0.00000000000E+00  0.00000000000E+00  0.35096731852E+03  0.35096731852E+03  0.00000000000E+00 0. -1.
         -1   -1    0    0    0  501 -0.00000000000E+00 -0.00000000000E+00 -0.16514773084E+03  0.16514773084E+03  0.00000000000E+00 0.  1.
         25    2    1    2    0    0 -0.17197089205E+02  0.19545382538E+03  0.18867856798E+03  0.29957488428E+03  0.12509025361E+03 0.  0.
         23    2    1    2    0    0  0.17197089205E+02 -0.19545382538E+03 -0.28589803001E+01  0.21654016508E+03  0.91561627302E+02 0.  0.
          5    1    3    3  502    0 -0.59328044668E+02  0.50930146240E+02  0.39905769852E+02  0.87884239472E+02  0.41800000000E+01 0.  1.
         -5    1    3    3    0  502  0.42130955463E+02  0.14452367914E+03  0.14877279812E+03  0.21169064481E+03  0.41800000000E+01 0.  1.
        -11    1    4    4    0    0  0.38025464997E+02 -0.94078698617E+02  0.33479494969E+02  0.10685323629E+03  0.00000000000E+00 0. -1.
         11    1    4    4    0    0 -0.20828375792E+02 -0.10137512676E+03 -0.36338475269E+02  0.10968692879E+03  0.00000000000E+00 0.  1.
</event>
<event>
 8    1  0.3528896E-009  0.8711123E+02  0.7561462E-02  0.1310002E+00
         -2   -1    0    0    0  501 -0.00000000000E+00  0.00000000000E+00  0.11679209418E+03  0.11679209418E+03  0.00000000000E+00 0.  1.
          2   -1    0    0  501    0  0.00000000000E+00 -0.00000000000E+00 -0.11363781441E+03  0.11363781441E+03  0.00000000000E+00 0. -1.
         25    2    1    2    0    0  0.30668437599E+02 -0.56585329368E+01 -0.91965913613E+01  0.12924533382E+03  0.12508879630E+03 0.  0.
         23    2    1    2    0    0 -0.30668437599E+02  0.56585329368E+01  0.12350871129E+02  0.10118457477E+03  0.95463092838E+02 0.  0.
          5    1    3    3  502    0  0.78993583606E+02 -0.68775316393E+00 -0.13675431805E+02  0.80280440272E+02  0.41800000000E+01 0. -1.
         -5    1    3    3    0  502 -0.48325146006E+02 -0.49707797729E+01  0.44788404434E+01  0.48964893544E+02  0.41800000000E+01 0. -1.
        -11    1    4    4    0    0 -0.15652894537E+02  0.20131436431E+02 -0.38524947294E+02  0.46200210001E+02  0.00000000000E+00 0. -1.
         11    1    4    4    0    0 -0.15015543062E+02 -0.14472903494E+02  0.50875818423E+02  0.54984364770E+02  0.00000000000E+00 0.  1.
</event>
<event>
 8    1  0.3528896E-009  0.1009926E+03  0.7561462E-02  0.1278222E+00
          2   -1    0    0  501    0  0.00000000000E+00  0.00000000000E+00  0.17627844794E+03  0.17627844794E+03  0.00000000000E+00 0. -1.
         -2   -1    0    0    0  501 -0.00000000000E+00 -0.00000000000E+00 -0.72810500145E+02  0.72810500145E+02  0.00000000000E+00 0.  1.
         25    2    1    2    0    0  0.12344192725E+02 -0.12853515814E+02  0.27499734120E+02  0.12931020397E+03  0.12508917424E+03 0.  0.
         23    2    1    2    0    0 -0.12344192725E+02  0.12853515814E+02  0.75968213671E+02  0.11977874411E+03  0.90874562391E+02 0.  0.
          5    1    3    3  502    0  0.60748218644E+02 -0.70389550920E+00  0.45581440912E+02  0.76065640686E+02  0.41800000000E+01 0.  1.
         -5    1    3    3    0  502 -0.48404025919E+02 -0.12149620305E+02 -0.18081706793E+02  0.53244563284E+02  0.41800000000E+01 0.  1.
        -11    1    4    4    0    0  0.14898898174E+02 -0.33825602135E+02  0.20213849072E+02  0.42127760692E+02  0.00000000000E+00 0.  1.
         11    1    4    4    0    0 -0.27243090899E+02  0.46679117949E+02  0.55754364599E+02  0.77650983420E+02  0.00000000000E+00 0. -1.
</event>
<event>
 7    1  0.3528896E-009  0.9444659E+02  0.7561462E-02  0.1292427E+00
         -1   -1    0    0    0  501 -0.00000000000E+00  0.00000000000E+00  0.60746948337E+03  0.60746948337E+03  0.00000000000E+00 0. -1.
          1   -1    0    0  501    0  0.00000000000E+00 -0.00000000000E+00 -0.26823164937E+02  0.26823164937E+02  0.00000000000E+00 0.  1.
         23    2    1    2    0    0  0.10986555870E+02  0.32247419225E+02  0.40035656693E+03  0.41214234473E+03  0.91735114200E+02 0.  0.
          5    1    1    2  502    0 -0.10063354740E+02 -0.61221909720E+02  0.18247524177E+03  0.19277987342E+03  0.41800000000E+01 0.  1.
         -5    1    1    2    0  502 -0.92320112962E+00  0.28974490495E+02 -0.21854902663E+01  0.29370430155E+02  0.41800000000E+01 0.  1.
        -11    1    3    3    0    0  0.51449806165E+02  0.18924129766E+02  0.20576998380E+03  0.21294715653E+03  0.00000000000E+00 0. -1.
         11    1    3    3    0    0 -0.40463250295E+02  0.13323289458E+02  0.19458658313E+03  0.19919518820E+03  0.00000000000E+00 0.  1.
</event>
<event>
 8    1  0.3528896E-009  0.1180566E+03  0.7561462E-02  0.1246338E+00
          1   -1    0    0  501    0  0.00000000000E+00  0.00000000000E+00  0.15043683900E+03  0.15043683900E+03  0.00000000000E+00 0. -1.
         -1   -1    0    0    0  501 -0.00000000000E+00 -0.00000000000E+00 -0.10208063759E+03  0.10208063759E+03  0.00000000000E+00 0.  1.
         25    2    1    2    0    0  0.47191182023E+02 -0.36984136360E+02  0.98240948218E+01  0.13906148476E+03  0.12508696855E+03 0.  0.
         23    2    1    2    0    0 -0.47191182023E+02  0.36984136360E+02  0.38532106592E+02  0.11345599183E+03  0.88276298301E+02 0.  0.
          5    1    3    3  502    0  0.11134153392E+02 -0.77846003417E+02 -0.13029646560E+02  0.79819882919E+02  0.41800000000E+01 0. -1.
         -5    1    3    3    0  502  0.36057028630E+02  0.40861867057E+02  0.22853741382E+02  0.59241601837E+02  0.41800000000E+01 0. -1.
        -11    1    4    4    0    0 -0.54482035291E+02 -0.98023665622E+01  0.53062038578E+01  0.55610559780E+02  0.00000000000E+00 0.  1.
         11    1    4    4    0    0  0.72908532678E+01  0.46786502922E+02  0.33225902735E+02  0.57845432055E+02  0.00000000000E+00 0. -1.
</event>
<event>
 8    1  0.3528896E-009  0.1667734E+03  0.7561462E-02  0.1181255E+00
         -2   -1    0    0    0  501 -0.00000000000E+00  0.00000000000E+00  0.39919081735E+02  0.39919081735E+02  0.00000000000E+00 0. -1.
          2   -1    0    0  501    0  0.00000000000E+00 -0.00000000000E+00 -0.96395193344E+03  0.96395193344E+03  0.00000000000E+00 0.  1.
         25    2    1    2    0    0  0.44684994179E+02 -0.14370064937E+03 -0.61889458844E+03  0.64909507877E+03  0.12508910564E+03 0.  0.
         23    2    1    2    0    0 -0.44684994179E+02  0.14370064937E+03 -0.30513826327E+03  0.35477593640E+03  0.10054839634E+03 0.  0.
          5    1    3    3  502    0  0.50647506225E+02 -0.11625083011E+03 -0.60369740243E+03  0.61688528228E+03  0.41800000000E+01 0.  1.
         -5    1    3    3    0  502 -0.59625120458E+01 -0.27449819268E+02 -0.15197186009E+02  0.32209796496E+02  0.41800000000E+01 0.  1.
        -11    1    4    4    0    0 -0.54768217438E+02  0.26861906907E+02 -0.13493106794E+03  0.14807941376E+03  0.00000000000E+00 0.  1.
         11    1    4    4    0    0  0.10083223259E+02  0.11683874247E+03 -0.17020719532E+03  0.20669652264E+03  0.00000000000E+00 0. -1.
</event>
<event>
 8    1  0.3528896E-009  0.1251742E+03  0.7561462E-02  0.1234797E+00
          2   -1    0    0  501    0  0.00000000000E+00  0.00000000000E+00  0.32536914351E+03  0.32536914351E+03  0.00000000000E+00 0. -1.
         -2   -1    0    0    0  501 -0.00000000000E+00 -0.00000000000E+00 -0.51256590235E+02  0.51256590235E+02  0.00000000000E+00 0.  1.
         25    2    1    2    0    0 -0.25422625640E+01 -0.63226925412E+02  0.19825168601E+03  0.24280485120E+03  0.12508540108E+03 0.  0.
         23    2    1    2    0    0  0.25422625640E+01  0.63226925412E+02  0.75860867264E+02  0.13382088255E+03  0.90272089974E+02 0.  0.
          5    1    3    3  502    0  0.28203691428E+02 -0.92899539624E+02  0.14101773596E+03  0.17125783757E+03  0.41800000000E+01 0. -1.
         -5    1    3    3    0  502 -0.30745953992E+02  0.29672614212E+02  0.57233950053E+02  0.71547013632E+02  0.41800000000E+01 0. -1.
        -11    1    4    4    0    0  0.46289268457E+02  0.28254072182E+02  0.37763202183E+02  0.66083647056E+02  0.00000000000E+00 0.  1.
         11    1    4    4    0    0 -0.43747005893E+02  0.34972853230E+02  0.38097665080E+02  0.67737235493E+02  0.00000000000E+00 0. -1.
</event>
<event>
 8    1  0.3528896E-009  0.1315690E+03  0.7561462E-02  0.1225146E+00
         -2   -1    0    0    0  501 -0.00000000000E+00  0.00000000000E+00  0.77483730500E+03  0.77483730500E+03  0.00000000000E+00 0.  1.
          2   -1    0    0  501    0  0.00000000000E+00 -0.00000000000E+00 -0.36477871439E+02  0.36477871439E+02  0.00000000000E+00 0. -1.
         25    2    1    2    0    0  0.11266936800E+03 -0.52724265335E+02  0.46638877341E+03  0.49863829331E+03  0.12508966761E+03 0.  0.
         23    2    1    2    0    0 -0.11266936800E+03  0.52724265335E+02  0.27197066014E+03  0.31267688313E+03  0.91239019197E+02 0.  0.
          5    1    3    3  502    0  0.53097779079E+02 -0.15618555979E+01  0.37194370737E+03  0.37574114412E+03  0.41800000000E+01 0. -1.
         -5    1    3    3    0  502  0.59571588923E+02 -0.51162409737E+02  0.94445066044E+02  0.12289714918E+03  0.41800000000E+01 0. -1.
        -11    1    4    4    0    0 -0.10088325122E+02  0.21886519890E+02  0.14303748459E+03  0.14505349377E+03  0.00000000000E+00 0.  1.
         11    1    4    4    0    0 -0.10258104288E+03  0.30837745444E+02  0.12893317555E+03  0.16762338936E+03  0.00000000000E+00 0. -1.
</event>
<event>
 8    1  0.3528896E-009  0.4533667E+03  0.7561462E-02  0.1026723E+00
          2   -1    0    0  501    0  0.00000000000E+00  0.00000000000E+00  0.17757017856E+04  0.17757017856E+04  0.00000000000E+00 0. -1.
         -2   -1    0    0    0  501 -0.00000000000E+00 -0.00000000000E+00 -0.14721106234E+03  0.14721106234E+03  0.00000000000E+00 0.  1.
         25    2    1    2    0    0 -0.44188755052E+03 -0.86071303516E+02  0.41337432651E+03  0.62386054183E+03  0.12510301851E+03 0.  0.
         23    2    1    2    0    0  0.44188755052E+03  0.86071303516E+02  0.12151163968E+04  0.12990523062E+04  0.91412033073E+02 0.  0.
          5    1    3    3  502    0 -0.14429651378E+03  0.72057718467E+01  0.19668055626E+03  0.24407810359E+03  0.41800000000E+01 0.  1.
         -5    1    3    3    0  502 -0.29759103673E+03 -0.93277075363E+02  0.21669377025E+03  0.37978243824E+03  0.41800000000E+01 0.  1.
        -11    1    4    4    0    0  0.34561322829E+03  0.71485229364E+02  0.83210117850E+03  0.90385342443E+03  0.00000000000E+00 0.  1.
         11    1    4    4    0    0  0.96274322233E+02  0.14586074152E+02  0.38301521828E+03  0.39519888173E+03  0.00000000000E+00 0. -1.
</event>
<event>
 8    1  0.3528896E-009  0.2142066E+03  0.7561462E-02  0.1138277E+00
          1   -1    0    0  501    0  0.00000000000E+00  0.00000000000E+00  0.18352849928E+03  0.18352849928E+03  0.00000000000E+00 0. -1.
         -1   -1    0    0    0  501 -0.00000000000E+00 -0.00000000000E+00 -0.29161008883E+03  0.29161008883E+03  0.00000000000E+00 0.  1.
         25    2    1    2    0    0  0.19885498553E+03  0.46984819346E+02 -0.46727157768E+02  0.24409375622E+03  0.12508979187E+03 0.  0.
         23    2    1    2    0    0 -0.19885498553E+03 -0.46984819346E+02 -0.61354431780E+02  0.23104483189E+03  0.88693119944E+02 0.  0.
          5    1    3    3  502    0  0.60245445279E+01 -0.17224269895E+02  0.22570965349E+02  0.29323906407E+02  0.41800000000E+01 0.  1.
         -5    1    3    3    0  502  0.19283044100E+03  0.64209089241E+02 -0.69298123117E+02  0.21476984981E+03  0.41800000000E+01 0.  1.
        -11    1    4    4    0    0 -0.15152729530E+03 -0.48376371227E+02 -0.82505819056E+02  0.17918706620E+03  0.00000000000E+00 0.  1.
         11    1    4    4    0    0 -0.47327690233E+02  0.13915518812E+01  0.21151387276E+02  0.51857765697E+02  0.00000000000E+00 0. -1.
</event>
<event>
 7    1  0.3528896E-009  0.1249465E+03  0.7561462E-02  0.1235153E+00
         -1   -1    0    0    0  501 -0.00000000000E+00  0.00000000000E+00  0.37875634152E+02  0.37875634152E+02  0.00000000000E+00 0.  1.
          1   -1    0    0  501    0  0.00000000000E+00 -0.00000000000E+00 -0.46490578266E+03  0.46490578266E+03  0.00000000000E+00 0. -1.
         23    2    1    2    0    0 -0.11985001539E+02 -0.70564948542E+02 -0.23140315487E+03  0.25950356761E+03  0.93121583399E+02 0.  0.
          5    1    1    2  502    0  0.52553514537E+02  0.78642081201E+02 -0.93733267414E+02  0.13322855042E+03  0.41800000000E+01 0. -1.
         -5    1    1    2    0  502 -0.40568512998E+02 -0.80771326590E+01 -0.10189372622E+03  0.11004929878E+03  0.41800000000E+01 0. -1.
        -11    1    3    3    0    0 -0.49197289858E+02 -0.26214867919E+02 -0.14643430052E+03  0.15668630125E+03  0.00000000000E+00 0. -1.
         11    1    3    3    0    0  0.37212288319E+02 -0.44350080624E+02 -0.84968854344E+02  0.10281726636E+03  0.00000000000E+00 0.  1.
</event>
<event>
 8    1  0.3528896E-009  0.1975483E+03  0.7561462E-02  0.1151824E+00
          2   -1    0    0  501    0  0.00000000000E+00  0.00000000000E+00  0.26443149739E+04  0.26443149739E+04  0.00000000000E+00 0. -1.
         -2   -1    0    0    0  501 -0.00000000000E+00 -0.00000000000E+00 -0.20959449421E+02  0.20959449421E+02  0.00000000000E+00 0.  1.
         25    2    1    2    0    0  0.24688335252E+02 -0.18779233688E+03  0.18655009997E+04  0.18792597170E+04  0.12509048018E+03 0.  0.
         23    2    1    2    0    0 -0.24688335252E+02  0.18779233688E+03  0.75785452475E+03  0.78601470633E+03  0.87178909110E+02 0.  0.
          5    1    3    3  502    0  0.23127605802E+02 -0.11001351720E+03  0.15575382652E+04  0.15615955879E+04  0.41800000000E+01 0.  1.
         -5    1    3    3    0  502  0.15607294493E+01 -0.77778819684E+02  0.30796273454E+03  0.31766412913E+03  0.41800000000E+01 0.  1.
        -11    1    4    4    0    0 -0.52402557773E+02  0.13945034945E+03  0.47836331607E+03  0.50102284398E+03  0.00000000000E+00 0. -1.
         11    1    4    4    0    0  0.27714222522E+02  0.48341987425E+02  0.27949120868E+03  0.28499186236E+03  0.00000000000E+00 0.  1.
</event>
<event>
 8    1  0.3528896E-009  0.2914805E+03  0.7561462E-02  0.1089579E+00
          1   -1    0    0  501    0  0.00000000000E+00  0.00000000000E+00  0.61970690560E+03  0.61970690560E+03  0.00000000000E+00 0. -1.
         -1   -1    0    0    0  501 -0.00000000000E+00 -0.00000000000E+00 -0.15107049557E+03  0.15107049557E+03  0.00000000000E+00 0.  1.
         25    2    1    2    0    0  0.82173498564E+02  0.27330181842E+03  0.25652820288E+03  0.40360999339E+03  0.12509172664E+03 0.  0.
         23    2    1    2    0    0 -0.82173498564E+02 -0.27330181842E+03  0.21210820714E+03  0.36716740778E+03  0.91518555392E+02 0.  0.
          5    1    3    3  502    0  0.75821489302E+01  0.83869974085E+02  0.11632953173E+02  0.85114390881E+02  0.41800000000E+01 0.  1.
         -5    1    3    3    0  502  0.74591349633E+02  0.18943184434E+03  0.24489524970E+03  0.31849560251E+03  0.41800000000E+01 0.  1.
        -11    1    4    4    0    0 -0.90280344267E+02 -0.18010907050E+03  0.11346872583E+03  0.23122493287E+03  0.00000000000E+00 0.  1.
         11    1    4    4    0    0  0.81068457035E+01 -0.93192747919E+02  0.98639481314E+02  0.13594247491E+03  0.00000000000E+00 0. -1.
</event>
<event>
 8    1  0.3528896E-009  0.8418567E+02  0.7561462E-02  0.1317576E+00
         -1   -1    0    0    0  501 -0.00000000000E+00  0.00000000000E+00  0.91353151435E+02  0.91353151435E+02  0.00000000000E+00 0.  1.
          1   -1    0    0  501    0  0.00000000000E+00 -0.00000000000E+00 -0.23421836383E+03  0.23421836383E+03  0.00000000000E+00 0. -1.
         25    2    1    2    0    0  0.58070960237E+02  0.32980347409E+02  0.18916261168E+01  0.14180953526E+03  0.12508567586E+03 0.  0.
         23    2    1    2    0    0 -0.58070960237E+02 -0.32980347409E+02 -0.14475683851E+03  0.18376198000E+03  0.91400127242E+02 0.  0.
          5    1    3    3  502    0  0.54330096027E+00 -0.21679551740E+02 -0.44582253338E+02  0.49752867779E+02  0.41800000000E+01 0. -1.
         -5    1    3    3    0  502  0.57527659276E+02  0.54659899149E+02  0.46473879455E+02  0.92056667485E+02  0.41800000000E+01 0. -1.
        -11    1    4    4    0    0 -0.31071424841E+02 -0.16343680601E+02 -0.14779087269E+03  0.15190355949E+03  0.00000000000E+00 0. -1.
         11    1    4    4    0    0 -0.26999535396E+02 -0.16636666809E+02  0.30340341714E+01  0.31858420511E+02  0.00000000000E+00 0.  1.
</event>
<event>
 8    1  0.3528896E-009  0.2082543E+03  0.7561462E-02  0.1142956E+00
          1   -1    0    0  501    0  0.00000000000E+00  0.00000000000E+00  0.49170837333E+03  0.49170837333E+03  0.00000000000E+00 0. -1.
         -1   -1    0    0    0  501 -0.00000000000E+00 -0.00000000000E+00 -0.10213795682E+03  0.10213795682E+03  0.00000000000E+00 0.  1.
         25    2    1    2    0    0  0.99449371906E+02  0.16096802651E+03  0.26813814498E+03  0.35120732467E+03  0.12509051516E+03 0.  0.
         23    2    1    2    0    0 -0.99449371906E+02 -0.16096802651E+03  0.12143227153E+03  0.24263900548E+03  0.91252437120E+02 0.  0.
          5    1    3    3  502    0  0.79979090472E+02  0.18135110190E+03  0.23742960755E+03  0.30931402816E+03  0.41800000000E+01 0. -1.
         -5    1    3    3    0  502  0.19470281434E+02 -0.20383075399E+02  0.30708537422E+02  0.41893296510E+02  0.41800000000E+01 0. -1.
        -11    1    4    4    0    0 -0.52929569905E+02 -0.71924040403E+02  0.10976156156E+03  0.14149984931E+03  0.00000000000E+00 0. -1.
         11    1    4    4    0    0 -0.46519802002E+02 -0.89043986102E+02  0.11670709972E+02  0.10113915617E+03  0.00000000000E+00 0.  1.
</event>
<event>
 8    1  0.3528896E-009  0.1220867E+03  0.7561462E-02  0.1239694E+00
         -1   -1    0    0    0  501 -0.00000000000E+00  0.00000000000E+00  0.30812450158E+02  0.30812450158E+02  0.00000000000E+00 0.  1.
          1   -1    0    0  501    0  0.00000000000E+00 -0.00000000000E+00 -0.72278849351E+03  0.72278849351E+03  0.00000000000E+00 0. -1.
         25    2    1    2    0    0 -0.13769195501E+02  0.40080540768E+02 -0.55483187204E+03  0.57032417912E+03  0.12504088357E+03 0.  0.
         23    2    1    2    0    0  0.13769195501E+02 -0.40080540768E+02 -0.13714417131E+03  0.18327676455E+03  0.11395529038E+03 0.  0.
          5    1    3    3  502    0 -0.67203419893E+02  0.38314991122E+02 -0.29394127993E+03  0.30397908914E+03  0.41800000000E+01 0.  1.
         -5    1    3    3    0  502  0.53434224392E+02  0.17655496454E+01 -0.26089059211E+03  0.26634508998E+03  0.41800000000E+01 0.  1.
        -11    1    4    4    0    0  0.57041555029E+02 -0.47994513083E+01 -0.35642270219E+02  0.67432523009E+02  0.00000000000E+00 0.  1.
         11    1    4    4    0    0 -0.43272359528E+02 -0.35281089459E+02 -0.10150190109E+03  0.11584424154E+03  0.00000000000E+00 0. -1.
</event>
<event>
 8    1  0.3528896E-009  0.1476296E+03  0.7561462E-02  0.1203416E+00
          1   -1    0    0  501    0  0.00000000000E+00  0.00000000000E+00  0.16345987868E+03  0.16345987868E+03  0.00000000000E+00 0. -1.
         -1   -1    0    0    0  501 -0.00000000000E+00 -0.00000000000E+00 -0.17192431982E+03  0.17192431982E+03  0.00000000000E+00 0.  1.
         25    2    1    2    0    0  0.10878227583E+03 -0.31328115746E+02  0.56354549046E+02  0.17787126233E+03  0.12508923372E+03 0.  0.
         23    2    1    2    0    0 -0.10878227583E+03  0.31328115746E+02 -0.64818990188E+02  0.15751293617E+03  0.88282439936E+02 0.  0.
          5    1    3    3  502    0  0.25588620413E+02  0.41192147074E+02 -0.90599989312E+01  0.49508852298E+02  0.41800000000E+01 0.  1.
         -5    1    3    3    0  502  0.83193655420E+02 -0.72520262820E+02  0.65414547977E+02  0.12836241003E+03  0.41800000000E+01 0.  1.
        -11    1    4    4    0    0 -0.89802314573E+02 -0.10300561091E+02 -0.65712596738E+02  0.11175286409E+03  0.00000000000E+00 0.  1.
         11    1    4    4    0    0 -0.18979961259E+02  0.41628676837E+02  0.89360655052E+00  0.45760072085E+02  0.00000000000E+00 0. -1.
</event>
<event>
 8    1  0.3528896E-009  0.1224588E+03  0.7561462E-02  0.1239095E+00
         -1   -1    0    0    0  501 -0.00000000000E+00  0.00000000000E+00  0.11357603104E+03  0.11357603104E+03  0.00000000000E+00 0.  1.
          1   -1    0    0  501    0  0.00000000000E+00 -0.00000000000E+00 -0.18379922361E+03  0.18379922361E+03  0.00000000000E+00 0. -1.
         25    2    1    2    0    0 -0.48264903031E+02 -0.45776408018E+02 -0.10827014802E+03  0.17831300929E+03  0.12509246154E+03 0.  0.
         23    2    1    2    0    0  0.48264903031E+02  0.45776408018E+02  0.38046955445E+02  0.11906224536E+03  0.91122264325E+02 0.  0.
          5    1    3    3  502    0 -0.75938006026E+02  0.10390403654E+02 -0.74861765778E+02  0.10722078913E+03  0.41800000000E+01 0.  1.
         -5    1    3    3    0  502  0.27673102995E+02 -0.56166811671E+02 -0.33408382245E+02  0.71092220158E+02  0.41800000000E+01 0.  1.
        -11    1    4    4    0    0 -0.21302225200E+02 -0.14030918614E+01  0.26789357185E+02  0.34255264174E+02  0.00000000000E+00 0.  1.
         11    1    4    4    0    0  0.69567128231E+02  0.47179499879E+02  0.11257598260E+02  0.84806981185E+02  0.00000000000E+00 0. -1.
</event>
<event>
 8    1  0.3528896E-009  0.1919798E+03  0.7561462E-02  0.1156688E+00
          1   -1    0    0  501    0  0.00000000000E+00  0.00000000000E+00  0.73540011897E+03  0.73540011897E+03  0.00000000000E+00 0. -1.
         -1   -1    0    0    0  501 -0.00000000000E+00 -0.00000000000E+00 -0.80920346319E+02  0.80920346319E+02  0.00000000000E+00 0.  1.
         25    2    1    2    0    0  0.12570537707E+03  0.13564597322E+03  0.53173608268E+03  0.57670844114E+03  0.12509073742E+03 0.  0.
         23    2    1    2    0    0 -0.12570537707E+03 -0.13564597322E+03  0.12274368997E+03  0.23961202415E+03  0.90256505654E+02 0.  0.
          5    1    3    3  502    0  0.88507414175E+02  0.66061521905E+02  0.14683850895E+03  0.18378440399E+03  0.41800000000E+01 0.  1.
         -5    1    3    3    0  502  0.37197962893E+02  0.69584451318E+02  0.38489757373E+03  0.39292403715E+03  0.41800000000E+01 0.  1.
        -11    1    4    4    0    0 -0.44169479135E+02 -0.91736653244E+02  0.10318643278E+03  0.14496205140E+03  0.00000000000E+00 0. -1.
         11    1    4    4    0    0 -0.81535897932E+02 -0.43909319979E+02  0.19557257191E+02  0.94649972749E+02  0.00000000000E+00 0.  1.
</event>
<event>
 8    1  0.3528896E-009  0.7655476E+02  0.7561462E-02  0.1339123E+00
          2   -1    0    0  501    0  0.00000000000E+00  0.00000000000E+00  0.78140101786E+03  0.78140101786E+03  0.00000000000E+00 0. -1.
         -2   -1    0    0    0  501 -0.00000000000E+00 -0.00000000000E+00 -0.17920472690E+02  0.17920472690E+02  0.00000000000E+00 0.  1.
         25    2    1    2    0    0  0.30540694941E+02 -0.80223756432E+01  0.54359313451E+03  0.55869295218E+03  0.12508887389E+03 0.  0.
         23    2    1    2    0    0 -0.30540694941E+02  0.80223756432E+01  0.21988741066E+03  0.24062853837E+03  0.92490689006E+02 0.  0.
          5    1    3    3  502    0  0.14116018329E+02 -0.35070786372E+02  0.44332053477E+02  0.58412544849E+02  0.41800000000E+01 0. -1.
         -5    1    3    3    0  502  0.16424676612E+02  0.27048410729E+02  0.49926108104E+03  0.50028040733E+03  0.41800000000E+01 0. -1.
        -11    1    4    4    0    0 -0.56011697355E+02 -0.13118018096E+01  0.19799423536E+03  0.20576867667E+03  0.00000000000E+00 0. -1.
         11    1    4    4    0    0  0.25471002414E+02  0.93341774528E+01  0.21893175300E+02  0.34859861695E+02  0.00000000000E+00 0.  1.
</event>
<event>
 8    1  0.3528896E-009  0.9330387E+02  0.7561462E-02  0.1295043E+00
         -2   -1    0    0    0  501 -0.00000000000E+00  0.00000000000E+00  0.13598324874E+03  0.13598324874E+03  0.00000000000E+00 0.  1.
          2   -1    0    0  501    0  0.00000000000E+00 -0.00000000000E+00 -0.11197706530E+03  0.11197706530E+03  0.00000000000E+00 0. -1.
         25    2    1    2    0    0  0.19212258213E+02 -0.39747883689E+02 -0.25167936687E+02  0.13506838598E+03  0.12514407190E+03 0.  0.
         23    2    1    2    0    0 -0.19212258213E+02  0.39747883689E+02  0.49174120125E+02  0.11289192805E+03  0.91528619600E+02 0.  0.
          5    1    3    3  502    0  0.12644534849E+01  0.43530420235E+02 -0.23715028360E+02  0.49763152016E+02  0.41800000000E+01 0. -1.
         -5    1    3    3    0  502  0.17947804728E+02 -0.83278303925E+02 -0.14529083269E+01  0.85305233965E+02  0.41800000000E+01 0. -1.
        -11    1    4    4    0    0 -0.17783221829E+02 -0.91730038832E-02 -0.23840634479E+02  0.29742543858E+02  0.00000000000E+00 0. -1.
         11    1    4    4    0    0 -0.14290363840E+01  0.39757056693E+02  0.73014754605E+02  0.83149384194E+02  0.00000000000E+00 0.  1.
</event>
<event>
 8    1  0.3528896E-009  0.1235095E+03  0.7561462E-02  0.1237417E+00
          2   -1    0    0  501    0  0.00000000000E+00  0.00000000000E+00  0.31700544336E+03  0.31700544336E+03  0.00000000000E+00 0. -1.
         -2   -1    0    0    0  501 -0.00000000000E+00 -0.00000000000E+00 -0.62595181130E+02  0.62595181130E+02  0.00000000000E+00 0.  1.
         25    2    1    2    0    0 -0.86976167566E+02  0.23110352121E+02  0.15928137357E+03  0.22161548576E+03  0.12507567894E+03 0.  0.
         23    2    1    2    0    0  0.86976167566E+02 -0.23110352121E+02  0.95128888659E+02  0.15798513873E+03  0.88379050137E+02 0.  0.
          5    1    3    3  502    0 -0.15719769721E+02  0.51916873609E+02  0.12419632450E+02  0.55804951354E+02  0.41800000000E+01 0. -1.
         -5    1    3    3    0  502 -0.71256397845E+02 -0.28806521489E+02  0.14686174112E+03  0.16581053440E+03  0.41800000000E+01 0. -1.
        -11    1    4    4    0    0 -0.10298175718E+01 -0.27506169988E+02 -0.10487855177E+01  0.27545414550E+02  0.00000000000E+00 0. -1.
         11    1    4    4    0    0  0.88005985138E+02  0.43958178677E+01  0.96177674177E+02  0.13043972418E+03  0.00000000000E+00 0.  1.
</event>
<event>
 8    1  0.3528896E-009  0.1096508E+03  0.7561462E-02  0.1261218E+00
         -2   -1    0    0    0  501 -0.00000000000E+00  0.00000000000E+00  0.25492479446E+02  0.25492479446E+02  0.00000000000E+00 0.  1.
          2   -1    0    0  501    0  0.00000000000E+00 -0.00000000000E+00 -0.75381828742E+03  0.75381828742E+03  0.00000000000E+00 0. -1.
         25    2    1    2    0    0  0.32090802354E+01 -0.81018443452E+02 -0.31564673584E+03  0.34907708785E+03  0.12509062731E+03 0.  0.
         23    2    1    2    0    0 -0.32090802354E+01  0.81018443452E+02 -0.41267907213E+03  0.43023367902E+03  0.90679190594E+02 0.  0.
          5    1    3    3  502    0 -0.26990847309E+02 -0.27060586531E+02 -0.13669470795E+02  0.40805735059E+02  0.41800000000E+01 0. -1.
         -5    1    3    3    0  502  0.30199927544E+02 -0.53957856920E+02 -0.30197726505E+03  0.30827135279E+03  0.41800000000E+01 0. -1.
        -11    1    4    4    0    0  0.12675429649E+02  0.96125056176E+02 -0.36662179937E+03  0.37922583867E+03  0.00000000000E+00 0. -1.
         11    1    4    4    0    0 -0.15884509884E+02 -0.15106612725E+02 -0.46057272760E+02  0.51007840342E+02  0.00000000000E+00 0.  1.
</event>
<event>
 8    1  0.3528896E-009  0.1540450E+03  0.7561462E-02  0.1195589E+00
          1   -1    0    0  501    0  0.00000000000E+00  0.00000000000E+00  0.68891990230E+03  0.68891990230E+03  0.00000000000E+00 0. -1.
         -1   -1    0    0    0  501 -0.00000000000E+00 -0.00000000000E+00 -0.52894376384E+02  0.52894376384E+02  0.00000000000E+00 0.  1.
         25    2    1    2    0    0  0.94659660187E+02  0.71059799634E+02  0.13617117883E+03  0.21956565584E+03  0.12512609994E+03 0.  0.
         23    2    1    2    0    0 -0.94659660187E+02 -0.71059799634E+02  0.49985434708E+03  0.52224862285E+03  0.94230087449E+02 0.  0.
          5    1    3    3  502    0  0.68372646647E+02 -0.19394103654E+02  0.89489023003E+02  0.11435343329E+03  0.41800000000E+01 0. -1.
         -5    1    3    3    0  502  0.26287013539E+02  0.90453903288E+02  0.46682155832E+02  0.10521222255E+03  0.41800000000E+01 0. -1.
        -11    1    4    4    0    0 -0.67993407586E+02 -0.13877899733E+01  0.15255052603E+03  0.16702302964E+03  0.00000000000E+00 0. -1.
         11    1    4    4    0    0 -0.26666252600E+02 -0.69672009661E+02  0.34730382105E+03  0.35522559321E+03  0.00000000000E+00 0.  1.
</event>
<event>
 8    1  0.3528896E-009  0.7939538E+02  0.7561462E-02  0.1330776E+00
          2   -1    0    0  501    0  0.00000000000E+00  0.00000000000E+00  0.24593427663E+03  0.24593427663E+03  0.00000000000E+00 0. -1.
         -2   -1    0    0    0  501 -0.00000000000E+00 -0.00000000000E+00 -0.49640754209E+02  0.49640754209E+02  0.00000000000E+00 0.  1.
         25    2    1    2    0    0 -0.31374130034E+01  0.65842802552E+01  0.82530789717E+02  0.14999753235E+03  0.12503892336E+03 0.  0.
         23    2    1    2    0    0  0.31374130034E+01 -0.65842802552E+01  0.11376273270E+03  0.14557749848E+03  0.90540889136E+02 0.  0.
          5    1    3    3  502    0 -0.14733204415E+02 -0.27719996237E+02  0.10329914256E+03  0.10804467019E+03  0.41800000000E+01 0.  1.
         -5    1    3    3    0  502  0.11595791411E+02  0.34304276493E+02 -0.20768352839E+02  0.41952862164E+02  0.41800000000E+01 0.  1.
        -11    1    4    4    0    0  0.31148780233E+02 -0.37633855297E+02  0.56917064550E+02  0.75007371714E+02  0.00000000000E+00 0.  1.
         11    1    4    4    0    0 -0.28011367229E+02  0.31049575042E+02  0.56845668151E+02  0.70570126767E+02  0.00000000000E+00 0. -1.
</event>
<event>
 8    1  0.3528896E-009  0.7432748E+02  0.7561462E-02  0.1345966E+00
         -1   -1    0    0    0  501 -0.00000000000E+00  0.00000000000E+00  0.29163906135E+03  0.29163906135E+03  0.00000000000E+00 0.  1.
          1   -1    0    0  501    0  0.00000000000E+00 -0.00000000000E+00 -0.36849275600E+02  0.36849275600E+02  0.00000000000E+00 0. -1.
         25    2    1    2    0    0  0.25024125555E+02 -0.22848526633E+02  0.19702998952E+03  0.23583214310E+03  0.12509085067E+03 0.  0.
         23    2    1    2    0    0 -0.25024125555E+02  0.22848526633E+02  0.57759796231E+02  0.92656193848E+02  0.64036818852E+02 0.  0.
          5    1    3    3  502    0  0.34514883228E+02  0.20058905480E+02  0.70024886138E+01  0.40744865936E+02  0.41800000000E+01 0.  1.
         -5    1    3    3    0  502 -0.94907576738E+01 -0.42907432113E+02  0.19002750091E+03  0.19508727717E+03  0.41800000000E+01 0.  1.
        -11    1    4    4    0    0  0.11173437830E+02  0.25740045024E+02  0.47075412153E+02  0.54804106234E+02  0.00000000000E+00 0.  1.
         11    1    4    4    0    0 -0.36197563385E+02 -0.28915183908E+01  0.10684384078E+02  0.37852087614E+02  0.00000000000E+00 0. -1.
</event>
<event>
 8    1  0.3528896E-009  0.1147155E+03  0.7561462E-02  0.1252078E+00
          2   -1    0    0  501    0  0.00000000000E+00  0.00000000000E+00  0.52575892105E+03  0.52575892105E+03  0.00000000000E+00 0. -1.
         -2   -1    0    0    0  501 -0.00000000000E+00 -0.00000000000E+00 -0.29179815164E+02  0.29179815164E+02  0.00000000000E+00 0.  1.
         25    2    1    2    0    0  0.91369067035E+01 -0.56255306406E+02  0.23857153087E+03  0.27533995977E+03  0.12509026958E+03 0.  0.
         23    2    1    2    0    0 -0.91369067035E+01  0.56255306406E+02  0.25800757502E+03  0.27959877644E+03  0.91429888212E+02 0.  0.
          5    1    3    3  502    0 -0.65499170809E+00  0.32294324511E+02  0.13399539728E+03  0.13789703152E+03  0.41800000000E+01 0.  1.
         -5    1    3    3    0  502  0.97918984116E+01 -0.88549630917E+02  0.10457613358E+03  0.13744292825E+03  0.41800000000E+01 0.  1.
        -11    1    4    4    0    0  0.38877963742E+02  0.81836325332E+01  0.99928694235E+02  0.10753702543E+03  0.00000000000E+00 0. -1.
         11    1    4    4    0    0 -0.48014870446E+02  0.48071673873E+02  0.15807888078E+03  0.17206175102E+03  0.00000000000E+00 0.  1.
</event>
<event>
 8    1  0.3528896E-009  0.1336094E+03  0.7561462E-02  0.1222196E+00
          2   -1    0    0  501    0  0.00000000000E+00  0.00000000000E+00  0.56068895621E+03  0.56068895621E+03  0.00000000000E+00 0. -1.
         -2   -1    0    0    0  501 -0.00000000000E+00 -0.00000000000E+00 -0.48867514919E+02  0.48867514919E+02  0.00000000000E+00 0.  1.
         25    2    1    2    0    0  0.50571265072E+02 -0.10538318528E+03  0.19073262961E+03  0.25630002255E+03  0.12509075493E+03 0.  0.
         23    2    1    2    0    0 -0.50571265072E+02  0.10538318528E+03  0.32108881168E+03  0.35325644858E+03  0.89604826240E+02 0.  0.
          5    1    3    3  502    0  0.10467479761E+02 -0.79446987950E+02  0.19225999355E+03  0.20833331358E+03  0.41800000000E+01 0.  1.
         -5    1    3    3    0  502  0.40103785311E+02 -0.25936197332E+02 -0.15273639451E+01  0.47966708965E+02  0.41800000000E+01 0.  1.
        -11    1    4    4    0    0  0.18071276010E+00  0.83936296712E+02  0.24737119637E+03  0.26122374194E+03  0.00000000000E+00 0.  1.
         11    1    4    4    0    0 -0.50751977833E+02  0.21446888571E+02  0.73717615311E+02  0.92032706634E+02  0.00000000000E+00 0. -1.
</event>
<event>
 8    1  0.3528896E-009  0.1284896E+03  0.7561462E-02  0.1229714E+00
          2   -1    0    0  501    0  0.00000000000E+00  0.00000000000E+00  0.15631810393E+04  0.15631810393E+04  0.00000000000E+00 0. -1.
         -2   -1    0    0    0  501 -0.00000000000E+00 -0.00000000000E+00 -0.13255114765E+02  0.13255114765E+02  0.00000000000E+00 0.  1.
         25    2    1    2    0    0  0.76872192599E+02  0.24918232188E+02  0.11116724792E+04  0.11216024817E+04  0.12508466586E+03 0.  0.
         23    2    1    2    0    0 -0.76872192599E+02 -0.24918232188E+02  0.43825344534E+03  0.45483367238E+03  0.90979859793E+02 0.  0.
          5    1    3    3  502    0  0.79360513489E+02  0.68529570488E+02  0.76499741817E+03  0.77216119777E+03  0.41800000000E+01 0. -1.
         -5    1    3    3    0  502 -0.24883208903E+01 -0.43611338300E+02  0.34667506103E+03  0.34944128392E+03  0.41800000000E+01 0. -1.
        -11    1    4    4    0    0 -0.26095590322E+02 -0.46234409733E+02  0.11176721975E+03  0.12373565326E+03  0.00000000000E+00 0.  1.
         11    1    4    4    0    0 -0.50776602277E+02  0.21316177545E+02  0.32648622559E+03  0.33109801912E+03  0.00000000000E+00 0. -1.
</event>
<event>
 8    1  0.3528896E-009  0.9648182E+02  0.7561462E-02  0.1287873E+00
          2   -1    0    0  501    0  0.00000000000E+00  0.00000000000E+00  0.87843145610E+03  0.87843145610E+03  0.00000000000E+00 0. -1.
         -2   -1    0    0    0  501 -0.00000000000E+00 -0.00000000000E+00 -0.17656488008E+02  0.17656488008E+02  0.00000000000E+00 0.  1.
         25    2    1    2    0    0 -0.60900057237E+02 -0.90165887283E+01  0.44493310645E+03  0.46626374848E+03  0.12508516336E+03 0.  0.
         23    2    1    2    0    0  0.60900057237E+02  0.90165887283E+01  0.41584186165E+03  0.42982419563E+03  0.89634086182E+02 0.  0.
          5    1    3    3  502    0 -0.21278423183E+02 -0.34405064517E+02  0.35113197692E+02  0.53729775821E+02  0.41800000000E+01 0. -1.
         -5    1    3    3    0  502 -0.39621634055E+02  0.25388475789E+02  0.40981990875E+03  0.41253397266E+03  0.41800000000E+01 0. -1.
        -11    1    4    4    0    0 -0.12212378449E+02  0.27109908324E+02  0.17410295770E+03  0.17662369376E+03  0.00000000000E+00 0. -1.
         11    1    4    4    0    0  0.73112435687E+02 -0.18093319596E+02  0.24173890394E+03  0.25320050187E+03  0.00000000000E+00 0.  1.
</event>
<event>
 8    1  0.3528896E-009  0.9181829E+02  0.7561462E-02  0.1298507E+00
         -1   -1    0    0    0  501 -0.00000000000E+00  0.00000000000E+00  0.48128276301E+02  0.48128276301E+02  0.00000000000E+00 0.  1.
          1   -1    0    0  501    0  0.00000000000E+00 -0.00000000000E+00 -0.35783761231E+03  0.35783761231E+03  0.00000000000E+00 0. -1.
         25    2    1    2    0    0 -0.61096433506E+02 -0.11949185780E+02 -0.23354370319E+03  0.27214934242E+03  0.12508815312E+03 0.  0.
         23    2    1    2    0    0  0.61096433506E+02  0.11949185780E+02 -0.76165632814E+02  0.13381654619E+03  0.90719938183E+02 0.  0.
          5    1    3    3  502    0 -0.62601759108E+02  0.22962221911E+02 -0.22664411986E+03  0.23628642226E+03  0.41800000000E+01 0.  1.
         -5    1    3    3    0  502  0.15053256022E+01 -0.34911407690E+02 -0.68995833315E+01  0.35862920158E+02  0.41800000000E+01 0.  1.
        -11    1    4    4    0    0  0.30402831475E+02 -0.20731261017E+02 -0.80759039951E+02  0.88747619004E+02  0.00000000000E+00 0. -1.
         11    1    4    4    0    0  0.30693602031E+02  0.32680446796E+02  0.45934071372E+01  0.45068927184E+02  0.00000000000E+00 0.  1.
</event>
<event>
 7    1  0.3528896E-009  0.1999415E+03  0.7561462E-02  0.1149788E+00
          2   -1    0    0  501    0  0.00000000000E+00  0.00000000000E+00  0.86578437082E+02  0.86578437082E+02  0.00000000000E+00 0. -1.
         -2   -1    0    0    0  501 -0.00000000000E+00 -0.00000000000E+00 -0.64953620707E+03  0.64953620707E+03  0.00000000000E+00 0.  1.
         23    2    1    2    0    0  0.13974514842E+03  0.10646150910E+03 -0.45251506315E+03  0.49387402978E+03  0.90988545897E+02 0.  0.
          5    1    1    2  502    0 -0.61598640436E+02 -0.12086290167E+03 -0.75825039970E+02  0.15546428075E+03  0.41800000000E+01 0.  1.
         -5    1    1    2    0  502 -0.78146507982E+02  0.14401392573E+02 -0.34617666870E+02  0.86776333624E+02  0.41800000000E+01 0.  1.
        -11    1    3    3    0    0  0.11549357457E+03  0.55463773096E+02 -0.21988953742E+03  0.25449244499E+03  0.00000000000E+00 0. -1.
         11    1    3    3    0    0  0.24251573851E+02  0.50997736000E+02 -0.23262552574E+03  0.23938158479E+03  0.00000000000E+00 0.  1.
</event>
<event>
 8    1  0.3528896E-009  0.1164107E+03  0.7561462E-02  0.1249138E+00
          2   -1    0    0  501    0  0.00000000000E+00  0.00000000000E+00  0.11566240272E+03  0.11566240272E+03  0.00000000000E+00 0. -1.
         -2   -1    0    0    0  501 -0.00000000000E+00 -0.00000000000E+00 -0.17533378604E+03  0.17533378604E+03  0.00000000000E+00 0.  1.
         25    2    1    2    0    0  0.18628815921E+02 -0.87763420901E+02 -0.43507897823E+02  0.15996855498E+03  0.12509016979E+03 0.  0.
         23    2    1    2    0    0 -0.18628815921E+02  0.87763420901E+02 -0.16163485493E+02  0.13102763378E+03  0.94114460741E+02 0.  0.
          5    1    3    3  502    0  0.40003815780E+02  0.60238535381E+01 -0.48817744186E+02  0.63539252717E+02  0.41800000000E+01 0. -1.
         -5    1    3    3    0  502 -0.21374999859E+02 -0.93787274439E+02  0.53098463627E+01  0.96429302258E+02  0.41800000000E+01 0. -1.
        -11    1    4    4    0    0 -0.28505425071E+02  0.60732225179E+02  0.32457182393E+02  0.74528055942E+02  0.00000000000E+00 0. -1.
         11    1    4    4    0    0  0.98766091499E+01  0.27031195722E+02 -0.48620667886E+02  0.56499577840E+02  0.00000000000E+00 0.  1.
</event>
<event>
 8    1  0.3528896E-009  0.9260564E+02  0.7561462E-02  0.1296662E+00
          2   -1    0    0  501    0  0.00000000000E+00  0.00000000000E+00  0.92922016600E+03  0.92922016600E+03  0.00000000000E+00 0. -1.
         -2   -1    0    0    0  501 -0.00000000000E+00 -0.00000000000E+00 -0.20636498226E+02  0.20636498226E+02  0.00000000000E+00 0.  1.
         25    2    1    2    0    0 -0.64088271702E+02  0.20953476779E+02  0.31443759896E+03  0.34505828218E+03  0.12509140538E+03 0.  0.
         23    2    1    2    0    0  0.64088271702E+02 -0.20953476779E+02  0.59414606882E+03  0.60479838205E+03  0.90692762032E+02 0.  0.
          5    1    3    3  502    0 -0.60339340767E+02  0.11705816961E+02  0.32449228267E+03  0.33028862546E+03  0.41800000000E+01 0.  1.
         -5    1    3    3    0  502 -0.37489309350E+01  0.92476598180E+01 -0.10054683705E+02  0.14769656722E+02  0.41800000000E+01 0.  1.
        -11    1    4    4    0    0  0.86745566693E+02 -0.23798761013E+02  0.48849386015E+03  0.49670657915E+03  0.00000000000E+00 0.  1.
         11    1    4    4    0    0 -0.22657294992E+02  0.28452842335E+01  0.10565220867E+03  0.10809180290E+03  0.00000000000E+00 0. -1.
</event>
<event>
 8    1  0.3528896E-009  0.1049587E+03  0.7561462E-02  0.1270201E+00
          2   -1    0    0  501    0  0.00000000000E+00  0.00000000000E+00  0.13508370887E+04  0.13508370887E+04  0.00000000000E+00 0.  1.
         -2   -1    0    0    0  501 -0.00000000000E+00 -0.00000000000E+00 -0.12622340523E+02  0.12622340523E+02  0.00000000000E+00 0. -1.
         25    2    1    2    0    0  0.21529465038E+02  0.56469999852E+02  0.93025041254E+03  0.94056602362E+03  0.12508491518E+03 0.  0.
         23    2    1    2    0    0 -0.21529465038E+02 -0.56469999852E+02  0.40796433560E+03  0.42289340557E+03  0.93549744005E+02 0.  0.
          5    1    3    3  502    0 -0.17767039929E+02  0.70133080726E+02  0.81034695982E+03  0.81358096364E+03  0.41800000000E+01 0. -1.
         -5    1    3    3    0  502  0.39296504967E+02 -0.13663080874E+02  0.11990345272E+03  0.12698505997E+03  0.41800000000E+01 0. -1.
        -11    1    4    4    0    0 -0.30780702783E+02 -0.71579949822E+02  0.38983089282E+03  0.39754152724E+03  0.00000000000E+00 0.  1.
         11    1    4    4    0    0  0.92512377455E+01  0.15109949970E+02  0.18133442779E+02  0.25351878332E+02  0.00000000000E+00 0. -1.
</event>
<event>
 8    1  0.3528896E-009  0.2256407E+03  0.7561462E-02  0.1129746E+00
          1   -1    0    0  501    0  0.00000000000E+00  0.00000000000E+00  0.17032460926E+04  0.17032460926E+04  0.00000000000E+00 0. -1.
         -1   -1    0    0    0  501 -0.00000000000E+00 -0.00000000000E+00 -0.34080564621E+02  0.34080564621E+02  0.00000000000E+00 0.  1.
         25    2    1    2    0    0  0.12429212133E+03  0.17491359466E+03  0.82729089046E+03  0.86377395288E+03  0.12510766247E+03 0.  0.
         23    2    1    2    0    0 -0.12429212133E+03 -0.17491359466E+03  0.84187463754E+03  0.87355270436E+03  0.91094044526E+02 0.  0.
          5    1    3    3  502    0  0.50744857529E+02  0.35103653066E+02  0.45708001537E+03  0.46124496732E+03  0.41800000000E+01 0. -1.
         -5    1    3    3    0  502  0.73547263797E+02  0.13980994160E+03  0.37021087509E+03  0.40252898556E+03  0.41800000000E+01 0. -1.
        -11    1    4    4    0    0 -0.55883704372E+02 -0.15589892579E+02  0.16830101288E+03  0.17802040361E+03  0.00000000000E+00 0. -1.
         11    1    4    4    0    0 -0.68408416954E+02 -0.15932370208E+03  0.67357362466E+03  0.69553230075E+03  0.00000000000E+00 0.  1.
</event>
<event>
 8    1  0.3528896E-009  0.8939467E+02  0.7561462E-02  0.1304324E+00
          2   -1    0    0  501    0  0.00000000000E+00  0.00000000000E+00  0.14539194940E+03  0.14539194940E+03  0.00000000000E+00 0. -1.
         -2   -1    0    0    0  501 -0.00000000000E+00 -0.00000000000E+00 -0.84029018393E+02  0.84029018393E+02  0.00000000000E+00 0.  1.
         25    2    1    2    0    0 -0.45717275998E+01  0.17983341274E+02  0.31541569691E+02  0.13033191450E+03  0.12508891263E+03 0.  0.
         23    2    1    2    0    0  0.45717275998E+01 -0.17983341274E+02  0.29821361315E+02  0.99089053291E+02  0.92655413414E+02 0.  0.
          5    1    3    3  502    0  0.40380847359E+02  0.54709472976E+02  0.14027328043E+02  0.69555572018E+02  0.41800000000E+01 0.  1.
         -5    1    3    3    0  502 -0.44952574959E+02 -0.36726131702E+02  0.17514241648E+02  0.60776342484E+02  0.41800000000E+01 0.  1.
        -11    1    4    4    0    0  0.18638631673E+02  0.99948631422E+01 -0.26947417455E+02  0.34255790567E+02  0.00000000000E+00 0.  1.
         11    1    4    4    0    0 -0.14066904073E+02 -0.27978204416E+02  0.56768778769E+02  0.64833262725E+02  0.00000000000E+00 0. -1.
</event>
<event>
 8    1  0.3528896E-009  0.8897819E+02  0.7561462E-02  0.1305345E+00
         -1   -1    0    0    0  501 -0.00000000000E+00  0.00000000000E+00  0.26957680957E+03  0.26957680957E+03  0.00000000000E+00 0.  1.
          1   -1    0    0  501    0  0.00000000000E+00 -0.00000000000E+00 -0.46361143721E+02  0.46361143721E+02  0.00000000000E+00 0. -1.
         25    2    1    2    0    0  0.18044502864E+02  0.12584679026E+02  0.14110668641E+03  0.18983862135E+03  0.12507448572E+03 0.  0.
         23    2    1    2    0    0 -0.18044502864E+02 -0.12584679026E+02  0.82108979442E+02  0.12609933194E+03  0.93140639790E+02 0.  0.
          5    1    3    3  502    0 -0.43278467821E+02  0.38719569239E+02  0.82535177886E+02  0.10100375640E+03  0.41800000000E+01 0.  1.
         -5    1    3    3    0  502  0.61322970685E+02 -0.26134890212E+02  0.58571508522E+02  0.88834864950E+02  0.41800000000E+01 0.  1.
        -11    1    4    4    0    0  0.72461220434E+01  0.14301594585E+02  0.87357183702E+02  0.88816211564E+02  0.00000000000E+00 0.  1.
         11    1    4    4    0    0 -0.25290624907E+02 -0.26886273611E+02 -0.52482042597E+01  0.37283120374E+02  0.00000000000E+00 0. -1.
</event>
<event>
 8    1  0.3528896E-009  0.9424620E+02  0.7561462E-02  0.1292883E+00
         -2   -1    0    0    0  501 -0.00000000000E+00  0.00000000000E+00  0.44339412729E+02  0.44339412729E+02  0.00000000000E+00 0.  1.
          2   -1    0    0  501    0  0.00000000000E+00 -0.00000000000E+00 -0.24036672311E+03  0.24036672311E+03  0.00000000000E+00 0. -1.
         25    2    1    2    0    0 -0.44450459538E+02  0.36404180286E+00 -0.10681039637E+03  0.17038546402E+03  0.12508704847E+03 0.  0.
         23    2    1    2    0    0  0.44450459538E+02 -0.36404180286E+00 -0.89216914015E+02  0.11432067183E+03  0.55978409954E+02 0.  0.
          5    1    3    3  502    0  0.12584581409E+02 -0.43157439754E+02 -0.83341953203E+02  0.94785493927E+02  0.41800000000E+01 0. -1.
         -5    1    3    3    0  502 -0.57035040947E+02  0.43521481557E+02 -0.23468443167E+02  0.75599970089E+02  0.41800000000E+01 0. -1.
        -11    1    4    4    0    0 -0.10152024501E+02  0.11770755738E+02 -0.19803995102E+02  0.25175633341E+02  0.00000000000E+00 0.  1.
         11    1    4    4    0    0  0.54602484039E+02 -0.12134797541E+02 -0.69412918913E+02  0.89145038486E+02  0.00000000000E+00 0. -1.
</event>
<event>
 7    1  0.3528896E-009  0.1393219E+03  0.7561462E-02  0.1214244E+00
         -2   -1    0    0    0  501 -0.00000000000E+00  0.00000000000E+00  0.28542558895E+02  0.28542558895E+02  0.00000000000E+00 0.  1.
          2   -1    0    0  501    0  0.00000000000E+00 -0.00000000000E+00 -0.13161913781E+04  0.13161913781E+04  0.00000000000E+00 0. -1.
         25    2    1    2    0    0 -0.61350327771E+02 -0.10378953593E+03 -0.76526772496E+03  0.78474174388E+03  0.12509509679E+03 0.  0.
          5    1    3    3  502    0  0.26716535847E+02 -0.21165985582E+02 -0.36557598081E+03  0.36718529706E+03  0.41800000000E+01 0.  1.
         -5    1    3    3    0  502 -0.88066863618E+02 -0.82623550347E+02 -0.39969174415E+03  0.41755644682E+03  0.41800000000E+01 0.  1.
        -11    1    1    2    0    0  0.27129510212E+02  0.22397906714E+02 -0.54803908051E+01  0.35604932704E+02  0.00000000000E+00 0.  1.
         11    1    1    2    0    0  0.34220817559E+02  0.81391629215E+02 -0.51690070340E+03  0.52438726037E+03  0.00000000000E+00 0. -1.
</event>
<event>
 8    1  0.3528896E-009  0.2567646E+03  0.7561462E-02  0.1109103E+00
          3   -1    0    0  501    0  0.00000000000E+00  0.00000000000E+00  0.93948990738E+03  0.93948990738E+03  0.00000000000E+00 0. -1.
         -3   -1    0    0    0  501 -0.00000000000E+00 -0.00000000000E+00 -0.80978101313E+02  0.80978101313E+02  0.00000000000E+00 0.  1.
         25    2    1    2    0    0 -0.24279231329E+03  0.27004857486E+02  0.56193010267E+03  0.62537198550E+03  0.12508920914E+03 0.  0.
         23    2    1    2    0    0  0.24279231329E+03 -0.27004857486E+02  0.29658170340E+03  0.39509602319E+03  0.91993429286E+02 0.  0.
          5    1    3    3  502    0 -0.11324470827E+03 -0.21003564412E+02  0.37873473322E+03  0.39588253841E+03  0.41800000000E+01 0.  1.
         -5    1    3    3    0  502 -0.12954760502E+03  0.48008421898E+02  0.18319536945E+03  0.22948944710E+03  0.41800000000E+01 0.  1.
        -11    1    4    4    0    0  0.15328031151E+03 -0.60073509790E+02  0.20394620782E+03  0.26210252986E+03  0.00000000000E+00 0. -1.
         11    1    4    4    0    0  0.89512001775E+02  0.33068652304E+02  0.92635495580E+02  0.13299349333E+03  0.00000000000E+00 0.  1.
</event>
<event>
 8    1  0.3528896E-009  0.1140725E+03  0.7561462E-02  0.1253209E+00
          2   -1    0    0  501    0  0.00000000000E+00  0.00000000000E+00  0.18594105582E+03  0.18594105582E+03  0.00000000000E+00 0. -1.
         -2   -1    0    0    0  501 -0.00000000000E+00 -0.00000000000E+00 -0.14686886939E+03  0.14686886939E+03  0.00000000000E+00 0.  1.
         25    2    1    2    0    0  0.68919107640E+02  0.57189989116E+02  0.10538426512E+03  0.18647873862E+03  0.12509171983E+03 0.  0.
         23    2    1    2    0    0 -0.68919107640E+02 -0.57189989116E+02 -0.66312078690E+02  0.14633118658E+03  0.94841900727E+02 0.  0.
          5    1    3    3  502    0  0.21849175782E+02 -0.21509554096E+02  0.87693355434E+02  0.92992711473E+02  0.41800000000E+01 0.  1.
         -5    1    3    3    0  502  0.47069931859E+02  0.78699543212E+02  0.17690909684E+02  0.93486027150E+02  0.41800000000E+01 0.  1.
        -11    1    4    4    0    0 -0.64248897884E+02 -0.19098216675E+02 -0.81091292988E+02  0.10520675149E+03  0.00000000000E+00 0.  1.
         11    1    4    4    0    0 -0.46702097561E+01 -0.38091772441E+02  0.14779214298E+02  0.41124435098E+02  0.00000000000E+00 0. -1.
</event>
<event>
 7    1  0.3528896E-009  0.8596093E+02  0.7561462E-02  0.1312939E+00
         -1   -1    0    0    0  501 -0.00000000000E+00  0.00000000000E+00  0.17667452049E+03  0.17667452049E+03  0.00000000000E+00 0.  1.
          1   -1    0    0  501    0  0.00000000000E+00 -0.00000000000E+00 -0.70523619750E+02  0.70523619750E+02  0.00000000000E+00 0. -1.
         25    2    1    2    0    0 -0.71692291990E+01  0.48347710113E+02  0.16823947166E+02  0.13534684351E+03  0.12508726526E+03 0.  0.
          5    1    3    3  502    0 -0.21584920488E+02  0.72731180753E+02  0.50432126442E+02  0.91195423260E+02  0.41800000000E+01 0.  1.
         -5    1    3    3    0  502  0.14415691289E+02 -0.24383470640E+02 -0.33608179275E+02  0.44151420249E+02  0.41800000000E+01 0.  1.
        -11    1    1    2    0    0  0.26387010669E+02 -0.35327523235E+02  0.59351891910E+02  0.73938861929E+02  0.00000000000E+00 0.  1.
         11    1    1    2    0    0 -0.19217781470E+02 -0.13020186879E+02  0.29975061667E+02  0.37912434806E+02  0.00000000000E+00 0. -1.
</event>
<event>
 8    1  0.3528896E-009  0.1187578E+03  0.7561462E-02  0.1245160E+00
          2   -1    0    0  501    0  0.00000000000E+00  0.00000000000E+00  0.16441685364E+04  0.16441685364E+04  0.00000000000E+00 0. -1.
         -2   -1    0    0    0  501 -0.00000000000E+00 -0.00000000000E+00 -0.13332992375E+02  0.13332992375E+02  0.00000000000E+00 0.  1.
         25    2    1    2    0    0 -0.63762768299E+01  0.98669994977E+02  0.91240485518E+03  0.92623266423E+03  0.12509158133E+03 0.  0.
         23    2    1    2    0    0  0.63762768299E+01 -0.98669994977E+02  0.71843068886E+03  0.73126886456E+03  0.93995067750E+02 0.  0.
          5    1    3    3  502    0 -0.11478418977E+02  0.87809846072E+02  0.90867601793E+03  0.91299063584E+03  0.41800000000E+01 0.  1.
         -5    1    3    3    0  502  0.51021421474E+01  0.10860148905E+02  0.37288372503E+01  0.13242028393E+02  0.41800000000E+01 0.  1.
        -11    1    4    4    0    0 -0.39946593347E+02 -0.72946677669E+02  0.46095118905E+03  0.46839400806E+03  0.00000000000E+00 0.  1.
         11    1    4    4    0    0  0.46322870177E+02 -0.25723317308E+02  0.25747949981E+03  0.26287485650E+03  0.00000000000E+00 0. -1.
</event>
<event>
 8    1  0.3528896E-009  0.1048477E+03  0.7561462E-02  0.1270420E+00
         -1   -1    0    0    0  501 -0.00000000000E+00  0.00000000000E+00  0.23306702916E+03  0.23306702916E+03  0.00000000000E+00 0.  1.
          1   -1    0    0  501    0  0.00000000000E+00 -0.00000000000E+00 -0.86540158824E+02  0.86540158824E+02  0.00000000000E+00 0. -1.
         25    2    1    2    0    0 -0.81875287027E+02 -0.28469652601E+02  0.61586092866E+02  0.16417664259E+03  0.12508812651E+03 0.  0.
         23    2    1    2    0    0  0.81875287027E+02  0.28469652601E+02  0.84940777469E+02  0.15543054539E+03  0.97106307820E+02 0.  0.
          5    1    3    3  502    0  0.11038129132E+02  0.74641565541E+01 -0.27259369659E+02  0.30628411027E+02  0.41800000000E+01 0.  1.
         -5    1    3    3    0  502 -0.92913416159E+02 -0.35933809155E+02  0.88845462525E+02  0.13354823156E+03  0.41800000000E+01 0.  1.
        -11    1    4    4    0    0  0.52559083566E+02 -0.34637653472E+01  0.97048994711E+02  0.11042174745E+03  0.00000000000E+00 0.  1.
         11    1    4    4    0    0  0.29316203461E+02  0.31933417948E+02 -0.12108217242E+02  0.45008797940E+02  0.00000000000E+00 0. -1.
</event>
<event>
 8    1  0.3528896E-009  0.8692862E+02  0.7561462E-02  0.1310465E+00
         -2   -1    0    0    0  501 -0.00000000000E+00  0.00000000000E+00  0.21602061636E+03  0.21602061636E+03  0.00000000000E+00 0. -1.
          2   -1    0    0  501    0  0.00000000000E+00 -0.00000000000E+00 -0.59117373981E+02  0.59117373981E+02  0.00000000000E+00 0.  1.
         25    2    1    2    0    0  0.25211871733E+02  0.68584264521E+01  0.58347635993E+02  0.14048002177E+03  0.12509002118E+03 0.  0.
         23    2    1    2    0    0 -0.25211871733E+02 -0.68584264521E+01  0.98555606384E+02  0.13465796857E+03  0.87959561510E+02 0.  0.
          5    1    3    3  502    0  0.53080971562E+02  0.67098927889E+00  0.85587615612E+02  0.10080055612E+03  0.41800000000E+01 0.  1.
         -5    1    3    3    0  502 -0.27869099828E+02  0.61874371732E+01 -0.27239979619E+02  0.39679465642E+02  0.41800000000E+01 0.  1.
        -11    1    4    4    0    0  0.24930683993E+02  0.22557836671E+02  0.35629468839E+02  0.48988305231E+02  0.00000000000E+00 0.  1.
         11    1    4    4    0    0 -0.50142555727E+02 -0.29416263123E+02  0.62926137545E+02  0.85669663343E+02  0.00000000000E+00 0. -1.
</event>
<event>
 8    1  0.3528896E-009  0.4811754E+03  0.7561462E-02  0.1018813E+00
         -1   -1    0    0    0  501 -0.00000000000E+00  0.00000000000E+00  0.78004812720E+03  0.78004812720E+03  0.00000000000E+00 0.  1.
          1   -1    0    0  501    0  0.00000000000E+00 -0.00000000000E+00 -0.31247892238E+03  0.31247892238E+03  0.00000000000E+00 0. -1.
         25    2    1    2    0    0 -0.34428512153E+03  0.32443994959E+03  0.33190703347E+03  0.59127288625E+03  0.12509125212E+03 0.  0.
         23    2    1    2    0    0  0.34428512153E+03 -0.32443994959E+03  0.13566217135E+03  0.50125416332E+03  0.95173450681E+02 0.  0.
          5    1    3    3  502    0  0.78138680495E+01 -0.19984454240E+01  0.47380974817E+01  0.10245598360E+02  0.41800000000E+01 0. -1.
         -5    1    3    3    0  502 -0.35209898958E+03  0.32643839501E+03  0.32716893599E+03  0.58102728789E+03  0.41800000000E+01 0. -1.
        -11    1    4    4    0    0  0.16306756475E+03 -0.14951331910E+03  0.11284066007E+03  0.24835111803E+03  0.00000000000E+00 0.  1.
         11    1    4    4    0    0  0.18121755678E+03 -0.17492663049E+03  0.22821511279E+02  0.25290304529E+03  0.00000000000E+00 0. -1.
</event>
<event>
 8    1  0.3528896E-009  0.9831227E+02  0.7561462E-02  0.1283886E+00
         -1   -1    0    0    0  501 -0.00000000000E+00  0.00000000000E+00  0.64712261428E+03  0.64712261428E+03  0.00000000000E+00 0.  1.
          1   -1    0    0  501    0  0.00000000000E+00 -0.00000000000E+00 -0.19317670479E+02  0.19317670479E+02  0.00000000000E+00 0. -1.
         25    2    1    2    0    0  0.32487534538E+00 -0.40554828070E+00  0.41845466529E+03  0.43675083548E+03  0.12508683135E+03 0.  0.
         23    2    1    2    0    0 -0.32487534538E+00  0.40554828070E+00  0.20935027851E+03  0.22968944928E+03  0.94495682353E+02 0.  0.
          5    1    3    3  502    0  0.11717474333E+02  0.50925866288E+02  0.32700065124E+03  0.33117614856E+03  0.41800000000E+01 0.  1.
         -5    1    3    3    0  502 -0.11392598988E+02 -0.51331414569E+02  0.91454014047E+02  0.10557468692E+03  0.41800000000E+01 0.  1.
        -11    1    4    4    0    0 -0.30661482622E+02  0.34273315845E+02  0.13413751453E+03  0.14180147919E+03  0.00000000000E+00 0.  1.
         11    1    4    4    0    0  0.30336607276E+02 -0.33867767564E+02  0.75212763981E+02  0.87887970089E+02  0.00000000000E+00 0. -1.
</event>
<event>
 8    1  0.3528896E-009  0.9142882E+02  0.7561462E-02  0.1299428E+00
          1   -1    0    0  501    0  0.00000000000E+00  0.00000000000E+00  0.69848547267E+02  0.69848547267E+02  0.00000000000E+00 0. -1.
         -1   -1    0    0    0  501 -0.00000000000E+00 -0.00000000000E+00 -0.19327685550E+03  0.19327685550E+03  0.00000000000E+00 0.  1.
         25    2    1    2    0    0  0.31364103843E+02 -0.98186643188E+01 -0.96862692725E+02  0.16158581892E+03  0.12508989750E+03 0.  0.
         23    2    1    2    0    0 -0.31364103843E+02  0.98186643188E+01 -0.26565615513E+02  0.10153958385E+03  0.92327904673E+02 0.  0.
          5    1    3    3  502    0  0.65036607060E+02 -0.37511118166E+02 -0.28537057438E+02  0.80428106350E+02  0.41800000000E+01 0.  1.
         -5    1    3    3    0  502 -0.33672503217E+02  0.27692453847E+02 -0.68325635287E+02  0.81157712575E+02  0.41800000000E+01 0.  1.
        -11    1    4    4    0    0 -0.26424224570E+02 -0.20314230206E+02 -0.52023086326E+02  0.61784375888E+02  0.00000000000E+00 0.  1.
         11    1    4    4    0    0 -0.49398792736E+01  0.30132894525E+02  0.25457470813E+02  0.39755207959E+02  0.00000000000E+00 0. -1.
</event>
<event>
 8    1  0.3528896E-009  0.1369732E+03  0.7561462E-02  0.1217461E+00
          2   -1    0    0  501    0  0.00000000000E+00  0.00000000000E+00  0.46196020461E+03  0.46196020461E+03  0.00000000000E+00 0. -1.
         -2   -1    0    0    0  501 -0.00000000000E+00 -0.00000000000E+00 -0.54882567307E+02  0.54882567307E+02  0.00000000000E+00 0.  1.
         25    2    1    2    0    0  0.11205085442E+03  0.20018419639E+02  0.25932479173E+03  0.30960271857E+03  0.12509342366E+03 0.  0.
         23    2    1    2    0    0 -0.11205085442E+03 -0.20018419639E+02  0.14775284558E+03  0.20724005335E+03  0.90340496087E+02 0.  0.
          5    1    3    3  502    0 -0.16705439251E+02 -0.31069469992E+01 -0.17213788930E+01  0.17582956678E+02  0.41800000000E+01 0. -1.
         -5    1    3    3    0  502  0.12875629367E+03  0.23125366638E+02  0.26104617062E+03  0.29201976190E+03  0.41800000000E+01 0. -1.
        -11    1    4    4    0    0 -0.19988259485E+02  0.17096142498E+02 -0.32825157853E+01  0.26506291997E+02  0.00000000000E+00 0.  1.
         11    1    4    4    0    0 -0.92062594936E+02 -0.37114562138E+02  0.15103536137E+03  0.18073376135E+03  0.00000000000E+00 0. -1.
</event>
<event>
 8    1  0.3528896E-009  0.1017340E+03  0.7561462E-02  0.1276691E+00
          2   -1    0    0  501    0  0.00000000000E+00  0.00000000000E+00  0.28406963836E+02  0.28406963836E+02  0.00000000000E+00 0. -1.
         -2   -1    0    0    0  501 -0.00000000000E+00 -0.00000000000E+00 -0.54901126636E+03  0.54901126636E+03  0.00000000000E+00 0.  1.
         25    2    1    2    0    0  0.41046251967E+00 -0.18598895592E+02 -0.15708185160E+03  0.20166385930E+03  0.12509003417E+03 0.  0.
         23    2    1    2    0    0 -0.41046251967E+00  0.18598895592E+02 -0.36352245092E+03  0.37575437089E+03  0.93256032108E+02 0.  0.
          5    1    3    3  502    0  0.55447109204E+02 -0.38341563111E+01 -0.12324002068E+03  0.13525774569E+03  0.41800000000E+01 0.  1.
         -5    1    3    3    0  502 -0.55036646684E+02 -0.14764739281E+02 -0.33841830926E+02  0.66406113609E+02  0.41800000000E+01 0.  1.
        -11    1    4    4    0    0  0.42971624024E+02  0.19534742512E+02 -0.24575348640E+03  0.25024576463E+03  0.00000000000E+00 0.  1.
         11    1    4    4    0    0 -0.43382086543E+02 -0.93584691915E+00 -0.11776896452E+03  0.12550860627E+03  0.00000000000E+00 0. -1.
</event>
<event>
 8    1  0.3528896E-009  0.2325774E+03  0.7561462E-02  0.1124839E+00
          2   -1    0    0  501    0  0.00000000000E+00  0.00000000000E+00  0.52328118631E+03  0.52328118631E+03  0.00000000000E+00 0. -1.
         -2   -1    0    0    0  501 -0.00000000000E+00 -0.00000000000E+00 -0.12203754611E+03  0.12203754611E+03  0.00000000000E+00 0.  1.
         25    2    1    2    0    0 -0.14000181809E+02 -0.21056417339E+03  0.31404889402E+03  0.39850626614E+03  0.12508900876E+03 0.  0.
         23    2    1    2    0    0  0.14000181809E+02  0.21056417339E+03  0.87194746173E+02  0.24681246627E+03  0.93702686944E+02 0.  0.
          5    1    3    3  502    0 -0.52910567801E+02 -0.19320261004E+03  0.27713740789E+03  0.34197864255E+03  0.41800000000E+01 0. -1.
         -5    1    3    3    0  502  0.38910385992E+02 -0.17361563346E+02  0.36911486139E+02  0.56527623591E+02  0.41800000000E+01 0. -1.
        -11    1    4    4    0    0  0.12600595447E+02  0.12492673673E+01 -0.98969909202E+01  0.16071281960E+02  0.00000000000E+00 0.  1.
         11    1    4    4    0    0  0.13995863622E+01  0.20931490602E+03  0.97091737094E+02  0.23074118431E+03  0.00000000000E+00 0. -1.
</event>
<event>
 8    1  0.3528896E-009  0.8596271E+02  0.7561462E-02  0.1312934E+00
          3   -1    0    0  501    0  0.00000000000E+00  0.00000000000E+00  0.45319389694E+03  0.45319389694E+03  0.00000000000E+00 0. -1.
         -3   -1    0    0    0  501 -0.00000000000E+00 -0.00000000000E+00 -0.38840169079E+02  0.38840169079E+02  0.00000000000E+00 0.  1.
         25    2    1    2    0    0 -0.39477466837E+02  0.31464815337E+02  0.33417291572E+03  0.36037198522E+03  0.12509166695E+03 0.  0.
         23    2    1    2    0    0  0.39477466837E+02 -0.31464815337E+02  0.80180812138E+02  0.13166208079E+03  0.91419012748E+02 0.  0.
          5    1    3    3  502    0 -0.16242672169E+02 -0.14059611247E+02 -0.40275267844E+00  0.21889076667E+02  0.41800000000E+01 0. -1.
         -5    1    3    3    0  502 -0.23234794668E+02  0.45524426585E+02  0.33457566840E+03  0.33848290855E+03  0.41800000000E+01 0. -1.
        -11    1    4    4    0    0 -0.25530023463E+02 -0.20696176682E+02  0.48403525021E+02  0.58506538624E+02  0.00000000000E+00 0.  1.
         11    1    4    4    0    0  0.65007490301E+02 -0.10768638656E+02  0.31777287116E+02  0.73155542170E+02  0.00000000000E+00 0. -1.
</event>
<event>
 7    1  0.3528896E-009  0.1104455E+03  0.7561462E-02  0.1259747E+00
          1   -1    0    0  501    0  0.00000000000E+00  0.00000000000E+00  0.10995857850E+04  0.10995857850E+04  0.00000000000E+00 0. -1.
         -1   -1    0    0    0  501 -0.00000000000E+00 -0.00000000000E+00 -0.36289454013E+02  0.36289454013E+02  0.00000000000E+00 0.  1.
         23    2    1    2    0    0  0.79783575049E+02 -0.42443819085E+02  0.10654117386E+03  0.16674626970E+03  0.91029666072E+02 0.  0.
          5    1    1    2  502    0 -0.94346327572E+02  0.39103557871E+02  0.42394779681E+03  0.43609577456E+03  0.41800000000E+01 0. -1.
         -5    1    1    2    0  502  0.14562752523E+02  0.33402612134E+01  0.53280736032E+03  0.53303319476E+03  0.41800000000E+01 0. -1.
        -11    1    3    3    0    0  0.21365985816E+02  0.10959796104E+02 -0.98818047071E+01  0.25966758458E+02  0.00000000000E+00 0.  1.
         11    1    3    3    0    0  0.58417589232E+02 -0.53403615189E+02  0.11642297857E+03  0.14077951124E+03  0.00000000000E+00 0. -1.
</event>
<event>
 8    1  0.3528896E-009  0.1101253E+03  0.7561462E-02  0.1260338E+00
          3   -1    0    0  501    0  0.00000000000E+00  0.00000000000E+00  0.42536767380E+02  0.42536767380E+02  0.00000000000E+00 0. -1.
         -3   -1    0    0    0  501 -0.00000000000E+00 -0.00000000000E+00 -0.29574928721E+03  0.29574928721E+03  0.00000000000E+00 0.  1.
         25    2    1    2    0    0  0.41152473117E+02  0.28768324603E+02 -0.15859967105E+03  0.20814275518E+03  0.12509359830E+03 0.  0.
         23    2    1    2    0    0 -0.41152473117E+02 -0.28768324603E+02 -0.94612848784E+02  0.13014329941E+03  0.73922558680E+02 0.  0.
          5    1    3    3  502    0 -0.12308461410E+02  0.67439520595E+02 -0.80725555145E+02  0.10598903157E+03  0.41800000000E+01 0.  1.
         -5    1    3    3    0  502  0.53460934526E+02 -0.38671195993E+02 -0.77874115903E+02  0.10215372361E+03  0.41800000000E+01 0.  1.
        -11    1    4    4    0    0 -0.10855634526E+02 -0.48236927100E+02 -0.72918531517E+02  0.88100840947E+02  0.00000000000E+00 0.  1.
         11    1    4    4    0    0 -0.30296838591E+02  0.19468602497E+02 -0.21694317267E+02  0.42042458462E+02  0.00000000000E+00 0. -1.
</event>
<event>
 8    1  0.3528896E-009  0.1131341E+03  0.7561462E-02  0.1254874E+00
         -1   -1    0    0    0  501 -0.00000000000E+00  0.00000000000E+00  0.40555428308E+02  0.40555428308E+02  0.00000000000E+00 0.  1.
          1   -1    0    0  501    0  0.00000000000E+00 -0.00000000000E+00 -0.59677643773E+03  0.59677643773E+03  0.00000000000E+00 0. -1.
         25    2    1    2    0    0  0.17895628806E+02  0.88687786730E+02 -0.16798679152E+03  0.22815152555E+03  0.12509108457E+03 0.  0.
         23    2    1    2    0    0 -0.17895628806E+02 -0.88687786730E+02 -0.38823421790E+03  0.40918034049E+03  0.92287410010E+02 0.  0.
          5    1    3    3  502    0 -0.23223218036E+02  0.75345891651E+02 -0.31645787840E+02  0.85060270001E+02  0.41800000000E+01 0. -1.
         -5    1    3    3    0  502  0.41118846842E+02  0.13341895080E+02 -0.13634100368E+03  0.14309125555E+03  0.41800000000E+01 0. -1.
        -11    1    4    4    0    0 -0.35925714665E+02 -0.62474883714E+02 -0.35837037136E+03  0.36554492355E+03  0.00000000000E+00 0. -1.
         11    1    4    4    0    0  0.18030085859E+02 -0.26212903016E+02 -0.29863846547E+02  0.43635416936E+02  0.00000000000E+00 0.  1.
</event>
<event>
 8    1  0.3528896E-009  0.5804025E+02  0.7561462E-02  0.1406245E+00
         -2   -1    0    0    0  501 -0.00000000000E+00  0.00000000000E+00  0.65701208442E+02  0.65701208442E+02  0.00000000000E+00 0.  1.
          2   -1    0    0  501    0  0.00000000000E+00 -0.00000000000E+00 -0.21102686762E+03  0.21102686762E+03  0.00000000000E+00 0. -1.
         25    2    1    2    0    0 -0.13797024444E+02  0.13264164938E+02 -0.12916687379E+03  0.18082520489E+03  0.12508947792E+03 0.  0.
         23    2    1    2    0    0  0.13797024444E+02 -0.13264164938E+02 -0.16158785395E+02  0.95902871172E+02  0.92574069796E+02 0.  0.
          5    1    3    3  502    0 -0.29364267988E+02  0.72162014890E+01  0.16120983018E+02  0.34520896453E+02  0.41800000000E+01 0.  1.
         -5    1    3    3    0  502  0.15567243544E+02  0.60479634488E+01 -0.14528785680E+03  0.14630430844E+03  0.41800000000E+01 0.  1.
        -11    1    4    4    0    0  0.32679412711E+02  0.13688276821E+02 -0.41354509394E+02  0.54456481567E+02  0.00000000000E+00 0.  1.
         11    1    4    4    0    0 -0.18882388267E+02 -0.26952441759E+02  0.25195723999E+02  0.41446389605E+02  0.00000000000E+00 0. -1.
</event>
<event>
 8    1  0.3528896E-009  0.1018520E+03  0.7561462E-02  0.1276449E+00
         -1   -1    0    0    0  501 -0.00000000000E+00  0.00000000000E+00  0.13980871417E+02  0.13980871417E+02  0.00000000000E+00 0.  1.
          1   -1    0    0  501    0  0.00000000000E+00 -0.00000000000E+00 -0.18410221879E+04  0.18410221879E+04  0.00000000000E+00 0. -1.
         25    2    1    2    0    0 -0.48062357512E+02  0.64113251509E+02 -0.14854302015E+04  0.14928397452E+04  0.12508845634E+03 0.  0.
         23    2    1    2    0    0  0.48062357512E+02 -0.64113251509E+02 -0.34161111493E+03  0.36216331413E+03  0.89686191943E+02 0.  0.
          5    1    3    3  502    0  0.15174052219E+02  0.50055367208E+02 -0.23772440935E+03  0.24344641885E+03  0.41800000000E+01 0.  1.
         -5    1    3    3    0  502 -0.63236409731E+02  0.14057884301E+02 -0.12477057922E+04  0.12493933263E+04  0.41800000000E+01 0.  1.
        -11    1    4    4    0    0  0.50486795940E+02 -0.46819504325E+02 -0.33719156878E+03  0.34414987521E+03  0.00000000000E+00 0. -1.
         11    1    4    4    0    0 -0.24244384285E+01 -0.17293747185E+02 -0.44195461488E+01  0.18013438915E+02  0.00000000000E+00 0.  1.
</event>
<event>
 8    1  0.3528896E-009  0.1045440E+03  0.7561462E-02  0.1271021E+00
          2   -1    0    0  501    0  0.00000000000E+00  0.00000000000E+00  0.54498552751E+03  0.54498552751E+03  0.00000000000E+00 0.  1.
         -2   -1    0    0    0  501 -0.00000000000E+00 -0.00000000000E+00 -0.50406543876E+02  0.50406543876E+02  0.00000000000E+00 0. -1.
         25    2    1    2    0    0  0.71857080060E+02 -0.32396881216E+02  0.44184017914E+03  0.46592209011E+03  0.12509057634E+03 0.  0.
         23    2    1    2    0    0 -0.71857080060E+02  0.32396881216E+02  0.52738804503E+02  0.12946998128E+03  0.88136806639E+02 0.  0.
          5    1    3    3  502    0 -0.25917263333E+02 -0.13586918876E+02  0.22908298694E+03  0.23098224219E+03  0.41800000000E+01 0.  1.
         -5    1    3    3    0  502  0.97774343393E+02 -0.18809962340E+02  0.21275719220E+03  0.23493984792E+03  0.41800000000E+01 0.  1.
        -11    1    4    4    0    0 -0.38427573073E+02  0.24336875590E+02  0.75563094618E+02  0.88197183368E+02  0.00000000000E+00 0.  1.
         11    1    4    4    0    0 -0.33429506987E+02  0.80600056264E+01 -0.22824290115E+02  0.41272797911E+02  0.00000000000E+00 0. -1.
</event>
<event>
 8    1  0.3528896E-009  0.1266987E+03  0.7561462E-02  0.1232438E+00
         -1   -1    0    0    0  501 -0.00000000000E+00  0.00000000000E+00  0.70756976470E+02  0.70756976470E+02  0.00000000000E+00 0.  1.
          1   -1    0    0  501    0  0.00000000000E+00 -0.00000000000E+00 -0.29848656904E+03  0.29848656904E+03  0.00000000000E+00 0. -1.
         25    2    1    2    0    0 -0.77652721460E+02 -0.56616707978E+02 -0.13158005375E+03  0.20541840609E+03  0.12509202309E+03 0.  0.
         23    2    1    2    0    0  0.77652721460E+02  0.56616707978E+02 -0.96149538818E+02  0.16382513942E+03  0.91425082554E+02 0.  0.
          5    1    3    3  502    0 -0.49151079384E+02  0.34368601823E+02 -0.67877868134E+02  0.90674730649E+02  0.41800000000E+01 0. -1.
         -5    1    3    3    0  502 -0.28501642076E+02 -0.90985309800E+02 -0.63702185619E+02  0.11474367544E+03  0.41800000000E+01 0. -1.
        -11    1    4    4    0    0  0.50280376774E+02  0.47002511078E+02 -0.11147712067E+03  0.13101336103E+03  0.00000000000E+00 0. -1.
         11    1    4    4    0    0  0.27372344686E+02  0.96141969003E+01  0.15327581854E+02  0.32811778390E+02  0.00000000000E+00 0.  1.
</event>
<event>
 8    1  0.3528896E-009  0.1237829E+03  0.7561462E-02  0.1236984E+00
         -2   -1    0    0    0  501 -0.00000000000E+00  0.00000000000E+00  0.94373373021E+02  0.94373373021E+02  0.00000000000E+00 0.  1.
          2   -1    0    0  501    0  0.00000000000E+00 -0.00000000000E+00 -0.21085036618E+03  0.21085036618E+03  0.00000000000E+00 0. -1.
         25    2    1    2    0    0  0.93046561373E+02 -0.28473563395E+02 -0.51754247264E+02  0.16671391904E+03  0.12508645928E+03 0.  0.
         23    2    1    2    0    0 -0.93046561373E+02  0.28473563395E+02 -0.64722745890E+02  0.13850982016E+03  0.74347360734E+02 0.  0.
          5    1    3    3  502    0  0.10617089263E+03 -0.53210805999E+02 -0.14193287600E+02  0.11967694068E+03  0.41800000000E+01 0.  1.
         -5    1    3    3    0  502 -0.13124331258E+02  0.24737242604E+02 -0.37560959664E+02  0.47036978363E+02  0.41800000000E+01 0.  1.
        -11    1    4    4    0    0 -0.11581671639E+02  0.13155951025E+02 -0.51713026465E+02  0.54602667256E+02  0.00000000000E+00 0. -1.
         11    1    4    4    0    0 -0.81464889734E+02  0.15317612370E+02 -0.13009719425E+02  0.83907152899E+02  0.00000000000E+00 0.  1.
</event>
<event>
 8    1  0.3528896E-009  0.1207112E+03  0.7561462E-02  0.1241928E+00
         -1   -1    0    0    0  501 -0.00000000000E+00  0.00000000000E+00  0.40203525635E+02  0.40203525635E+02  0.00000000000E+00 0.  1.
          1   -1    0    0  501    0  0.00000000000E+00 -0.00000000000E+00 -0.46341827723E+03  0.46341827723E+03  0.00000000000E+00 0. -1.
         25    2    1    2    0    0 -0.15347247810E+02 -0.67729737673E+02 -0.14929408310E+03  0.20678249822E+03  0.12508965962E+03 0.  0.
         23    2    1    2    0    0  0.15347247810E+02  0.67729737673E+02 -0.27392066850E+03  0.29683930464E+03  0.90874555123E+02 0.  0.
          5    1    3    3  502    0  0.50378995179E+02 -0.50607584811E+02 -0.53712363580E+02  0.89452004991E+02  0.41800000000E+01 0. -1.
         -5    1    3    3    0  502 -0.65726242989E+02 -0.17122152862E+02 -0.95581719517E+02  0.11733049323E+03  0.41800000000E+01 0. -1.
        -11    1    4    4    0    0  0.38765171663E+02  0.68169996245E+02 -0.25482663203E+03  0.26662051556E+03  0.00000000000E+00 0. -1.
         11    1    4    4    0    0 -0.23417923853E+02 -0.44025857230E+00 -0.19094036464E+02  0.30218789084E+02  0.00000000000E+00 0.  1.
</event>
<event>
 8    1  0.3528896E-009  0.9979112E+02  0.7561462E-02  0.1280736E+00
         -1   -1    0    0    0  501 -0.00000000000E+00  0.00000000000E+00  0.16549487037E+03  0.16549487037E+03  0.00000000000E+00 0.  1.
          1   -1    0    0  501    0  0.00000000000E+00 -0.00000000000E+00 -0.72143949765E+02  0.72143949765E+02  0.00000000000E+00 0. -1.
         25    2    1    2    0    0 -0.17883066242E+02  0.79146264187E+01  0.59964055459E+02  0.14009185804E+03  0.12509034884E+03 0.  0.
         23    2    1    2    0    0  0.17883066242E+02 -0.79146264187E+01  0.33386865150E+02  0.97546962097E+02  0.89544858480E+02 0.  0.
          5    1    3    3  502    0  0.42538640245E+02  0.34898468320E+02  0.78052659624E+01  0.55730006116E+02  0.41800000000E+01 0.  1.
         -5    1    3    3    0  502 -0.60421706487E+02 -0.26983841902E+02  0.52158789497E+02  0.84361851925E+02  0.41800000000E+01 0.  1.
        -11    1    4    4    0    0  0.35347894574E+02 -0.32447079770E+02 -0.55737487001E+01  0.48304795942E+02  0.00000000000E+00 0.  1.
         11    1    4    4    0    0 -0.17464828332E+02  0.24532453352E+02  0.38960613850E+02  0.49242166156E+02  0.00000000000E+00 0. -1.
</event>
<event>
 8    1  0.3528896E-009  0.1149534E+03  0.7561462E-02  0.1251663E+00
         -1   -1    0    0    0  501 -0.00000000000E+00  0.00000000000E+00  0.24568054896E+02  0.24568054896E+02  0.00000000000E+00 0.  1.
          1   -1    0    0  501    0  0.00000000000E+00 -0.00000000000E+00 -0.61660596970E+03  0.61660596970E+03  0.00000000000E+00 0. -1.
         25    2    1    2    0    0  0.52035299190E+02 -0.10963079232E+02 -0.23899654235E+03  0.27494534787E+03  0.12509090932E+03 0.  0.
         23    2    1    2    0    0 -0.52035299190E+02  0.10963079232E+02 -0.35304137246E+03  0.36622867672E+03  0.81592717314E+02 0.  0.
          5    1    3    3  502    0 -0.39722815757E+02  0.72146553634E+01 -0.53480636425E+02  0.67138693881E+02  0.41800000000E+01 0. -1.
         -5    1    3    3    0  502  0.91758114947E+02 -0.18177734596E+02 -0.18551590592E+03  0.20780665399E+03  0.41800000000E+01 0. -1.
        -11    1    4    4    0    0  0.16805748857E+02 -0.14587602773E+02 -0.56337891217E+02  0.60573833758E+02  0.00000000000E+00 0. -1.
         11    1    4    4    0    0 -0.68841048047E+02  0.25550682006E+02 -0.29670348124E+03  0.30565484296E+03  0.00000000000E+00 0.  1.
</event>
<event>
 8    1  0.3528896E-009  0.1106532E+03  0.7561462E-02  0.1259365E+00
         -1   -1    0    0    0  501 -0.00000000000E+00  0.00000000000E+00  0.18809042918E+02  0.18809042918E+02  0.00000000000E+00 0.  1.
          1   -1    0    0  501    0  0.00000000000E+00 -0.00000000000E+00 -0.18170858351E+04  0.18170858351E+04  0.00000000000E+00 0. -1.
         25    2    1    2    0    0 -0.15025248950E+02  0.10778286750E+03 -0.14644513586E+04  0.14738073007E+04  0.12508906133E+03 0.  0.
         23    2    1    2    0    0  0.15025248950E+02 -0.10778286750E+03 -0.33382543358E+03  0.36208757731E+03  0.88459532600E+02 0.  0.
          5    1    3    3  502    0 -0.22634802587E+02  0.74078046299E+02 -0.13837230592E+04  0.13858956916E+04  0.41800000000E+01 0. -1.
         -5    1    3    3    0  502  0.76095536363E+01  0.33704821202E+02 -0.80728299435E+02  0.87911609065E+02  0.41800000000E+01 0. -1.
        -11    1    4    4    0    0  0.37741414038E+01 -0.44041901852E+02 -0.26074205582E+03  0.26446238473E+03  0.00000000000E+00 0. -1.
         11    1    4    4    0    0  0.11251107547E+02 -0.63740965649E+02 -0.73083377757E+02  0.97625192585E+02  0.00000000000E+00 0.  1.
</event>
<event>
 8    1  0.3528896E-009  0.7866804E+02  0.7561462E-02  0.1332874E+00
          2   -1    0    0  501    0  0.00000000000E+00  0.00000000000E+00  0.42655745838E+03  0.42655745838E+03  0.00000000000E+00 0. -1.
         -2   -1    0    0    0  501 -0.00000000000E+00 -0.00000000000E+00 -0.40331262643E+02  0.40331262643E+02  0.00000000000E+00 0.  1.
         25    2    1    2    0    0 -0.33472150238E+01 -0.55404535084E+02  0.29304767759E+03  0.32342597397E+03  0.12508618204E+03 0.  0.
         23    2    1    2    0    0  0.33472150238E+01  0.55404535084E+02  0.93178518141E+02  0.14346274705E+03  0.93906640835E+02 0.  0.
          5    1    3    3  502    0  0.31212775055E+02 -0.56538674570E+01  0.93933283061E+01  0.33345322919E+02  0.41800000000E+01 0. -1.
         -5    1    3    3    0  502 -0.34559990079E+02 -0.49750667627E+02  0.28365434929E+03  0.29008065105E+03  0.41800000000E+01 0. -1.
        -11    1    4    4    0    0 -0.14641254483E+02  0.31189858011E+02 -0.10070922479E+02  0.35897034072E+02  0.00000000000E+00 0.  1.
         11    1    4    4    0    0  0.17988469507E+02  0.24214677073E+02  0.10324944062E+03  0.10756571298E+03  0.00000000000E+00 0. -1.
</event>
<event>
 8    1  0.3528896E-009  0.1071296E+03  0.7561462E-02  0.1265980E+00
         -4   -1    0    0    0  501 -0.00000000000E+00  0.00000000000E+00  0.15850601867E+03  0.15850601867E+03  0.00000000000E+00 0.  1.
          4   -1    0    0  501    0  0.00000000000E+00 -0.00000000000E+00 -0.12844669389E+03  0.12844669389E+03  0.00000000000E+00 0. -1.
         25    2    1    2    0    0 -0.22504500727E+02 -0.64359481346E+02 -0.48386399452E+02  0.15045868346E+03  0.12509187177E+03 0.  0.
         23    2    1    2    0    0  0.22504500727E+02  0.64359481346E+02  0.78445724236E+02  0.13649402910E+03  0.88477640883E+02 0.  0.
          5    1    3    3  502    0  0.39673187910E+02 -0.69065141754E+02 -0.31193026918E+02  0.85641304128E+02  0.41800000000E+01 0.  1.
         -5    1    3    3    0  502 -0.62177688637E+02  0.47056604081E+01 -0.17193372534E+02  0.64817379330E+02  0.41800000000E+01 0.  1.
        -11    1    4    4    0    0  0.10334943885E+02  0.56681603820E+02  0.97116830154E+02  0.11292162758E+03  0.00000000000E+00 0.  1.
         11    1    4    4    0    0  0.12169556843E+02  0.76778775254E+01 -0.18671105917E+02  0.23572401516E+02  0.00000000000E+00 0. -1.
</event>
<event>
 8    1  0.3528896E-009  0.2233272E+03  0.7561462E-02  0.1131427E+00
          1   -1    0    0  501    0  0.00000000000E+00  0.00000000000E+00  0.25915456872E+03  0.25915456872E+03  0.00000000000E+00 0. -1.
         -1   -1    0    0    0  501 -0.00000000000E+00 -0.00000000000E+00 -0.21585674638E+03  0.21585674638E+03  0.00000000000E+00 0.  1.
         25    2    1    2    0    0  0.10049908413E+03  0.18391309425E+03  0.35507085508E+02  0.24664168144E+03  0.12508906330E+03 0.  0.
         23    2    1    2    0    0 -0.10049908413E+03 -0.18391309425E+03  0.77907368305E+01  0.22836963366E+03  0.90376445227E+02 0.  0.
          5    1    3    3  502    0  0.18411793456E+02  0.11423696415E+03  0.67771818068E+02  0.13416247553E+03  0.41800000000E+01 0. -1.
         -5    1    3    3    0  502  0.82087290671E+02  0.69676130106E+02 -0.32264732560E+02  0.11247920592E+03  0.41800000000E+01 0. -1.
        -11    1    4    4    0    0 -0.74803089328E+02 -0.58129595387E+02  0.27124111820E+02  0.98540699586E+02  0.00000000000E+00 0. -1.
         11    1    4    4    0    0 -0.25695994799E+02 -0.12578349887E+03 -0.19333374989E+02  0.12982893408E+03  0.00000000000E+00 0.  1.
</event>
<event>
 8    1  0.3528896E-009  0.1087067E+03  0.7561462E-02  0.1262984E+00
          2   -1    0    0  501    0  0.00000000000E+00  0.00000000000E+00  0.35702063843E+03  0.35702063843E+03  0.00000000000E+00 0.  1.
         -2   -1    0    0    0  501 -0.00000000000E+00 -0.00000000000E+00 -0.44303480391E+02  0.44303480391E+02  0.00000000000E+00 0. -1.
         25    2    1    2    0    0  0.52134074028E+02 -0.69438469541E+01  0.23054268321E+03  0.26751357194E+03  0.12508958272E+03 0.  0.
         23    2    1    2    0    0 -0.52134074028E+02  0.69438469541E+01  0.82174474831E+02  0.13381054688E+03  0.91577505199E+02 0.  0.
          5    1    3    3  502    0 -0.17145414704E+02  0.39535968700E+02  0.12875120185E+03  0.13583593944E+03  0.41800000000E+01 0. -1.
         -5    1    3    3    0  502  0.69279488732E+02 -0.46479815654E+02  0.10179148136E+03  0.13167763250E+03  0.41800000000E+01 0. -1.
        -11    1    4    4    0    0 -0.34454461925E+02  0.40186528539E+02  0.12158622647E+02  0.54312973839E+02  0.00000000000E+00 0. -1.
         11    1    4    4    0    0 -0.17679612103E+02 -0.33242681585E+02  0.70015852185E+02  0.79497573046E+02  0.00000000000E+00 0.  1.
</event>
<event>
 8    1  0.3528896E-009  0.9450830E+02  0.7561462E-02  0.1292287E+00
          2   -1    0    0  501    0  0.00000000000E+00  0.00000000000E+00  0.20660801692E+03  0.20660801692E+03  0.00000000000E+00 0. -1.
         -2   -1    0    0    0  501 -0.00000000000E+00 -0.00000000000E+00 -0.82488433952E+02  0.82488433952E+02  0.00000000000E+00 0.  1.
         25    2    1    2    0    0  0.32704320058E+02  0.66063746004E+02  0.67028692730E+02  0.15991812664E+03  0.12508785110E+03 0.  0.
         23    2    1    2    0    0 -0.32704320058E+02 -0.66063746004E+02  0.57090890242E+02  0.12917832424E+03  0.89407374516E+02 0.  0.
          5    1    3    3  502    0  0.44501086278E+02  0.51910972744E+02  0.10041583184E+03  0.12155619053E+03  0.41800000000E+01 0. -1.
         -5    1    3    3    0  502 -0.11796766220E+02  0.14152773260E+02 -0.33387139110E+02  0.38361936111E+02  0.41800000000E+01 0. -1.
        -11    1    4    4    0    0 -0.39041441596E+02 -0.40120492460E+01 -0.68642747854E+01  0.39842803231E+02  0.00000000000E+00 0.  1.
         11    1    4    4    0    0  0.63371215377E+01 -0.62051696758E+02  0.63955165027E+02  0.89335521007E+02  0.00000000000E+00 0. -1.
</event>
<event>
 8    1  0.3528896E-009  0.9853856E+02  0.7561462E-02  0.1283399E+00
         -1   -1    0    0    0  501 -0.00000000000E+00  0.00000000000E+00  0.25921370335E+03  0.25921370335E+03  0.00000000000E+00 0.  1.
          1   -1    0    0  501    0  0.00000000000E+00 -0.00000000000E+00 -0.48139131905E+02  0.48139131905E+02  0.00000000000E+00 0. -1.
         25    2    1    2    0    0 -0.22660697816E+02  0.65904047001E+01  0.10058558322E+03  0.16224040364E+03  0.12509016092E+03 0.  0.
         23    2    1    2    0    0  0.22660697816E+02 -0.65904047001E+01  0.11048898822E+03  0.14511243162E+03  0.91065144996E+02 0.  0.
          5    1    3    3  502    0 -0.70528470687E+02  0.21347939256E+02  0.77188472730E+02  0.10679668726E+03  0.41800000000E+01 0. -1.
         -5    1    3    3    0  502  0.47867772870E+02 -0.14757534556E+02  0.23397110493E+02  0.55443716372E+02  0.41800000000E+01 0. -1.
        -11    1    4    4    0    0 -0.10057027690E+02  0.25355801294E+02  0.91707240375E+02  0.95677993303E+02  0.00000000000E+00 0.  1.
         11    1    4    4    0    0  0.32717725506E+02 -0.31946205995E+02  0.18781747849E+02  0.49434438320E+02  0.00000000000E+00 0. -1.
</event>
<event>
 8    1  0.3528896E-009  0.2570546E+03  0.7561462E-02  0.1108926E+00
          1   -1    0    0  501    0  0.00000000000E+00  0.00000000000E+00  0.91642417202E+03  0.91642417202E+03  0.00000000000E+00 0. -1.
         -1   -1    0    0    0  501 -0.00000000000E+00 -0.00000000000E+00 -0.14715343180E+03  0.14715343180E+03  0.00000000000E+00 0.  1.
         25    2    1    2    0    0 -0.25137650087E+03 -0.19856800153E+02  0.74263983447E+03  0.79419518824E+03  0.12509050959E+03 0.  0.
         23    2    1    2    0    0  0.25137650087E+03  0.19856800153E+02  0.26630905753E+02  0.26938241558E+03  0.90957369044E+02 0.  0.
          5    1    3    3  502    0 -0.26651344026E+02 -0.25333073276E+02  0.24939434647E+03  0.25212511019E+03  0.41800000000E+01 0. -1.
         -5    1    3    3    0  502 -0.22472515684E+03  0.54762731229E+01  0.49324548800E+03  0.54207007805E+03  0.41800000000E+01 0. -1.
        -11    1    4    4    0    0  0.21952918741E+03  0.14827258192E+02  0.54596708441E+02  0.22670181359E+03  0.00000000000E+00 0.  1.
         11    1    4    4    0    0  0.31847313453E+02  0.50295419615E+01 -0.27965802688E+02  0.42680601993E+02  0.00000000000E+00 0. -1.
</event>
<event>
 8    1  0.3528896E-009  0.1498729E+03  0.7561462E-02  0.1200629E+00
          2   -1    0    0  501    0  0.00000000000E+00  0.00000000000E+00  0.12988059949E+04  0.12988059949E+04  0.00000000000E+00 0. -1.
         -2   -1    0    0    0  501 -0.00000000000E+00 -0.00000000000E+00 -0.19019878123E+02  0.19019878123E+02  0.00000000000E+00 0.  1.
         25    2    1    2    0    0 -0.99511375915E+02  0.52862637126E+02  0.74575532262E+03  0.76452085936E+03  0.12507665985E+03 0.  0.
         23    2    1    2    0    0  0.99511375915E+02 -0.52862637126E+02  0.53403079419E+03  0.55330501370E+03  0.90887714791E+02 0.  0.
          5    1    3    3  502    0 -0.12281988367E+03  0.35047464680E+02  0.68622897080E+03  0.69802630421E+03  0.41800000000E+01 0.  1.
         -5    1    3    3    0  502  0.23308507760E+02  0.17815172446E+02  0.59526351826E+02  0.66494555153E+02  0.41800000000E+01 0.  1.
        -11    1    4    4    0    0  0.91262738224E+02 -0.75362597283E+02  0.47657027663E+03  0.49104748958E+03  0.00000000000E+00 0. -1.
         11    1    4    4    0    0  0.82486376902E+01  0.22499960157E+02  0.57460517559E+02  0.62257524115E+02  0.00000000000E+00 0.  1.
</event>
<event>
 8    1  0.3528896E-009  0.1208721E+03  0.7561462E-02  0.1241665E+00
          2   -1    0    0  501    0  0.00000000000E+00  0.00000000000E+00  0.87635665024E+03  0.87635665024E+03  0.00000000000E+00 0. -1.
         -2   -1    0    0    0  501 -0.00000000000E+00 -0.00000000000E+00 -0.23093889255E+02  0.23093889255E+02  0.00000000000E+00 0.  1.
         25    2    1    2    0    0 -0.55345739381E+01 -0.84865966719E+02  0.57071584527E+03  0.59041836551E+03  0.12507760178E+03 0.  0.
         23    2    1    2    0    0  0.55345739381E+01  0.84865966719E+02  0.28254691571E+03  0.30903217399E+03  0.91843677871E+02 0.  0.
          5    1    3    3  502    0 -0.58546015752E+02 -0.30186272308E+02  0.36708872433E+03  0.37297513446E+03  0.41800000000E+01 0.  1.
         -5    1    3    3    0  502  0.53011441814E+02 -0.54679694412E+02  0.20362712094E+03  0.21744323105E+03  0.41800000000E+01 0.  1.
        -11    1    4    4    0    0 -0.21820126110E+02  0.53909560242E+02  0.63435991590E+02  0.86060929683E+02  0.00000000000E+00 0.  1.
         11    1    4    4    0    0  0.27354700048E+02  0.30956406477E+02  0.21911092412E+03  0.22297124430E+03  0.00000000000E+00 0. -1.
</event>
<event>
 8    1  0.3528896E-009  0.3231598E+03  0.7561462E-02  0.1074204E+00
          1   -1    0    0  501    0  0.00000000000E+00  0.00000000000E+00  0.22775394010E+03  0.22775394010E+03  0.00000000000E+00 0. -1.
         -1   -1    0    0    0  501 -0.00000000000E+00 -0.00000000000E+00 -0.49169390420E+03  0.49169390420E+03  0.00000000000E+00 0.  1.
         25    2    1    2    0    0 -0.16526673866E+03 -0.26911183777E+03 -0.12940210605E+03  0.36349228034E+03  0.12508979447E+03 0.  0.
         23    2    1    2    0    0  0.16526673866E+03  0.26911183777E+03 -0.13453785805E+03  0.35595556396E+03  0.94178830573E+02 0.  0.
          5    1    3    3  502    0 -0.13102195416E+03 -0.18457840779E+03 -0.14778396770E+03  0.27035812287E+03  0.41800000000E+01 0.  1.
         -5    1    3    3    0  502 -0.34244784506E+02 -0.84533429983E+02  0.18381861644E+02  0.93134157472E+02  0.41800000000E+01 0.  1.
        -11    1    4    4    0    0  0.73653955769E+02  0.44511040183E+02 -0.23679561987E+02  0.89257266116E+02  0.00000000000E+00 0.  1.
         11    1    4    4    0    0  0.91612782895E+02  0.22460079759E+03 -0.11085829606E+03  0.26669829784E+03  0.00000000000E+00 0. -1.
</event>
<event>
 8    1  0.3528896E-009  0.1104542E+03  0.7561462E-02  0.1259731E+00
         -1   -1    0    0    0  501 -0.00000000000E+00  0.00000000000E+00  0.65110510356E+02  0.65110510356E+02  0.00000000000E+00 0.  1.
          1   -1    0    0  501    0  0.00000000000E+00 -0.00000000000E+00 -0.32069060559E+03  0.32069060559E+03  0.00000000000E+00 0. -1.
         25    2    1    2    0    0 -0.44001733570E+02 -0.57219873076E+02 -0.21828387401E+03  0.26173618613E+03  0.12509082717E+03 0.  0.
         23    2    1    2    0    0  0.44001733570E+02  0.57219873076E+02 -0.37296221226E+02  0.12406492982E+03  0.93759438259E+02 0.  0.
          5    1    3    3  502    0 -0.85067672253E+02 -0.56575749967E+02 -0.16808831919E+03  0.19674470716E+03  0.41800000000E+01 0.  1.
         -5    1    3    3    0  502  0.41065938683E+02 -0.64412310898E+00 -0.50195554820E+02  0.64991478966E+02  0.41800000000E+01 0.  1.
        -11    1    4    4    0    0  0.86046138296E+01  0.33931497066E+02 -0.64729237718E+02  0.73588450778E+02  0.00000000000E+00 0. -1.
         11    1    4    4    0    0  0.35397119740E+02  0.23288376009E+02  0.27433016492E+02  0.50476479046E+02  0.00000000000E+00 0.  1.
</event>
<event>
 8    1  0.3528896E-009  0.1884191E+03  0.7561462E-02  0.1159895E+00
          2   -1    0    0  501    0  0.00000000000E+00  0.00000000000E+00  0.13120347115E+04  0.13120347115E+04  0.00000000000E+00 0. -1.
         -2   -1    0    0    0  501 -0.00000000000E+00 -0.00000000000E+00 -0.29300947366E+02  0.29300947366E+02  0.00000000000E+00 0.  1.
         25    2    1    2    0    0  0.73762255218E+02 -0.14215908965E+03  0.78398821301E+03  0.80989927278E+03  0.12509690983E+03 0.  0.
         23    2    1    2    0    0 -0.73762255218E+02  0.14215908965E+03  0.49874555113E+03  0.53143638609E+03  0.89595929714E+02 0.  0.
          5    1    3    3  502    0  0.10434373320E+03 -0.12308258432E+03  0.55290696227E+03  0.57598656108E+03  0.41800000000E+01 0. -1.
         -5    1    3    3    0  502 -0.30581477984E+02 -0.19076505334E+02  0.23108125074E+03  0.23391271170E+03  0.41800000000E+01 0. -1.
        -11    1    4    4    0    0  0.39483449318E+01  0.78729451953E+02  0.16359771186E+03  0.18159880880E+03  0.00000000000E+00 0.  1.
         11    1    4    4    0    0 -0.77710600149E+02  0.63429637701E+02  0.33514783927E+03  0.34983757729E+03  0.00000000000E+00 0. -1.
</event>
<event>
 8    1  0.3528896E-009  0.1355553E+03  0.7561462E-02  0.1219438E+00
         -3   -1    0    0    0  501 -0.00000000000E+00  0.00000000000E+00  0.18277306599E+03  0.18277306599E+03  0.00000000000E+00 0.  1.
          3   -1    0    0  501    0  0.00000000000E+00 -0.00000000000E+00 -0.14016288122E+03  0.14016288122E+03  0.00000000000E+00 0. -1.
         25    2    1    2    0    0  0.67519121545E+02  0.87138596411E+02 -0.17473420977E+02  0.16764517125E+03  0.12509043227E+03 0.  0.
         23    2    1    2    0    0 -0.67519121545E+02 -0.87138596411E+02  0.60083605748E+02  0.15529077596E+03  0.91395944446E+02 0.  0.
          5    1    3    3  502    0 -0.16524141707E+02  0.62472534083E+02  0.25989814318E+02  0.69776841589E+02  0.41800000000E+01 0. -1.
         -5    1    3    3    0  502  0.84043263252E+02  0.24666062328E+02 -0.43463235295E+02  0.97868329664E+02  0.41800000000E+01 0. -1.
        -11    1    4    4    0    0 -0.87677972410E+01 -0.46283587532E+02  0.68609612887E+02  0.83224537990E+02  0.00000000000E+00 0.  1.
         11    1    4    4    0    0 -0.58751324304E+02 -0.40855008880E+02 -0.85260071382E+01  0.72066237974E+02  0.00000000000E+00 0. -1.
</event>
<event>
 8    1  0.3528896E-009  0.1296081E+03  0.7561462E-02  0.1228038E+00
          2   -1    0    0  501    0  0.00000000000E+00  0.00000000000E+00  0.12918225621E+04  0.12918225621E+04  0.00000000000E+00 0. -1.
         -2   -1    0    0    0  501 -0.00000000000E+00 -0.00000000000E+00 -0.16123697009E+02  0.16123697009E+02  0.00000000000E+00 0.  1.
         25    2    1    2    0    0 -0.89235836846E+02 -0.32533244049E+02  0.74881655270E+03  0.76511097256E+03  0.12508846542E+03 0.  0.
         23    2    1    2    0    0  0.89235836846E+02  0.32533244049E+02  0.52688231243E+03  0.54283528660E+03  0.89686847827E+02 0.  0.
          5    1    3    3  502    0 -0.44946769931E+02  0.32666065255E+02  0.13219496248E+03  0.14345823243E+03  0.41800000000E+01 0.  1.
         -5    1    3    3    0  502 -0.44289066915E+02 -0.65199309305E+02  0.61662159022E+03  0.62165274013E+03  0.41800000000E+01 0.  1.
        -11    1    4    4    0    0  0.54011887251E+02  0.59385524418E+02  0.41123060536E+03  0.41899228544E+03  0.00000000000E+00 0.  1.
         11    1    4    4    0    0  0.35223949595E+02 -0.26852280369E+02  0.11565170708E+03  0.12384300116E+03  0.00000000000E+00 0. -1.
</event>
<event>
 7    1  0.3528896E-009  0.1764042E+03  0.7561462E-02  0.1171329E+00
          2   -1    0    0  501    0  0.00000000000E+00  0.00000000000E+00  0.89548362041E+03  0.89548362041E+03  0.00000000000E+00 0. -1.
         -2   -1    0    0    0  501 -0.00000000000E+00 -0.00000000000E+00 -0.44088290729E+02  0.44088290729E+02  0.00000000000E+00 0.  1.
         23    2    1    2    0    0  0.23173752861E+02 -0.15176710411E+03  0.25502111931E+03  0.31118942077E+03  0.90734820207E+02 0.  0.
          5    1    1    2  502    0  0.35694019333E+02  0.25921523877E+01  0.81876883170E+02  0.89454338452E+02  0.41800000000E+01 0. -1.
         -5    1    1    2    0  502 -0.58867772194E+02  0.14917495172E+03  0.51449732720E+03  0.53892815191E+03  0.41800000000E+01 0. -1.
        -11    1    3    3    0    0  0.29114483973E+02 -0.97304309793E+02  0.84621087405E+02  0.13219875308E+03  0.00000000000E+00 0.  1.
         11    1    3    3    0    0 -0.59407311118E+01 -0.54462794316E+02  0.17040003190E+03  0.17899066770E+03  0.00000000000E+00 0. -1.
</event>
<event>
 8    1  0.3528896E-009  0.9180774E+02  0.7561462E-02  0.1298532E+00
          1   -1    0    0  501    0  0.00000000000E+00  0.00000000000E+00  0.77330826032E+03  0.77330826032E+03  0.00000000000E+00 0. -1.
         -1   -1    0    0    0  501 -0.00000000000E+00 -0.00000000000E+00 -0.22328618228E+02  0.22328618228E+02  0.00000000000E+00 0.  1.
         25    2    1    2    0    0  0.41578662556E+02 -0.51759437504E+02  0.54150802907E+03  0.55972438206E+03  0.12511040637E+03 0.  0.
         23    2    1    2    0    0 -0.41578662556E+02  0.51759437504E+02  0.20947161303E+03  0.23591249649E+03  0.85840111744E+02 0.  0.
          5    1    3    3  502    0  0.56594910188E+02 -0.51824228901E+02  0.15601475661E+03  0.17391610403E+03  0.41800000000E+01 0. -1.
         -5    1    3    3    0  502 -0.15016247632E+02  0.64791396496E-01  0.38549327245E+03  0.38580827803E+03  0.41800000000E+01 0. -1.
        -11    1    4    4    0    0 -0.22759933511E+02  0.64534950222E+02  0.83759638059E+02  0.10815937935E+03  0.00000000000E+00 0.  1.
         11    1    4    4    0    0 -0.18818729045E+02 -0.12775512717E+02  0.12571197497E+03  0.12775311714E+03  0.00000000000E+00 0. -1.
</event>
<event>
 8    1  0.3528896E-009  0.9487985E+02  0.7561462E-02  0.1291447E+00
          3   -1    0    0  501    0  0.00000000000E+00  0.00000000000E+00  0.42426918662E+02  0.42426918662E+02  0.00000000000E+00 0. -1.
         -3   -1    0    0    0  501 -0.00000000000E+00 -0.00000000000E+00 -0.35167435631E+03  0.35167435631E+03  0.00000000000E+00 0.  1.
         25    2    1    2    0    0  0.26903480440E+02 -0.32818543090E+02 -0.10900200191E+03  0.17126060284E+03  0.12509158099E+03 0.  0.
         23    2    1    2    0    0 -0.26903480440E+02  0.32818543090E+02 -0.20024543574E+03  0.22284067214E+03  0.88084485540E+02 0.  0.
          5    1    3    3  502    0  0.11654165631E+02  0.35488126520E+02  0.44950456318E+01  0.37853725519E+02  0.41800000000E+01 0.  1.
         -5    1    3    3    0  502  0.15249314809E+02 -0.68306669610E+02 -0.11349704754E+03  0.13340687732E+03  0.41800000000E+01 0.  1.
        -11    1    4    4    0    0  0.20785967503E+02  0.26915752524E+02 -0.14799958052E+03  0.15185647834E+03  0.00000000000E+00 0.  1.
         11    1    4    4    0    0 -0.47689447942E+02  0.59027905657E+01 -0.52245855221E+02  0.70984193799E+02  0.00000000000E+00 0. -1.
</event>
<event>
 8    1  0.3528896E-009  0.1998185E+03  0.7561462E-02  0.1149892E+00
          2   -1    0    0  501    0  0.00000000000E+00  0.00000000000E+00  0.26041173972E+03  0.26041173972E+03  0.00000000000E+00 0. -1.
         -2   -1    0    0    0  501 -0.00000000000E+00 -0.00000000000E+00 -0.17303615778E+03  0.17303615778E+03  0.00000000000E+00 0.  1.
         25    2    1    2    0    0 -0.16591515736E+03  0.71952291053E+02  0.51180439761E+02  0.22576671741E+03  0.12508477783E+03 0.  0.
         23    2    1    2    0    0  0.16591515736E+03 -0.71952291053E+02  0.36195142177E+02  0.20768118010E+03  0.95479906884E+02 0.  0.
          5    1    3    3  502    0  0.18653809737E+02  0.87343900141E+01  0.18316284184E+02  0.27878537497E+02  0.41800000000E+01 0.  1.
         -5    1    3    3    0  502 -0.18456896710E+03  0.63217901039E+02  0.32864155576E+02  0.19788817991E+03  0.41800000000E+01 0.  1.
        -11    1    4    4    0    0  0.57756485542E+02 -0.93446298167E+01  0.56189663595E+02  0.81119738803E+02  0.00000000000E+00 0. -1.
         11    1    4    4    0    0  0.10815867182E+03 -0.62607661237E+02 -0.19994521418E+02  0.12656144129E+03  0.00000000000E+00 0.  1.
</event>
<event>
 8    1  0.3528896E-009  0.1518564E+03  0.7561462E-02  0.1198210E+00
          1   -1    0    0  501    0  0.00000000000E+00  0.00000000000E+00  0.20163808499E+04  0.20163808499E+04  0.00000000000E+00 0. -1.
         -1   -1    0    0    0  501 -0.00000000000E+00 -0.00000000000E+00 -0.17776658998E+02  0.17776658998E+02  0.00000000000E+00 0.  1.
         25    2    1    2    0    0  0.51311495123E+02 -0.14088202504E+03  0.12608124749E+04  0.12758417712E+04  0.12507403298E+03 0.  0.
         23    2    1    2    0    0 -0.51311495123E+02  0.14088202504E+03  0.73779171604E+03  0.75831573775E+03  0.90694693062E+02 0.  0.
          5    1    3    3  502    0  0.16660798299E+02 -0.44141543394E+02  0.10185045994E+03  0.11232562772E+03  0.41800000000E+01 0. -1.
         -5    1    3    3    0  502  0.34650696824E+02 -0.96740481649E+02  0.11589620149E+04  0.11635161434E+04  0.41800000000E+01 0. -1.
        -11    1    4    4    0    0 -0.13852111987E+02  0.92796283003E+01  0.14199971105E+02  0.21900495138E+02  0.00000000000E+00 0.  1.
         11    1    4    4    0    0 -0.37459383137E+02  0.13160239674E+03  0.72359174493E+03  0.73641524261E+03  0.00000000000E+00 0. -1.
</event>
<event>
 8    1  0.3528896E-009  0.1036727E+03  0.7561462E-02  0.1272757E+00
          1   -1    0    0  501    0  0.00000000000E+00  0.00000000000E+00  0.49522257448E+03  0.49522257448E+03  0.00000000000E+00 0. -1.
         -1   -1    0    0    0  501 -0.00000000000E+00 -0.00000000000E+00 -0.37890595049E+02  0.37890595049E+02  0.00000000000E+00 0.  1.
         25    2    1    2    0    0  0.32974779898E+02 -0.21328065161E+02  0.39373656624E+03  0.41499273628E+03  0.12509302577E+03 0.  0.
         23    2    1    2    0    0 -0.32974779898E+02  0.21328065161E+02  0.63595413194E+02  0.11812043325E+03  0.91464953395E+02 0.  0.
          5    1    3    3  502    0 -0.46155363435E+02 -0.22038012562E+02  0.17368905400E+03  0.18111143380E+03  0.41800000000E+01 0.  1.
         -5    1    3    3    0  502  0.79130143332E+02  0.70994740117E+00  0.22004751224E+03  0.23388130248E+03  0.41800000000E+01 0.  1.
        -11    1    4    4    0    0 -0.47816863321E+02  0.32834347976E+02  0.76005521290E+02  0.95610596125E+02  0.00000000000E+00 0. -1.
         11    1    4    4    0    0  0.14842083423E+02 -0.11506282815E+02 -0.12410108095E+02  0.22509837128E+02  0.00000000000E+00 0.  1.
</event>
<event>
 8    1  0.3528896E-009  0.1253505E+03  0.7561462E-02  0.1234522E+00
         -2   -1    0    0    0  501 -0.00000000000E+00  0.00000000000E+00  0.20865353262E+03  0.20865353262E+03  0.00000000000E+00 0.  1.
          2   -1    0    0  501    0  0.00000000000E+00 -0.00000000000E+00 -0.10464036978E+03  0.10464036978E+03  0.00000000000E+00 0. -1.
         25    2    1    2    0    0  0.74853587098E+02 -0.48175309180E+02  0.10695224057E+03  0.18710826129E+03  0.12508716867E+03 0.  0.
         23    2    1    2    0    0 -0.74853587098E+02  0.48175309180E+02 -0.29390777343E+01  0.12618564110E+03  0.89388242664E+02 0.  0.
          5    1    3    3  502    0  0.97344871287E+02 -0.28096291910E+02  0.11721048344E+03  0.15498772665E+03  0.41800000000E+01 0.  1.
         -5    1    3    3    0  502 -0.22491284189E+02 -0.20079017270E+02 -0.10258242867E+02  0.32120534643E+02  0.41800000000E+01 0.  1.
        -11    1    4    4    0    0 -0.57440345014E+02 -0.98477171765E+01  0.19694083313E+02  0.61516076650E+02  0.00000000000E+00 0.  1.
         11    1    4    4    0    0 -0.17413242085E+02  0.58023026357E+02 -0.22633161048E+02  0.64669564453E+02  0.00000000000E+00 0. -1.
</event>
<event>
 8    1  0.3528896E-009  0.7927346E+02  0.7561462E-02  0.1331126E+00
         -4   -1    0    0    0  501 -0.00000000000E+00  0.00000000000E+00  0.61650291127E+03  0.61650291127E+03  0.00000000000E+00 0.  1.
          4   -1    0    0  501    0  0.00000000000E+00 -0.00000000000E+00 -0.22029861356E+02  0.22029861356E+02  0.00000000000E+00 0. -1.
         25    2    1    2    0    0  0.14555077578E+02 -0.41905533557E+02  0.35037838730E+03  0.37467259836E+03  0.12508644070E+03 0.  0.
         23    2    1    2    0    0 -0.14555077578E+02  0.41905533557E+02  0.24409466262E+03  0.26386017427E+03  0.89844661622E+02 0.  0.
          5    1    3    3  502    0  0.25012367840E+02  0.18229464677E+02  0.27865687787E+03  0.28040160469E+03  0.41800000000E+01 0. -1.
         -5    1    3    3    0  502 -0.10457290262E+02 -0.60134998235E+02  0.71721509426E+02  0.94270993665E+02  0.41800000000E+01 0. -1.
        -11    1    4    4    0    0 -0.10988669676E+02 -0.95484410321E+01  0.18700354399E+00  0.14558796575E+02  0.00000000000E+00 0. -1.
         11    1    4    4    0    0 -0.35664079018E+01  0.51453974589E+02  0.24390765907E+03  0.24930137769E+03  0.00000000000E+00 0.  1.
</event>
<event>
 8    1  0.3528896E-009  0.1086624E+03  0.7561462E-02  0.1263067E+00
          1   -1    0    0  501    0  0.00000000000E+00  0.00000000000E+00  0.52229103750E+02  0.52229103750E+02  0.00000000000E+00 0. -1.
         -1   -1    0    0    0  501 -0.00000000000E+00 -0.00000000000E+00 -0.29705275835E+03  0.29705275835E+03  0.00000000000E+00 0.  1.
         25    2    1    2    0    0  0.58313869258E+02  0.77820398367E+01 -0.14943319605E+03  0.20355861894E+03  0.12507903010E+03 0.  0.
         23    2    1    2    0    0 -0.58313869258E+02 -0.77820398367E+01 -0.95390458545E+02  0.14572324316E+03  0.93138909828E+02 0.  0.
          5    1    3    3  502    0  0.11133575496E+02  0.45410873742E+02 -0.52937231001E+01  0.47239812252E+02  0.41800000000E+01 0. -1.
         -5    1    3    3    0  502  0.47180293762E+02 -0.37628833906E+02 -0.14413947295E+03  0.15631880669E+03  0.41800000000E+01 0. -1.
        -11    1    4    4    0    0 -0.50704686697E+02 -0.47482692726E+02 -0.55288186397E+02  0.88782627335E+02  0.00000000000E+00 0.  1.
         11    1    4    4    0    0 -0.76091825608E+01  0.39700652889E+02 -0.40102272148E+02  0.56940615825E+02  0.00000000000E+00 0. -1.
</event>
<event>
 8    1  0.3528896E-009  0.2804742E+03  0.7561462E-02  0.1095430E+00
         -2   -1    0    0    0  501 -0.00000000000E+00  0.00000000000E+00  0.14819759345E+03  0.14819759345E+03  0.00000000000E+00 0. -1.
          2   -1    0    0  501    0  0.00000000000E+00 -0.00000000000E+00 -0.86777154013E+03  0.86777154013E+03  0.00000000000E+00 0.  1.
         25    2    1    2    0    0  0.26244936689E+03 -0.64117768009E+01 -0.55322317589E+02  0.29602392389E+03  0.12509525822E+03 0.  0.
         23    2    1    2    0    0 -0.26244936689E+03  0.64117768009E+01 -0.66425162909E+03  0.71994520969E+03  0.90388589694E+02 0.  0.
          5    1    3    3  502    0  0.72174876916E+02 -0.57774782651E+02 -0.29936423609E+02  0.97266644985E+02  0.41800000000E+01 0. -1.
         -5    1    3    3    0  502  0.19027448997E+03  0.51363005850E+02 -0.25385893981E+02  0.19875727890E+03  0.41800000000E+01 0. -1.
        -11    1    4    4    0    0 -0.22168738966E+03  0.30732836862E+02 -0.47896093252E+03  0.52867133540E+03  0.00000000000E+00 0. -1.
         11    1    4    4    0    0 -0.40761977229E+02 -0.24321060061E+02 -0.18529069657E+03  0.19127387429E+03  0.00000000000E+00 0.  1.
</event>
<event>
 8    1  0.3528896E-009  0.1032617E+03  0.7561462E-02  0.1273583E+00
          1   -1    0    0  501    0  0.00000000000E+00  0.00000000000E+00  0.12623924765E+03  0.12623924765E+03  0.00000000000E+00 0. -1.
         -1   -1    0    0    0  501 -0.00000000000E+00 -0.00000000000E+00 -0.10107435348E+03  0.10107435348E+03  0.00000000000E+00 0.  1.
         25    2    1    2    0    0 -0.23746033254E+02  0.26688445669E+01  0.15759174992E+02  0.12832273259E+03  0.12508946909E+03 0.  0.
         23    2    1    2    0    0  0.23746033254E+02 -0.26688445669E+01  0.94057191829E+01  0.98990868539E+02  0.95601922963E+02 0.  0.
          5    1    3    3  502    0  0.16809143642E+02 -0.54371023432E+02  0.37222938847E+01  0.57184642788E+02  0.41800000000E+01 0.  1.
         -5    1    3    3    0  502 -0.40555176896E+02  0.57039867999E+02  0.12036881108E+02  0.71138089806E+02  0.41800000000E+01 0.  1.
        -11    1    4    4    0    0  0.19300982773E+00 -0.37390628767E+02 -0.24791481920E+02  0.44863280622E+02  0.00000000000E+00 0.  1.
         11    1    4    4    0    0  0.23553023426E+02  0.34721784200E+02  0.34197201103E+02  0.54127587918E+02  0.00000000000E+00 0. -1.
</event>
<event>
 8    1  0.3528896E-009  0.1464965E+03  0.7561462E-02  0.1204845E+00
         -1   -1    0    0    0  501 -0.00000000000E+00  0.00000000000E+00  0.14642025501E+03  0.14642025501E+03  0.00000000000E+00 0.  1.
          1   -1    0    0  501    0  0.00000000000E+00 -0.00000000000E+00 -0.21467703169E+03  0.21467703169E+03  0.00000000000E+00 0. -1.
         25    2    1    2    0    0  0.11783093026E+03  0.76555354291E+02  0.12684041188E+02  0.18855556024E+03  0.12508982373E+03 0.  0.
         23    2    1    2    0    0 -0.11783093026E+03 -0.76555354291E+02 -0.80940817870E+02  0.17254172647E+03  0.58943879912E+02 0.  0.
          5    1    3    3  502    0  0.77375481472E+02  0.71719141355E+02 -0.47483837095E+02  0.11577040881E+03  0.41800000000E+01 0.  1.
         -5    1    3    3    0  502  0.40455448784E+02  0.48362129359E+01  0.60167878283E+02  0.72785151432E+02  0.41800000000E+01 0.  1.
        -11    1    4    4    0    0 -0.53989759343E+02 -0.11297860853E+02 -0.54395284478E+02  0.77468592005E+02  0.00000000000E+00 0. -1.
         11    1    4    4    0    0 -0.63841170913E+02 -0.65257493438E+02 -0.26545533391E+02  0.95073134461E+02  0.00000000000E+00 0.  1.
</event>
<event>
 8    1  0.3528896E-009  0.7135509E+02  0.7561462E-02  0.1355545E+00
         -2   -1    0    0    0  501 -0.00000000000E+00  0.00000000000E+00  0.40797741098E+02  0.40797741098E+02  0.00000000000E+00 0. -1.
          2   -1    0    0  501    0  0.00000000000E+00 -0.00000000000E+00 -0.28056680703E+03  0.28056680703E+03  0.00000000000E+00 0.  1.
         25    2    1    2    0    0 -0.29478576644E+01 -0.16517613454E+02 -0.10727132500E+03  0.16563705468E+03  0.12508787031E+03 0.  0.
         23    2    1    2    0    0  0.29478576644E+01  0.16517613454E+02 -0.13249774093E+03  0.15572749344E+03  0.80086699533E+02 0.  0.
          5    1    3    3  502    0 -0.26682760780E+02 -0.23848419271E+02 -0.12802504047E+03  0.13299849703E+03  0.41800000000E+01 0.  1.
         -5    1    3    3    0  502  0.23734903116E+02  0.73308058174E+01  0.20753715473E+02  0.32638557655E+02  0.41800000000E+01 0.  1.
        -11    1    4    4    0    0  0.37045273807E+02 -0.99117668354E+01 -0.55346675024E+02  0.67333868665E+02  0.00000000000E+00 0.  1.
         11    1    4    4    0    0 -0.34097416142E+02  0.26429380289E+02 -0.77151065910E+02  0.88393624777E+02  0.00000000000E+00 0. -1.
</event>
<event>
 8    1  0.3528896E-009  0.9957906E+02  0.7561462E-02  0.1281184E+00
          3   -1    0    0  501    0  0.00000000000E+00  0.00000000000E+00  0.36576949702E+02  0.36576949702E+02  0.00000000000E+00 0. -1.
         -3   -1    0    0    0  501 -0.00000000000E+00 -0.00000000000E+00 -0.32816916903E+03  0.32816916903E+03  0.00000000000E+00 0.  1.
         25    2    1    2    0    0 -0.92496493174E+01 -0.39250896240E+01 -0.18728271618E+03  0.22543941727E+03  0.12508857956E+03 0.  0.
         23    2    1    2    0    0  0.92496493174E+01  0.39250896240E+01 -0.10430950315E+03  0.13930670146E+03  0.91787375413E+02 0.  0.
          5    1    3    3  502    0 -0.27831060945E+02 -0.50144031646E+02 -0.40378989247E+02  0.70263269463E+02  0.41800000000E+01 0.  1.
         -5    1    3    3    0  502  0.18581411628E+02  0.46218942022E+02 -0.14690372694E+03  0.15517614781E+03  0.41800000000E+01 0.  1.
        -11    1    4    4    0    0  0.50219593013E+02 -0.20617229229E+01 -0.65450640320E+02  0.82522994020E+02  0.00000000000E+00 0.  1.
         11    1    4    4    0    0 -0.40969943696E+02  0.59868125469E+01 -0.38858862826E+02  0.56783707443E+02  0.00000000000E+00 0. -1.
</event>
<event>
 8    1  0.3528896E-009  0.2716191E+03  0.7561462E-02  0.1100357E+00
          2   -1    0    0  501    0  0.00000000000E+00  0.00000000000E+00  0.20320983560E+04  0.20320983560E+04  0.00000000000E+00 0. -1.
         -2   -1    0    0    0  501 -0.00000000000E+00 -0.00000000000E+00 -0.37868409691E+02  0.37868409691E+02  0.00000000000E+00 0.  1.
         25    2    1    2    0    0  0.20474469538E+03  0.14816333447E+03  0.11486364169E+04  0.11827451235E+04  0.12509054674E+03 0.  0.
         23    2    1    2    0    0 -0.20474469538E+03 -0.14816333447E+03  0.84559352935E+03  0.88722164217E+03  0.90890381721E+02 0.  0.
          5    1    3    3  502    0  0.14246082887E+03  0.27055167197E+02  0.63315837404E+03  0.64956452247E+03  0.41800000000E+01 0. -1.
         -5    1    3    3    0  502  0.62283866511E+02  0.12110816727E+03  0.51547804288E+03  0.53318060101E+03  0.41800000000E+01 0. -1.
        -11    1    4    4    0    0 -0.16824606944E+03 -0.83873508077E+02  0.68676720000E+03  0.71203278874E+03  0.00000000000E+00 0.  1.
         11    1    4    4    0    0 -0.36498625932E+02 -0.64289826388E+02  0.15882632935E+03  0.17518885343E+03  0.00000000000E+00 0. -1.
</event>
<event>
 8    1  0.3528896E-009  0.9307576E+02  0.7561462E-02  0.1295570E+00
          4   -1    0    0  501    0  0.00000000000E+00  0.00000000000E+00  0.38630643455E+02  0.38630643455E+02  0.00000000000E+00 0. -1.
         -4   -1    0    0    0  501 -0.00000000000E+00 -0.00000000000E+00 -0.31467586449E+03  0.31467586449E+03  0.00000000000E+00 0.  1.
         25    2    1    2    0    0 -0.62811986089E+01  0.12266001996E+02 -0.14752485297E+03  0.19391001326E+03  0.12509037827E+03 0.  0.
         23    2    1    2    0    0  0.62811986089E+01 -0.12266001996E+02 -0.12852036806E+03  0.15939649469E+03  0.93272982426E+02 0.  0.
          5    1    3    3  502    0  0.43925449168E+02  0.10883444693E+02 -0.13433380001E+03  0.14181303423E+03  0.41800000000E+01 0.  1.
         -5    1    3    3    0  502 -0.50206647777E+02  0.13825573031E+01 -0.13191052965E+02  0.52096979029E+02  0.41800000000E+01 0.  1.
        -11    1    4    4    0    0  0.41549124662E+02  0.16588553931E+02 -0.86628109836E+02  0.97498406630E+02  0.00000000000E+00 0.  1.
         11    1    4    4    0    0 -0.35267926053E+02 -0.28854555927E+02 -0.41892258228E+02  0.61898088058E+02  0.00000000000E+00 0. -1.
</event>
<event>
 7    1  0.3528896E-009  0.2097345E+03  0.7561462E-02  0.1141776E+00
         -1   -1    0    0    0  501 -0.00000000000E+00  0.00000000000E+00  0.68595851199E+02  0.68595851199E+02  0.00000000000E+00 0.  1.
          1   -1    0    0  501    0  0.00000000000E+00 -0.00000000000E+00 -0.73340901004E+03  0.73340901004E+03  0.00000000000E+00 0. -1.
         23    2    1    2    0    0 -0.73725834131E+02  0.17226856947E+03 -0.42273655479E+03  0.47133498863E+03  0.91315486670E+02 0.  0.
          5    1    1    2  502    0  0.10577404150E+03 -0.14909515367E+03 -0.17753762005E+03  0.25486190699E+03  0.41800000000E+01 0. -1.
         -5    1    1    2    0  502 -0.32048207366E+02 -0.23173415798E+02 -0.64538984000E+02  0.75807965616E+02  0.41800000000E+01 0. -1.
        -11    1    3    3    0    0 -0.68528760938E+02  0.83915982555E+02 -0.30753287026E+03  0.32605911963E+03  0.00000000000E+00 0. -1.
         11    1    3    3    0    0 -0.51970731935E+01  0.88352586915E+02 -0.11520368453E+03  0.14527586900E+03  0.00000000000E+00 0.  1.
</event>
<event>
 8    1  0.3528896E-009  0.1225955E+03  0.7561462E-02  0.1238876E+00
         -2   -1    0    0    0  501 -0.00000000000E+00  0.00000000000E+00  0.35423774367E+02  0.35423774367E+02  0.00000000000E+00 0.  1.
          2   -1    0    0  501    0  0.00000000000E+00 -0.00000000000E+00 -0.50285686034E+03  0.50285686034E+03  0.00000000000E+00 0. -1.
         25    2    1    2    0    0  0.47142851531E+02  0.59344391012E+02 -0.29834141221E+03  0.33226606040E+03  0.12509568920E+03 0.  0.
         23    2    1    2    0    0 -0.47142851531E+02 -0.59344391012E+02 -0.16909167376E+03  0.20601457431E+03  0.90032246986E+02 0.  0.
          5    1    3    3  502    0 -0.28541790923E+02  0.40708167019E+02 -0.45056602442E+02  0.67226174328E+02  0.41800000000E+01 0. -1.
         -5    1    3    3    0  502  0.75684642454E+02  0.18636223993E+02 -0.25328480977E+03  0.26503988607E+03  0.41800000000E+01 0. -1.
        -11    1    4    4    0    0 -0.37052860019E+02  0.16620034966E+02 -0.67283894106E+02  0.78589200301E+02  0.00000000000E+00 0.  1.
         11    1    4    4    0    0 -0.10089991512E+02 -0.75964425978E+02 -0.10180777966E+03  0.12742537401E+03  0.00000000000E+00 0. -1.
</event>
<event>
 8    1  0.3528896E-009  0.1701020E+03  0.7561462E-02  0.1177742E+00
         -1   -1    0    0    0  501 -0.00000000000E+00  0.00000000000E+00  0.35056520156E+02  0.35056520156E+02  0.00000000000E+00 0.  1.
          1   -1    0    0  501    0  0.00000000000E+00 -0.00000000000E+00 -0.11796536935E+04  0.11796536935E+04  0.00000000000E+00 0. -1.
         25    2    1    2    0    0  0.16469955868E+03 -0.77344358212E+01 -0.45080196103E+03  0.49604184247E+03  0.12509730327E+03 0.  0.
         23    2    1    2    0    0 -0.16469955868E+03  0.77344358212E+01 -0.69379521229E+03  0.71866837117E+03  0.89144068718E+02 0.  0.
          5    1    3    3  502    0  0.60940218476E+02 -0.29551836868E+02 -0.58338414573E+02  0.89486671103E+02  0.41800000000E+01 0. -1.
         -5    1    3    3    0  502  0.10375934020E+03  0.21817401047E+02 -0.39246354646E+03  0.40655517137E+03  0.41800000000E+01 0. -1.
        -11    1    4    4    0    0 -0.71918863175E+02  0.13906789984E+02 -0.14942675648E+03  0.16641537561E+03  0.00000000000E+00 0.  1.
         11    1    4    4    0    0 -0.92780695500E+02 -0.61723541624E+01 -0.54436845581E+03  0.55225299555E+03  0.00000000000E+00 0. -1.
</event>
<event>
 8    1  0.3528896E-009  0.7519099E+02  0.7561462E-02  0.1343281E+00
         -2   -1    0    0    0  501 -0.00000000000E+00  0.00000000000E+00  0.13098591063E+03  0.13098591063E+03  0.00000000000E+00 0.  1.
          2   -1    0    0  501    0  0.00000000000E+00 -0.00000000000E+00 -0.12961304719E+03  0.12961304719E+03  0.00000000000E+00 0. -1.
         25    2    1    2    0    0  0.45253317877E+02 -0.44193888468E+00  0.57874620885E+02  0.14507224199E+03  0.12509366717E+03 0.  0.
         23    2    1    2    0    0 -0.45253317877E+02  0.44193888468E+00 -0.56501757444E+02  0.11552671583E+03  0.90032857271E+02 0.  0.
          5    1    3    3  502    0  0.72808659524E+01 -0.18533537671E+02 -0.36430669415E+02  0.41727318409E+02  0.41800000000E+01 0. -1.
         -5    1    3    3    0  502  0.37972451925E+02  0.18091598786E+02  0.94305290300E+02  0.10334492358E+03  0.41800000000E+01 0. -1.
        -11    1    4    4    0    0 -0.24662224962E+02 -0.37333215979E+02 -0.29545296321E+00  0.44744627028E+02  0.00000000000E+00 0.  1.
         11    1    4    4    0    0 -0.20591092915E+02  0.37775154864E+02 -0.56206304481E+02  0.70782088807E+02  0.00000000000E+00 0. -1.
</event>
<event>
 8    1  0.3528896E-009  0.9638114E+02  0.7561462E-02  0.1288095E+00
         -1   -1    0    0    0  501 -0.00000000000E+00  0.00000000000E+00  0.32194920884E+02  0.32194920884E+02  0.00000000000E+00 0.  1.
          1   -1    0    0  501    0  0.00000000000E+00 -0.00000000000E+00 -0.75484911301E+03  0.75484911301E+03  0.00000000000E+00 0. -1.
         25    2    1    2    0    0  0.69726473125E+02  0.44920798375E+02 -0.57938324858E+03  0.59850806768E+03  0.12508916483E+03 0.  0.
         23    2    1    2    0    0 -0.69726473125E+02 -0.44920798375E+02 -0.14327094354E+03  0.18853596621E+03  0.90219665880E+02 0.  0.
          5    1    3    3  502    0  0.36745154561E+02 -0.45638055875E+01 -0.48786240900E+03  0.48928339152E+03  0.41800000000E+01 0.  1.
         -5    1    3    3    0  502  0.32981318563E+02  0.49484603963E+02 -0.91520839586E+02  0.10922467616E+03  0.41800000000E+01 0.  1.
        -11    1    4    4    0    0 -0.24767198968E+02  0.83871003484E+01 -0.10657217656E+03  0.10973325118E+03  0.00000000000E+00 0. -1.
         11    1    4    4    0    0 -0.44959274157E+02 -0.53307898723E+02 -0.36698766979E+02  0.78802715034E+02  0.00000000000E+00 0.  1.
</event>
<event>
 8    1  0.3528896E-009  0.1723358E+03  0.7561462E-02  0.1175434E+00
          2   -1    0    0  501    0  0.00000000000E+00  0.00000000000E+00  0.92069845724E+02  0.92069845724E+02  0.00000000000E+00 0. -1.
         -2   -1    0    0    0  501 -0.00000000000E+00 -0.00000000000E+00 -0.34101948758E+03  0.34101948758E+03  0.00000000000E+00 0.  1.
         25    2    1    2    0    0 -0.11007655237E+03  0.86040043893E+02 -0.12103865264E+03  0.22320016523E+03  0.12509285267E+03 0.  0.
         23    2    1    2    0    0  0.11007655237E+03 -0.86040043893E+02 -0.12791098922E+03  0.20988916808E+03  0.90401909156E+02 0.  0.
          5    1    3    3  502    0  0.20208179228E+02  0.35589899551E+02 -0.54803388868E+02  0.68526602784E+02  0.41800000000E+01 0.  1.
         -5    1    3    3    0  502 -0.13028473160E+03  0.50450144342E+02 -0.66235263773E+02  0.15467356244E+03  0.41800000000E+01 0.  1.
        -11    1    4    4    0    0  0.10634991537E+03 -0.34098458205E+02 -0.69075860284E+02  0.13131825397E+03  0.00000000000E+00 0.  1.
         11    1    4    4    0    0  0.37266369978E+01 -0.51941585688E+02 -0.58835128936E+02  0.78570914110E+02  0.00000000000E+00 0. -1.
</event>
<event>
 8    1  0.3528896E-009  0.1093696E+03  0.7561462E-02  0.1261742E+00
          2   -1    0    0  501    0  0.00000000000E+00  0.00000000000E+00  0.13764983220E+04  0.13764983220E+04  0.00000000000E+00 0. -1.
         -2   -1    0    0    0  501 -0.00000000000E+00 -0.00000000000E+00 -0.16446924252E+02  0.16446924252E+02  0.00000000000E+00 0.  1.
         25    2    1    2    0    0  0.50020945059E+02 -0.45745936592E+01  0.11560057903E+04  0.11638389072E+04  0.12509433581E+03 0.  0.
         23    2    1    2    0    0 -0.50020945059E+02  0.45745936592E+01  0.20404560748E+03  0.22910633908E+03  0.91280243346E+02 0.  0.
          5    1    3    3  502    0  0.69224779620E+01 -0.50894394152E+02  0.83744382137E+03  0.83902788179E+03  0.41800000000E+01 0. -1.
         -5    1    3    3    0  502  0.43098467097E+02  0.46319800492E+02  0.31856196893E+03  0.32481102542E+03  0.41800000000E+01 0. -1.
        -11    1    4    4    0    0 -0.55650682339E+02  0.39614151514E+02  0.12465923001E+03  0.14214852469E+03  0.00000000000E+00 0.  1.
         11    1    4    4    0    0  0.56297372795E+01 -0.35039557855E+02  0.79386377467E+02  0.86957814392E+02  0.00000000000E+00 0. -1.
</event>
<event>
 8    1  0.3528896E-009  0.1224662E+03  0.7561462E-02  0.1239083E+00
         -1   -1    0    0    0  501 -0.00000000000E+00  0.00000000000E+00  0.56735571458E+02  0.56735571458E+02  0.00000000000E+00 0.  1.
          1   -1    0    0  501    0  0.00000000000E+00 -0.00000000000E+00 -0.28260693550E+03  0.28260693550E+03  0.00000000000E+00 0. -1.
         25    2    1    2    0    0 -0.50057312841E+02 -0.23834524799E+02 -0.12794315674E+03  0.18733517921E+03  0.12510475160E+03 0.  0.
         23    2    1    2    0    0  0.50057312841E+02  0.23834524799E+02 -0.97928207306E+02  0.15200732775E+03  0.10218842773E+03 0.  0.
          5    1    3    3  502    0  0.37358915399E+02  0.35922315075E+01 -0.12251400652E+02  0.39700905593E+02  0.41800000000E+01 0. -1.
         -5    1    3    3    0  502 -0.87416228240E+02 -0.27426756306E+02 -0.11569175609E+03  0.14763427362E+03  0.41800000000E+01 0. -1.
        -11    1    4    4    0    0  0.33851359002E+02 -0.38374105916E+02 -0.34615628372E+02  0.61779674964E+02  0.00000000000E+00 0.  1.
         11    1    4    4    0    0  0.16205953839E+02  0.62208630714E+02 -0.63312578934E+02  0.90227652781E+02  0.00000000000E+00 0. -1.
</event>
<event>
 8    1  0.3528896E-009  0.1049360E+03  0.7561462E-02  0.1270246E+00
          1   -1    0    0  501    0  0.00000000000E+00  0.00000000000E+00  0.20861210235E+03  0.20861210235E+03  0.00000000000E+00 0. -1.
         -1   -1    0    0    0  501 -0.00000000000E+00 -0.00000000000E+00 -0.69850383399E+02  0.69850383399E+02  0.00000000000E+00 0.  1.
         25    2    1    2    0    0 -0.46888422550E+02  0.23522056792E+02  0.77322579776E+02  0.15614449411E+03  0.12510199988E+03 0.  0.
         23    2    1    2    0    0  0.46888422550E+02 -0.23522056792E+02  0.61439139178E+02  0.12231799164E+03  0.91842865430E+02 0.  0.
          5    1    3    3  502    0  0.28738743705E+02  0.16045221258E+02 -0.15068975596E+02  0.36440512352E+02  0.41800000000E+01 0.  1.
         -5    1    3    3    0  502 -0.75627166255E+02  0.74768355342E+01  0.92391555372E+02  0.11970398176E+03  0.41800000000E+01 0.  1.
        -11    1    4    4    0    0 -0.34794194054E+01 -0.45496732380E+02  0.93025171686E+01  0.46568184872E+02  0.00000000000E+00 0.  1.
         11    1    4    4    0    0  0.50367841956E+02  0.21974675588E+02  0.52136622009E+02  0.75749806765E+02  0.00000000000E+00 0. -1.
</event>
<event>
 8    1  0.3528896E-009  0.2503428E+03  0.7561462E-02  0.1113088E+00
          1   -1    0    0  501    0  0.00000000000E+00  0.00000000000E+00  0.10852722160E+04  0.10852722160E+04  0.00000000000E+00 0. -1.
         -1   -1    0    0    0  501 -0.00000000000E+00 -0.00000000000E+00 -0.62726107319E+02  0.62726107319E+02  0.00000000000E+00 0.  1.
         25    2    1    2    0    0  0.17541129773E+03 -0.15050220527E+03  0.41021713915E+03  0.48718274700E+03  0.12509552574E+03 0.  0.
         23    2    1    2    0    0 -0.17541129773E+03  0.15050220527E+03  0.61232896955E+03  0.66081557634E+03  0.91161514991E+02 0.  0.
          5    1    3    3  502    0  0.18920060515E+03 -0.15012214439E+03  0.40553545998E+03  0.47202755102E+03  0.41800000000E+01 0. -1.
         -5    1    3    3    0  502 -0.13789307413E+02 -0.38006087254E+00  0.46816791667E+01  0.15155195974E+02  0.41800000000E+01 0. -1.
        -11    1    4    4    0    0 -0.11154915728E+03  0.14155713140E+03  0.39607509693E+03  0.43515183367E+03  0.00000000000E+00 0.  1.
         11    1    4    4    0    0 -0.63862140453E+02  0.89450738658E+01  0.21625387262E+03  0.22566374267E+03  0.00000000000E+00 0. -1.
</event>
<event>
 8    1  0.3528896E-009  0.7144096E+02  0.7561462E-02  0.1355260E+00
         -1   -1    0    0    0  501 -0.00000000000E+00  0.00000000000E+00  0.32828867018E+03  0.32828867018E+03  0.00000000000E+00 0.  1.
          1   -1    0    0  501    0  0.00000000000E+00 -0.00000000000E+00 -0.36672803438E+02  0.36672803438E+02  0.00000000000E+00 0. -1.
         25    2    1    2    0    0 -0.22473202633E+02 -0.53417550559E+01  0.18368411787E+03  0.22343067794E+03  0.12509130068E+03 0.  0.
         23    2    1    2    0    0  0.22473202633E+02  0.53417550559E+01  0.10793174888E+03  0.14153079568E+03  0.88589641189E+02 0.  0.
          5    1    3    3  502    0 -0.22271509381E+02  0.24068122764E+02  0.19017250016E+03  0.19302421319E+03  0.41800000000E+01 0. -1.
         -5    1    3    3    0  502 -0.20169325139E+00 -0.29409877820E+02 -0.64883822921E+01  0.30406464745E+02  0.41800000000E+01 0. -1.
        -11    1    4    4    0    0  0.21569748827E+02  0.40001961132E+02  0.25518353881E+02  0.52120987554E+02  0.00000000000E+00 0. -1.
         11    1    4    4    0    0  0.90345380583E+00 -0.34660206076E+02  0.82413394996E+02  0.89409808124E+02  0.00000000000E+00 0.  1.
</event>
<event>
 8    1  0.3528896E-009  0.1537431E+03  0.7561462E-02  0.1195948E+00
         -1   -1    0    0    0  501 -0.00000000000E+00  0.00000000000E+00  0.43257223673E+03  0.43257223673E+03  0.00000000000E+00 0.  1.
          1   -1    0    0  501    0  0.00000000000E+00 -0.00000000000E+00 -0.61040455461E+02  0.61040455461E+02  0.00000000000E+00 0. -1.
         25    2    1    2    0    0 -0.92610358758E+02 -0.73320137926E+02  0.23208771490E+03  0.28890540299E+03  0.12509637602E+03 0.  0.
         23    2    1    2    0    0  0.92610358758E+02  0.73320137926E+02  0.13944406637E+03  0.20470728920E+03  0.92238307830E+02 0.  0.
          5    1    3    3  502    0 -0.67456913076E+02  0.13793498802E+02  0.15560952832E+03  0.17021308245E+03  0.41800000000E+01 0.  1.
         -5    1    3    3    0  502 -0.25153445682E+02 -0.87113636729E+02  0.76478186572E+02  0.11869232054E+03  0.41800000000E+01 0.  1.
        -11    1    4    4    0    0  0.41706094919E+02 -0.16212183811E+02  0.27166525782E+02  0.52347429549E+02  0.00000000000E+00 0.  1.
         11    1    4    4    0    0  0.50904263839E+02  0.89532321737E+02  0.11227754059E+03  0.15235985965E+03  0.00000000000E+00 0. -1.
</event>
<event>
 8    1  0.3528896E-009  0.9827852E+02  0.7561462E-02  0.1283958E+00
         -1   -1    0    0    0  501 -0.00000000000E+00  0.00000000000E+00  0.47824711963E+02  0.47824711963E+02  0.00000000000E+00 0.  1.
          1   -1    0    0  501    0  0.00000000000E+00 -0.00000000000E+00 -0.31590922737E+03  0.31590922737E+03  0.00000000000E+00 0. -1.
         25    2    1    2    0    0  0.53892971470E+02 -0.70039776253E+01 -0.15306668084E+03  0.20501398063E+03  0.12509122829E+03 0.  0.
         23    2    1    2    0    0 -0.53892971470E+02  0.70039776253E+01 -0.11501783456E+03  0.15871995870E+03  0.94917937952E+02 0.  0.
          5    1    3    3  502    0 -0.37240967461E+02  0.18197093271E+02 -0.50069534490E+02  0.65134127345E+02  0.41800000000E+01 0. -1.
         -5    1    3    3    0  502  0.91133938931E+02 -0.25201070897E+02 -0.10299714635E+03  0.13987985329E+03  0.41800000000E+01 0. -1.
        -11    1    4    4    0    0 -0.40094093772E+02  0.16651391110E+02 -0.12945499647E+03  0.13654084112E+03  0.00000000000E+00 0. -1.
         11    1    4    4    0    0 -0.13798877697E+02 -0.96474134846E+01  0.14437161910E+02  0.22179117581E+02  0.00000000000E+00 0.  1.
</event>
<event>
 8    1  0.3528896E-009  0.1460826E+03  0.7561462E-02  0.1205371E+00
          2   -1    0    0  501    0  0.00000000000E+00  0.00000000000E+00  0.61348357514E+03  0.61348357514E+03  0.00000000000E+00 0. -1.
         -2   -1    0    0    0  501 -0.00000000000E+00 -0.00000000000E+00 -0.39678021064E+02  0.39678021064E+02  0.00000000000E+00 0.  1.
         25    2    1    2    0    0  0.49879509711E+02 -0.88000160884E+02  0.20807826650E+03  0.26301284766E+03  0.12508876544E+03 0.  0.
         23    2    1    2    0    0 -0.49879509711E+02  0.88000160884E+02  0.36572728758E+03  0.39014874855E+03  0.90706137121E+02 0.  0.
          5    1    3    3  502    0 -0.32113569203E+02  0.86663486282E+01  0.35283385469E+02  0.48670079265E+02  0.41800000000E+01 0. -1.
         -5    1    3    3    0  502  0.81993078915E+02 -0.96666509512E+02  0.17279488103E+03  0.21434276839E+03  0.41800000000E+01 0. -1.
        -11    1    4    4    0    0 -0.30880783239E+02 -0.96351073674E+01  0.13632854766E+03  0.14011399278E+03  0.00000000000E+00 0. -1.
         11    1    4    4    0    0 -0.18998726473E+02  0.97635268252E+02  0.22939873992E+03  0.25003475577E+03  0.00000000000E+00 0.  1.
</event>
<event>
 8    1  0.3528896E-009  0.1132522E+03  0.7561462E-02  0.1254663E+00
         -2   -1    0    0    0  501 -0.00000000000E+00  0.00000000000E+00  0.33888895936E+02  0.33888895936E+02  0.00000000000E+00 0.  1.
          2   -1    0    0  501    0  0.00000000000E+00 -0.00000000000E+00 -0.48117077951E+03  0.48117077951E+03  0.00000000000E+00 0. -1.
         25    2    1    2    0    0  0.11486398966E+02  0.39032539008E+02 -0.13618666458E+03  0.18933833498E+03  0.12508685391E+03 0.  0.
         23    2    1    2    0    0 -0.11486398966E+02 -0.39032539008E+02 -0.31109521899E+03  0.32572134046E+03  0.87513883988E+02 0.  0.
          5    1    3    3  502    0  0.32058933365E+02  0.78768161255E+02 -0.75317334426E+02  0.11367661018E+03  0.41800000000E+01 0. -1.
         -5    1    3    3    0  502 -0.20572534400E+02 -0.39735622248E+02 -0.60869330154E+02  0.75661724805E+02  0.41800000000E+01 0. -1.
        -11    1    4    4    0    0  0.38074995031E+02 -0.22216977134E+02 -0.14928879503E+03  0.15566131068E+03  0.00000000000E+00 0. -1.
         11    1    4    4    0    0 -0.49561393997E+02 -0.16815561874E+02 -0.16180642396E+03  0.17006002979E+03  0.00000000000E+00 0.  1.
</event>
<event>
 8    1  0.3528896E-009  0.8403366E+02  0.7561462E-02  0.1317979E+00
         -2   -1    0    0    0  501 -0.00000000000E+00  0.00000000000E+00  0.11469584851E+03  0.11469584851E+03  0.00000000000E+00 0.  1.
          2   -1    0    0  501    0  0.00000000000E+00 -0.00000000000E+00 -0.12232392288E+03  0.12232392288E+03  0.00000000000E+00 0. -1.
         25    2    1    2    0    0  0.87467105813E+01 -0.23055494870E+02 -0.44205160324E+02  0.13494173813E+03  0.12508843153E+03 0.  0.
         23    2    1    2    0    0 -0.87467105813E+01  0.23055494870E+02  0.36577085954E+02  0.10207803325E+03  0.92054227852E+02 0.  0.
          5    1    3    3  502    0  0.18505930841E+02 -0.61527281095E+02  0.12511864691E+02  0.65590357167E+02  0.41800000000E+01 0. -1.
         -5    1    3    3    0  502 -0.97592202595E+01  0.38471786226E+02 -0.56717025014E+02  0.69351380966E+02  0.41800000000E+01 0. -1.
        -11    1    4    4    0    0  0.12827770431E+02  0.36270091230E+02 -0.17583601009E+02  0.42299577261E+02  0.00000000000E+00 0. -1.
         11    1    4    4    0    0 -0.21574481012E+02 -0.13214596360E+02  0.54160686964E+02  0.59778455988E+02  0.00000000000E+00 0.  1.
</event>
<event>
 8    1  0.3528896E-009  0.1180815E+03  0.7561462E-02  0.1246296E+00
         -1   -1    0    0    0  501 -0.00000000000E+00  0.00000000000E+00  0.13442957562E+03  0.13442957562E+03  0.00000000000E+00 0.  1.
          1   -1    0    0  501    0  0.00000000000E+00 -0.00000000000E+00 -0.18613769401E+03  0.18613769401E+03  0.00000000000E+00 0. -1.
         25    2    1    2    0    0 -0.10393212424E+03 -0.18981512886E+02  0.18000080810E+02  0.16472528332E+03  0.12509289258E+03 0.  0.
         23    2    1    2    0    0  0.10393212424E+03  0.18981512886E+02 -0.69708199200E+02  0.15584198632E+03  0.90913735935E+02 0.  0.
          5    1    3    3  502    0 -0.11353640484E+03 -0.22604111880E+02 -0.26527803664E+02  0.11883878939E+03  0.41800000000E+01 0.  1.
         -5    1    3    3    0  502  0.96042805942E+01  0.36225989936E+01  0.44527884474E+02  0.45886493927E+02  0.41800000000E+01 0.  1.
        -11    1    4    4    0    0  0.19804900215E+02  0.15309567917E+02 -0.67074670517E+02  0.71593493890E+02  0.00000000000E+00 0. -1.
         11    1    4    4    0    0  0.84127224030E+02  0.36719449690E+01 -0.26335286831E+01  0.84248492426E+02  0.00000000000E+00 0.  1.
</event>
<event>
 8    1  0.3528896E-009  0.1622819E+03  0.7561462E-02  0.1186144E+00
         -1   -1    0    0    0  501 -0.00000000000E+00  0.00000000000E+00  0.17731731229E+03  0.17731731229E+03  0.00000000000E+00 0.  1.
          1   -1    0    0  501    0  0.00000000000E+00 -0.00000000000E+00 -0.24713938440E+03  0.24713938440E+03  0.00000000000E+00 0. -1.
         25    2    1    2    0    0 -0.44666056366E+02 -0.13632501870E+03  0.71216954254E+02  0.20322122210E+03  0.12508974069E+03 0.  0.
         23    2    1    2    0    0  0.44666056366E+02  0.13632501870E+03 -0.14103902636E+03  0.22123547459E+03  0.92051946991E+02 0.  0.
          5    1    3    3  502    0 -0.99688752011E+01 -0.14452251187E+03  0.80985971705E+02  0.16601908000E+03  0.41800000000E+01 0. -1.
         -5    1    3    3    0  502 -0.34697181165E+02  0.81974931728E+01 -0.97690174510E+01  0.37202142103E+02  0.41800000000E+01 0. -1.
        -11    1    4    4    0    0  0.22330230712E+02  0.53879939072E+02 -0.23726716727E+01  0.58372224636E+02  0.00000000000E+00 0. -1.
         11    1    4    4    0    0  0.22335825654E+02  0.82445079627E+02 -0.13866635469E+03  0.16286324995E+03  0.00000000000E+00 0.  1.
</event>
<event>
 8    1  0.3528896E-009  0.1152221E+03  0.7561462E-02  0.1251194E+00
          1   -1    0    0  501    0  0.00000000000E+00  0.00000000000E+00  0.19668921566E+02  0.19668921566E+02  0.00000000000E+00 0. -1.
         -1   -1    0    0    0  501 -0.00000000000E+00 -0.00000000000E+00 -0.89907671797E+03  0.89907671797E+03  0.00000000000E+00 0.  1.
         25    2    1    2    0    0  0.53042299635E+02  0.29595893541E+02 -0.64769189139E+03  0.66245129026E+03  0.12509006089E+03 0.  0.
         23    2    1    2    0    0 -0.53042299635E+02 -0.29595893541E+02 -0.23171590502E+03  0.25629434928E+03  0.91132487996E+02 0.  0.
          5    1    3    3  502    0  0.60017493712E+02 -0.37876671562E+02 -0.32880406475E+03  0.33640203209E+03  0.41800000000E+01 0. -1.
         -5    1    3    3    0  502 -0.69751940769E+01  0.67472565103E+02 -0.31888782664E+03  0.32604925817E+03  0.41800000000E+01 0. -1.
        -11    1    4    4    0    0 -0.69079280353E+02 -0.17383966802E+02 -0.22341273876E+03  0.23449392554E+03  0.00000000000E+00 0.  1.
         11    1    4    4    0    0  0.16036980718E+02 -0.12211926739E+02 -0.83031662617E+01  0.21800423739E+02  0.00000000000E+00 0. -1.
</event>
<event>
 8    1  0.3528896E-009  0.1559838E+03  0.7561462E-02  0.1193307E+00
          1   -1    0    0  501    0  0.00000000000E+00  0.00000000000E+00  0.58195912597E+03  0.58195912597E+03  0.00000000000E+00 0. -1.
         -1   -1    0    0    0  501 -0.00000000000E+00 -0.00000000000E+00 -0.44708074996E+02  0.44708074996E+02  0.00000000000E+00 0.  1.
         25    2    1    2    0    0 -0.40832285400E+02  0.11169269175E+03  0.27224254800E+03  0.32234864063E+03  0.12510039270E+03 0.  0.
         23    2    1    2    0    0  0.40832285400E+02 -0.11169269175E+03  0.26500850296E+03  0.30431856033E+03  0.90762032780E+02 0.  0.
          5    1    3    3  502    0  0.87043887612E+01  0.12107071290E+03  0.20366287182E+03  0.23712849189E+03  0.41800000000E+01 0. -1.
         -5    1    3    3    0  502 -0.49536674161E+02 -0.93780211453E+01  0.68579676180E+02  0.85220148748E+02  0.41800000000E+01 0. -1.
        -11    1    4    4    0    0  0.45308696016E+02 -0.22445611777E+02  0.48368896410E+02  0.69973091705E+02  0.00000000000E+00 0. -1.
         11    1    4    4    0    0 -0.44764106160E+01 -0.89247079972E+02  0.21663960655E+03  0.23434546862E+03  0.00000000000E+00 0.  1.
</event>
<event>
 8    1  0.3528896E-009  0.1132598E+03  0.7561462E-02  0.1254650E+00
          1   -1    0    0  501    0  0.00000000000E+00  0.00000000000E+00  0.97496045516E+03  0.97496045516E+03  0.00000000000E+00 0. -1.
         -1   -1    0    0    0  501 -0.00000000000E+00 -0.00000000000E+00 -0.14917151232E+02  0.14917151232E+02  0.00000000000E+00 0.  1.
         25    2    1    2    0    0  0.39101155425E+02 -0.21716715657E+01  0.65717499026E+03  0.67011911165E+03  0.12508812679E+03 0.  0.
         23    2    1    2    0    0 -0.39101155425E+02  0.21716715657E+01  0.30286831368E+03  0.31975849475E+03  0.94776911860E+02 0.  0.
          5    1    3    3  502    0  0.71845609861E+02 -0.36732096829E+02  0.47258768357E+03  0.47944512685E+03  0.41800000000E+01 0. -1.
         -5    1    3    3    0  502 -0.32744454436E+02  0.34560425263E+02  0.18458730668E+03  0.19067398480E+03  0.41800000000E+01 0. -1.
        -11    1    4    4    0    0 -0.61877404155E+02 -0.21089900226E+02  0.15275608279E+03  0.16615660645E+03  0.00000000000E+00 0.  1.
         11    1    4    4    0    0  0.22776248729E+02  0.23261571791E+02  0.15011223088E+03  0.15360188830E+03  0.00000000000E+00 0. -1.
</event>
<event>
 8    1  0.3528896E-009  0.1171641E+03  0.7561462E-02  0.1247850E+00
          1   -1    0    0  501    0  0.00000000000E+00  0.00000000000E+00  0.36061063637E+03  0.36061063637E+03  0.00000000000E+00 0. -1.
         -1   -1    0    0    0  501 -0.00000000000E+00 -0.00000000000E+00 -0.40507839987E+02  0.40507839987E+02  0.00000000000E+00 0.  1.
         25    2    1    2    0    0  0.16742329154E+02 -0.49434898824E+02  0.16167664526E+03  0.21098567929E+03  0.12510597283E+03 0.  0.
         23    2    1    2    0    0 -0.16742329154E+02  0.49434898824E+02  0.15842615113E+03  0.19013279707E+03  0.91255248356E+02 0.  0.
          5    1    3    3  502    0 -0.30342861088E+02  0.30039080939E+02  0.56462356724E+02  0.70911957591E+02  0.41800000000E+01 0. -1.
         -5    1    3    3    0  502  0.47085190242E+02 -0.79473979763E+02  0.10521428854E+03  0.14007372170E+03  0.41800000000E+01 0. -1.
        -11    1    4    4    0    0  0.30454794084E+02  0.40902977904E+02  0.49291002297E+02  0.70923557381E+02  0.00000000000E+00 0.  1.
         11    1    4    4    0    0 -0.47197123238E+02  0.85319209200E+01  0.10913514883E+03  0.11920923969E+03  0.00000000000E+00 0. -1.
</event>
<event>
 8    1  0.3528896E-009  0.9880465E+02  0.7561462E-02  0.1282830E+00
          3   -1    0    0  501    0  0.00000000000E+00  0.00000000000E+00  0.16354848696E+03  0.16354848696E+03  0.00000000000E+00 0. -1.
         -3   -1    0    0    0  501 -0.00000000000E+00 -0.00000000000E+00 -0.97058098136E+02  0.97058098136E+02  0.00000000000E+00 0.  1.
         25    2    1    2    0    0 -0.29535568599E+01 -0.11107567192E+02  0.99293459638E+02  0.16010687934E+03  0.12507166001E+03 0.  0.
         23    2    1    2    0    0  0.29535568599E+01  0.11107567192E+02 -0.32803070815E+02  0.10049970576E+03  0.94297655622E+02 0.  0.
          5    1    3    3  502    0  0.42778302861E+02  0.31307133453E+02  0.15165102115E+02  0.55295320985E+02  0.41800000000E+01 0.  1.
         -5    1    3    3    0  502 -0.45731859721E+02 -0.42414700644E+02  0.84128357523E+02  0.10481155835E+03  0.41800000000E+01 0.  1.
        -11    1    4    4    0    0 -0.34261303248E+02 -0.14018474251E+02 -0.40580376495E+02  0.54928330368E+02  0.00000000000E+00 0.  1.
         11    1    4    4    0    0  0.37214860108E+02  0.25126041443E+02  0.77773056794E+01  0.45571375391E+02  0.00000000000E+00 0. -1.
</event>
<event>
 8    1  0.3528896E-009  0.1126618E+03  0.7561462E-02  0.1255718E+00
          4   -1    0    0  501    0  0.00000000000E+00  0.00000000000E+00  0.58853452384E+03  0.58853452384E+03  0.00000000000E+00 0. -1.
         -4   -1    0    0    0  501 -0.00000000000E+00 -0.00000000000E+00 -0.62847244437E+02  0.62847244437E+02  0.00000000000E+00 0.  1.
         25    2    1    2    0    0  0.69078585411E+02 -0.78600871643E+02  0.47641776707E+03  0.50355697360E+03  0.12508312797E+03 0.  0.
         23    2    1    2    0    0 -0.69078585411E+02  0.78600871643E+02  0.49269512333E+02  0.14782479467E+03  0.92058335247E+02 0.  0.
          5    1    3    3  502    0  0.49431774942E+02 -0.74828614563E+02  0.47462410581E+03  0.48304071893E+03  0.41800000000E+01 0.  1.
         -5    1    3    3    0  502  0.19646810469E+02 -0.37722570806E+01  0.17936612590E+01  0.20516254672E+02  0.41800000000E+01 0.  1.
        -11    1    4    4    0    0 -0.36281362815E+02  0.78457164146E+01  0.58510934329E+02  0.69292293871E+02  0.00000000000E+00 0. -1.
         11    1    4    4    0    0 -0.32797222596E+02  0.70755155229E+02 -0.92414219963E+01  0.78532500800E+02  0.00000000000E+00 0.  1.
</event>
<event>
 8    1  0.3528896E-009  0.1309012E+03  0.7561462E-02  0.1226125E+00
         -1   -1    0    0    0  501 -0.00000000000E+00  0.00000000000E+00  0.17494660723E+02  0.17494660723E+02  0.00000000000E+00 0.  1.
          1   -1    0    0  501    0  0.00000000000E+00 -0.00000000000E+00 -0.11695174594E+04  0.11695174594E+04  0.00000000000E+00 0. -1.
         25    2    1    2    0    0  0.64349182232E+02 -0.47020903915E+02 -0.82617482757E+03  0.83938242877E+03  0.12508490460E+03 0.  0.
         23    2    1    2    0    0 -0.64349182232E+02  0.47020903915E+02 -0.32584797106E+03  0.34762969131E+03  0.91201531646E+02 0.  0.
          5    1    3    3  502    0 -0.34062239096E+02 -0.30717960406E+02 -0.33609669340E+03  0.33923780588E+03  0.41800000000E+01 0. -1.
         -5    1    3    3    0  502  0.98411421328E+02 -0.16302943510E+02 -0.49007813417E+03  0.50014462289E+03  0.41800000000E+01 0. -1.
        -11    1    4    4    0    0 -0.32747089181E+01  0.54299272625E+02 -0.20413189212E+03  0.21125568420E+03  0.00000000000E+00 0.  1.
         11    1    4    4    0    0 -0.61074473314E+02 -0.72783687093E+01 -0.12171607894E+03  0.13637400710E+03  0.00000000000E+00 0. -1.
</event>
<event>
 8    1  0.3528896E-009  0.1062912E+03  0.7561462E-02  0.1267596E+00
          4   -1    0    0  501    0  0.00000000000E+00  0.00000000000E+00  0.58955531438E+02  0.58955531438E+02  0.00000000000E+00 0. -1.
         -4   -1    0    0    0  501 -0.00000000000E+00 -0.00000000000E+00 -0.28304791506E+03  0.28304791506E+03  0.00000000000E+00 0.  1.
         25    2    1    2    0    0  0.21850643722E+02 -0.59925825417E+02 -0.90837106478E+02  0.16722103906E+03  0.12507174264E+03 0.  0.
         23    2    1    2    0    0 -0.21850643722E+02  0.59925825417E+02 -0.13325527715E+03  0.17478240745E+03  0.93398960820E+02 0.  0.
          5    1    3    3  502    0  0.51656970001E+02 -0.76326132714E+02 -0.29330330712E+02  0.96808376623E+02  0.41800000000E+01 0. -1.
         -5    1    3    3    0  502 -0.29806326279E+02  0.16400307296E+02 -0.61506775767E+02  0.70412662433E+02  0.41800000000E+01 0. -1.
        -11    1    4    4    0    0  0.17716827856E+02  0.51015981911E+01 -0.95662396071E+02  0.97422822354E+02  0.00000000000E+00 0.  1.
         11    1    4    4    0    0 -0.39567471578E+02  0.54824227226E+02 -0.37592881075E+02  0.77359585092E+02  0.00000000000E+00 0. -1.
</event>
<event>
 8    1  0.3528896E-009  0.1170243E+03  0.7561462E-02  0.1248088E+00
          2   -1    0    0  501    0  0.00000000000E+00  0.00000000000E+00  0.17565706534E+03  0.17565706534E+03  0.00000000000E+00 0.  1.
         -2   -1    0    0    0  501 -0.00000000000E+00 -0.00000000000E+00 -0.93174899012E+02  0.93174899012E+02  0.00000000000E+00 0. -1.
         25    2    1    2    0    0 -0.48400004685E+02  0.39863852475E+02  0.73528344549E+02  0.15806857623E+03  0.12509024802E+03 0.  0.
         23    2    1    2    0    0  0.48400004685E+02 -0.39863852475E+02  0.89538217789E+01  0.11076338813E+03  0.90866220550E+02 0.  0.
          5    1    3    3  502    0 -0.65980323861E+01  0.77692426952E+02  0.20903743190E+02  0.80833694190E+02  0.41800000000E+01 0. -1.
         -5    1    3    3    0  502 -0.41801972299E+02 -0.37828574477E+02  0.52624601359E+02  0.77234882037E+02  0.41800000000E+01 0. -1.
        -11    1    4    4    0    0  0.11276144138E+01  0.21746734317E+02 -0.18319363222E+02  0.28456827592E+02  0.00000000000E+00 0. -1.
         11    1    4    4    0    0  0.47272390272E+02 -0.61610586792E+02  0.27273185001E+02  0.82306560534E+02  0.00000000000E+00 0.  1.
</event>
<event>
 8    1  0.3528896E-009  0.6806376E+02  0.7561462E-02  0.1366804E+00
          1   -1    0    0  501    0  0.00000000000E+00  0.00000000000E+00  0.11108213999E+03  0.11108213999E+03  0.00000000000E+00 0. -1.
         -1   -1    0    0    0  501 -0.00000000000E+00 -0.00000000000E+00 -0.14322496150E+03  0.14322496150E+03  0.00000000000E+00 0.  1.
         25    2    1    2    0    0  0.38916772640E+02 -0.15319843821E+02 -0.67039689027E+02  0.14795545756E+03  0.12508910708E+03 0.  0.
         23    2    1    2    0    0 -0.38916772640E+02  0.15319843821E+02  0.34896867516E+02  0.10635164394E+03  0.91343680669E+02 0.  0.
          5    1    3    3  502    0 -0.11622488430E+02  0.25295648380E+02  0.23394127190E+02  0.36602044359E+02  0.41800000000E+01 0. -1.
         -5    1    3    3    0  502  0.50539261070E+02 -0.40615492201E+02 -0.90433816217E+02  0.11135341320E+03  0.41800000000E+01 0. -1.
        -11    1    4    4    0    0 -0.70656906926E+01  0.73025915474E+01 -0.31054303069E+02  0.32674478839E+02  0.00000000000E+00 0.  1.
         11    1    4    4    0    0 -0.31851081948E+02  0.80172522736E+01  0.65951170585E+02  0.73677165097E+02  0.00000000000E+00 0. -1.
</event>
<event>
 8    1  0.3528896E-009  0.1056313E+03  0.7561462E-02  0.1268881E+00
          2   -1    0    0  501    0  0.00000000000E+00  0.00000000000E+00  0.80132845449E+03  0.80132845449E+03  0.00000000000E+00 0.  1.
         -2   -1    0    0    0  501 -0.00000000000E+00 -0.00000000000E+00 -0.18894530019E+02  0.18894530019E+02  0.00000000000E+00 0. -1.
         25    2    1    2    0    0 -0.50633406940E+02 -0.99217985085E+00  0.33753601073E+03  0.36351485119E+03  0.12509101556E+03 0.  0.
         23    2    1    2    0    0  0.50633406940E+02  0.99217985085E+00  0.44489791374E+03  0.45670813332E+03  0.89907947770E+02 0.  0.
          5    1    3    3  502    0  0.26128377336E+02  0.13950525651E+02  0.22158100084E+03  0.22359096941E+03  0.41800000000E+01 0.  1.
         -5    1    3    3    0  502 -0.76761784276E+02 -0.14942705502E+02  0.11595500989E+03  0.13992388178E+03  0.41800000000E+01 0.  1.
        -11    1    4    4    0    0  0.30008730070E+02  0.45199208774E+02  0.22175681372E+03  0.22829712390E+03  0.00000000000E+00 0. -1.
         11    1    4    4    0    0  0.20624676870E+02 -0.44207028923E+02  0.22314110002E+03  0.22841100941E+03  0.00000000000E+00 0.  1.
</event>
<event>
 8    1  0.3528896E-009  0.1107174E+03  0.7561462E-02  0.1259247E+00
          2   -1    0    0  501    0  0.00000000000E+00  0.00000000000E+00  0.35061326526E+03  0.35061326526E+03  0.00000000000E+00 0. -1.
         -2   -1    0    0    0  501 -0.00000000000E+00 -0.00000000000E+00 -0.44525654491E+02  0.44525654491E+02  0.00000000000E+00 0.  1.
         25    2    1    2    0    0 -0.19696844542E+02 -0.51865271270E+02  0.13151804792E+03  0.18979668399E+03  0.12509121583E+03 0.  0.
         23    2    1    2    0    0  0.19696844542E+02  0.51865271270E+02  0.17456956285E+03  0.20534223575E+03  0.92805869758E+02 0.  0.
          5    1    3    3  502    0 -0.39400443850E+02  0.17963084535E+02  0.48660128623E+01  0.43774625787E+02  0.41800000000E+01 0. -1.
         -5    1    3    3    0  502  0.19703599308E+02 -0.69828355805E+02  0.12665203505E+03  0.14602205821E+03  0.41800000000E+01 0. -1.
        -11    1    4    4    0    0 -0.26300626388E+02  0.53084349139E+02  0.74365148264E+02  0.95078106566E+02  0.00000000000E+00 0.  1.
         11    1    4    4    0    0  0.45997470929E+02 -0.12190778692E+01  0.10020441458E+03  0.11026412919E+03  0.00000000000E+00 0. -1.
</event>
<event>
 8    1  0.3528896E-009  0.9811768E+02  0.7561462E-02  0.1284305E+00
          1   -1    0    0  501    0  0.00000000000E+00  0.00000000000E+00  0.82641996135E+02  0.82641996135E+02  0.00000000000E+00 0. -1.
         -1   -1    0    0    0  501 -0.00000000000E+00 -0.00000000000E+00 -0.16862153791E+03  0.16862153791E+03  0.00000000000E+00 0.  1.
         25    2    1    2    0    0 -0.14469502491E+02 -0.27245442047E+01 -0.97042249051E+02  0.15901415381E+03  0.12510600851E+03 0.  0.
         23    2    1    2    0    0  0.14469502491E+02  0.27245442047E+01  0.11062707272E+02  0.92249380243E+02  0.90392339385E+02 0.  0.
          5    1    3    3  502    0  0.45662891693E+02  0.27191869480E+02 -0.66181259300E+02  0.84981932940E+02  0.41800000000E+01 0.  1.
         -5    1    3    3    0  502 -0.60132394184E+02 -0.29916413684E+02 -0.30860989751E+02  0.74032220867E+02  0.41800000000E+01 0.  1.
        -11    1    4    4    0    0 -0.29841796627E+02 -0.60791189763E+01 -0.20875601817E+02  0.36922611835E+02  0.00000000000E+00 0.  1.
         11    1    4    4    0    0  0.44311299118E+02  0.88036631810E+01  0.31938309090E+02  0.55326768408E+02  0.00000000000E+00 0. -1.
</event>
<event>
 8    1  0.3528896E-009  0.1149442E+03  0.7561462E-02  0.1251679E+00
         -1   -1    0    0    0  501 -0.00000000000E+00  0.00000000000E+00  0.48541153884E+02  0.48541153884E+02  0.00000000000E+00 0.  1.
          1   -1    0    0  501    0  0.00000000000E+00 -0.00000000000E+00 -0.39095819001E+03  0.39095819001E+03  0.00000000000E+00 0. -1.
         25    2    1    2    0    0  0.11620901155E+02 -0.50629223635E+02 -0.29488363801E+03  0.32450228857E+03  0.12508801579E+03 0.  0.
         23    2    1    2    0    0 -0.11620901155E+02  0.50629223635E+02 -0.47533398123E+02  0.11499705533E+03  0.90920488163E+02 0.  0.
          5    1    3    3  502    0  0.33240532033E+02  0.27984531556E+02 -0.50028853293E+02  0.66395975315E+02  0.41800000000E+01 0. -1.
         -5    1    3    3    0  502 -0.21619630878E+02 -0.78613755191E+02 -0.24485478471E+03  0.25810631325E+03  0.41800000000E+01 0. -1.
        -11    1    4    4    0    0 -0.14448783438E+02  0.76863681804E+02 -0.37877629633E+02  0.86899411678E+02  0.00000000000E+00 0.  1.
         11    1    4    4    0    0  0.28278822838E+01 -0.26234458169E+02 -0.96557684904E+01  0.28097643652E+02  0.00000000000E+00 0. -1.
</event>
<event>
 8    1  0.3528896E-009  0.2636490E+03  0.7561462E-02  0.1104970E+00
         -1   -1    0    0    0  501 -0.00000000000E+00  0.00000000000E+00  0.41676277080E+03  0.41676277080E+03  0.00000000000E+00 0.  1.
          1   -1    0    0  501    0  0.00000000000E+00 -0.00000000000E+00 -0.22260494142E+03  0.22260494142E+03  0.00000000000E+00 0. -1.
         25    2    1    2    0    0 -0.73598044542E+01  0.26272530022E+03  0.21143758113E+03  0.35976722621E+03  0.12509139157E+03 0.  0.
         23    2    1    2    0    0  0.73598044542E+01 -0.26272530022E+03 -0.17279751749E+02  0.27960048601E+03  0.93803474665E+02 0.  0.
          5    1    3    3  502    0 -0.17085480437E+00  0.13496233850E+03  0.31033490183E+02  0.13854750780E+03  0.41800000000E+01 0.  1.
         -5    1    3    3    0  502 -0.71889496498E+01  0.12776296173E+03  0.18040409094E+03  0.22121971841E+03  0.41800000000E+01 0.  1.
        -11    1    4    4    0    0  0.11051164178E+02 -0.40474827178E+02  0.30962920224E+02  0.52144436842E+02  0.00000000000E+00 0.  1.
         11    1    4    4    0    0 -0.36913597238E+01 -0.22225047304E+03 -0.48242671973E+02  0.22745604917E+03  0.00000000000E+00 0. -1.
</event>
<event>
 8    1  0.3528896E-009  0.2072250E+03  0.7561462E-02  0.1143782E+00
         -2   -1    0    0    0  501 -0.00000000000E+00  0.00000000000E+00  0.56145625450E+02  0.56145625450E+02  0.00000000000E+00 0.  1.
          2   -1    0    0  501    0  0.00000000000E+00 -0.00000000000E+00 -0.94668169963E+03  0.94668169963E+03  0.00000000000E+00 0. -1.
         25    2    1    2    0    0  0.17545190023E+03  0.89880433162E+02 -0.56411688622E+03  0.61052242539E+03  0.12509160255E+03 0.  0.
         23    2    1    2    0    0 -0.17545190023E+03 -0.89880433162E+02 -0.32641918796E+03  0.39230489969E+03  0.92150889796E+02 0.  0.
          5    1    3    3  502    0  0.12008970592E+03  0.55226460191E+02 -0.50599875418E+03  0.52299494358E+03  0.41800000000E+01 0.  1.
         -5    1    3    3    0  502  0.55362194308E+02  0.34653972971E+02 -0.58118132039E+02  0.87527481816E+02  0.41800000000E+01 0.  1.
        -11    1    4    4    0    0 -0.14601979995E+03 -0.28627170921E+02 -0.23970441233E+03  0.28213383736E+03  0.00000000000E+00 0. -1.
         11    1    4    4    0    0 -0.29432100281E+02 -0.61253262241E+02 -0.86714775635E+02  0.11017106233E+03  0.00000000000E+00 0.  1.
</event>
<event>
 8    1  0.3528896E-009  0.9189975E+02  0.7561462E-02  0.1298315E+00
          1   -1    0    0  501    0  0.00000000000E+00  0.00000000000E+00  0.76650893930E+03  0.76650893930E+03  0.00000000000E+00 0. -1.
         -1   -1    0    0    0  501 -0.00000000000E+00 -0.00000000000E+00 -0.13973216656E+02  0.13973216656E+02  0.00000000000E+00 0.  1.
         25    2    1    2    0    0 -0.84093318142E+01 -0.14611236248E+02  0.61666994211E+03  0.62945524475E+03  0.12509149674E+03 0.  0.
         23    2    1    2    0    0  0.84093318142E+01  0.14611236248E+02  0.13586578054E+03  0.15102691121E+03  0.63760587368E+02 0.  0.
          5    1    3    3  502    0  0.54843016694E+02  0.11830128790E+02  0.23382790117E+03  0.24050086942E+03  0.41800000000E+01 0.  1.
         -5    1    3    3    0  502 -0.63252348508E+02 -0.26441365039E+02  0.38284204094E+03  0.38895437533E+03  0.41800000000E+01 0.  1.
        -11    1    4    4    0    0  0.15957825265E+02  0.34266868623E+02  0.50367751435E+02  0.62974446064E+02  0.00000000000E+00 0.  1.
         11    1    4    4    0    0 -0.75484934507E+01 -0.19655632375E+02  0.85498029103E+02  0.88052465144E+02  0.00000000000E+00 0. -1.
</event>
<event>
 8    1  0.3528896E-009  0.1425824E+03  0.7561462E-02  0.1209896E+00
         -2   -1    0    0    0  501 -0.00000000000E+00  0.00000000000E+00  0.10889823089E+03  0.10889823089E+03  0.00000000000E+00 0.  1.
          2   -1    0    0  501    0  0.00000000000E+00 -0.00000000000E+00 -0.28770304275E+03  0.28770304275E+03  0.00000000000E+00 0. -1.
         25    2    1    2    0    0 -0.88617194611E+02  0.26379553121E+02  0.22277051651E+02  0.15713957138E+03  0.12509072651E+03 0.  0.
         23    2    1    2    0    0  0.88617194611E+02 -0.26379553121E+02 -0.20108186351E+03  0.23946170226E+03  0.91428130330E+02 0.  0.
          5    1    3    3  502    0 -0.11010563280E+03 -0.12542504502E+02  0.15937704323E+02  0.11203592108E+03  0.41800000000E+01 0.  1.
         -5    1    3    3    0  502  0.21488438192E+02  0.38922057623E+02  0.63393473282E+01  0.45103650297E+02  0.41800000000E+01 0.  1.
        -11    1    4    4    0    0  0.19055281587E+02  0.33030718458E+02 -0.50672933983E+02  0.63418280934E+02  0.00000000000E+00 0.  1.
         11    1    4    4    0    0  0.69561913024E+02 -0.59410271579E+02 -0.15040892952E+03  0.17604342133E+03  0.00000000000E+00 0. -1.
</event>
<event>
 8    1  0.3528896E-009  0.9665401E+02  0.7561462E-02  0.1287494E+00
         -1   -1    0    0    0  501 -0.00000000000E+00  0.00000000000E+00  0.56225437720E+02  0.56225437720E+02  0.00000000000E+00 0.  1.
          1   -1    0    0  501    0  0.00000000000E+00 -0.00000000000E+00 -0.26281910958E+03  0.26281910958E+03  0.00000000000E+00 0. -1.
         25    2    1    2    0    0  0.48824005468E+02  0.23285357038E+02 -0.11363444759E+03  0.17744236128E+03  0.12508801916E+03 0.  0.
         23    2    1    2    0    0 -0.48824005468E+02 -0.23285357038E+02 -0.92959224273E+02  0.14160218602E+03  0.92107384858E+02 0.  0.
          5    1    3    3  502    0 -0.35175928333E+02 -0.41299144705E+01 -0.29972243999E+01  0.35789074893E+02  0.41800000000E+01 0. -1.
         -5    1    3    3    0  502  0.83999933801E+02  0.27415271509E+02 -0.11063722319E+03  0.14165328639E+03  0.41800000000E+01 0. -1.
        -11    1    4    4    0    0 -0.18449247153E+02 -0.32562152465E+02  0.57905221789E+01  0.37870815159E+02  0.00000000000E+00 0.  1.
         11    1    4    4    0    0 -0.30374758315E+02  0.92767954266E+01 -0.98749746452E+02  0.10373137086E+03  0.00000000000E+00 0. -1.
</event>
<event>
 8    1  0.3528896E-009  0.9903833E+02  0.7561462E-02  0.1282331E+00
         -3   -1    0    0    0  501 -0.00000000000E+00  0.00000000000E+00  0.24788121779E+03  0.24788121779E+03  0.00000000000E+00 0.  1.
          3   -1    0    0  501    0  0.00000000000E+00 -0.00000000000E+00 -0.53995251287E+02  0.53995251287E+02  0.00000000000E+00 0. -1.
         25    2    1    2    0    0 -0.35265072736E+02  0.13411230139E+02  0.13487263282E+03  0.18778502025E+03  0.12509636405E+03 0.  0.
         23    2    1    2    0    0  0.35265072736E+02 -0.13411230139E+02  0.59013333685E+02  0.11409144883E+03  0.90059972764E+02 0.  0.
          5    1    3    3  502    0  0.96317465294E+01  0.59804711593E+02  0.39138591138E+02  0.72240402727E+02  0.41800000000E+01 0.  1.
         -5    1    3    3    0  502 -0.44896819266E+02 -0.46393481454E+02  0.95734041679E+02  0.11554461752E+03  0.41800000000E+01 0.  1.
        -11    1    4    4    0    0  0.16859356843E+02 -0.38218409073E+02  0.69823722746E+02  0.81364838618E+02  0.00000000000E+00 0.  1.
         11    1    4    4    0    0  0.18405715893E+02  0.24807178934E+02 -0.10810389061E+02  0.32726610210E+02  0.00000000000E+00 0. -1.
</event>
<event>
 8    1  0.3528896E-009  0.1294944E+03  0.7561462E-02  0.1228208E+00
          1   -1    0    0  501    0  0.00000000000E+00  0.00000000000E+00  0.37937277178E+02  0.37937277178E+02  0.00000000000E+00 0. -1.
         -1   -1    0    0    0  501 -0.00000000000E+00 -0.00000000000E+00 -0.53060279570E+03  0.53060279570E+03  0.00000000000E+00 0.  1.
         25    2    1    2    0    0 -0.66261119175E+02 -0.60921983334E+02 -0.24484227610E+03  0.28930047062E+03  0.12507996711E+03 0.  0.
         23    2    1    2    0    0  0.66261119175E+02  0.60921983334E+02 -0.24782324243E+03  0.27923960226E+03  0.91958534201E+02 0.  0.
          5    1    3    3  502    0  0.23572469493E+02 -0.21615405181E+02 -0.14780389216E+03  0.15128235190E+03  0.41800000000E+01 0.  1.
         -5    1    3    3    0  502 -0.89833588667E+02 -0.39306578153E+02 -0.97038383936E+02  0.13801811872E+03  0.41800000000E+01 0.  1.
        -11    1    4    4    0    0  0.46010860135E+02 -0.16256041477E+02 -0.88998465659E+02  0.10149869469E+03  0.00000000000E+00 0.  1.
         11    1    4    4    0    0  0.20250259040E+02  0.77178024812E+02 -0.15882477677E+03  0.17774090756E+03  0.00000000000E+00 0. -1.
</event>
<event>
 8    1  0.3528896E-009  0.1078961E+03  0.7561462E-02  0.1264516E+00
          2   -1    0    0  501    0  0.00000000000E+00  0.00000000000E+00  0.18320920631E+03  0.18320920631E+03  0.00000000000E+00 0. -1.
         -2   -1    0    0    0  501 -0.00000000000E+00 -0.00000000000E+00 -0.77306657791E+02  0.77306657791E+02  0.00000000000E+00 0.  1.
         25    2    1    2    0    0 -0.19513805093E+02  0.43373226063E+02  0.79522863218E+02  0.15566989098E+03  0.12508878389E+03 0.  0.
         23    2    1    2    0    0  0.19513805093E+02 -0.43373226063E+02  0.26379685301E+02  0.10484597312E+03  0.89636850428E+02 0.  0.
          5    1    3    3  502    0 -0.70812961360E+01 -0.35633627856E+02  0.64556726520E+02  0.74195306645E+02  0.41800000000E+01 0. -1.
         -5    1    3    3    0  502 -0.12432508956E+02  0.79006853919E+02  0.14966136698E+02  0.81474584336E+02  0.41800000000E+01 0. -1.
        -11    1    4    4    0    0  0.52256926479E+02 -0.11641988113E+02  0.30415403091E+01  0.53624371509E+02  0.00000000000E+00 0. -1.
         11    1    4    4    0    0 -0.32743121387E+02 -0.31731237951E+02  0.23338144992E+02  0.51221601612E+02  0.00000000000E+00 0.  1.
</event>
<event>
 8    1  0.3528896E-009  0.1454012E+03  0.7561462E-02  0.1206241E+00
         -2   -1    0    0    0  501 -0.00000000000E+00  0.00000000000E+00  0.13129985435E+02  0.13129985435E+02  0.00000000000E+00 0.  1.
          2   -1    0    0  501    0  0.00000000000E+00 -0.00000000000E+00 -0.31030030862E+04  0.31030030862E+04  0.00000000000E+00 0. -1.
         25    2    1    2    0    0 -0.59656289711E+02  0.91075622543E+02 -0.26178291501E+04  0.26230764793E+04  0.12508843016E+03 0.  0.
         23    2    1    2    0    0  0.59656289711E+02 -0.91075622543E+02 -0.47204395067E+03  0.49305659232E+03  0.91791448051E+02 0.  0.
          5    1    3    3  502    0  0.14371383722E+02  0.69748767547E+02 -0.68421180237E+03  0.68792055511E+03  0.41800000000E+01 0. -1.
         -5    1    3    3    0  502 -0.74027673433E+02  0.21326854996E+02 -0.19336173477E+04  0.19351559242E+04  0.41800000000E+01 0. -1.
        -11    1    4    4    0    0 -0.18946761490E+02 -0.50329615840E+02 -0.16988793099E+03  0.17819640596E+03  0.00000000000E+00 0.  1.
         11    1    4    4    0    0  0.78603051200E+02 -0.40746006703E+02 -0.30215601969E+03  0.31486018636E+03  0.00000000000E+00 0. -1.
</event>
<event>
 8    1  0.3528896E-009  0.7327457E+02  0.7561462E-02  0.1349299E+00
          2   -1    0    0  501    0  0.00000000000E+00  0.00000000000E+00  0.92456700624E+02  0.92456700624E+02  0.00000000000E+00 0. -1.
         -2   -1    0    0    0  501 -0.00000000000E+00 -0.00000000000E+00 -0.13419247732E+03  0.13419247732E+03  0.00000000000E+00 0.  1.
         25    2    1    2    0    0 -0.16928831925E+02 -0.19245510135E+02 -0.19415434222E+02  0.12916956273E+03  0.12510332465E+03 0.  0.
         23    2    1    2    0    0  0.16928831925E+02  0.19245510135E+02 -0.22320342477E+02  0.97479615220E+02  0.91362479631E+02 0.  0.
          5    1    3    3  502    0  0.17827657629E+02 -0.45475192437E+02 -0.54346541787E+02  0.73190419509E+02  0.41800000000E+01 0. -1.
         -5    1    3    3    0  502 -0.34756489555E+02  0.26229682301E+02  0.34931107565E+02  0.55979143219E+02  0.41800000000E+01 0. -1.
        -11    1    4    4    0    0 -0.60322925683E+01 -0.12922043886E+02  0.29229677237E+02  0.32522942720E+02  0.00000000000E+00 0. -1.
         11    1    4    4    0    0  0.22961124494E+02  0.32167554022E+02 -0.51550019714E+02  0.64956672499E+02  0.00000000000E+00 0.  1.
</event>
<event>
 8    1  0.3528896E-009  0.1284891E+03  0.7561462E-02  0.1229715E+00
         -2   -1    0    0    0  501 -0.00000000000E+00  0.00000000000E+00  0.38897974197E+02  0.38897974197E+02  0.00000000000E+00 0.  1.
          2   -1    0    0  501    0  0.00000000000E+00 -0.00000000000E+00 -0.69729580799E+03  0.69729580799E+03  0.00000000000E+00 0. -1.
         25    2    1    2    0    0 -0.24140497652E+02 -0.89825383756E+02 -0.53343346390E+03  0.55574238542E+03  0.12508787051E+03 0.  0.
         23    2    1    2    0    0  0.24140497652E+02  0.89825383756E+02 -0.12496436989E+03  0.18045139676E+03  0.91078261174E+02 0.  0.
          5    1    3    3  502    0  0.54308624321E+00 -0.10633828229E+03 -0.49835477936E+03  0.50959109464E+03  0.41800000000E+01 0.  1.
         -5    1    3    3    0  502 -0.24683583895E+02  0.16512898529E+02 -0.35078684538E+02  0.46151290780E+02  0.41800000000E+01 0.  1.
        -11    1    4    4    0    0  0.47179211982E+02  0.84716204394E+02 -0.66987963147E+02  0.11785627067E+03  0.00000000000E+00 0.  1.
         11    1    4    4    0    0 -0.23038714330E+02  0.51091793625E+01 -0.57976406741E+02  0.62595126091E+02  0.00000000000E+00 0. -1.
</event>
<event>
 8    1  0.3528896E-009  0.2014305E+03  0.7561462E-02  0.1148538E+00
         -2   -1    0    0    0  501 -0.00000000000E+00  0.00000000000E+00  0.14324129942E+03  0.14324129942E+03  0.00000000000E+00 0.  1.
          2   -1    0    0  501    0  0.00000000000E+00 -0.00000000000E+00 -0.30613094004E+03  0.30613094004E+03  0.00000000000E+00 0. -1.
         25    2    1    2    0    0 -0.12966521957E+03  0.12607481134E+03 -0.93866500129E+02  0.23909403382E+03  0.12508840851E+03 0.  0.
         23    2    1    2    0    0  0.12966521957E+03 -0.12607481134E+03 -0.69023140498E+02  0.21027820564E+03  0.82126747311E+02 0.  0.
          5    1    3    3  502    0 -0.14811207348E+03  0.12841716278E+03 -0.69213716738E+02  0.20793307815E+03  0.41800000000E+01 0.  1.
         -5    1    3    3    0  502  0.18446853908E+02 -0.23423514364E+01 -0.24652783391E+02  0.31160955670E+02  0.41800000000E+01 0.  1.
        -11    1    4    4    0    0  0.82657312259E+02 -0.45268344222E+02 -0.68987085201E+02  0.11679328826E+03  0.00000000000E+00 0.  1.
         11    1    4    4    0    0  0.47007907308E+02 -0.80806467117E+02 -0.36055296740E-01  0.93484917380E+02  0.00000000000E+00 0. -1.
</event>
<event>
 8    1  0.3528896E-009  0.9501723E+02  0.7561462E-02  0.1291137E+00
         -1   -1    0    0    0  501 -0.00000000000E+00  0.00000000000E+00  0.12579417411E+03  0.12579417411E+03  0.00000000000E+00 0.  1.
          1   -1    0    0  501    0  0.00000000000E+00 -0.00000000000E+00 -0.97739913546E+02  0.97739913546E+02  0.00000000000E+00 0. -1.
         25    2    1    2    0    0 -0.10188876314E+02  0.12060306504E+02 -0.26887777137E+01  0.12610639681E+03  0.12508528929E+03 0.  0.
         23    2    1    2    0    0  0.10188876314E+02 -0.12060306504E+02  0.30743038274E+02  0.97427690846E+02  0.91092021318E+02 0.  0.
          5    1    3    3  502    0  0.43404315950E+02 -0.13691775218E+02  0.33236289600E+02  0.56511261692E+02  0.41800000000E+01 0. -1.
         -5    1    3    3    0  502 -0.53593192264E+02  0.25752081722E+02 -0.35925067313E+02  0.69595135114E+02  0.41800000000E+01 0. -1.
        -11    1    4    4    0    0 -0.31578934996E+02 -0.25774997598E+02 -0.45990155215E+01  0.41021099211E+02  0.00000000000E+00 0. -1.
         11    1    4    4    0    0  0.41767811310E+02  0.13714691095E+02  0.35342053796E+02  0.56406591636E+02  0.00000000000E+00 0.  1.
</event>
<event>
 8    1  0.3528896E-009  0.2204713E+03  0.7561462E-02  0.1133532E+00
         -2   -1    0    0    0  501 -0.00000000000E+00  0.00000000000E+00  0.10062985019E+03  0.10062985019E+03  0.00000000000E+00 0.  1.
          2   -1    0    0  501    0  0.00000000000E+00 -0.00000000000E+00 -0.51435380473E+03  0.51435380473E+03  0.00000000000E+00 0. -1.
         25    2    1    2    0    0 -0.17118905621E+03  0.99432903867E+02 -0.18392343570E+03  0.29777122047E+03  0.12508906509E+03 0.  0.
         23    2    1    2    0    0  0.17118905621E+03 -0.99432903867E+02 -0.22980051884E+03  0.31721243445E+03  0.92859327888E+02 0.  0.
          5    1    3    3  502    0  0.14799965596E+02  0.21700487809E+02 -0.28061383973E+01  0.26745036277E+02  0.41800000000E+01 0. -1.
         -5    1    3    3    0  502 -0.18598902180E+03  0.77732416059E+02 -0.18111729730E+03  0.27102618419E+03  0.41800000000E+01 0. -1.
        -11    1    4    4    0    0  0.11035226118E+03 -0.10410234606E+03 -0.12783473369E+03  0.19838507792E+03  0.00000000000E+00 0.  1.
         11    1    4    4    0    0  0.60836795023E+02  0.46694421939E+01 -0.10196578515E+03  0.11882735654E+03  0.00000000000E+00 0. -1.
</event>
<event>
 8    1  0.3528896E-009  0.2021324E+03  0.7561462E-02  0.1147952E+00
         -2   -1    0    0    0  501 -0.00000000000E+00  0.00000000000E+00  0.20955381514E+03  0.20955381514E+03  0.00000000000E+00 0.  1.
          2   -1    0    0  501    0  0.00000000000E+00 -0.00000000000E+00 -0.20059769709E+03  0.20059769709E+03  0.00000000000E+00 0. -1.
         25    2    1    2    0    0  0.42843335180E+02  0.16852856714E+03  0.14103833325E+02  0.21467537485E+03  0.12509663922E+03 0.  0.
         23    2    1    2    0    0 -0.42843335180E+02 -0.16852856714E+03 -0.51477152710E+01  0.19547613738E+03  0.89145902886E+02 0.  0.
          5    1    3    3  502    0 -0.38561323224E+02  0.19460562886E+02  0.10915066602E+02  0.44747069575E+02  0.41800000000E+01 0. -1.
         -5    1    3    3    0  502  0.81404658404E+02  0.14906800425E+03  0.31887667227E+01  0.16992830528E+03  0.41800000000E+01 0. -1.
        -11    1    4    4    0    0 -0.38150339460E+02 -0.21350696599E+02  0.16323234830E+02  0.46666354492E+02  0.00000000000E+00 0.  1.
         11    1    4    4    0    0 -0.46929957199E+01 -0.14717787054E+03 -0.21470950101E+02  0.14880978289E+03  0.00000000000E+00 0. -1.
</event>
<event>
 8    1  0.3528896E-009  0.1122234E+03  0.7561462E-02  0.1256507E+00
         -2   -1    0    0    0  501 -0.00000000000E+00  0.00000000000E+00  0.43724227888E+02  0.43724227888E+02  0.00000000000E+00 0.  1.
          2   -1    0    0  501    0  0.00000000000E+00 -0.00000000000E+00 -0.36961895412E+03  0.36961895412E+03  0.00000000000E+00 0. -1.
         25    2    1    2    0    0 -0.10791159587E+02 -0.63968496918E+02 -0.15762438650E+03  0.21142536899E+03  0.12508725639E+03 0.  0.
         23    2    1    2    0    0  0.10791159587E+02  0.63968496918E+02 -0.16827033973E+03  0.20191781302E+03  0.90815627817E+02 0.  0.
          5    1    3    3  502    0  0.46923122421E+02 -0.68199773565E+02 -0.92464725759E+02  0.12417804332E+03  0.41800000000E+01 0.  1.
         -5    1    3    3    0  502 -0.57714282008E+02  0.42312766479E+01 -0.65159660736E+02  0.87247325673E+02  0.41800000000E+01 0.  1.
        -11    1    4    4    0    0 -0.13562075128E+02  0.56442552871E+02 -0.38472150039E+02  0.69640490988E+02  0.00000000000E+00 0.  1.
         11    1    4    4    0    0  0.24353234715E+02  0.75259440462E+01 -0.12979818969E+03  0.13227732203E+03  0.00000000000E+00 0. -1.
</event>
<event>
 8    1  0.3528896E-009  0.8896732E+02  0.7561462E-02  0.1305372E+00
         -1   -1    0    0    0  501 -0.00000000000E+00  0.00000000000E+00  0.76584237578E+03  0.76584237578E+03  0.00000000000E+00 0. -1.
          1   -1    0    0  501    0  0.00000000000E+00 -0.00000000000E+00 -0.19731707205E+02  0.19731707205E+02  0.00000000000E+00 0.  1.
         25    2    1    2    0    0  0.18120527306E+02 -0.13921744068E+02  0.58676034569E+03  0.60038004905E+03  0.12508529713E+03 0.  0.
         23    2    1    2    0    0 -0.18120527306E+02  0.13921744068E+02  0.15935032288E+03  0.18519403393E+03  0.91554007740E+02 0.  0.
          5    1    3    3  502    0 -0.25274728029E+02 -0.31015738705E+02  0.64445583341E+02  0.75970346429E+02  0.41800000000E+01 0. -1.
         -5    1    3    3    0  502  0.43395255335E+02  0.17093994637E+02  0.52231476235E+03  0.52440970262E+03  0.41800000000E+01 0. -1.
        -11    1    4    4    0    0  0.65492617974E+01 -0.35256877453E+02  0.39688042113E+02  0.53489072946E+02  0.00000000000E+00 0.  1.
         11    1    4    4    0    0 -0.24669789104E+02  0.49178621522E+02  0.11966228077E+03  0.13170496099E+03  0.00000000000E+00 0. -1.
</event>
<event>
 8    1  0.3528896E-009  0.1134161E+03  0.7561462E-02  0.1254371E+00
         -3   -1    0    0    0  501 -0.00000000000E+00  0.00000000000E+00  0.83393768250E+02  0.83393768250E+02  0.00000000000E+00 0.  1.
          3   -1    0    0  501    0  0.00000000000E+00 -0.00000000000E+00 -0.19829706184E+03  0.19829706184E+03  0.00000000000E+00 0. -1.
         25    2    1    2    0    0  0.54734272654E+02 -0.14994171093E+02 -0.20355677350E+02  0.13885984026E+03  0.12508811242E+03 0.  0.
         23    2    1    2    0    0 -0.54734272654E+02  0.14994171093E+02 -0.94547616244E+02  0.14283098983E+03  0.90778709777E+02 0.  0.
          5    1    3    3  502    0 -0.23061629991E+02 -0.32407736760E+02  0.24881866814E+02  0.47102864837E+02  0.41800000000E+01 0. -1.
         -5    1    3    3    0  502  0.77795902644E+02  0.17413565666E+02 -0.45237544164E+02  0.91756975427E+02  0.41800000000E+01 0. -1.
        -11    1    4    4    0    0  0.20131370905E+02  0.24310658465E+02 -0.29919820916E+02  0.43491101310E+02  0.00000000000E+00 0. -1.
         11    1    4    4    0    0 -0.74865643559E+02 -0.93164873712E+01 -0.64627795328E+02  0.99339888521E+02  0.00000000000E+00 0.  1.
</event>
<event>
 8    1  0.3528896E-009  0.1524609E+03  0.7561462E-02  0.1197481E+00
          1   -1    0    0  501    0  0.00000000000E+00  0.00000000000E+00  0.67817269084E+03  0.67817269084E+03  0.00000000000E+00 0. -1.
         -1   -1    0    0    0  501 -0.00000000000E+00 -0.00000000000E+00 -0.43670681864E+02  0.43670681864E+02  0.00000000000E+00 0.  1.
         25    2    1    2    0    0 -0.74618142974E+02  0.10264641509E+03  0.41683210892E+03  0.45332112122E+03  0.12508748189E+03 0.  0.
         23    2    1    2    0    0  0.74618142974E+02 -0.10264641509E+03  0.21766990006E+03  0.26852225149E+03  0.92843203094E+02 0.  0.
          5    1    3    3  502    0 -0.71743835595E+02  0.11450118565E+03  0.23558870652E+03  0.27161960625E+03  0.41800000000E+01 0.  1.
         -5    1    3    3    0  502 -0.28743073786E+01 -0.11854770556E+02  0.18124340240E+03  0.18170151497E+03  0.41800000000E+01 0.  1.
        -11    1    4    4    0    0 -0.13224837920E+02  0.80835789243E+01  0.27669411191E+02  0.31714931844E+02  0.00000000000E+00 0. -1.
         11    1    4    4    0    0  0.87842980894E+02 -0.11072999402E+03  0.19000048887E+03  0.23680731964E+03  0.00000000000E+00 0.  1.
</event>
<event>
 8    1  0.3528896E-009  0.3025767E+03  0.7561462E-02  0.1083960E+00
         -1   -1    0    0    0  501 -0.00000000000E+00  0.00000000000E+00  0.18112455346E+03  0.18112455346E+03  0.00000000000E+00 0.  1.
          1   -1    0    0  501    0  0.00000000000E+00 -0.00000000000E+00 -0.82054818618E+03  0.82054818618E+03  0.00000000000E+00 0. -1.
         25    2    1    2    0    0 -0.22989766430E+03 -0.18464766815E+03 -0.61351931929E+03  0.69209230730E+03  0.12505242611E+03 0.  0.
         23    2    1    2    0    0  0.22989766430E+03  0.18464766815E+03 -0.25904313430E+02  0.30958043235E+03  0.90671457669E+02 0.  0.
          5    1    3    3  502    0 -0.12098223765E+03 -0.13645801600E+03 -0.24956787522E+03  0.30912633129E+03  0.41800000000E+01 0. -1.
         -5    1    3    3    0  502 -0.10891542664E+03 -0.48189652153E+02 -0.36395144407E+03  0.38296597601E+03  0.41800000000E+01 0. -1.
        -11    1    4    4    0    0  0.12202825103E+03  0.52133838519E+02  0.15972335863E+02  0.13365607611E+03  0.00000000000E+00 0.  1.
         11    1    4    4    0    0  0.10786941327E+03  0.13251382963E+03 -0.41876649292E+02  0.17592435624E+03  0.00000000000E+00 0. -1.
</event>
<event>
 8    1  0.3528896E-009  0.1192368E+03  0.7561462E-02  0.1244361E+00
         -1   -1    0    0    0  501 -0.00000000000E+00  0.00000000000E+00  0.14933780491E+02  0.14933780491E+02  0.00000000000E+00 0.  1.
          1   -1    0    0  501    0  0.00000000000E+00 -0.00000000000E+00 -0.17608763288E+04  0.17608763288E+04  0.00000000000E+00 0. -1.
         25    2    1    2    0    0  0.84360637018E+02 -0.47574214056E+01 -0.13913302769E+04  0.13994951003E+04  0.12508895353E+03 0.  0.
         23    2    1    2    0    0 -0.84360637018E+02  0.47574214056E+01 -0.35461227137E+03  0.37631500892E+03  0.93401139158E+02 0.  0.
          5    1    3    3  502    0  0.84287655888E+02 -0.43877182649E+02 -0.62907015290E+03  0.63622035943E+03  0.41800000000E+01 0.  1.
         -5    1    3    3    0  502  0.72981129592E-01  0.39119761244E+02 -0.76226012400E+03  0.76327474089E+03  0.41800000000E+01 0.  1.
        -11    1    4    4    0    0 -0.87140799639E+02 -0.11163657462E+02 -0.34788894775E+03  0.35881034848E+03  0.00000000000E+00 0. -1.
         11    1    4    4    0    0  0.27801626217E+01  0.15921078867E+02 -0.67233236139E+01  0.17504660434E+02  0.00000000000E+00 0.  1.
</event>
<event>
 8    1  0.3528896E-009  0.1016709E+03  0.7561462E-02  0.1276821E+00
          3   -1    0    0  501    0  0.00000000000E+00  0.00000000000E+00  0.10384155528E+03  0.10384155528E+03  0.00000000000E+00 0. -1.
         -3   -1    0    0    0  501 -0.00000000000E+00 -0.00000000000E+00 -0.12909355033E+03  0.12909355033E+03  0.00000000000E+00 0.  1.
         25    2    1    2    0    0 -0.32729580161E+02  0.26972938022E+02 -0.16910391698E+01  0.13209541149E+03  0.12509026069E+03 0.  0.
         23    2    1    2    0    0  0.32729580161E+02 -0.26972938022E+02 -0.23560955882E+02  0.10083969412E+03  0.88401133846E+02 0.  0.
          5    1    3    3  502    0  0.26098411685E+02 -0.36542137760E+02  0.37234350321E+01  0.45252528029E+02  0.41800000000E+01 0. -1.
         -5    1    3    3    0  502 -0.58827991846E+02  0.63515075782E+02 -0.54144742019E+01  0.86842883458E+02  0.41800000000E+01 0. -1.
        -11    1    4    4    0    0 -0.60615584394E+01 -0.31895674466E+02 -0.45582472268E+02  0.55962829792E+02  0.00000000000E+00 0.  1.
         11    1    4    4    0    0  0.38791138601E+02  0.49227364435E+01  0.22021516386E+02  0.44876864329E+02  0.00000000000E+00 0. -1.
</event>
<event>
 8    1  0.3528896E-009  0.1279278E+03  0.7561462E-02  0.1230563E+00
          1   -1    0    0  501    0  0.00000000000E+00  0.00000000000E+00  0.38432084575E+03  0.38432084575E+03  0.00000000000E+00 0. -1.
         -1   -1    0    0    0  501 -0.00000000000E+00 -0.00000000000E+00 -0.65315352925E+02  0.65315352925E+02  0.00000000000E+00 0.  1.
         25    2    1    2    0    0  0.97564886368E+01 -0.10318054121E+03  0.23710845186E+03  0.28741782512E+03  0.12508866893E+03 0.  0.
         23    2    1    2    0    0 -0.97564886368E+01  0.10318054121E+03  0.81897040965E+02  0.16221837356E+03  0.94160831800E+02 0.  0.
          5    1    3    3  502    0  0.15993485782E+01  0.12169998408E+02  0.12709066895E+03  0.12775044936E+03  0.41800000000E+01 0.  1.
         -5    1    3    3    0  502  0.81571400586E+01 -0.11535053962E+03  0.11001778291E+03  0.15966737576E+03  0.41800000000E+01 0.  1.
        -11    1    4    4    0    0 -0.14990455443E+02 -0.72280742970E+01  0.41195648996E+02  0.44430173403E+02  0.00000000000E+00 0. -1.
         11    1    4    4    0    0  0.52339668063E+01  0.11040861551E+03  0.40701391969E+02  0.11778820015E+03  0.00000000000E+00 0.  1.
</event>
<event>
 8    1  0.3528896E-009  0.2085314E+03  0.7561462E-02  0.1142734E+00
         -1   -1    0    0    0  501 -0.00000000000E+00  0.00000000000E+00  0.28740352010E+03  0.28740352010E+03  0.00000000000E+00 0.  1.
          1   -1    0    0  501    0  0.00000000000E+00 -0.00000000000E+00 -0.18019855589E+03  0.18019855589E+03  0.00000000000E+00 0. -1.
         25    2    1    2    0    0 -0.14976914547E+03  0.13185735957E+03  0.38590681961E+02  0.23865158480E+03  0.12509267760E+03 0.  0.
         23    2    1    2    0    0  0.14976914547E+03 -0.13185735957E+03  0.68614282248E+02  0.22895049119E+03  0.88843950154E+02 0.  0.
          5    1    3    3  502    0  0.59773237343E+01  0.19691436070E+02 -0.28400626532E+02  0.35320660256E+02  0.41800000000E+01 0. -1.
         -5    1    3    3    0  502 -0.15574646920E+03  0.11216592350E+03  0.66991308492E+02  0.20333092455E+03  0.41800000000E+01 0. -1.
        -11    1    4    4    0    0  0.27031152867E+02 -0.49115753246E+02  0.57816283207E+02  0.80534235242E+02  0.00000000000E+00 0.  1.
         11    1    4    4    0    0  0.12273799260E+03 -0.82741606320E+02  0.10797999041E+02  0.14841625594E+03  0.00000000000E+00 0. -1.
</event>
<event>
 8    1  0.3528896E-009  0.1870539E+03  0.7561462E-02  0.1161146E+00
         -1   -1    0    0    0  501 -0.00000000000E+00  0.00000000000E+00  0.53856385677E+03  0.53856385677E+03  0.00000000000E+00 0.  1.
          1   -1    0    0  501    0  0.00000000000E+00 -0.00000000000E+00 -0.71160206456E+02  0.71160206456E+02  0.00000000000E+00 0. -1.
         25    2    1    2    0    0  0.11936179995E+03  0.10788664770E+03  0.20885340997E+03  0.29181062059E+03  0.12508766283E+03 0.  0.
         23    2    1    2    0    0 -0.11936179995E+03 -0.10788664770E+03  0.25855024034E+03  0.31791344264E+03  0.91290537240E+02 0.  0.
          5    1    3    3  502    0  0.34180562679E+01  0.65668102863E+02  0.25260335533E+02  0.70565854303E+02  0.41800000000E+01 0. -1.
         -5    1    3    3    0  502  0.11594374368E+03  0.42218544837E+02  0.18359307444E+03  0.22124476629E+03  0.41800000000E+01 0. -1.
        -11    1    4    4    0    0 -0.11767333516E+02 -0.69546165944E+02  0.91046394036E+02  0.11517198098E+03  0.00000000000E+00 0. -1.
         11    1    4    4    0    0 -0.10759446643E+03 -0.38340481756E+02  0.16750384631E+03  0.20274146166E+03  0.00000000000E+00 0.  1.
</event>
<event>
 8    1  0.3528896E-009  0.1876223E+03  0.7561462E-02  0.1160623E+00
          2   -1    0    0  501    0  0.00000000000E+00  0.00000000000E+00  0.19481223580E+03  0.19481223580E+03  0.00000000000E+00 0.  1.
         -2   -1    0    0    0  501 -0.00000000000E+00 -0.00000000000E+00 -0.20883991748E+03  0.20883991748E+03  0.00000000000E+00 0. -1.
         25    2    1    2    0    0  0.16037664577E+03 -0.45411178882E+02  0.24421844400E+02  0.20982704647E+03  0.12509244290E+03 0.  0.
         23    2    1    2    0    0 -0.16037664577E+03  0.45411178882E+02 -0.38449526079E+02  0.19382510681E+03  0.91142538353E+02 0.  0.
          5    1    3    3  502    0  0.17035664292E+03 -0.56654318431E+02 -0.14837642606E+01  0.17958499810E+03  0.41800000000E+01 0.  1.
         -5    1    3    3    0  502 -0.99799971489E+01  0.11243139549E+02  0.25905608661E+02  0.30242048378E+02  0.41800000000E+01 0.  1.
        -11    1    4    4    0    0 -0.82501391847E+02  0.58442399773E+02 -0.52032305654E+02  0.11370731982E+03  0.00000000000E+00 0. -1.
         11    1    4    4    0    0 -0.77875253926E+02 -0.13031220892E+02  0.13582779575E+02  0.80117786995E+02  0.00000000000E+00 0.  1.
</event>
<event>
 8    1  0.3528896E-009  0.1395371E+03  0.7561462E-02  0.1213953E+00
         -2   -1    0    0    0  501 -0.00000000000E+00  0.00000000000E+00  0.27137264471E+02  0.27137264471E+02  0.00000000000E+00 0.  1.
          2   -1    0    0  501    0  0.00000000000E+00 -0.00000000000E+00 -0.10679673944E+04  0.10679673944E+04  0.00000000000E+00 0. -1.
         25    2    1    2    0    0 -0.77779430650E+02 -0.10613863720E+03 -0.55983063179E+03  0.58853345381E+03  0.12508493044E+03 0.  0.
         23    2    1    2    0    0  0.77779430650E+02  0.10613863720E+03 -0.48099949810E+03  0.50657120502E+03  0.89100047392E+02 0.  0.
          5    1    3    3  502    0 -0.10077738969E+02 -0.11618093812E+02  0.80083111995E+00  0.15957902652E+02  0.41800000000E+01 0.  1.
         -5    1    3    3    0  502 -0.67701691681E+02 -0.94520543390E+02 -0.56063146291E+03  0.57257555116E+03  0.41800000000E+01 0.  1.
        -11    1    4    4    0    0  0.71179926083E+02  0.11530201191E+03 -0.47465646234E+03  0.49361917818E+03  0.00000000000E+00 0. -1.
         11    1    4    4    0    0  0.65995045673E+01 -0.91633747074E+01 -0.63430357558E+01  0.12952026836E+02  0.00000000000E+00 0.  1.
</event>
<event>
 8    1  0.3528896E-009  0.3184813E+03  0.7561462E-02  0.1076350E+00
          2   -1    0    0  501    0  0.00000000000E+00  0.00000000000E+00  0.11353973912E+04  0.11353973912E+04  0.00000000000E+00 0. -1.
         -2   -1    0    0    0  501 -0.00000000000E+00 -0.00000000000E+00 -0.12534054793E+03  0.12534054793E+03  0.00000000000E+00 0.  1.
         25    2    1    2    0    0 -0.13083905811E+03 -0.28145732967E+03  0.20333957679E+03  0.39157554740E+03  0.12508932122E+03 0.  0.
         23    2    1    2    0    0  0.13083905811E+03  0.28145732967E+03  0.80671726649E+03  0.86916239174E+03  0.91177999690E+02 0.  0.
          5    1    3    3  502    0 -0.13043173451E+03 -0.28920829024E+03  0.17596269130E+03  0.36281429636E+03  0.41800000000E+01 0.  1.
         -5    1    3    3    0  502 -0.40732360010E+00  0.77509605788E+01  0.27376885487E+02  0.28761251040E+02  0.41800000000E+01 0.  1.
        -11    1    4    4    0    0  0.11753547903E+03  0.23849250771E+03  0.58016497732E+03  0.63818858183E+03  0.00000000000E+00 0. -1.
         11    1    4    4    0    0  0.13303579076E+02  0.42964821957E+02  0.22655228916E+03  0.23097380992E+03  0.00000000000E+00 0.  1.
</event>
<event>
 8    1  0.3528896E-009  0.1728529E+03  0.7561462E-02  0.1174905E+00
          2   -1    0    0  501    0  0.00000000000E+00  0.00000000000E+00  0.25873367400E+03  0.25873367400E+03  0.00000000000E+00 0. -1.
         -2   -1    0    0    0  501 -0.00000000000E+00 -0.00000000000E+00 -0.15949462936E+03  0.15949462936E+03  0.00000000000E+00 0.  1.
         25    2    1    2    0    0 -0.42402387356E+02 -0.15682241580E+03  0.93139468692E+01  0.20524813616E+03  0.12509522469E+03 0.  0.
         23    2    1    2    0    0  0.42402387356E+02  0.15682241580E+03  0.89925097772E+02  0.21298016720E+03  0.10432063967E+03 0.  0.
          5    1    3    3  502    0 -0.44619836815E+02 -0.16317788073E+03  0.39726263053E+02  0.17382059422E+03  0.41800000000E+01 0.  1.
         -5    1    3    3    0  502  0.22174494591E+01  0.63554649367E+01 -0.30412316184E+02  0.31427541939E+02  0.41800000000E+01 0.  1.
        -11    1    4    4    0    0  0.52080740503E+02  0.12977380043E+03  0.25092579292E+02  0.14206787232E+03  0.00000000000E+00 0.  1.
         11    1    4    4    0    0 -0.96783531465E+01  0.27048615368E+02  0.64832518480E+02  0.70912294882E+02  0.00000000000E+00 0. -1.
</event>
<event>
 8    1  0.3528896E-009  0.1444618E+03  0.7561462E-02  0.1207448E+00
          2   -1    0    0  501    0  0.00000000000E+00  0.00000000000E+00  0.88478720768E+02  0.88478720768E+02  0.00000000000E+00 0. -1.
         -2   -1    0    0    0  501 -0.00000000000E+00 -0.00000000000E+00 -0.31928357804E+03  0.31928357804E+03  0.00000000000E+00 0.  1.
         25    2    1    2    0    0 -0.10480857927E+03 -0.53988727733E+02 -0.18461747874E+03  0.25225144499E+03  0.12509019559E+03 0.  0.
         23    2    1    2    0    0  0.10480857927E+03  0.53988727733E+02 -0.46187378538E+02  0.15551085382E+03  0.90281397370E+02 0.  0.
          5    1    3    3  502    0 -0.92250281123E+02  0.13861203522E+02 -0.63927324764E+02  0.11316546550E+03  0.41800000000E+01 0. -1.
         -5    1    3    3    0  502 -0.12558298143E+02 -0.67849931255E+02 -0.12069015397E+03  0.13908597949E+03  0.41800000000E+01 0. -1.
        -11    1    4    4    0    0  0.66806706923E+02  0.57644005023E+02 -0.68127788202E+02  0.11147808273E+03  0.00000000000E+00 0.  1.
         11    1    4    4    0    0  0.38001872343E+02 -0.36552772896E+01  0.21940409664E+02  0.44032771090E+02  0.00000000000E+00 0. -1.
</event>
<event>
 8    1  0.3528896E-009  0.8308883E+02  0.7561462E-02  0.1320507E+00
         -2   -1    0    0    0  501 -0.00000000000E+00  0.00000000000E+00  0.35820730524E+02  0.35820730524E+02  0.00000000000E+00 0.  1.
          2   -1    0    0  501    0  0.00000000000E+00 -0.00000000000E+00 -0.44585810666E+03  0.44585810666E+03  0.00000000000E+00 0. -1.
         25    2    1    2    0    0  0.39456162233E+02  0.10939183923E+02 -0.13589434242E+03  0.18918504742E+03  0.12508898986E+03 0.  0.
         23    2    1    2    0    0 -0.39456162233E+02 -0.10939183923E+02 -0.27414303372E+03  0.29249378976E+03  0.93390361553E+02 0.  0.
          5    1    3    3  502    0  0.47079875738E+02  0.20444562670E+02  0.11760244977E+01  0.51510681183E+02  0.41800000000E+01 0. -1.
         -5    1    3    3    0  502 -0.76237135051E+01 -0.95053787478E+01 -0.13707036692E+03  0.13767436624E+03  0.41800000000E+01 0. -1.
        -11    1    4    4    0    0 -0.44519630705E+02  0.34347572473E+02 -0.15985112008E+03  0.16945245305E+03  0.00000000000E+00 0. -1.
         11    1    4    4    0    0  0.50634684725E+01 -0.45286756396E+02 -0.11429191364E+03  0.12304133672E+03  0.00000000000E+00 0.  1.
</event>
<event>
 8    1  0.3528896E-009  0.1892350E+03  0.7561462E-02  0.1159153E+00
         -1   -1    0    0    0  501 -0.00000000000E+00  0.00000000000E+00  0.31459798654E+03  0.31459798654E+03  0.00000000000E+00 0.  1.
          1   -1    0    0  501    0  0.00000000000E+00 -0.00000000000E+00 -0.12462218473E+03  0.12462218473E+03  0.00000000000E+00 0. -1.
         25    2    1    2    0    0 -0.15677106815E+03 -0.21709072232E+02  0.46121026385E+02  0.20693165907E+03  0.12508041743E+03 0.  0.
         23    2    1    2    0    0  0.15677106815E+03  0.21709072232E+02  0.14385477543E+03  0.23228851221E+03  0.90638318975E+02 0.  0.
          5    1    3    3  502    0 -0.80287800928E+02  0.51656773361E+02  0.25116277041E+02  0.98807150472E+02  0.41800000000E+01 0. -1.
         -5    1    3    3    0  502 -0.76483267218E+02 -0.73365845592E+02  0.21004749344E+02  0.10812450859E+03  0.41800000000E+01 0. -1.
        -11    1    4    4    0    0  0.10475852999E+03 -0.24144597041E+02  0.11430130900E+03  0.15691430914E+03  0.00000000000E+00 0. -1.
         11    1    4    4    0    0  0.52012538158E+02  0.45853669273E+02  0.29553466424E+02  0.75374203074E+02  0.00000000000E+00 0.  1.
</event>
<event>
 8    1  0.3528896E-009  0.1913046E+03  0.7561462E-02  0.1157290E+00
          3   -1    0    0  501    0  0.00000000000E+00  0.00000000000E+00  0.25731766574E+03  0.25731766574E+03  0.00000000000E+00 0. -1.
         -3   -1    0    0    0  501 -0.00000000000E+00 -0.00000000000E+00 -0.24682287046E+03  0.24682287046E+03  0.00000000000E+00 0.  1.
         25    2    1    2    0    0  0.12839347467E+03  0.13118581850E+03  0.13846686213E+03  0.26175443171E+03  0.12509079623E+03 0.  0.
         23    2    1    2    0    0 -0.12839347467E+03 -0.13118581850E+03 -0.12797206685E+03  0.24238610448E+03  0.93164212219E+02 0.  0.
          5    1    3    3  502    0  0.34917492036E+02  0.74405183379E+01  0.93589342813E+02  0.10025482558E+03  0.41800000000E+01 0.  1.
         -5    1    3    3    0  502  0.93475982637E+02  0.12374530017E+03  0.44877519312E+02  0.16149960614E+03  0.41800000000E+01 0.  1.
        -11    1    4    4    0    0 -0.64661117456E+01 -0.36718877501E+02  0.63923051261E+01  0.37827875051E+02  0.00000000000E+00 0. -1.
         11    1    4    4    0    0 -0.12192736293E+03 -0.94466941002E+02 -0.13436437197E+03  0.20455822943E+03  0.00000000000E+00 0.  1.
</event>
<event>
 7    1  0.3528896E-009  0.1385075E+03  0.7561462E-02  0.1215351E+00
         -3   -1    0    0    0  501 -0.00000000000E+00  0.00000000000E+00  0.72381858639E+02  0.72381858639E+02  0.00000000000E+00 0.  1.
          3   -1    0    0  501    0  0.00000000000E+00 -0.00000000000E+00 -0.38811826780E+03  0.38811826780E+03  0.00000000000E+00 0. -1.
         23    2    1    2    0    0  0.41173237801E+02  0.11230274416E+03 -0.93133606328E+02  0.17856924632E+03  0.94371421776E+02 0.  0.
          5    1    1    2  502    0  0.60250000852E+01  0.79041804843E+01 -0.11004311088E+03  0.11057004725E+03  0.41800000000E+01 0.  1.
         -5    1    1    2    0  502 -0.47198237886E+02 -0.12020692464E+03 -0.11255969195E+03  0.17136083288E+03  0.41800000000E+01 0.  1.
        -11    1    3    3    0    0 -0.15481758519E+02  0.60710422596E+01  0.10539831155E+02  0.19688332630E+02  0.00000000000E+00 0.  1.
         11    1    3    3    0    0  0.56654996320E+02  0.10623170190E+03 -0.10367343748E+03  0.15888091369E+03  0.00000000000E+00 0. -1.
</event>
<event>
 8    1  0.3528896E-009  0.1248701E+03  0.7561462E-02  0.1235272E+00
         -2   -1    0    0    0  501 -0.00000000000E+00  0.00000000000E+00  0.18929126968E+03  0.18929126968E+03  0.00000000000E+00 0.  1.
          2   -1    0    0  501    0  0.00000000000E+00 -0.00000000000E+00 -0.11217903273E+03  0.11217903273E+03  0.00000000000E+00 0. -1.
         25    2    1    2    0    0  0.74968223892E+02  0.38327062586E+01  0.10547681486E+03  0.18002108976E+03  0.12508920839E+03 0.  0.
         23    2    1    2    0    0 -0.74968223892E+02 -0.38327062586E+01 -0.28364577911E+02  0.12144921265E+03  0.91161602345E+02 0.  0.
          5    1    3    3  502    0  0.17246089636E+02 -0.58219956845E+02  0.48337464195E+02  0.77723701839E+02  0.41800000000E+01 0.  1.
         -5    1    3    3    0  502  0.57722134256E+02  0.62052663104E+02  0.57139350669E+02  0.10229738792E+03  0.41800000000E+01 0.  1.
        -11    1    4    4    0    0  0.13579189540E+02 -0.72838304246E+01 -0.28991633345E+02  0.32832352615E+02  0.00000000000E+00 0. -1.
         11    1    4    4    0    0 -0.88547413432E+02  0.34511241660E+01  0.62705543476E+00  0.88616860033E+02  0.00000000000E+00 0.  1.
</event>
<event>
 8    1  0.3528896E-009  0.1097672E+03  0.7561462E-02  0.1261002E+00
         -2   -1    0    0    0  501 -0.00000000000E+00  0.00000000000E+00  0.72354217149E+03  0.72354217149E+03  0.00000000000E+00 0.  1.
          2   -1    0    0  501    0  0.00000000000E+00 -0.00000000000E+00 -0.19630264617E+02  0.19630264617E+02  0.00000000000E+00 0. -1.
         25    2    1    2    0    0 -0.32154824692E+02  0.33253572050E+02  0.35545915791E+03  0.37967304307E+03  0.12514261419E+03 0.  0.
         23    2    1    2    0    0  0.32154824692E+02 -0.33253572050E+02  0.34845274897E+03  0.36349939304E+03  0.92589187675E+02 0.  0.
          5    1    3    3  502    0 -0.75340202224E+02  0.19229772236E+02  0.28732118938E+03  0.29768585536E+03  0.41800000000E+01 0. -1.
         -5    1    3    3    0  502  0.43185377532E+02  0.14023799815E+02  0.68137968528E+02  0.81987187712E+02  0.41800000000E+01 0. -1.
        -11    1    4    4    0    0  0.90107454372E+01 -0.60015269398E+02  0.27934227852E+03  0.28585859207E+03  0.00000000000E+00 0.  1.
         11    1    4    4    0    0  0.23144079255E+02  0.26761697347E+02  0.69110470447E+02  0.77640800968E+02  0.00000000000E+00 0. -1.
</event>
<event>
 8    1  0.3528896E-009  0.1466625E+03  0.7561462E-02  0.1204635E+00
          2   -1    0    0  501    0  0.00000000000E+00  0.00000000000E+00  0.58041821309E+03  0.58041821309E+03  0.00000000000E+00 0. -1.
         -2   -1    0    0    0  501 -0.00000000000E+00 -0.00000000000E+00 -0.52115916645E+02  0.52115916645E+02  0.00000000000E+00 0.  1.
         25    2    1    2    0    0 -0.98043559126E+02  0.62070421989E+02  0.40796494881E+03  0.44220598139E+03  0.12508178825E+03 0.  0.
         23    2    1    2    0    0  0.98043559126E+02 -0.62070421989E+02  0.12033734764E+03  0.19032814835E+03  0.90985988172E+02 0.  0.
          5    1    3    3  502    0 -0.10472363103E+02  0.56993181079E+02  0.28643523490E+03  0.29226787246E+03  0.41800000000E+01 0.  1.
         -5    1    3    3    0  502 -0.87571196024E+02  0.50772409107E+01  0.12152971390E+03  0.14993810893E+03  0.41800000000E+01 0.  1.
        -11    1    4    4    0    0  0.85008282927E+02 -0.10526607239E+01  0.66992761702E+02  0.10823837758E+03  0.00000000000E+00 0.  1.
         11    1    4    4    0    0  0.13035276200E+02 -0.61017761265E+02  0.53344585938E+02  0.82089770766E+02  0.00000000000E+00 0. -1.
</event>
<event>
 8    1  0.3528896E-009  0.1345717E+03  0.7561462E-02  0.1220826E+00
          1   -1    0    0  501    0  0.00000000000E+00  0.00000000000E+00  0.10847575454E+03  0.10847575454E+03  0.00000000000E+00 0. -1.
         -1   -1    0    0    0  501 -0.00000000000E+00 -0.00000000000E+00 -0.22951543946E+03  0.22951543946E+03  0.00000000000E+00 0.  1.
         25    2    1    2    0    0  0.98391650822E+02  0.16618145455E+02 -0.10242319366E+02  0.16034379446E+03  0.12509255616E+03 0.  0.
         23    2    1    2    0    0 -0.98391650822E+02 -0.16618145455E+02 -0.11079736556E+03  0.17764739954E+03  0.96568435009E+02 0.  0.
          5    1    3    3  502    0  0.74167620368E+02 -0.39734771333E+02  0.26996272576E+02  0.88464451035E+02  0.41800000000E+01 0.  1.
         -5    1    3    3    0  502  0.24224030454E+02  0.56352916787E+02 -0.37238591942E+02  0.71879343428E+02  0.41800000000E+01 0.  1.
        -11    1    4    4    0    0 -0.68173850479E+02  0.24454029987E+02 -0.10322225887E+03  0.12609721725E+03  0.00000000000E+00 0.  1.
         11    1    4    4    0    0 -0.30217800343E+02 -0.41072175442E+02 -0.75751066856E+01  0.51550182293E+02  0.00000000000E+00 0. -1.
</event>
<event>
 8    1  0.3528896E-009  0.3998366E+03  0.7561462E-02  0.1043836E+00
         -1   -1    0    0    0  501 -0.00000000000E+00  0.00000000000E+00  0.51933657323E+03  0.51933657323E+03  0.00000000000E+00 0.  1.
          1   -1    0    0  501    0  0.00000000000E+00 -0.00000000000E+00 -0.31312226279E+03  0.31312226279E+03  0.00000000000E+00 0. -1.
         25    2    1    2    0    0  0.13284905861E+03  0.36308646643E+03  0.13824385196E+03  0.42923044092E+03  0.12508698704E+03 0.  0.
         23    2    1    2    0    0 -0.13284905861E+03 -0.36308646643E+03  0.67970458480E+02  0.40322839510E+03  0.92154766057E+02 0.  0.
          5    1    3    3  502    0  0.11043909962E+03  0.12527428516E+03  0.47545178909E+02  0.17369069544E+03  0.41800000000E+01 0. -1.
         -5    1    3    3    0  502  0.22409958993E+02  0.23781218127E+03  0.90698673056E+02  0.25553974548E+03  0.41800000000E+01 0. -1.
        -11    1    4    4    0    0 -0.36159661926E+02 -0.30332647411E+02 -0.95316336156E+01  0.48150209646E+02  0.00000000000E+00 0.  1.
         11    1    4    4    0    0 -0.96689396685E+02 -0.33275381902E+03  0.77502092096E+02  0.35507818545E+03  0.00000000000E+00 0. -1.
</event>
<event>
 8    1  0.3528896E-009  0.8810789E+02  0.7561462E-02  0.1307499E+00
         -1   -1    0    0    0  501 -0.00000000000E+00  0.00000000000E+00  0.18645383863E+03  0.18645383863E+03  0.00000000000E+00 0.  1.
          1   -1    0    0  501    0  0.00000000000E+00 -0.00000000000E+00 -0.87451456686E+02  0.87451456686E+02  0.00000000000E+00 0. -1.
         25    2    1    2    0    0 -0.61662888077E+01  0.30399525067E+01 -0.17300723541E+02  0.12647089589E+03  0.12509319743E+03 0.  0.
         23    2    1    2    0    0  0.61662888077E+01 -0.30399525067E+01  0.11630310549E+03  0.14743439943E+03  0.90350569226E+02 0.  0.
          5    1    3    3  502    0 -0.31365875836E+02 -0.49754662328E+02 -0.30453907814E+02  0.66364580097E+02  0.41800000000E+01 0.  1.
         -5    1    3    3    0  502  0.25199587029E+02  0.52794614835E+02  0.13153184273E+02  0.60106315795E+02  0.41800000000E+01 0.  1.
        -11    1    4    4    0    0 -0.21832261698E+02  0.13896033706E+02 -0.75324044715E+00  0.25890437902E+02  0.00000000000E+00 0. -1.
         11    1    4    4    0    0  0.27998550506E+02 -0.16935986213E+02  0.11705634594E+03  0.12154396153E+03  0.00000000000E+00 0.  1.
</event>
<event>
 8    1  0.3528896E-009  0.9887271E+02  0.7561462E-02  0.1282684E+00
         -1   -1    0    0    0  501 -0.00000000000E+00  0.00000000000E+00  0.44242817694E+02  0.44242817694E+02  0.00000000000E+00 0.  1.
          1   -1    0    0  501    0  0.00000000000E+00 -0.00000000000E+00 -0.30235167663E+03  0.30235167663E+03  0.00000000000E+00 0. -1.
         25    2    1    2    0    0 -0.13127546677E+02  0.16425146546E+02 -0.19326403629E+03  0.23117272473E+03  0.12509085904E+03 0.  0.
         23    2    1    2    0    0  0.13127546677E+02 -0.16425146546E+02 -0.64844822642E+02  0.11542176959E+03  0.93140839331E+02 0.  0.
          5    1    3    3  502    0 -0.60761881594E+02  0.39554103642E+02 -0.96311846870E+02  0.12062328804E+03  0.41800000000E+01 0.  1.
         -5    1    3    3    0  502  0.47634334916E+02 -0.23128957095E+02 -0.96952189425E+02  0.11054943669E+03  0.41800000000E+01 0.  1.
        -11    1    4    4    0    0  0.18785076484E+02  0.24398294786E+02  0.79213926037E+01  0.31794722012E+02  0.00000000000E+00 0.  1.
         11    1    4    4    0    0 -0.56575298070E+01 -0.40823441333E+02 -0.72766215245E+02  0.83627047580E+02  0.00000000000E+00 0. -1.
</event>
<event>
 8    1  0.3528896E-009  0.1163773E+03  0.7561462E-02  0.1249196E+00
          2   -1    0    0  501    0  0.00000000000E+00  0.00000000000E+00  0.44501067852E+03  0.44501067852E+03  0.00000000000E+00 0. -1.
         -2   -1    0    0    0  501 -0.00000000000E+00 -0.00000000000E+00 -0.47701876133E+02  0.47701876133E+02  0.00000000000E+00 0.  1.
         25    2    1    2    0    0 -0.67942597079E+02 -0.42713485546E+02  0.11166040421E+03  0.18589261411E+03  0.12508948703E+03 0.  0.
         23    2    1    2    0    0  0.67942597079E+02  0.42713485546E+02  0.28564839818E+03  0.30681994054E+03  0.78120613087E+02 0.  0.
          5    1    3    3  502    0 -0.27304075022E+02  0.39097886115E+02  0.71435328225E+02  0.85992067833E+02  0.41800000000E+01 0.  1.
         -5    1    3    3    0  502 -0.40638522057E+02 -0.81811371661E+02  0.40225075983E+02  0.99900546274E+02  0.41800000000E+01 0.  1.
        -11    1    4    4    0    0  0.84772737118E+01  0.31889367952E+02  0.31625689841E+02  0.45705363097E+02  0.00000000000E+00 0.  1.
         11    1    4    4    0    0  0.59465323367E+02  0.10824117594E+02  0.25402270834E+03  0.26111457745E+03  0.00000000000E+00 0. -1.
</event>
<event>
 8    1  0.3528896E-009  0.8583126E+02  0.7561462E-02  0.1313273E+00
         -1   -1    0    0    0  501 -0.00000000000E+00  0.00000000000E+00  0.28169318190E+03  0.28169318190E+03  0.00000000000E+00 0.  1.
          1   -1    0    0  501    0  0.00000000000E+00 -0.00000000000E+00 -0.54239580381E+02  0.54239580381E+02  0.00000000000E+00 0. -1.
         25    2    1    2    0    0 -0.23347557600E+02 -0.15020324583E+02  0.56573578107E+02  0.14006692848E+03  0.12508979222E+03 0.  0.
         23    2    1    2    0    0  0.23347557600E+02  0.15020324583E+02  0.17088002341E+03  0.19586583380E+03  0.91611810659E+02 0.  0.
          5    1    3    3  502    0  0.17853509514E+02 -0.29043993143E+02  0.82409848329E+02  0.89281335347E+02  0.41800000000E+01 0. -1.
         -5    1    3    3    0  502 -0.41201067114E+02  0.14023668559E+02 -0.25836270222E+02  0.50785593136E+02  0.41800000000E+01 0. -1.
        -11    1    4    4    0    0 -0.19300397521E+02  0.39824964116E+02  0.10153883989E+03  0.11076402447E+03  0.00000000000E+00 0.  1.
         11    1    4    4    0    0  0.42647955120E+02 -0.24804639533E+02  0.69341183520E+02  0.85101809325E+02  0.00000000000E+00 0. -1.
</event>
<event>
 8    1  0.3528896E-009  0.9726693E+02  0.7561462E-02  0.1286150E+00
         -1   -1    0    0    0  501 -0.00000000000E+00  0.00000000000E+00  0.10218578907E+03  0.10218578907E+03  0.00000000000E+00 0.  1.
          1   -1    0    0  501    0  0.00000000000E+00 -0.00000000000E+00 -0.15915735483E+03  0.15915735483E+03  0.00000000000E+00 0. -1.
         25    2    1    2    0    0 -0.63966506823E+02 -0.16446218026E+02 -0.44168019960E+02  0.14820081998E+03  0.12510186639E+03 0.  0.
         23    2    1    2    0    0  0.63966506823E+02  0.16446218026E+02 -0.12803545797E+02  0.11314232392E+03  0.90967371046E+02 0.  0.
          5    1    3    3  502    0  0.17096468790E+02  0.26541461477E+02  0.18666262273E+02  0.36913956300E+02  0.41800000000E+01 0. -1.
         -5    1    3    3    0  502 -0.81062975613E+02 -0.42987679504E+02 -0.62834282233E+02  0.11128686368E+03  0.41800000000E+01 0. -1.
        -11    1    4    4    0    0  0.36741619672E+02  0.22313059477E+02  0.36582093184E+02  0.56445272442E+02  0.00000000000E+00 0.  1.
         11    1    4    4    0    0  0.27224887151E+02 -0.58668414505E+01 -0.49385638981E+02  0.56697051480E+02  0.00000000000E+00 0. -1.
</event>
<event>
 8    1  0.3528896E-009  0.1196345E+03  0.7561462E-02  0.1243701E+00
         -4   -1    0    0    0  501 -0.00000000000E+00  0.00000000000E+00  0.82623195337E+02  0.82623195337E+02  0.00000000000E+00 0.  1.
          4   -1    0    0  501    0  0.00000000000E+00 -0.00000000000E+00 -0.21472709825E+03  0.21472709825E+03  0.00000000000E+00 0. -1.
         25    2    1    2    0    0  0.17679830598E+02  0.59379473347E+02 -0.13596372877E+03  0.19486306653E+03  0.12508789267E+03 0.  0.
         23    2    1    2    0    0 -0.17679830598E+02 -0.59379473347E+02  0.38598258532E+01  0.10248722705E+03  0.81548974173E+02 0.  0.
          5    1    3    3  502    0  0.65368878819E+02  0.64486679999E+01 -0.83313730079E+02  0.10617591844E+03  0.41800000000E+01 0. -1.
         -5    1    3    3    0  502 -0.47689048221E+02  0.52930805348E+02 -0.52649998689E+02  0.88687148093E+02  0.41800000000E+01 0. -1.
        -11    1    4    4    0    0 -0.26564400273E+02 -0.77486100587E+02  0.63811455852E+01  0.82161317936E+02  0.00000000000E+00 0. -1.
         11    1    4    4    0    0  0.88845696750E+01  0.18106627239E+02 -0.25213197320E+01  0.20325909118E+02  0.00000000000E+00 0.  1.
</event>
<event>
 8    1  0.3528896E-009  0.9732968E+02  0.7561462E-02  0.1286014E+00
          2   -1    0    0  501    0  0.00000000000E+00  0.00000000000E+00  0.96888654983E+02  0.96888654983E+02  0.00000000000E+00 0. -1.
         -2   -1    0    0    0  501 -0.00000000000E+00 -0.00000000000E+00 -0.16447635549E+03  0.16447635549E+03  0.00000000000E+00 0.  1.
         25    2    1    2    0    0 -0.59877733670E+02 -0.25629594969E+02 -0.38129331841E+02  0.14609433932E+03  0.12508993128E+03 0.  0.
         23    2    1    2    0    0  0.59877733670E+02  0.25629594969E+02 -0.29458368664E+02  0.11527067115E+03  0.90428496701E+02 0.  0.
          5    1    3    3  502    0 -0.22406786477E+02 -0.49408386159E+02  0.31905743603E+02  0.63076949656E+02  0.41800000000E+01 0. -1.
         -5    1    3    3    0  502 -0.37470947193E+02  0.23778791190E+02 -0.70035075444E+02  0.83017389663E+02  0.41800000000E+01 0. -1.
        -11    1    4    4    0    0  0.47631492300E+02  0.49591741365E+02  0.79171191840E+01  0.69215465371E+02  0.00000000000E+00 0. -1.
         11    1    4    4    0    0  0.12246241371E+02 -0.23962146396E+02 -0.37375487848E+02  0.46055205780E+02  0.00000000000E+00 0.  1.
</event>
<event>
 8    1  0.3528896E-009  0.1273448E+03  0.7561462E-02  0.1231450E+00
         -2   -1    0    0    0  501 -0.00000000000E+00  0.00000000000E+00  0.22781172163E+02  0.22781172163E+02  0.00000000000E+00 0.  1.
          2   -1    0    0  501    0  0.00000000000E+00 -0.00000000000E+00 -0.76224524679E+03  0.76224524679E+03  0.00000000000E+00 0. -1.
         25    2    1    2    0    0  0.11564112789E+02  0.70438614655E+02 -0.47669241574E+03  0.49797362204E+03  0.12508693730E+03 0.  0.
         23    2    1    2    0    0 -0.11564112789E+02 -0.70438614655E+02 -0.26277165889E+03  0.28705279692E+03  0.90857230658E+02 0.  0.
          5    1    3    3  502    0  0.11265124700E+02  0.10432388453E+03 -0.29581434957E+03  0.31390122289E+03  0.41800000000E+01 0.  1.
         -5    1    3    3    0  502  0.29898808866E+00 -0.33885269876E+02 -0.18087806616E+03  0.18407239915E+03  0.41800000000E+01 0.  1.
        -11    1    4    4    0    0  0.20321623474E+02 -0.79763339506E+02 -0.18900884170E+03  0.20615407090E+03  0.00000000000E+00 0.  1.
         11    1    4    4    0    0 -0.31885736263E+02  0.93247248514E+01 -0.73762817197E+02  0.80898726019E+02  0.00000000000E+00 0. -1.
</event>
<event>
 8    1  0.3528896E-009  0.2102781E+03  0.7561462E-02  0.1141346E+00
          2   -1    0    0  501    0  0.00000000000E+00  0.00000000000E+00  0.90742004458E+02  0.90742004458E+02  0.00000000000E+00 0. -1.
         -2   -1    0    0    0  501 -0.00000000000E+00 -0.00000000000E+00 -0.56035533921E+03  0.56035533921E+03  0.00000000000E+00 0.  1.
         25    2    1    2    0    0 -0.53048686539E+02  0.17318671729E+03 -0.13057316823E+03  0.25593767119E+03  0.12508771756E+03 0.  0.
         23    2    1    2    0    0  0.53048686539E+02 -0.17318671729E+03 -0.33904016652E+03  0.39515967248E+03  0.91624942292E+02 0.  0.
          5    1    3    3  502    0 -0.55760493327E+02  0.99611774211E+01 -0.31996579505E+02  0.65189808802E+02  0.41800000000E+01 0. -1.
         -5    1    3    3    0  502  0.27118067875E+01  0.16322553987E+03 -0.98576588730E+02  0.19074786239E+03  0.41800000000E+01 0. -1.
        -11    1    4    4    0    0 -0.20482405891E+02 -0.75258910401E+02 -0.16317772106E+03  0.18086017029E+03  0.00000000000E+00 0.  1.
         11    1    4    4    0    0  0.73531092431E+02 -0.97927806887E+02 -0.17586244545E+03  0.21429950219E+03  0.00000000000E+00 0. -1.
</event>
<event>
 8    1  0.3528896E-009  0.5804560E+02  0.7561462E-02  0.1406221E+00
          3   -1    0    0  501    0  0.00000000000E+00  0.00000000000E+00  0.40007552218E+03  0.40007552218E+03  0.00000000000E+00 0. -1.
         -3   -1    0    0    0  501 -0.00000000000E+00 -0.00000000000E+00 -0.34066120744E+02  0.34066120744E+02  0.00000000000E+00 0.  1.
         25    2    1    2    0    0  0.29086629604E+02  0.11616240915E+02  0.25970815838E+03  0.28996044074E+03  0.12509100923E+03 0.  0.
         23    2    1    2    0    0 -0.29086629604E+02 -0.11616240915E+02  0.10630124306E+03  0.14418120218E+03  0.92235002646E+02 0.  0.
          5    1    3    3  502    0 -0.43280726354E+01  0.53597028562E+00  0.25397717290E+03  0.25404900360E+03  0.41800000000E+01 0. -1.
         -5    1    3    3    0  502  0.33414702239E+02  0.11080270629E+02  0.57309854828E+01  0.35911437141E+02  0.41800000000E+01 0. -1.
        -11    1    4    4    0    0 -0.39879824977E+02  0.17497209185E+02  0.12401173132E+02  0.45280700796E+02  0.00000000000E+00 0.  1.
         11    1    4    4    0    0  0.10793195374E+02 -0.29113450099E+02  0.93900069924E+02  0.98900501388E+02  0.00000000000E+00 0. -1.
</event>
<event>
 8    1  0.3528896E-009  0.9358299E+02  0.7561462E-02  0.1294400E+00
          1   -1    0    0  501    0  0.00000000000E+00  0.00000000000E+00  0.41486708310E+02  0.41486708310E+02  0.00000000000E+00 0. -1.
         -1   -1    0    0    0  501 -0.00000000000E+00 -0.00000000000E+00 -0.40504835055E+03  0.40504835055E+03  0.00000000000E+00 0.  1.
         25    2    1    2    0    0 -0.24429316355E+02 -0.64657503713E+02 -0.22425087864E+03  0.26592011907E+03  0.12509064261E+03 0.  0.
         23    2    1    2    0    0  0.24429316355E+02  0.64657503713E+02 -0.13931076359E+03  0.18061493979E+03  0.91852508609E+02 0.  0.
          5    1    3    3  502    0  0.51257431421E+00 -0.25764138372E+02 -0.21747393895E+03  0.21903524849E+03  0.41800000000E+01 0.  1.
         -5    1    3    3    0  502 -0.24941890669E+02 -0.38893365341E+02 -0.67769396960E+01  0.46884870580E+02  0.41800000000E+01 0.  1.
        -11    1    4    4    0    0 -0.27117256213E+02  0.56242513312E+02 -0.69486339829E+02  0.93417971028E+02  0.00000000000E+00 0.  1.
         11    1    4    4    0    0  0.51546572568E+02  0.84149904012E+01 -0.69824423763E+02  0.87196968759E+02  0.00000000000E+00 0. -1.
</event>
<event>
 8    1  0.3528896E-009  0.1648944E+03  0.7561462E-02  0.1183279E+00
         -2   -1    0    0    0  501 -0.00000000000E+00  0.00000000000E+00  0.46361311617E+02  0.46361311617E+02  0.00000000000E+00 0.  1.
          2   -1    0    0  501    0  0.00000000000E+00 -0.00000000000E+00 -0.73907969191E+03  0.73907969191E+03  0.00000000000E+00 0. -1.
         25    2    1    2    0    0  0.16946988495E+02  0.13855032332E+03 -0.47386829347E+03  0.50958938089E+03  0.12508710985E+03 0.  0.
         23    2    1    2    0    0 -0.16946988495E+02 -0.13855032332E+03 -0.21885008682E+03  0.27585162263E+03  0.93356117616E+02 0.  0.
          5    1    3    3  502    0 -0.46842560584E+02  0.86247383299E+02 -0.18923268937E+03  0.21321191274E+03  0.41800000000E+01 0. -1.
         -5    1    3    3    0  502  0.63789549080E+02  0.52302940022E+02 -0.28463560410E+03  0.29637746815E+03  0.41800000000E+01 0. -1.
        -11    1    4    4    0    0 -0.35535054957E+02 -0.10074558977E+03 -0.88061622846E+02  0.13844588621E+03  0.00000000000E+00 0.  1.
         11    1    4    4    0    0  0.18588066462E+02 -0.37804733547E+02 -0.13078846398E+03  0.13740573642E+03  0.00000000000E+00 0. -1.
</event>
<event>
 8    1  0.3528896E-009  0.9483970E+02  0.7561462E-02  0.1291538E+00
          2   -1    0    0  501    0  0.00000000000E+00  0.00000000000E+00  0.67310539086E+02  0.67310539086E+02  0.00000000000E+00 0. -1.
         -2   -1    0    0    0  501 -0.00000000000E+00 -0.00000000000E+00 -0.20599113446E+03  0.20599113446E+03  0.00000000000E+00 0.  1.
         25    2    1    2    0    0  0.38182319292E+02  0.20352178353E+02 -0.90084165494E+02  0.16010797249E+03  0.12508918943E+03 0.  0.
         23    2    1    2    0    0 -0.38182319292E+02 -0.20352178353E+02 -0.48596429877E+02  0.11319370105E+03  0.92623432734E+02 0.  0.
          5    1    3    3  502    0 -0.32937379929E+02  0.40563436544E+02 -0.61301168615E+02  0.80657107898E+02  0.41800000000E+01 0. -1.
         -5    1    3    3    0  502  0.71119699221E+02 -0.20211258191E+02 -0.28782996879E+02  0.79450864591E+02  0.41800000000E+01 0. -1.
        -11    1    4    4    0    0 -0.35700394054E+02  0.64597416662E+01 -0.69969234513E+02  0.78815862466E+02  0.00000000000E+00 0.  1.
         11    1    4    4    0    0 -0.24819252375E+01 -0.26811920019E+02  0.21372804635E+02  0.34377838588E+02  0.00000000000E+00 0. -1.
</event>
<event>
 8    1  0.3528896E-009  0.1200046E+03  0.7561462E-02  0.1243090E+00
         -2   -1    0    0    0  501 -0.00000000000E+00  0.00000000000E+00  0.29916599671E+02  0.29916599671E+02  0.00000000000E+00 0.  1.
          2   -1    0    0  501    0  0.00000000000E+00 -0.00000000000E+00 -0.81356456173E+03  0.81356456173E+03  0.00000000000E+00 0. -1.
         25    2    1    2    0    0 -0.10049130766E+03  0.36916719601E+02 -0.33069396640E+03  0.36942102383E+03  0.12510813857E+03 0.  0.
         23    2    1    2    0    0  0.10049130766E+03 -0.36916719601E+02 -0.45295399566E+03  0.47406013757E+03  0.90024134235E+02 0.  0.
          5    1    3    3  502    0 -0.33010493071E+02  0.15479572470E+02 -0.61416378838E+01  0.37208895879E+02  0.41800000000E+01 0. -1.
         -5    1    3    3    0  502 -0.67480814590E+02  0.21437147131E+02 -0.32455232851E+03  0.33221212795E+03  0.41800000000E+01 0. -1.
        -11    1    4    4    0    0  0.12855325524E+02 -0.42664327113E+02 -0.87388670795E+02  0.98093241284E+02  0.00000000000E+00 0. -1.
         11    1    4    4    0    0  0.87635982138E+02  0.57476075121E+01 -0.36556532487E+03  0.37596689628E+03  0.00000000000E+00 0.  1.
</event>
<event>
 8    1  0.3528896E-009  0.1151375E+03  0.7561462E-02  0.1251341E+00
         -1   -1    0    0    0  501 -0.00000000000E+00  0.00000000000E+00  0.35620506057E+02  0.35620506057E+02  0.00000000000E+00 0.  1.
          1   -1    0    0  501    0  0.00000000000E+00 -0.00000000000E+00 -0.67159514808E+03  0.67159514808E+03  0.00000000000E+00 0. -1.
         25    2    1    2    0    0  0.29328154949E+02  0.27086380626E+02 -0.57532313862E+03  0.59011709454E+03  0.12509060213E+03 0.  0.
         23    2    1    2    0    0 -0.29328154949E+02 -0.27086380626E+02 -0.60651503402E+02  0.11709855960E+03  0.91867595528E+02 0.  0.
          5    1    3    3  502    0  0.80799904451E+01 -0.49854792316E+02 -0.19429353986E+03  0.20079402032E+03  0.41800000000E+01 0.  1.
         -5    1    3    3    0  502  0.21248164504E+02  0.76941172942E+02 -0.38102959876E+03  0.38932307422E+03  0.41800000000E+01 0.  1.
        -11    1    4    4    0    0 -0.62174819118E+02 -0.24107276923E+02 -0.45985282571E+02  0.81003179852E+02  0.00000000000E+00 0. -1.
         11    1    4    4    0    0  0.32846664169E+02 -0.29791037036E+01 -0.14666220831E+02  0.36095379751E+02  0.00000000000E+00 0.  1.
</event>
<event>
 8    1  0.3528896E-009  0.8650071E+02  0.7561462E-02  0.1311554E+00
          3   -1    0    0  501    0  0.00000000000E+00  0.00000000000E+00  0.23434164702E+03  0.23434164702E+03  0.00000000000E+00 0. -1.
         -3   -1    0    0    0  501 -0.00000000000E+00 -0.00000000000E+00 -0.50934849871E+02  0.50934849871E+02  0.00000000000E+00 0.  1.
         25    2    1    2    0    0 -0.12408144404E+02 -0.60893144679E+01  0.10201173858E+03  0.16200053008E+03  0.12508691035E+03 0.  0.
         23    2    1    2    0    0  0.12408144404E+02  0.60893144679E+01  0.81395058575E+02  0.12327596682E+03  0.91546527162E+02 0.  0.
          5    1    3    3  502    0 -0.25130906798E+02 -0.62679085294E+02  0.52905684400E+02  0.85887799201E+02  0.41800000000E+01 0. -1.
         -5    1    3    3    0  502  0.12722762395E+02  0.56589770826E+02  0.49106054177E+02  0.76112730879E+02  0.41800000000E+01 0. -1.
        -11    1    4    4    0    0 -0.17174840933E+02  0.31496438407E+01  0.90511875559E+02  0.92180773671E+02  0.00000000000E+00 0. -1.
         11    1    4    4    0    0  0.29582985336E+02  0.29396706273E+01 -0.91168169831E+01  0.31095193145E+02  0.00000000000E+00 0.  1.
</event>
<event>
 8    1  0.3528896E-009  0.8950475E+02  0.7561462E-02  0.1304055E+00
         -1   -1    0    0    0  501 -0.00000000000E+00  0.00000000000E+00  0.18744314228E+02  0.18744314228E+02  0.00000000000E+00 0.  1.
          1   -1    0    0  501    0  0.00000000000E+00 -0.00000000000E+00 -0.79248209240E+03  0.79248209240E+03  0.00000000000E+00 0. -1.
         25    2    1    2    0    0 -0.49105177570E+02 -0.64950570266E+01 -0.35511242103E+03  0.37974419797E+03  0.12508924852E+03 0.  0.
         23    2    1    2    0    0  0.49105177570E+02  0.64950570266E+01 -0.41862535714E+03  0.43148220865E+03  0.92066294114E+02 0.  0.
          5    1    3    3  502    0 -0.45853410314E+02 -0.38339989056E+02 -0.67218727133E+02  0.90046208558E+02  0.41800000000E+01 0. -1.
         -5    1    3    3    0  502 -0.32517672555E+01  0.31844932029E+02 -0.28789369390E+03  0.28969798942E+03  0.41800000000E+01 0. -1.
        -11    1    4    4    0    0 -0.18125109302E+02 -0.45300121939E+01 -0.21190156965E+02  0.28250015042E+02  0.00000000000E+00 0.  1.
         11    1    4    4    0    0  0.67230286872E+02  0.11025069220E+02 -0.39743520018E+03  0.40323219361E+03  0.00000000000E+00 0. -1.
</event>
<event>
 8    1  0.3528896E-009  0.1473144E+03  0.7561462E-02  0.1203812E+00
         -2   -1    0    0    0  501 -0.00000000000E+00  0.00000000000E+00  0.56603130751E+02  0.56603130751E+02  0.00000000000E+00 0.  1.
          2   -1    0    0  501    0  0.00000000000E+00 -0.00000000000E+00 -0.59428901603E+03  0.59428901603E+03  0.00000000000E+00 0. -1.
         25    2    1    2    0    0 -0.14298499701E+03 -0.34053363483E+02 -0.30934625027E+03  0.36461241066E+03  0.12507104587E+03 0.  0.
         23    2    1    2    0    0  0.14298499701E+03  0.34053363483E+02 -0.22833963501E+03  0.28627973613E+03  0.90624265317E+02 0.  0.
          5    1    3    3  502    0 -0.97634424538E+02 -0.28025089730E+02 -0.76376469503E+02  0.12715629754E+03  0.41800000000E+01 0. -1.
         -5    1    3    3    0  502 -0.45350572475E+02 -0.60282737529E+01 -0.23296978077E+03  0.23745611312E+03  0.41800000000E+01 0. -1.
        -11    1    4    4    0    0  0.52567217186E+02  0.14257249350E+02 -0.16594223620E+03  0.17465224658E+03  0.00000000000E+00 0. -1.
         11    1    4    4    0    0  0.90417779827E+02  0.19796114133E+02 -0.62397398817E+02  0.11162748955E+03  0.00000000000E+00 0.  1.
</event>
<event>
 8    1  0.3528896E-009  0.7879784E+02  0.7561462E-02  0.1332498E+00
         -2   -1    0    0    0  501 -0.00000000000E+00  0.00000000000E+00  0.72573087287E+02  0.72573087287E+02  0.00000000000E+00 0.  1.
          2   -1    0    0  501    0  0.00000000000E+00 -0.00000000000E+00 -0.19201413804E+03  0.19201413804E+03  0.00000000000E+00 0. -1.
         25    2    1    2    0    0 -0.24799224886E+02  0.38921572034E+02 -0.75292911276E+02  0.15312147370E+03  0.12508905985E+03 0.  0.
         23    2    1    2    0    0  0.24799224886E+02 -0.38921572034E+02 -0.44148139476E+02  0.11146575163E+03  0.91354612594E+02 0.  0.
          5    1    3    3  502    0  0.16997346998E+02 -0.10515113798E+02  0.25862321582E+02  0.32951623644E+02  0.41800000000E+01 0. -1.
         -5    1    3    3    0  502 -0.41796571884E+02  0.49436685832E+02 -0.10115523286E+03  0.12016985005E+03  0.41800000000E+01 0. -1.
        -11    1    4    4    0    0  0.40652243762E+02 -0.39165094027E+02 -0.64469993218E+02  0.85690661910E+02  0.00000000000E+00 0. -1.
         11    1    4    4    0    0 -0.15853018877E+02  0.24352199289E+00  0.20321853742E+02  0.25775089718E+02  0.00000000000E+00 0.  1.
</event>
<event>
 8    1  0.3528896E-009  0.8868594E+02  0.7561462E-02  0.1306065E+00
          2   -1    0    0  501    0  0.00000000000E+00  0.00000000000E+00  0.88617650838E+02  0.88617650838E+02  0.00000000000E+00 0. -1.
         -2   -1    0    0    0  501 -0.00000000000E+00 -0.00000000000E+00 -0.14148438405E+03  0.14148438405E+03  0.00000000000E+00 0.  1.
         25    2    1    2    0    0 -0.93294376916E+01  0.32185566102E+02 -0.37083157995E+02  0.13470604844E+03  0.12509040653E+03 0.  0.
         23    2    1    2    0    0  0.93294376916E+01 -0.32185566102E+02 -0.15783575219E+02  0.95395986454E+02  0.87910886197E+02 0.  0.
          5    1    3    3  502    0  0.25527791632E+02 -0.24409494831E+02 -0.55218573938E+02  0.65681465355E+02  0.41800000000E+01 0.  1.
         -5    1    3    3    0  502 -0.34857229324E+02  0.56595060933E+02  0.18135415942E+02  0.69024583081E+02  0.41800000000E+01 0.  1.
        -11    1    4    4    0    0  0.69312397113E+01 -0.53404274224E+02  0.16823606589E+02  0.56418900450E+02  0.00000000000E+00 0. -1.
         11    1    4    4    0    0  0.23981979804E+01  0.21218708122E+02 -0.32607181808E+02  0.38977086005E+02  0.00000000000E+00 0.  1.
</event>
<event>
 8    1  0.3528896E-009  0.3203637E+03  0.7561462E-02  0.1075482E+00
          1   -1    0    0  501    0  0.00000000000E+00  0.00000000000E+00  0.10937980603E+04  0.10937980603E+04  0.00000000000E+00 0. -1.
         -1   -1    0    0    0  501 -0.00000000000E+00 -0.00000000000E+00 -0.97096092772E+02  0.97096092772E+02  0.00000000000E+00 0.  1.
         25    2    1    2    0    0 -0.28467325423E+03 -0.11413573103E+03  0.48333009133E+03  0.58593651282E+03  0.12509113916E+03 0.  0.
         23    2    1    2    0    0  0.28467325423E+03  0.11413573103E+03  0.51337187620E+03  0.60495764026E+03  0.91417922013E+02 0.  0.
          5    1    3    3  502    0 -0.25051174025E+01 -0.38571555702E+02  0.63748488958E+02  0.74668485768E+02  0.41800000000E+01 0. -1.
         -5    1    3    3    0  502 -0.28216813682E+03 -0.75564175331E+02  0.41958160237E+03  0.51126802705E+03  0.41800000000E+01 0. -1.
        -11    1    4    4    0    0  0.42039101062E+02  0.34364716256E+02  0.15987900441E+03  0.16884761115E+03  0.00000000000E+00 0. -1.
         11    1    4    4    0    0  0.24263415316E+03  0.79771014777E+02  0.35349287179E+03  0.43611002911E+03  0.00000000000E+00 0.  1.
</event>
<event>
 8    1  0.3528896E-009  0.1247486E+03  0.7561462E-02  0.1235463E+00
          2   -1    0    0  501    0  0.00000000000E+00  0.00000000000E+00  0.24113407998E+03  0.24113407998E+03  0.00000000000E+00 0. -1.
         -2   -1    0    0    0  501 -0.00000000000E+00 -0.00000000000E+00 -0.85365985462E+02  0.85365985462E+02  0.00000000000E+00 0.  1.
         25    2    1    2    0    0  0.29958452553E+02 -0.58798653395E+02  0.16015632235E+03  0.21366122640E+03  0.12508509727E+03 0.  0.
         23    2    1    2    0    0 -0.29958452553E+02  0.58798653395E+02 -0.43882278331E+01  0.11283883904E+03  0.91425141684E+02 0.  0.
          5    1    3    3  502    0  0.54654099023E+00  0.38133421459E+02  0.59505281416E+02  0.70801182587E+02  0.41800000000E+01 0.  1.
         -5    1    3    3    0  502  0.29411911563E+02 -0.96932074855E+02  0.10065104093E+03  0.14286004381E+03  0.41800000000E+01 0.  1.
        -11    1    4    4    0    0 -0.76271476317E+01 -0.23378817637E+02  0.98653603382E+01  0.26496562602E+02  0.00000000000E+00 0. -1.
         11    1    4    4    0    0 -0.22331304921E+02  0.82177471033E+02 -0.14253588171E+02  0.86342276438E+02  0.00000000000E+00 0.  1.
</event>
<event>
 8    1  0.3528896E-009  0.2629708E+03  0.7561462E-02  0.1105371E+00
         -2   -1    0    0    0  501 -0.00000000000E+00  0.00000000000E+00  0.33676831271E+03  0.33676831271E+03  0.00000000000E+00 0.  1.
          2   -1    0    0  501    0  0.00000000000E+00 -0.00000000000E+00 -0.33774263154E+03  0.33774263154E+03  0.00000000000E+00 0. -1.
         25    2    1    2    0    0  0.16480963582E+02  0.25766626414E+03  0.18728944905E+03  0.34262311638E+03  0.12509890614E+03 0.  0.
         23    2    1    2    0    0 -0.16480963582E+02 -0.25766626414E+03 -0.18826376788E+03  0.33188782787E+03  0.89681425903E+02 0.  0.
          5    1    3    3  502    0  0.36573205925E+02  0.15789134505E+03  0.17733256758E+03  0.24027398561E+03  0.41800000000E+01 0. -1.
         -5    1    3    3    0  502 -0.20092242343E+02  0.99774919092E+02  0.99568814654E+01  0.10234913078E+03  0.41800000000E+01 0. -1.
        -11    1    4    4    0    0 -0.26564162084E+02 -0.86449197223E+02 -0.22134346916E+02  0.93107721061E+02  0.00000000000E+00 0.  1.
         11    1    4    4    0    0  0.10083198502E+02 -0.17121706692E+03 -0.16612942096E+03  0.23878010681E+03  0.00000000000E+00 0. -1.
</event>
<event>
 8    1  0.3528896E-009  0.1261417E+03  0.7561462E-02  0.1233296E+00
          2   -1    0    0  501    0  0.00000000000E+00  0.00000000000E+00  0.19020509905E+03  0.19020509905E+03  0.00000000000E+00 0. -1.
         -2   -1    0    0    0  501 -0.00000000000E+00 -0.00000000000E+00 -0.10983692869E+03  0.10983692869E+03  0.00000000000E+00 0.  1.
         25    2    1    2    0    0 -0.59784929474E+02 -0.70402490573E+02  0.61173026221E+02  0.16709203557E+03  0.12508741241E+03 0.  0.
         23    2    1    2    0    0  0.59784929474E+02  0.70402490573E+02  0.19195144137E+02  0.13294999218E+03  0.93682967448E+02 0.  0.
          5    1    3    3  502    0 -0.77677769837E+02 -0.65581861535E+02 -0.13414382967E+01  0.10175504089E+03  0.41800000000E+01 0.  1.
         -5    1    3    3    0  502  0.17892840364E+02 -0.48206290377E+01  0.62514464518E+02  0.65336994686E+02  0.41800000000E+01 0.  1.
        -11    1    4    4    0    0  0.61054184645E+02  0.91721621799E+02  0.16849612339E+02  0.11146469757E+03  0.00000000000E+00 0.  1.
         11    1    4    4    0    0 -0.12692551710E+01 -0.21319131226E+02  0.23455317989E+01  0.21485294607E+02  0.00000000000E+00 0. -1.
</event>
<event>
 8    1  0.3528896E-009  0.2347667E+03  0.7561462E-02  0.1123329E+00
          1   -1    0    0  501    0  0.00000000000E+00  0.00000000000E+00  0.78211768691E+03  0.78211768691E+03  0.00000000000E+00 0. -1.
         -1   -1    0    0    0  501 -0.00000000000E+00 -0.00000000000E+00 -0.79247677427E+02  0.79247677427E+02  0.00000000000E+00 0.  1.
         25    2    1    2    0    0  0.21865218768E+03  0.32264885381E+02  0.41965999875E+03  0.49052559652E+03  0.12510413374E+03 0.  0.
         23    2    1    2    0    0 -0.21865218768E+03 -0.32264885381E+02  0.28321001073E+03  0.37083976782E+03  0.92002289178E+02 0.  0.
          5    1    3    3  502    0  0.39345767098E+02  0.50346153359E+02  0.57848514110E+02  0.86294539406E+02  0.41800000000E+01 0.  1.
         -5    1    3    3    0  502  0.17930642058E+03 -0.18081267978E+02  0.36181148464E+03  0.40423105711E+03  0.41800000000E+01 0.  1.
        -11    1    4    4    0    0 -0.65433670733E+02  0.10241247520E+02  0.32046672141E+02  0.73576066841E+02  0.00000000000E+00 0.  1.
         11    1    4    4    0    0 -0.15321851694E+03 -0.42506132900E+02  0.25116333859E+03  0.29726370098E+03  0.00000000000E+00 0. -1.
</event>
<event>
 8    1  0.3528896E-009  0.1402104E+03  0.7561462E-02  0.1213046E+00
         -2   -1    0    0    0  501 -0.00000000000E+00  0.00000000000E+00  0.46225890537E+02  0.46225890537E+02  0.00000000000E+00 0.  1.
          2   -1    0    0  501    0  0.00000000000E+00 -0.00000000000E+00 -0.48883964060E+03  0.48883964060E+03  0.00000000000E+00 0. -1.
         25    2    1    2    0    0 -0.40527340830E+02  0.86901171754E+02 -0.17294702124E+03  0.23399284929E+03  0.12509077647E+03 0.  0.
         23    2    1    2    0    0  0.40527340830E+02 -0.86901171754E+02 -0.26966672882E+03  0.30107268184E+03  0.93436267647E+02 0.  0.
          5    1    3    3  502    0 -0.20759669393E+02 -0.31228251139E+02 -0.39258684325E+02  0.54450750568E+02  0.41800000000E+01 0.  1.
         -5    1    3    3    0  502 -0.19767671437E+02  0.11812942289E+03 -0.13368833691E+03  0.17954209872E+03  0.41800000000E+01 0.  1.
        -11    1    4    4    0    0  0.16368552113E+01 -0.83816203367E+02 -0.23265083087E+03  0.24729384211E+03  0.00000000000E+00 0.  1.
         11    1    4    4    0    0  0.38890485619E+02 -0.30849683875E+01 -0.37015897949E+02  0.53778839729E+02  0.00000000000E+00 0. -1.
</event>
<event>
 8    1  0.3528896E-009  0.1214859E+03  0.7561462E-02  0.1240666E+00
          2   -1    0    0  501    0  0.00000000000E+00  0.00000000000E+00  0.73813640946E+02  0.73813640946E+02  0.00000000000E+00 0.  1.
         -2   -1    0    0    0  501 -0.00000000000E+00 -0.00000000000E+00 -0.26944409222E+03  0.26944409222E+03  0.00000000000E+00 0. -1.
         25    2    1    2    0    0 -0.89176624898E+02  0.26480951448E+02 -0.14175562213E+03  0.21070835775E+03  0.12509853878E+03 0.  0.
         23    2    1    2    0    0  0.89176624898E+02 -0.26480951448E+02 -0.53874829146E+02  0.13254937541E+03  0.77544364651E+02 0.  0.
          5    1    3    3  502    0 -0.18996373983E+02 -0.38020221759E+02 -0.95630937594E+02  0.10473370094E+03  0.41800000000E+01 0.  1.
         -5    1    3    3    0  502 -0.70180250915E+02  0.64501173207E+02 -0.46124684535E+02  0.10597465681E+03  0.41800000000E+01 0.  1.
        -11    1    4    4    0    0  0.42258413277E+02 -0.37680792866E+02  0.45317591708E+01  0.56799229615E+02  0.00000000000E+00 0.  1.
         11    1    4    4    0    0  0.46918211622E+02  0.11199841419E+02 -0.58406588317E+02  0.75750145798E+02  0.00000000000E+00 0. -1.
</event>
<event>
 8    1  0.3528896E-009  0.1885968E+03  0.7561462E-02  0.1159733E+00
          2   -1    0    0  501    0  0.00000000000E+00  0.00000000000E+00  0.92962541453E+03  0.92962541453E+03  0.00000000000E+00 0. -1.
         -2   -1    0    0    0  501 -0.00000000000E+00 -0.00000000000E+00 -0.46645705620E+02  0.46645705620E+02  0.00000000000E+00 0.  1.
         25    2    1    2    0    0  0.10750262053E+02 -0.17263185118E+03  0.37003635764E+03  0.42719097934E+03  0.12509157716E+03 0.  0.
         23    2    1    2    0    0 -0.10750262053E+02  0.17263185118E+03  0.51294335128E+03  0.54908014082E+03  0.91982581194E+02 0.  0.
          5    1    3    3  502    0  0.28658995134E+02 -0.33117830394E+02  0.20789876624E+03  0.21250293668E+03  0.41800000000E+01 0.  1.
         -5    1    3    3    0  502 -0.17908733082E+02 -0.13951402079E+03  0.16213759139E+03  0.21468804266E+03  0.41800000000E+01 0.  1.
        -11    1    4    4    0    0  0.18907429255E+02  0.15850197407E+03  0.45851100214E+03  0.48550252908E+03  0.00000000000E+00 0. -1.
         11    1    4    4    0    0 -0.29657691307E+02  0.14129877113E+02  0.54432349141E+02  0.63577611735E+02  0.00000000000E+00 0.  1.
</event>
<event>
 8    1  0.3528896E-009  0.8986064E+02  0.7561462E-02  0.1303190E+00
         -2   -1    0    0    0  501 -0.00000000000E+00  0.00000000000E+00  0.10106241185E+03  0.10106241185E+03  0.00000000000E+00 0.  1.
          2   -1    0    0  501    0  0.00000000000E+00 -0.00000000000E+00 -0.20336583156E+03  0.20336583156E+03  0.00000000000E+00 0. -1.
         25    2    1    2    0    0 -0.39177823264E+02 -0.38071686344E+02  0.15504526766E+02  0.13737110827E+03  0.12508427520E+03 0.  0.
         23    2    1    2    0    0  0.39177823264E+02  0.38071686344E+02 -0.11780794647E+03  0.16705713513E+03  0.10509528539E+03 0.  0.
          5    1    3    3  502    0  0.39180218409E+02 -0.68859534739E+01  0.32135497716E+02  0.51309535988E+02  0.41800000000E+01 0.  1.
         -5    1    3    3    0  502 -0.78358041674E+02 -0.31185732870E+02 -0.16630970950E+02  0.86061572286E+02  0.41800000000E+01 0.  1.
        -11    1    4    4    0    0  0.16067558892E+02  0.21517775339E+02  0.15327154450E+02  0.30920911498E+02  0.00000000000E+00 0.  1.
         11    1    4    4    0    0  0.23110264372E+02  0.16553911004E+02 -0.13313510092E+03  0.13613622364E+03  0.00000000000E+00 0. -1.
</event>
<event>
 8    1  0.3528896E-009  0.1593863E+03  0.7561462E-02  0.1189391E+00
          2   -1    0    0  501    0  0.00000000000E+00  0.00000000000E+00  0.81450882462E+03  0.81450882462E+03  0.00000000000E+00 0. -1.
         -2   -1    0    0    0  501 -0.00000000000E+00 -0.00000000000E+00 -0.33698869408E+02  0.33698869408E+02  0.00000000000E+00 0.  1.
         25    2    1    2    0    0  0.86556644690E+02 -0.89908226477E+02  0.42224710189E+03  0.45772975731E+03  0.12509346006E+03 0.  0.
         23    2    1    2    0    0 -0.86556644690E+02  0.89908226477E+02  0.35856285332E+03  0.39047793671E+03  0.91269695675E+02 0.  0.
          5    1    3    3  502    0 -0.84964161020E+01  0.17980658575E+02  0.13469018144E+02  0.24379910154E+02  0.41800000000E+01 0. -1.
         -5    1    3    3    0  502  0.95053060792E+02 -0.10788888505E+03  0.40877808374E+03  0.43334984716E+03  0.41800000000E+01 0. -1.
        -11    1    4    4    0    0 -0.40878261879E+02  0.99815215992E+02  0.24784291335E+03  0.27029653962E+03  0.00000000000E+00 0. -1.
         11    1    4    4    0    0 -0.45678382811E+02 -0.99069895146E+01  0.11071993998E+03  0.12018139709E+03  0.00000000000E+00 0.  1.
</event>
<event>
 8    1  0.3528896E-009  0.1021163E+03  0.7561462E-02  0.1275908E+00
         -2   -1    0    0    0  501 -0.00000000000E+00  0.00000000000E+00  0.83251376726E+02  0.83251376726E+02  0.00000000000E+00 0.  1.
          2   -1    0    0  501    0  0.00000000000E+00 -0.00000000000E+00 -0.22078168059E+03  0.22078168059E+03  0.00000000000E+00 0. -1.
         25    2    1    2    0    0  0.10155604200E+02  0.76498046574E+02 -0.48936675609E+02  0.15490581473E+03  0.12508367516E+03 0.  0.
         23    2    1    2    0    0 -0.10155604200E+02 -0.76498046574E+02 -0.88593628252E+02  0.14912724258E+03  0.91842343648E+02 0.  0.
          5    1    3    3  502    0  0.38610107874E+02  0.47714700034E+02  0.28214216219E+02  0.67682696653E+02  0.41800000000E+01 0.  1.
         -5    1    3    3    0  502 -0.28454503674E+02  0.28783346540E+02 -0.77150891829E+02  0.87223118079E+02  0.41800000000E+01 0.  1.
        -11    1    4    4    0    0  0.54323368911E+01 -0.84379805949E+02 -0.97880428636E+02  0.12934465681E+03  0.00000000000E+00 0. -1.
         11    1    4    4    0    0 -0.15587941091E+02  0.78817593749E+01  0.92868003839E+01  0.19782585768E+02  0.00000000000E+00 0.  1.
</event>
<event>
 8    1  0.3528896E-009  0.9263280E+02  0.7561462E-02  0.1296598E+00
         -1   -1    0    0    0  501 -0.00000000000E+00  0.00000000000E+00  0.14260976573E+03  0.14260976573E+03  0.00000000000E+00 0.  1.
          1   -1    0    0  501    0  0.00000000000E+00 -0.00000000000E+00 -0.13562873525E+03  0.13562873525E+03  0.00000000000E+00 0. -1.
         25    2    1    2    0    0  0.90167518941E+02 -0.16399964642E+02  0.10342775273E+02  0.15541479575E+03  0.12509054891E+03 0.  0.
         23    2    1    2    0    0 -0.90167518941E+02  0.16399964642E+02 -0.33617448007E+01  0.12282370523E+03  0.81702025222E+02 0.  0.
          5    1    3    3  502    0  0.28013821495E+02 -0.44497575479E+01  0.65408935406E+02  0.71416915139E+02  0.41800000000E+01 0. -1.
         -5    1    3    3    0  502  0.62153697446E+02 -0.11950207095E+02 -0.55066160133E+02  0.83997880614E+02  0.41800000000E+01 0. -1.
        -11    1    4    4    0    0 -0.67200486749E+02  0.19539702716E+02  0.34811390176E+02  0.78163535536E+02  0.00000000000E+00 0.  1.
         11    1    4    4    0    0 -0.22967032192E+02 -0.31397380735E+01 -0.38173134977E+02  0.44660169691E+02  0.00000000000E+00 0. -1.
</event>
<event>
 8    1  0.3528896E-009  0.9992668E+02  0.7561462E-02  0.1280450E+00
          2   -1    0    0  501    0  0.00000000000E+00  0.00000000000E+00  0.42593518912E+03  0.42593518912E+03  0.00000000000E+00 0. -1.
         -2   -1    0    0    0  501 -0.00000000000E+00 -0.00000000000E+00 -0.46831995387E+02  0.46831995387E+02  0.00000000000E+00 0.  1.
         25    2    1    2    0    0 -0.29616273412E+02  0.75540657176E+02  0.14083144303E+03  0.20509836760E+03  0.12509328723E+03 0.  0.
         23    2    1    2    0    0  0.29616273412E+02 -0.75540657176E+02  0.23827175070E+03  0.26766881690E+03  0.91047536062E+02 0.  0.
          5    1    3    3  502    0 -0.18439014295E+02  0.80717557301E+02  0.22291668085E+02  0.85847027734E+02  0.41800000000E+01 0. -1.
         -5    1    3    3    0  502 -0.11177259117E+02 -0.51769001247E+01  0.11853977494E+03  0.11925133987E+03  0.41800000000E+01 0. -1.
        -11    1    4    4    0    0  0.11214730273E+02 -0.83242753726E+02  0.23203238897E+03  0.24676741226E+03  0.00000000000E+00 0. -1.
         11    1    4    4    0    0  0.18401543140E+02  0.77020965497E+01  0.62393617299E+01  0.20901404641E+02  0.00000000000E+00 0.  1.
</event>
<event>
 8    1  0.3528896E-009  0.1106758E+03  0.7561462E-02  0.1259324E+00
         -1   -1    0    0    0  501 -0.00000000000E+00  0.00000000000E+00  0.22268384646E+03  0.22268384646E+03  0.00000000000E+00 0.  1.
          1   -1    0    0  501    0  0.00000000000E+00 -0.00000000000E+00 -0.10006719334E+03  0.10006719334E+03  0.00000000000E+00 0. -1.
         25    2    1    2    0    0  0.73617430740E+02 -0.37710024630E+02  0.35653284159E+01  0.15000391639E+03  0.12508753455E+03 0.  0.
         23    2    1    2    0    0 -0.73617430740E+02  0.37710024630E+02  0.11905132471E+03  0.17274712341E+03  0.93950937542E+02 0.  0.
          5    1    3    3  502    0  0.10092963781E+03 -0.34286469218E+02  0.30823731094E+02  0.11104021145E+03  0.41800000000E+01 0.  1.
         -5    1    3    3    0  502 -0.27312207068E+02 -0.34235554111E+01 -0.27258402678E+02  0.38963704946E+02  0.41800000000E+01 0.  1.
        -11    1    4    4    0    0 -0.38733356111E+02  0.34381005344E+02  0.12670254373E+03  0.13687900129E+03  0.00000000000E+00 0.  1.
         11    1    4    4    0    0 -0.34884074629E+02  0.33290192860E+01 -0.76512190260E+01  0.35868122124E+02  0.00000000000E+00 0. -1.
</event>
<event>
 8    1  0.3528896E-009  0.1006758E+03  0.7561462E-02  0.1278881E+00
          2   -1    0    0  501    0  0.00000000000E+00  0.00000000000E+00  0.18708476975E+04  0.18708476975E+04  0.00000000000E+00 0. -1.
         -2   -1    0    0    0  501 -0.00000000000E+00 -0.00000000000E+00 -0.12234822715E+02  0.12234822715E+02  0.00000000000E+00 0.  1.
         25    2    1    2    0    0 -0.41707040083E+02 -0.29939432490E+01  0.16044824645E+04  0.16098945171E+04  0.12509171295E+03 0.  0.
         23    2    1    2    0    0  0.41707040083E+02  0.29939432490E+01  0.25413041037E+03  0.27318800312E+03  0.91109706881E+02 0.  0.
          5    1    3    3  502    0  0.59713223230E+01 -0.40025274796E+02  0.19932164554E+03  0.20343124169E+03  0.41800000000E+01 0.  1.
         -5    1    3    3    0  502 -0.47678362406E+02  0.37031331547E+02  0.14051608189E+04  0.14064632754E+04  0.41800000000E+01 0.  1.
        -11    1    4    4    0    0  0.42867094388E+02  0.42656171869E+02  0.14763405951E+03  0.15953981417E+03  0.00000000000E+00 0.  1.
         11    1    4    4    0    0 -0.11600543045E+01 -0.39662228620E+02  0.10649635086E+03  0.11364818895E+03  0.00000000000E+00 0. -1.
</event>
<event>
 7    1  0.3528896E-009  0.1703948E+03  0.7561462E-02  0.1177437E+00
         -3   -1    0    0    0  501 -0.00000000000E+00  0.00000000000E+00  0.68532209968E+02  0.68532209968E+02  0.00000000000E+00 0. -1.
          3   -1    0    0  501    0  0.00000000000E+00 -0.00000000000E+00 -0.69985223106E+03  0.69985223106E+03  0.00000000000E+00 0.  1.
         25    2    1    2    0    0  0.85288637216E+02  0.83443778470E+02 -0.48628849687E+03  0.51609056538E+03  0.12504380704E+03 0.  0.
          5    1    3    3  502    0  0.95815040849E+02  0.55576366011E+02 -0.20370441526E+03  0.23190993016E+03  0.41800000000E+01 0.  1.
         -5    1    3    3    0  502 -0.10526403634E+02  0.27867412459E+02 -0.28258408162E+03  0.28418063522E+03  0.41800000000E+01 0.  1.
        -11    1    1    2    0    0  0.38854242974E+02  0.14770981008E+02 -0.67635489625E+01  0.42113889295E+02  0.00000000000E+00 0. -1.
         11    1    1    2    0    0 -0.12414288019E+03 -0.98214759479E+02 -0.13826797525E+03  0.21017998635E+03  0.00000000000E+00 0.  1.
</event>
<event>
 8    1  0.3528896E-009  0.2267722E+03  0.7561462E-02  0.1128933E+00
          3   -1    0    0  501    0  0.00000000000E+00  0.00000000000E+00  0.82833603615E+02  0.82833603615E+02  0.00000000000E+00 0. -1.
         -3   -1    0    0    0  501 -0.00000000000E+00 -0.00000000000E+00 -0.65457606373E+03  0.65457606373E+03  0.00000000000E+00 0.  1.
         25    2    1    2    0    0 -0.11960322366E+03  0.16560951522E+03 -0.32531889447E+03  0.40400953947E+03  0.12513945118E+03 0.  0.
         23    2    1    2    0    0  0.11960322366E+03 -0.16560951522E+03 -0.24642356564E+03  0.33340012788E+03  0.93271801340E+02 0.  0.
          5    1    3    3  502    0 -0.13153478752E+03  0.90179270435E+02 -0.25070489212E+03  0.29716008561E+03  0.41800000000E+01 0. -1.
         -5    1    3    3    0  502  0.11931563859E+02  0.75430244782E+02 -0.74614002346E+02  0.10684945386E+03  0.41800000000E+01 0. -1.
        -11    1    4    4    0    0  0.96240564999E+02 -0.69739766801E+02 -0.92687235459E+02  0.15072095091E+03  0.00000000000E+00 0. -1.
         11    1    4    4    0    0  0.23362658658E+02 -0.95869748415E+02 -0.15373633018E+03  0.18267917697E+03  0.00000000000E+00 0.  1.
</event>
<event>
 8    1  0.3528896E-009  0.1218112E+03  0.7561462E-02  0.1240139E+00
          2   -1    0    0  501    0  0.00000000000E+00  0.00000000000E+00  0.10340253195E+04  0.10340253195E+04  0.00000000000E+00 0.  1.
         -2   -1    0    0    0  501 -0.00000000000E+00 -0.00000000000E+00 -0.23257183048E+02  0.23257183048E+02  0.00000000000E+00 0. -1.
         25    2    1    2    0    0 -0.65523961817E+02 -0.65909501319E+02  0.33859917620E+03  0.37273955451E+03  0.12509165214E+03 0.  0.
         23    2    1    2    0    0  0.65523961817E+02  0.65909501319E+02  0.67216896028E+03  0.68454294807E+03  0.90280034617E+02 0.  0.
          5    1    3    3  502    0  0.13409604091E+02 -0.11093419617E+02 -0.27388250391E+01  0.18106766781E+02  0.41800000000E+01 0.  1.
         -5    1    3    3    0  502 -0.78933565907E+02 -0.54816081702E+02  0.34133800124E+03  0.35463278773E+03  0.41800000000E+01 0.  1.
        -11    1    4    4    0    0 -0.20249128884E+02  0.30782084647E+02  0.18402536360E+03  0.18767764492E+03  0.00000000000E+00 0.  1.
         11    1    4    4    0    0  0.85773090700E+02  0.35127416672E+02  0.48814359669E+03  0.49686530315E+03  0.00000000000E+00 0. -1.
</event>
<event>
 8    1  0.3528896E-009  0.1047514E+03  0.7561462E-02  0.1270610E+00
         -2   -1    0    0    0  501 -0.00000000000E+00  0.00000000000E+00  0.71326593242E+02  0.71326593242E+02  0.00000000000E+00 0.  1.
          2   -1    0    0  501    0  0.00000000000E+00 -0.00000000000E+00 -0.22288118467E+03  0.22288118467E+03  0.00000000000E+00 0. -1.
         25    2    1    2    0    0 -0.16764373426E+02 -0.25869218475E+02 -0.17381952250E+02  0.12999840450E+03  0.12508873742E+03 0.  0.
         23    2    1    2    0    0  0.16764373426E+02  0.25869218475E+02 -0.13417263918E+03  0.16420937341E+03  0.89510672714E+02 0.  0.
          5    1    3    3  502    0 -0.68870724206E+02 -0.29585451178E+01  0.36883155691E+01  0.69159277857E+02  0.41800000000E+01 0.  1.
         -5    1    3    3    0  502  0.52106350780E+02 -0.22910673357E+02 -0.21070267819E+02  0.60839126648E+02  0.41800000000E+01 0.  1.
        -11    1    4    4    0    0  0.12432828647E+02  0.53741633337E+02 -0.46613024592E+02  0.72218504855E+02  0.00000000000E+00 0.  1.
         11    1    4    4    0    0  0.43315447786E+01 -0.27872414862E+02 -0.87559614586E+02  0.91990868552E+02  0.00000000000E+00 0. -1.
</event>
<event>
 8    1  0.3528896E-009  0.1680568E+03  0.7561462E-02  0.1179890E+00
          1   -1    0    0  501    0  0.00000000000E+00  0.00000000000E+00  0.12301954644E+04  0.12301954644E+04  0.00000000000E+00 0. -1.
         -1   -1    0    0    0  501 -0.00000000000E+00 -0.00000000000E+00 -0.31634586687E+02  0.31634586687E+02  0.00000000000E+00 0.  1.
         25    2    1    2    0    0 -0.92746353872E+01  0.16156811905E+03  0.53932007707E+03  0.57680457609E+03  0.12508835884E+03 0.  0.
         23    2    1    2    0    0  0.92746353872E+01 -0.16156811905E+03  0.65924080063E+03  0.68502547498E+03  0.92039079760E+02 0.  0.
          5    1    3    3  502    0 -0.22079669939E+02  0.10806596276E+03  0.16547330802E+03  0.19890865290E+03  0.41800000000E+01 0.  1.
         -5    1    3    3    0  502  0.12805034552E+02  0.53502156289E+02  0.37384676905E+03  0.37789592319E+03  0.41800000000E+01 0.  1.
        -11    1    4    4    0    0  0.30323869661E+02 -0.64955466919E+02  0.14968875797E+03  0.16596829220E+03  0.00000000000E+00 0.  1.
         11    1    4    4    0    0 -0.21049234274E+02 -0.96612652126E+02  0.50955204266E+03  0.51905718278E+03  0.00000000000E+00 0. -1.
</event>
<event>
 8    1  0.3528896E-009  0.1166839E+03  0.7561462E-02  0.1248670E+00
          2   -1    0    0  501    0  0.00000000000E+00  0.00000000000E+00  0.19019271825E+03  0.19019271825E+03  0.00000000000E+00 0. -1.
         -2   -1    0    0    0  501 -0.00000000000E+00 -0.00000000000E+00 -0.81283651087E+02  0.81283651087E+02  0.00000000000E+00 0.  1.
         25    2    1    2    0    0 -0.40490859116E+02 -0.37958384525E+02  0.49260573745E+02  0.14545147347E+03  0.12509667614E+03 0.  0.
         23    2    1    2    0    0  0.40490859116E+02  0.37958384525E+02  0.59648493417E+02  0.12602489587E+03  0.96145634240E+02 0.  0.
          5    1    3    3  502    0  0.17521958028E+02  0.36075226447E+02  0.26838563269E+01  0.40411835656E+02  0.41800000000E+01 0. -1.
         -5    1    3    3    0  502 -0.58012817145E+02 -0.74033610972E+02  0.46576717418E+02  0.10503963781E+03  0.41800000000E+01 0. -1.
        -11    1    4    4    0    0 -0.72986173433E+01 -0.21446903325E+02 -0.80720815627E+01  0.24049905990E+02  0.00000000000E+00 0.  1.
         11    1    4    4    0    0  0.47789476460E+02  0.59405287850E+02  0.67720574980E+02  0.10197498988E+03  0.00000000000E+00 0. -1.
</event>
<event>
 8    1  0.3528896E-009  0.1151106E+03  0.7561462E-02  0.1251388E+00
          1   -1    0    0  501    0  0.00000000000E+00  0.00000000000E+00  0.14193731011E+03  0.14193731011E+03  0.00000000000E+00 0. -1.
         -1   -1    0    0    0  501 -0.00000000000E+00 -0.00000000000E+00 -0.15989815718E+03  0.15989815718E+03  0.00000000000E+00 0.  1.
         25    2    1    2    0    0  0.66264350154E+02 -0.87495561683E+01  0.69591173172E+02  0.15798341761E+03  0.12509320534E+03 0.  0.
         23    2    1    2    0    0 -0.66264350154E+02  0.87495561683E+01 -0.87552020239E+02  0.14385204968E+03  0.92523170688E+02 0.  0.
          5    1    3    3  502    0  0.79245812450E+02  0.34878587802E+02  0.17053513595E+02  0.88344266389E+02  0.41800000000E+01 0. -1.
         -5    1    3    3    0  502 -0.12981462296E+02 -0.43628143970E+02  0.52537659576E+02  0.69639151225E+02  0.41800000000E+01 0. -1.
        -11    1    4    4    0    0 -0.49534548780E+02  0.39143849496E+02 -0.89010119016E+02  0.10912705331E+03  0.00000000000E+00 0.  1.
         11    1    4    4    0    0 -0.16729801374E+02 -0.30394293328E+02  0.14580987770E+01  0.34724996371E+02  0.00000000000E+00 0. -1.
</event>
<event>
 8    1  0.3528896E-009  0.1189496E+03  0.7561462E-02  0.1244840E+00
         -3   -1    0    0    0  501 -0.00000000000E+00  0.00000000000E+00  0.67133385470E+03  0.67133385470E+03  0.00000000000E+00 0.  1.
          3   -1    0    0  501    0  0.00000000000E+00 -0.00000000000E+00 -0.24027766670E+02  0.24027766670E+02  0.00000000000E+00 0. -1.
         25    2    1    2    0    0  0.43812603067E+02 -0.67036469934E+02  0.36077588444E+03  0.39015360856E+03  0.12508863654E+03 0.  0.
         23    2    1    2    0    0 -0.43812603067E+02  0.67036469934E+02  0.28653020358E+03  0.30520801280E+03  0.68109771878E+02 0.  0.
          5    1    3    3  502    0  0.74040243233E+02 -0.15437941269E+02  0.27679357006E+03  0.28697114920E+03  0.41800000000E+01 0. -1.
         -5    1    3    3    0  502 -0.30227640166E+02 -0.51598528665E+02  0.83982314386E+02  0.10318245936E+03  0.41800000000E+01 0. -1.
        -11    1    4    4    0    0 -0.18025165825E+02  0.73451814777E+02  0.23987717729E+03  0.25151766515E+03  0.00000000000E+00 0.  1.
         11    1    4    4    0    0 -0.25787437242E+02 -0.64153448432E+01  0.46653026289E+02  0.53690347651E+02  0.00000000000E+00 0. -1.
</event>
<event>
 8    1  0.3528896E-009  0.9188840E+02  0.7561462E-02  0.1298342E+00
          2   -1    0    0  501    0  0.00000000000E+00  0.00000000000E+00  0.13997199055E+03  0.13997199055E+03  0.00000000000E+00 0. -1.
         -2   -1    0    0    0  501 -0.00000000000E+00 -0.00000000000E+00 -0.92435893582E+02  0.92435893582E+02  0.00000000000E+00 0.  1.
         25    2    1    2    0    0  0.20612331304E+02  0.20480996490E+02  0.47987876237E+02  0.13710016116E+03  0.12509707633E+03 0.  0.
         23    2    1    2    0    0 -0.20612331304E+02 -0.20480996490E+02 -0.45177926542E+00  0.95307722973E+02  0.90769039517E+02 0.  0.
          5    1    3    3  502    0  0.27391405906E+02  0.50716734640E+02 -0.20894564502E+02  0.61453490672E+02  0.41800000000E+01 0.  1.
         -5    1    3    3    0  502 -0.67790746016E+01 -0.30235738151E+02  0.68882440739E+02  0.75646670489E+02  0.41800000000E+01 0.  1.
        -11    1    4    4    0    0  0.35194434505E+02 -0.16208373815E+02 -0.53888247026E+01  0.39120314845E+02  0.00000000000E+00 0.  1.
         11    1    4    4    0    0 -0.55806765809E+02 -0.42726226742E+01  0.49370454372E+01  0.56187408129E+02  0.00000000000E+00 0. -1.
</event>
<event>
 8    1  0.3528896E-009  0.1696010E+03  0.7561462E-02  0.1178265E+00
         -2   -1    0    0    0  501 -0.00000000000E+00  0.00000000000E+00  0.28720952197E+02  0.28720952197E+02  0.00000000000E+00 0.  1.
          2   -1    0    0  501    0  0.00000000000E+00 -0.00000000000E+00 -0.12314623637E+04  0.12314623637E+04  0.00000000000E+00 0. -1.
         25    2    1    2    0    0 -0.14350374479E+03  0.34244985499E+01 -0.81352200986E+03  0.83550623429E+03  0.12509018765E+03 0.  0.
         23    2    1    2    0    0  0.14350374479E+03 -0.34244985499E+01 -0.38921940165E+03  0.42467708162E+03  0.90850586517E+02 0.  0.
          5    1    3    3  502    0 -0.91013878368E+02 -0.54189114028E+02 -0.57026627559E+03  0.58003541582E+03  0.41800000000E+01 0.  1.
         -5    1    3    3    0  502 -0.52489866422E+02  0.57613612578E+02 -0.24325573428E+03  0.25547081847E+03  0.41800000000E+01 0.  1.
        -11    1    4    4    0    0  0.80924036323E+02  0.27331232583E+02 -0.29715234296E+03  0.30918475198E+03  0.00000000000E+00 0. -1.
         11    1    4    4    0    0  0.62579708468E+02 -0.30755731132E+02 -0.92067058689E+02  0.11549232964E+03  0.00000000000E+00 0.  1.
</event>
<event>
 8    1  0.3528896E-009  0.7455949E+02  0.7561462E-02  0.1345241E+00
          3   -1    0    0  501    0  0.00000000000E+00  0.00000000000E+00  0.89303486785E+02  0.89303486785E+02  0.00000000000E+00 0. -1.
         -3   -1    0    0    0  501 -0.00000000000E+00 -0.00000000000E+00 -0.16269209266E+03  0.16269209266E+03  0.00000000000E+00 0.  1.
         25    2    1    2    0    0  0.37104605519E+02  0.26103746853E+01 -0.77835003112E+02  0.15195193832E+03  0.12509011969E+03 0.  0.
         23    2    1    2    0    0 -0.37104605519E+02 -0.26103746853E+01  0.44463972388E+01  0.10004364112E+03  0.92765262216E+02 0.  0.
          5    1    3    3  502    0  0.28239872483E+02 -0.12685011281E+02 -0.11036084255E+03  0.11469693926E+03  0.41800000000E+01 0. -1.
         -5    1    3    3    0  502  0.88647330358E+01  0.15295385966E+02  0.32525839435E+02  0.37254999055E+02  0.41800000000E+01 0. -1.
        -11    1    4    4    0    0  0.29108127266E+02  0.12693859684E+02  0.45864592724E+01  0.32085086181E+02  0.00000000000E+00 0. -1.
         11    1    4    4    0    0 -0.66212732785E+02 -0.15304234369E+02 -0.14006203362E+00  0.67958554942E+02  0.00000000000E+00 0.  1.
</event>
<event>
 8    1  0.3528896E-009  0.1148548E+03  0.7561462E-02  0.1251835E+00
          1   -1    0    0  501    0  0.00000000000E+00  0.00000000000E+00  0.26343172933E+03  0.26343172933E+03  0.00000000000E+00 0. -1.
         -1   -1    0    0    0  501 -0.00000000000E+00 -0.00000000000E+00 -0.10929777386E+03  0.10929777386E+03  0.00000000000E+00 0.  1.
         25    2    1    2    0    0 -0.72039986160E+02 -0.28144297692E+02  0.19043759335E+03  0.24061329395E+03  0.12508564733E+03 0.  0.
         23    2    1    2    0    0  0.72039986160E+02  0.28144297692E+02 -0.36303637880E+02  0.13211620924E+03  0.10077141223E+03 0.  0.
          5    1    3    3  502    0  0.25368994347E+02  0.17381203016E+02  0.14214258500E+02  0.34135167162E+02  0.41800000000E+01 0.  1.
         -5    1    3    3    0  502 -0.97408980506E+02 -0.45525500709E+02  0.17622333485E+03  0.20647812679E+03  0.41800000000E+01 0.  1.
        -11    1    4    4    0    0  0.21829204353E+02  0.34120499268E+02  0.28786662895E+02  0.49693003467E+02  0.00000000000E+00 0. -1.
         11    1    4    4    0    0  0.50210781807E+02 -0.59762015757E+01 -0.65090300775E+02  0.82423205773E+02  0.00000000000E+00 0.  1.
</event>
<event>
 7    1  0.3528896E-009  0.1186324E+03  0.7561462E-02  0.1245370E+00
          2   -1    0    0  501    0  0.00000000000E+00  0.00000000000E+00  0.55637811913E+02  0.55637811913E+02  0.00000000000E+00 0.  1.
         -2   -1    0    0    0  501 -0.00000000000E+00 -0.00000000000E+00 -0.26800445746E+03  0.26800445746E+03  0.00000000000E+00 0. -1.
         23    2    1    2    0    0 -0.51211990588E+02  0.17519472081E+02 -0.10043359888E+03  0.14733733868E+03  0.93229736158E+02 0.  0.
          5    1    1    2  502    0  0.48561221944E+02  0.48248838769E+02 -0.70822313110E+02  0.98587094254E+02  0.41800000000E+01 0.  1.
         -5    1    1    2    0  502  0.26507686445E+01 -0.65768310850E+02 -0.41110733550E+02  0.77717836431E+02  0.41800000000E+01 0.  1.
        -11    1    3    3    0    0 -0.71864964927E+02  0.30785274165E+02 -0.54648836307E+02  0.95387638608E+02  0.00000000000E+00 0.  1.
         11    1    3    3    0    0  0.20652974339E+02 -0.13265802084E+02 -0.45784762575E+02  0.51949700076E+02  0.00000000000E+00 0. -1.
</event>
<event>
 8    1  0.3528896E-009  0.1840322E+03  0.7561462E-02  0.1163957E+00
         -3   -1    0    0    0  501 -0.00000000000E+00  0.00000000000E+00  0.28595221599E+03  0.28595221599E+03  0.00000000000E+00 0.  1.
          3   -1    0    0  501    0  0.00000000000E+00 -0.00000000000E+00 -0.13627146254E+03  0.13627146254E+03  0.00000000000E+00 0. -1.
         25    2    1    2    0    0 -0.13306919541E+03  0.96489221900E+02  0.90949509841E+02  0.22569450925E+03  0.12509443415E+03 0.  0.
         23    2    1    2    0    0  0.13306919541E+03 -0.96489221900E+02  0.58731243615E+02  0.19652916928E+03  0.90314864167E+02 0.  0.
          5    1    3    3  502    0 -0.11814182739E+03  0.21712673435E+02  0.20762096053E+02  0.12197322903E+03  0.41800000000E+01 0.  1.
         -5    1    3    3    0  502 -0.14927368018E+02  0.74776548465E+02  0.70187413788E+02  0.10372128022E+03  0.41800000000E+01 0.  1.
        -11    1    4    4    0    0  0.26914278689E+02 -0.47491087260E+02  0.57946781963E+02  0.79609115724E+02  0.00000000000E+00 0. -1.
         11    1    4    4    0    0  0.10615491672E+03 -0.48998134640E+02  0.78446165222E+00  0.11692005355E+03  0.00000000000E+00 0.  1.
</event>
<event>
 8    1  0.3528896E-009  0.1121920E+03  0.7561462E-02  0.1256564E+00
          2   -1    0    0  501    0  0.00000000000E+00  0.00000000000E+00  0.24721289686E+03  0.24721289686E+03  0.00000000000E+00 0. -1.
         -2   -1    0    0    0  501 -0.00000000000E+00 -0.00000000000E+00 -0.59545232437E+02  0.59545232437E+02  0.00000000000E+00 0.  1.
         25    2    1    2    0    0 -0.65488666579E+01 -0.56542419670E+02  0.63501337355E+02  0.15138512979E+03  0.12508039335E+03 0.  0.
         23    2    1    2    0    0  0.65488666579E+01  0.56542419670E+02  0.12416632707E+03  0.15537299950E+03  0.74051058877E+02 0.  0.
          5    1    3    3  502    0 -0.29006460746E+02  0.30184656962E+02  0.41383238149E+02  0.59012990779E+02  0.41800000000E+01 0. -1.
         -5    1    3    3    0  502  0.22457594089E+02 -0.86727076633E+02  0.22118099206E+02  0.92372139014E+02  0.41800000000E+01 0. -1.
        -11    1    4    4    0    0  0.20402491610E+02 -0.11342858740E+02  0.23121834543E+02  0.32856374434E+02  0.00000000000E+00 0.  1.
         11    1    4    4    0    0 -0.13853624953E+02  0.67885278410E+02  0.10104449252E+03  0.12251662507E+03  0.00000000000E+00 0. -1.
</event>
<event>
 8    1  0.3528896E-009  0.1605662E+03  0.7561462E-02  0.1188059E+00
         -1   -1    0    0    0  501 -0.00000000000E+00  0.00000000000E+00  0.86116841859E+02  0.86116841859E+02  0.00000000000E+00 0.  1.
          1   -1    0    0  501    0  0.00000000000E+00 -0.00000000000E+00 -0.42139941522E+03  0.42139941522E+03  0.00000000000E+00 0. -1.
         25    2    1    2    0    0  0.13256977395E+03 -0.36158174218E+02 -0.76806676459E+02  0.20108354129E+03  0.12511261527E+03 0.  0.
         23    2    1    2    0    0 -0.13256977395E+03  0.36158174218E+02 -0.25847589690E+03  0.30643271579E+03  0.90603871312E+02 0.  0.
          5    1    3    3  502    0  0.10582656581E+03  0.28514702239E+02 -0.71171370594E+02  0.13074856277E+03  0.41800000000E+01 0.  1.
         -5    1    3    3    0  502  0.26743208145E+02 -0.64672876457E+02 -0.56353058653E+01  0.70334978519E+02  0.41800000000E+01 0.  1.
        -11    1    4    4    0    0 -0.61295314087E+02  0.33872747146E+02 -0.20688367424E+03  0.21841550585E+03  0.00000000000E+00 0. -1.
         11    1    4    4    0    0 -0.71274459868E+02  0.22854270722E+01 -0.51592222665E+02  0.88017209941E+02  0.00000000000E+00 0.  1.
</event>
<event>
 8    1  0.3528896E-009  0.1286225E+03  0.7561462E-02  0.1229514E+00
          1   -1    0    0  501    0  0.00000000000E+00  0.00000000000E+00  0.58064725288E+03  0.58064725288E+03  0.00000000000E+00 0. -1.
         -1   -1    0    0    0  501 -0.00000000000E+00 -0.00000000000E+00 -0.56118615111E+02  0.56118615111E+02  0.00000000000E+00 0.  1.
         25    2    1    2    0    0 -0.38529560135E+02 -0.56599734481E+02  0.56098995076E+02  0.15323854590E+03  0.12508756035E+03 0.  0.
         23    2    1    2    0    0  0.38529560135E+02  0.56599734481E+02  0.46842964270E+03  0.48352732209E+03  0.98408760307E+02 0.  0.
          5    1    3    3  502    0 -0.21664723972E+02  0.37051990460E+02  0.86538042238E+00  0.43132720122E+02  0.41800000000E+01 0.  1.
         -5    1    3    3    0  502 -0.16864836163E+02 -0.93651724941E+02  0.55233614653E+02  0.11010582578E+03  0.41800000000E+01 0.  1.
        -11    1    4    4    0    0  0.42956385970E+02  0.82276659746E+02  0.33748149414E+03  0.35001208368E+03  0.00000000000E+00 0.  1.
         11    1    4    4    0    0 -0.44268258352E+01 -0.25676925265E+02  0.13094814856E+03  0.13351523841E+03  0.00000000000E+00 0. -1.
</event>
<event>
 8    1  0.3528896E-009  0.8463749E+02  0.7561462E-02  0.1316383E+00
          1   -1    0    0  501    0  0.00000000000E+00  0.00000000000E+00  0.19754978868E+03  0.19754978868E+03  0.00000000000E+00 0. -1.
         -1   -1    0    0    0  501 -0.00000000000E+00 -0.00000000000E+00 -0.66494927563E+02  0.66494927563E+02  0.00000000000E+00 0.  1.
         25    2    1    2    0    0 -0.24986467144E+02  0.20199386122E+02  0.52475161348E+02  0.13940579315E+03  0.12509194164E+03 0.  0.
         23    2    1    2    0    0  0.24986467144E+02 -0.20199386122E+02  0.78579699767E+02  0.12463892309E+03  0.91256524120E+02 0.  0.
          5    1    3    3  502    0  0.44402453705E+02  0.13945483399E+02 -0.75683761142E+01  0.47337164250E+02  0.41800000000E+01 0.  1.
         -5    1    3    3    0  502 -0.69388920849E+02  0.62539027229E+01  0.60043537462E+02  0.92068628896E+02  0.41800000000E+01 0.  1.
        -11    1    4    4    0    0  0.12648979238E+02  0.12511310302E+02  0.86899924038E+02  0.88702459713E+02  0.00000000000E+00 0. -1.
         11    1    4    4    0    0  0.12337487907E+02 -0.32710696424E+02 -0.83202242715E+01  0.35936463381E+02  0.00000000000E+00 0.  1.
</event>
<event>
 8    1  0.3528896E-009  0.1504785E+03  0.7561462E-02  0.1199886E+00
         -4   -1    0    0    0  501 -0.00000000000E+00  0.00000000000E+00  0.25356906823E+03  0.25356906823E+03  0.00000000000E+00 0.  1.
          4   -1    0    0  501    0  0.00000000000E+00 -0.00000000000E+00 -0.13133552298E+03  0.13133552298E+03  0.00000000000E+00 0. -1.
         25    2    1    2    0    0  0.79611178965E+02  0.99803664033E+02 -0.81972272100E+01  0.17892438284E+03  0.12509208236E+03 0.  0.
         23    2    1    2    0    0 -0.79611178965E+02 -0.99803664033E+02  0.13043077246E+03  0.20598020838E+03  0.95482713976E+02 0.  0.
          5    1    3    3  502    0  0.40165514800E+02  0.64976061579E+01  0.47952359150E+02  0.63026888016E+02  0.41800000000E+01 0.  1.
         -5    1    3    3    0  502  0.39445664165E+02  0.93306057876E+02 -0.56149586360E+02  0.11589749482E+03  0.41800000000E+01 0.  1.
        -11    1    4    4    0    0 -0.96621363449E+02 -0.55999163411E+02  0.82398615279E+02  0.13878445870E+03  0.00000000000E+00 0. -1.
         11    1    4    4    0    0  0.17010184485E+02 -0.43804500622E+02  0.48032157182E+02  0.67195749676E+02  0.00000000000E+00 0.  1.
</event>
<event>
 8    1  0.3528896E-009  0.1133840E+03  0.7561462E-02  0.1254428E+00
          2   -1    0    0  501    0  0.00000000000E+00  0.00000000000E+00  0.75705429052E+03  0.75705429052E+03  0.00000000000E+00 0. -1.
         -2   -1    0    0    0  501 -0.00000000000E+00 -0.00000000000E+00 -0.24772530051E+02  0.24772530051E+02  0.00000000000E+00 0.  1.
         25    2    1    2    0    0  0.37988596325E+02 -0.32557344432E+02  0.21286384961E+03  0.25191498173E+03  0.12508807067E+03 0.  0.
         23    2    1    2    0    0 -0.37988596325E+02  0.32557344432E+02  0.51941791086E+03  0.52991183883E+03  0.92241404427E+02 0.  0.
          5    1    3    3  502    0 -0.45475115337E+00 -0.68773351813E+02  0.64521161740E+02  0.94395092195E+02  0.41800000000E+01 0.  1.
         -5    1    3    3    0  502  0.38443347478E+02  0.36216007381E+02  0.14834268787E+03  0.15751988954E+03  0.41800000000E+01 0.  1.
        -11    1    4    4    0    0  0.29608077776E+02  0.21021109638E+02  0.18772977650E+03  0.19120929450E+03  0.00000000000E+00 0.  1.
         11    1    4    4    0    0 -0.67596674100E+02  0.11536234794E+02  0.33168813436E+03  0.33870254433E+03  0.00000000000E+00 0. -1.
</event>
<event>
 8    1  0.3528896E-009  0.2671479E+03  0.7561462E-02  0.1102923E+00
         -1   -1    0    0    0  501 -0.00000000000E+00  0.00000000000E+00  0.55601276885E+02  0.55601276885E+02  0.00000000000E+00 0.  1.
          1   -1    0    0  501    0  0.00000000000E+00 -0.00000000000E+00 -0.14687916617E+04  0.14687916617E+04  0.00000000000E+00 0. -1.
         25    2    1    2    0    0  0.10017607745E+03  0.24413862625E+03 -0.70548624150E+03  0.76354301619E+03  0.12509270686E+03 0.  0.
         23    2    1    2    0    0 -0.10017607745E+03 -0.24413862625E+03 -0.70770414331E+03  0.76084992239E+03  0.91698062253E+02 0.  0.
          5    1    3    3  502    0  0.64269639307E+02  0.13595807763E+03 -0.23196809309E+03  0.27648120013E+03  0.41800000000E+01 0. -1.
         -5    1    3    3    0  502  0.35906438143E+02  0.10818054862E+03 -0.47351814840E+03  0.48706181606E+03  0.41800000000E+01 0. -1.
        -11    1    4    4    0    0 -0.52765876380E+02 -0.61174881609E+02 -0.13044082546E+03  0.15343211136E+03  0.00000000000E+00 0.  1.
         11    1    4    4    0    0 -0.47410201071E+02 -0.18296374464E+03 -0.57726331785E+03  0.60741781103E+03  0.00000000000E+00 0. -1.
</event>
<event>
 8    1  0.3528896E-009  0.1192559E+03  0.7561462E-02  0.1244330E+00
         -2   -1    0    0    0  501 -0.00000000000E+00  0.00000000000E+00  0.49640157278E+02  0.49640157278E+02  0.00000000000E+00 0.  1.
          2   -1    0    0  501    0  0.00000000000E+00 -0.00000000000E+00 -0.51036153282E+03  0.51036153282E+03  0.00000000000E+00 0. -1.
         25    2    1    2    0    0  0.35362447362E+00 -0.10500261842E+03 -0.33308453270E+03  0.37096967021E+03  0.12509002906E+03 0.  0.
         23    2    1    2    0    0 -0.35362447362E+00  0.10500261842E+03 -0.12763684284E+03  0.18903201989E+03  0.91740209104E+02 0.  0.
          5    1    3    3  502    0  0.13969292975E+02 -0.60724941534E+02 -0.39878548290E+02  0.74097440471E+02  0.41800000000E+01 0.  1.
         -5    1    3    3    0  502 -0.13615668501E+02 -0.44277676882E+02 -0.29320598441E+03  0.29687222974E+03  0.41800000000E+01 0.  1.
        -11    1    4    4    0    0 -0.37391403949E+02  0.65334265825E+02 -0.38195747211E+02  0.84413260126E+02  0.00000000000E+00 0.  1.
         11    1    4    4    0    0  0.37037779475E+02  0.39668352592E+02 -0.89441095631E+02  0.10461875976E+03  0.00000000000E+00 0. -1.
</event>
<event>
 8    1  0.3528896E-009  0.9823230E+02  0.7561462E-02  0.1284058E+00
          1   -1    0    0  501    0  0.00000000000E+00  0.00000000000E+00  0.31749918293E+02  0.31749918293E+02  0.00000000000E+00 0. -1.
         -1   -1    0    0    0  501 -0.00000000000E+00 -0.00000000000E+00 -0.47016960755E+03  0.47016960755E+03  0.00000000000E+00 0.  1.
         25    2    1    2    0    0 -0.31987485940E+02 -0.11025027726E+02 -0.15402720736E+03  0.20128976685E+03  0.12509372142E+03 0.  0.
         23    2    1    2    0    0  0.31987485940E+02  0.11025027726E+02 -0.28439248191E+03  0.30062975900E+03  0.91402504008E+02 0.  0.
          5    1    3    3  502    0 -0.59746135966E+02  0.18007629003E+02 -0.27220773910E+02  0.68207905681E+02  0.41800000000E+01 0. -1.
         -5    1    3    3    0  502  0.27758650026E+02 -0.29032656728E+02 -0.12680643345E+03  0.13308186117E+03  0.41800000000E+01 0. -1.
        -11    1    4    4    0    0  0.21454174536E+02 -0.37868724358E+02 -0.17523717278E+03  0.18056131538E+03  0.00000000000E+00 0.  1.
         11    1    4    4    0    0  0.10533311404E+02  0.48893752084E+02 -0.10915530913E+03  0.12006844362E+03  0.00000000000E+00 0. -1.
</event>
<event>
 8    1  0.3528896E-009  0.9708525E+02  0.7561462E-02  0.1286547E+00
         -1   -1    0    0    0  501 -0.00000000000E+00  0.00000000000E+00  0.43520301288E+02  0.43520301288E+02  0.00000000000E+00 0.  1.
          1   -1    0    0  501    0  0.00000000000E+00 -0.00000000000E+00 -0.27332298068E+03  0.27332298068E+03  0.00000000000E+00 0. -1.
         25    2    1    2    0    0  0.15716191644E+02 -0.21277390713E+01 -0.12373124973E+03  0.17664767047E+03  0.12507378370E+03 0.  0.
         23    2    1    2    0    0 -0.15716191644E+02  0.21277390713E+01 -0.10607142967E+03  0.14019561150E+03  0.90289176201E+02 0.  0.
          5    1    3    3  502    0  0.60904206506E+02 -0.82957046047E+01 -0.22588215145E+02  0.65618906943E+02  0.41800000000E+01 0. -1.
         -5    1    3    3    0  502 -0.45188014861E+02  0.61679655334E+01 -0.10114303458E+03  0.11102876353E+03  0.41800000000E+01 0. -1.
        -11    1    4    4    0    0  0.12243560866E+02  0.38778702053E+02 -0.27472613823E+02  0.49075829345E+02  0.00000000000E+00 0. -1.
         11    1    4    4    0    0 -0.27959752510E+02 -0.36650962982E+02 -0.78598815843E+02  0.91119782155E+02  0.00000000000E+00 0.  1.
</event>
<event>
 8    1  0.3528896E-009  0.1195181E+03  0.7561462E-02  0.1243894E+00
          1   -1    0    0  501    0  0.00000000000E+00  0.00000000000E+00  0.49343539739E+03  0.49343539739E+03  0.00000000000E+00 0. -1.
         -1   -1    0    0    0  501 -0.00000000000E+00 -0.00000000000E+00 -0.40275240132E+02  0.40275240132E+02  0.00000000000E+00 0.  1.
         25    2    1    2    0    0 -0.65557146281E+01  0.81581087416E+02  0.18707820465E+03  0.23946562916E+03  0.12508829551E+03 0.  0.
         23    2    1    2    0    0  0.65557146281E+01 -0.81581087416E+02  0.26608195260E+03  0.29424500836E+03  0.95299885766E+02 0.  0.
          5    1    3    3  502    0 -0.60439772195E+02  0.23121160349E+02  0.53980780139E+02  0.84373877138E+02  0.41800000000E+01 0.  1.
         -5    1    3    3    0  502  0.53884057567E+02  0.58459927067E+02  0.13309742451E+03  0.15509175202E+03  0.41800000000E+01 0.  1.
        -11    1    4    4    0    0  0.27184507635E+02 -0.44721137336E+02  0.44570936962E+02  0.68742606887E+02  0.00000000000E+00 0.  1.
         11    1    4    4    0    0 -0.20628793007E+02 -0.36859950080E+02  0.22151101564E+03  0.22550240148E+03  0.00000000000E+00 0. -1.
</event>
<event>
 8    1  0.3528896E-009  0.1822091E+03  0.7561462E-02  0.1165682E+00
          1   -1    0    0  501    0  0.00000000000E+00  0.00000000000E+00  0.79538145067E+03  0.79538145067E+03  0.00000000000E+00 0. -1.
         -1   -1    0    0    0  501 -0.00000000000E+00 -0.00000000000E+00 -0.51326074700E+02  0.51326074700E+02  0.00000000000E+00 0.  1.
         25    2    1    2    0    0  0.46383554742E+02 -0.16138329217E+03  0.43976494947E+03  0.48707379323E+03  0.12510662702E+03 0.  0.
         23    2    1    2    0    0 -0.46383554742E+02  0.16138329217E+03  0.30429042649E+03  0.35963373214E+03  0.92454077743E+02 0.  0.
          5    1    3    3  502    0  0.73577958787E+02 -0.14694526962E+03  0.41792566732E+03  0.44909460483E+03  0.41800000000E+01 0.  1.
         -5    1    3    3    0  502 -0.27194404046E+02 -0.14438022553E+02  0.21839282156E+02  0.37979188403E+02  0.41800000000E+01 0.  1.
        -11    1    4    4    0    0 -0.18474548150E+02  0.97615046111E+02  0.25685665157E+03  0.27540033699E+03  0.00000000000E+00 0.  1.
         11    1    4    4    0    0 -0.27909006592E+02  0.63768246063E+02  0.47433774922E+02  0.84233395149E+02  0.00000000000E+00 0. -1.
</event>
<event>
 8    1  0.3528896E-009  0.7239364E+02  0.7561462E-02  0.1352137E+00
         -2   -1    0    0    0  501 -0.00000000000E+00  0.00000000000E+00  0.99383106706E+02  0.99383106706E+02  0.00000000000E+00 0.  1.
          2   -1    0    0  501    0  0.00000000000E+00 -0.00000000000E+00 -0.18406221516E+03  0.18406221516E+03  0.00000000000E+00 0. -1.
         25    2    1    2    0    0 -0.47083803662E+02 -0.38305682717E+02 -0.10153089780E+03  0.17216522666E+03  0.12509249445E+03 0.  0.
         23    2    1    2    0    0  0.47083803662E+02  0.38305682717E+02  0.16851789347E+02  0.11128009521E+03  0.91733673692E+02 0.  0.
          5    1    3    3  502    0 -0.52064815973E+02 -0.28275160933E+02 -0.12910476980E+03  0.14211172990E+03  0.41800000000E+01 0. -1.
         -5    1    3    3    0  502  0.49810123112E+01 -0.10030521784E+02  0.27573871999E+02  0.30053496767E+02  0.41800000000E+01 0. -1.
        -11    1    4    4    0    0  0.40219288969E+02  0.63052070249E+01  0.50147698193E+02  0.64592092974E+02  0.00000000000E+00 0.  1.
         11    1    4    4    0    0  0.68645146932E+01  0.32000475692E+02 -0.33295908845E+02  0.46688002231E+02  0.00000000000E+00 0. -1.
</event>
<event>
 8    1  0.3528896E-009  0.1437775E+03  0.7561462E-02  0.1208335E+00
         -2   -1    0    0    0  501 -0.00000000000E+00  0.00000000000E+00  0.30112756051E+03  0.30112756051E+03  0.00000000000E+00 0.  1.
          2   -1    0    0  501    0  0.00000000000E+00 -0.00000000000E+00 -0.84525841481E+02  0.84525841481E+02  0.00000000000E+00 0. -1.
         25    2    1    2    0    0  0.96125147349E+02  0.65960856056E+02  0.11918971194E+03  0.20843276208E+03  0.12508857018E+03 0.  0.
         23    2    1    2    0    0 -0.96125147349E+02 -0.65960856056E+02  0.97412007093E+02  0.17722063992E+03  0.91253370362E+02 0.  0.
          5    1    3    3  502    0 -0.26699500382E+01 -0.27476353619E+02  0.46362537151E+02  0.54120568110E+02  0.41800000000E+01 0. -1.
         -5    1    3    3    0  502  0.98795097388E+02  0.93437209675E+02  0.72827174789E+02  0.15431219397E+03  0.41800000000E+01 0. -1.
        -11    1    4    4    0    0 -0.35440166961E+02 -0.21140868392E+01  0.79869931150E+02  0.87405266999E+02  0.00000000000E+00 0.  1.
         11    1    4    4    0    0 -0.60684980388E+02 -0.63846769216E+02  0.17542075944E+02  0.89815372919E+02  0.00000000000E+00 0. -1.
</event>
<event>
 8    1  0.3528896E-009  0.9666872E+02  0.7561462E-02  0.1287461E+00
          1   -1    0    0  501    0  0.00000000000E+00  0.00000000000E+00  0.12781991104E+03  0.12781991104E+03  0.00000000000E+00 0. -1.
         -1   -1    0    0    0  501 -0.00000000000E+00 -0.00000000000E+00 -0.11941993898E+03  0.11941993898E+03  0.00000000000E+00 0.  1.
         25    2    1    2    0    0 -0.42111958084E+02 -0.65723595090E+01 -0.36074616250E+02  0.13698603870E+03  0.12508870428E+03 0.  0.
         23    2    1    2    0    0  0.42111958084E+02  0.65723595090E+01  0.44474588313E+02  0.11025381132E+03  0.91440149730E+02 0.  0.
          5    1    3    3  502    0  0.20650662038E+02  0.44852970157E+02 -0.23228451180E+02  0.54729079279E+02  0.41800000000E+01 0. -1.
         -5    1    3    3    0  502 -0.62762620122E+02 -0.51425329666E+02 -0.12846165070E+02  0.82256959419E+02  0.41800000000E+01 0. -1.
        -11    1    4    4    0    0  0.15074618388E+02  0.25435796826E+02  0.65007081310E+02  0.71415295982E+02  0.00000000000E+00 0. -1.
         11    1    4    4    0    0  0.27037339696E+02 -0.18863437317E+02 -0.20532492997E+02  0.38838515341E+02  0.00000000000E+00 0.  1.
</event>
<event>
 7    1  0.3528896E-009  0.1213626E+03  0.7561462E-02  0.1240866E+00
          3   -1    0    0  501    0  0.00000000000E+00  0.00000000000E+00  0.28642370797E+03  0.28642370797E+03  0.00000000000E+00 0. -1.
         -3   -1    0    0    0  501 -0.00000000000E+00 -0.00000000000E+00 -0.75047275823E+02  0.75047275823E+02  0.00000000000E+00 0.  1.
         23    2    1    2    0    0  0.77285857230E+02  0.59195147888E+02  0.11680049409E+03  0.17664432921E+03  0.89909367485E+02 0.  0.
          5    1    1    2  502    0  0.18672674489E+02 -0.94394499719E+01  0.70971540665E+02  0.74109405427E+02  0.41800000000E+01 0.  1.
         -5    1    1    2    0  502 -0.95958531719E+02 -0.49755697916E+02  0.23604397392E+02  0.11071724916E+03  0.41800000000E+01 0.  1.
        -11    1    3    3    0    0  0.49247482810E+02  0.67881133428E+02  0.37087418988E+02  0.91698634045E+02  0.00000000000E+00 0.  1.
         11    1    3    3    0    0  0.28038374420E+02 -0.86859855399E+01  0.79713075104E+02  0.84945695167E+02  0.00000000000E+00 0. -1.
</event>
<event>
 8    1  0.3528896E-009  0.1764358E+03  0.7561462E-02  0.1171298E+00
         -2   -1    0    0    0  501 -0.00000000000E+00  0.00000000000E+00  0.30320897758E+02  0.30320897758E+02  0.00000000000E+00 0.  1.
          2   -1    0    0  501    0  0.00000000000E+00 -0.00000000000E+00 -0.11086834789E+04  0.11086834789E+04  0.00000000000E+00 0. -1.
         25    2    1    2    0    0 -0.54509461398E+02  0.12923621683E+03 -0.71067256032E+03  0.73510277056E+03  0.12508922486E+03 0.  0.
         23    2    1    2    0    0  0.54509461398E+02 -0.12923621683E+03 -0.36769002085E+03  0.40390160612E+03  0.90924555934E+02 0.  0.
          5    1    3    3  502    0 -0.27647541734E+02 -0.20256407364E+02 -0.17083596689E+03  0.17429029975E+03  0.41800000000E+01 0.  1.
         -5    1    3    3    0  502 -0.26861919664E+02  0.14949262420E+03 -0.53983659343E+03  0.56081247082E+03  0.41800000000E+01 0.  1.
        -11    1    4    4    0    0 -0.13144020936E+02 -0.83984657612E+02 -0.16863375567E+03  0.18884790587E+03  0.00000000000E+00 0.  1.
         11    1    4    4    0    0  0.67653482334E+02 -0.45251559219E+02 -0.19905626519E+03  0.21505370025E+03  0.00000000000E+00 0. -1.
</event>
<event>
 8    1  0.3528896E-009  0.1260334E+03  0.7561462E-02  0.1233463E+00
          2   -1    0    0  501    0  0.00000000000E+00  0.00000000000E+00  0.79431994107E+03  0.79431994107E+03  0.00000000000E+00 0. -1.
         -2   -1    0    0    0  501 -0.00000000000E+00 -0.00000000000E+00 -0.23015964603E+02  0.23015964603E+02  0.00000000000E+00 0.  1.
         25    2    1    2    0    0  0.65287580547E+01  0.73197321147E+02  0.32161925431E+03  0.35282618500E+03  0.12508756764E+03 0.  0.
         23    2    1    2    0    0 -0.65287580547E+01 -0.73197321147E+02  0.44968472217E+03  0.46450972067E+03  0.90290967138E+02 0.  0.
          5    1    3    3  502    0 -0.20425319730E+02 -0.26062972701E+02  0.14134292976E+03  0.14523005345E+03  0.41800000000E+01 0.  1.
         -5    1    3    3    0  502  0.26954077784E+02  0.99260293848E+02  0.18027632455E+03  0.20759613155E+03  0.41800000000E+01 0.  1.
        -11    1    4    4    0    0  0.36348920324E+02 -0.61278006331E+02  0.25205895291E+03  0.26193501829E+03  0.00000000000E+00 0. -1.
         11    1    4    4    0    0 -0.42877678379E+02 -0.11919314816E+02  0.19762576926E+03  0.20257470238E+03  0.00000000000E+00 0.  1.
</event>
<event>
 8    1  0.3528896E-009  0.1066658E+03  0.7561462E-02  0.1266872E+00
         -2   -1    0    0    0  501 -0.00000000000E+00  0.00000000000E+00  0.20557756709E+02  0.20557756709E+02  0.00000000000E+00 0. -1.
          2   -1    0    0  501    0  0.00000000000E+00 -0.00000000000E+00 -0.64493146381E+03  0.64493146381E+03  0.00000000000E+00 0.  1.
         25    2    1    2    0    0 -0.28344468066E+02  0.15690656883E+02 -0.29967144392E+03  0.32633631585E+03  0.12507122434E+03 0.  0.
         23    2    1    2    0    0  0.28344468066E+02 -0.15690656883E+02 -0.32470226318E+03  0.33915290467E+03  0.92431203857E+02 0.  0.
          5    1    3    3  502    0  0.32834163697E+02 -0.35220356080E+02 -0.92569571850E+02  0.10442774450E+03  0.41800000000E+01 0.  1.
         -5    1    3    3    0  502 -0.61178631763E+02  0.50911012963E+02 -0.20710187207E+03  0.22190857135E+03  0.41800000000E+01 0.  1.
        -11    1    4    4    0    0  0.34190880655E+02  0.26154029984E+02 -0.24684266295E+03  0.25056805434E+03  0.00000000000E+00 0.  1.
         11    1    4    4    0    0 -0.58464125894E+01 -0.41844686867E+02 -0.77859600231E+02  0.88584850326E+02  0.00000000000E+00 0. -1.
</event>
<event>
 8    1  0.3528896E-009  0.1046352E+03  0.7561462E-02  0.1270840E+00
          3   -1    0    0  501    0  0.00000000000E+00  0.00000000000E+00  0.34792303241E+03  0.34792303241E+03  0.00000000000E+00 0. -1.
         -3   -1    0    0    0  501 -0.00000000000E+00 -0.00000000000E+00 -0.61539847000E+02  0.61539847000E+02  0.00000000000E+00 0.  1.
         25    2    1    2    0    0  0.15694000260E+02  0.94745602886E+02  0.12211612006E+03  0.19945649150E+03  0.12509002483E+03 0.  0.
         23    2    1    2    0    0 -0.15694000260E+02 -0.94745602886E+02  0.16426706535E+03  0.21000638791E+03  0.88859345568E+02 0.  0.
          5    1    3    3  502    0  0.30103469648E+01  0.10763356199E+02  0.11334111792E+03  0.11396751044E+03  0.41800000000E+01 0.  1.
         -5    1    3    3    0  502  0.12683653295E+02  0.83982246688E+02  0.87750021437E+01  0.85488981057E+02  0.41800000000E+01 0.  1.
        -11    1    4    4    0    0  0.20677531890E+02 -0.53235069346E+02  0.13704281475E+03  0.14846638006E+03  0.00000000000E+00 0. -1.
         11    1    4    4    0    0 -0.36371532150E+02 -0.41510533540E+02  0.27224250599E+02  0.61540007852E+02  0.00000000000E+00 0.  1.
</event>
<event>
 8    1  0.3528896E-009  0.8458295E+02  0.7561462E-02  0.1316527E+00
          2   -1    0    0  501    0  0.00000000000E+00  0.00000000000E+00  0.13242624362E+03  0.13242624362E+03  0.00000000000E+00 0.  1.
         -2   -1    0    0    0  501 -0.00000000000E+00 -0.00000000000E+00 -0.13892966507E+03  0.13892966507E+03  0.00000000000E+00 0. -1.
         25    2    1    2    0    0  0.46721343591E+02 -0.43074339669E+02 -0.55190991951E+02  0.15077056283E+03  0.12508970517E+03 0.  0.
         23    2    1    2    0    0 -0.46721343591E+02  0.43074339669E+02  0.48687570508E+02  0.12058534586E+03  0.90177954225E+02 0.  0.
          5    1    3    3  502    0  0.20247819787E+02  0.24923343790E+02  0.25999456702E+02  0.41528200305E+02  0.41800000000E+01 0.  1.
         -5    1    3    3    0  502  0.26473523804E+02 -0.67997683460E+02 -0.81190448653E+02  0.10924236253E+03  0.41800000000E+01 0.  1.
        -11    1    4    4    0    0 -0.27132778038E+02  0.27882488047E+02  0.74965721675E+02  0.84459932572E+02  0.00000000000E+00 0. -1.
         11    1    4    4    0    0 -0.19588565554E+02  0.15191851622E+02 -0.26278151167E+02  0.36125413284E+02  0.00000000000E+00 0.  1.
</event>
<event>
 8    1  0.3528896E-009  0.8302925E+02  0.7561462E-02  0.1320668E+00
          2   -1    0    0  501    0  0.00000000000E+00  0.00000000000E+00  0.15540833685E+03  0.15540833685E+03  0.00000000000E+00 0. -1.
         -2   -1    0    0    0  501 -0.00000000000E+00 -0.00000000000E+00 -0.88801160860E+02  0.88801160860E+02  0.00000000000E+00 0.  1.
         25    2    1    2    0    0 -0.25291958266E+01 -0.37531063469E+02  0.66309647234E+02  0.14648487238E+03  0.12508345600E+03 0.  0.
         23    2    1    2    0    0  0.25291958266E+01  0.37531063469E+02  0.29752875607E+00  0.97724625327E+02  0.90194436166E+02 0.  0.
          5    1    3    3  502    0 -0.37513030028E+01  0.17059284359E+02 -0.30421439951E+02  0.35327437860E+02  0.41800000000E+01 0. -1.
         -5    1    3    3    0  502  0.12221071762E+01 -0.54590347828E+02  0.96731087185E+02  0.11115743452E+03  0.41800000000E+01 0. -1.
        -11    1    4    4    0    0 -0.23234963843E+01 -0.27763225021E+02  0.13458377282E+02  0.30940640233E+02  0.00000000000E+00 0. -1.
         11    1    4    4    0    0  0.48526922109E+01  0.65294288490E+02 -0.13160848526E+02  0.66783985094E+02  0.00000000000E+00 0.  1.
</event>
<event>
 8    1  0.3528896E-009  0.9421842E+02  0.7561462E-02  0.1292946E+00
         -2   -1    0    0    0  501 -0.00000000000E+00  0.00000000000E+00  0.42061188273E+02  0.42061188273E+02  0.00000000000E+00 0.  1.
          2   -1    0    0  501    0  0.00000000000E+00 -0.00000000000E+00 -0.44950825838E+03  0.44950825838E+03  0.00000000000E+00 0. -1.
         25    2    1    2    0    0 -0.21222853991E+02 -0.79655127008E+02 -0.22711215945E+03  0.27207164464E+03  0.12509075928E+03 0.  0.
         23    2    1    2    0    0  0.21222853991E+02  0.79655127008E+02 -0.18033491066E+03  0.21949780201E+03  0.94144868671E+02 0.  0.
          5    1    3    3  502    0 -0.39063701665E+02 -0.28075773054E+02 -0.20886292422E+03  0.21437214216E+03  0.41800000000E+01 0. -1.
         -5    1    3    3    0  502  0.17840847674E+02 -0.51579353954E+02 -0.18249235231E+02  0.57699502481E+02  0.41800000000E+01 0. -1.
        -11    1    4    4    0    0  0.97238306769E+01  0.73272758129E+01  0.98745365526E+01  0.15676362014E+02  0.00000000000E+00 0.  1.
         11    1    4    4    0    0  0.11499023314E+02  0.72327851195E+02 -0.19020944721E+03  0.20382144000E+03  0.00000000000E+00 0. -1.
</event>
<event>
 8    1  0.3528896E-009  0.9793049E+02  0.7561462E-02  0.1284709E+00
          3   -1    0    0  501    0  0.00000000000E+00  0.00000000000E+00  0.15309512212E+03  0.15309512212E+03  0.00000000000E+00 0. -1.
         -3   -1    0    0    0  501 -0.00000000000E+00 -0.00000000000E+00 -0.81567038723E+02  0.81567038723E+02  0.00000000000E+00 0.  1.
         25    2    1    2    0    0  0.43286867533E+01 -0.30337994112E+02  0.37519132979E+02  0.13411506343E+03  0.12506011948E+03 0.  0.
         23    2    1    2    0    0 -0.43286867533E+01  0.30337994112E+02  0.34008950421E+02  0.10054709741E+03  0.89520828157E+02 0.  0.
          5    1    3    3  502    0 -0.18389024010E+02  0.45578454694E+02  0.12066874141E+02  0.50780248009E+02  0.41800000000E+01 0.  1.
         -5    1    3    3    0  502  0.22717710763E+02 -0.75916448806E+02  0.25452258838E+02  0.83334815423E+02  0.41800000000E+01 0.  1.
        -11    1    4    4    0    0  0.27109882440E+02  0.69158846347E+01 -0.19579770738E+02  0.34148830263E+02  0.00000000000E+00 0.  1.
         11    1    4    4    0    0 -0.31438569193E+02  0.23422109477E+02  0.53588721158E+02  0.66398267151E+02  0.00000000000E+00 0. -1.
</event>
<event>
 8    1  0.3528896E-009  0.1035253E+03  0.7561462E-02  0.1273053E+00
          2   -1    0    0  501    0  0.00000000000E+00  0.00000000000E+00  0.56794249890E+03  0.56794249890E+03  0.00000000000E+00 0. -1.
         -2   -1    0    0    0  501 -0.00000000000E+00 -0.00000000000E+00 -0.24085404796E+02  0.24085404796E+02  0.00000000000E+00 0.  1.
         25    2    1    2    0    0  0.37981897331E+02  0.18964347570E+02  0.28575477564E+03  0.31481225424E+03  0.12509473456E+03 0.  0.
         23    2    1    2    0    0 -0.37981897331E+02 -0.18964347570E+02  0.25810231846E+03  0.27721564946E+03  0.91811973639E+02 0.  0.
          5    1    3    3  502    0  0.80190796252E+01  0.57313603512E+02  0.58602147165E+02  0.82467198558E+02  0.41800000000E+01 0. -1.
         -5    1    3    3    0  502  0.29962817706E+02 -0.38349255943E+02  0.22715262848E+03  0.23234505568E+03  0.41800000000E+01 0. -1.
        -11    1    4    4    0    0 -0.56836350280E+02 -0.41812134822E+02  0.16326928457E+03  0.17786366862E+03  0.00000000000E+00 0.  1.
         11    1    4    4    0    0  0.18854452949E+02  0.22847787252E+02  0.94833033895E+02  0.99351980836E+02  0.00000000000E+00 0. -1.
</event>
<event>
 8    1  0.3528896E-009  0.1575400E+03  0.7561462E-02  0.1191502E+00
         -1   -1    0    0    0  501 -0.00000000000E+00  0.00000000000E+00  0.30592909220E+02  0.30592909220E+02  0.00000000000E+00 0.  1.
          1   -1    0    0  501    0  0.00000000000E+00 -0.00000000000E+00 -0.14722757121E+04  0.14722757121E+04  0.00000000000E+00 0. -1.
         25    2    1    2    0    0 -0.12786501932E+03 -0.17677576340E+02 -0.12301868781E+04  0.12432494469E+04  0.12508985759E+03 0.  0.
         23    2    1    2    0    0  0.12786501932E+03  0.17677576340E+02 -0.21149592480E+03  0.25961917437E+03  0.77521800950E+02 0.  0.
          5    1    3    3  502    0  0.12897601734E+02 -0.19964621477E+02 -0.43622412873E+03  0.43689117309E+03  0.41800000000E+01 0. -1.
         -5    1    3    3    0  502 -0.14076262105E+03  0.22870451375E+01 -0.79396274935E+03  0.80635827385E+03  0.41800000000E+01 0. -1.
        -11    1    4    4    0    0  0.33063069876E+02  0.40807737058E+02 -0.64448945805E+02  0.83139067885E+02  0.00000000000E+00 0.  1.
         11    1    4    4    0    0  0.94801949443E+02 -0.23130160719E+02 -0.14704697899E+03  0.17648010648E+03  0.00000000000E+00 0. -1.
</event>
<event>
 8    1  0.3528896E-009  0.1051920E+03  0.7561462E-02  0.1269742E+00
          2   -1    0    0  501    0  0.00000000000E+00  0.00000000000E+00  0.39796454504E+02  0.39796454504E+02  0.00000000000E+00 0. -1.
         -2   -1    0    0    0  501 -0.00000000000E+00 -0.00000000000E+00 -0.70787423104E+03  0.70787423104E+03  0.00000000000E+00 0.  1.
         25    2    1    2    0    0  0.12269478116E+02 -0.16875131418E+02 -0.63754933869E+03  0.65003970301E+03  0.12508855294E+03 0.  0.
         23    2    1    2    0    0 -0.12269478116E+02  0.16875131418E+02 -0.30528437851E+02  0.97630982535E+02  0.90357695187E+02 0.  0.
          5    1    3    3  502    0 -0.21134447085E+02 -0.63065864747E+02 -0.41231908367E+03  0.41767028540E+03  0.41800000000E+01 0. -1.
         -5    1    3    3    0  502  0.33403925201E+02  0.46190733329E+02 -0.22523025502E+03  0.23236941761E+03  0.41800000000E+01 0. -1.
        -11    1    4    4    0    0 -0.46292900232E+02 -0.43264000156E+01 -0.33690607605E+02  0.57417831636E+02  0.00000000000E+00 0.  1.
         11    1    4    4    0    0  0.34023422116E+02  0.21201531434E+02  0.31621697546E+01  0.40213150898E+02  0.00000000000E+00 0. -1.
</event>
<event>
 8    1  0.3528896E-009  0.1384666E+03  0.7561462E-02  0.1215407E+00
         -1   -1    0    0    0  501 -0.00000000000E+00  0.00000000000E+00  0.40050169612E+02  0.40050169612E+02  0.00000000000E+00 0.  1.
          1   -1    0    0  501    0  0.00000000000E+00 -0.00000000000E+00 -0.83763725744E+03  0.83763725744E+03  0.00000000000E+00 0. -1.
         25    2    1    2    0    0  0.58041432739E+02 -0.87138068557E+02 -0.67812149321E+03  0.69746625654E+03  0.12509423867E+03 0.  0.
         23    2    1    2    0    0 -0.58041432739E+02  0.87138068557E+02 -0.11946559461E+03  0.18022117051E+03  0.85122212714E+02 0.  0.
          5    1    3    3  502    0  0.96975306755E+02 -0.66987112748E+02 -0.45468379828E+03  0.46973004185E+03  0.41800000000E+01 0. -1.
         -5    1    3    3    0  502 -0.38933874016E+02 -0.20150955809E+02 -0.22343769493E+03  0.22773621469E+03  0.41800000000E+01 0. -1.
        -11    1    4    4    0    0 -0.59739691880E+02  0.50339983877E+02 -0.12022381611E+03  0.14337611629E+03  0.00000000000E+00 0. -1.
         11    1    4    4    0    0  0.16982591414E+01  0.36798084680E+02  0.75822150180E+00  0.36845054215E+02  0.00000000000E+00 0.  1.
</event>
<event>
 8    1  0.3528896E-009  0.1413672E+03  0.7561462E-02  0.1211501E+00
         -2   -1    0    0    0  501 -0.00000000000E+00  0.00000000000E+00  0.25683966645E+02  0.25683966645E+02  0.00000000000E+00 0.  1.
          2   -1    0    0  501    0  0.00000000000E+00 -0.00000000000E+00 -0.15374072572E+04  0.15374072572E+04  0.00000000000E+00 0. -1.
         25    2    1    2    0    0 -0.49404973525E+02 -0.10598493555E+03 -0.12510291434E+04  0.12626934780E+04  0.12508894399E+03 0.  0.
         23    2    1    2    0    0  0.49404973525E+02  0.10598493555E+03 -0.26069414722E+03  0.30039774586E+03  0.92756182271E+02 0.  0.
          5    1    3    3  502    0 -0.84460756185E+02 -0.68923850621E+02 -0.10326190572E+04  0.10383658826E+04  0.41800000000E+01 0. -1.
         -5    1    3    3    0  502  0.35055782659E+02 -0.37061084927E+02 -0.21841008621E+03  0.22432759543E+03  0.41800000000E+01 0. -1.
        -11    1    4    4    0    0 -0.24871412952E+01  0.31940856406E+02 -0.94850729892E+01  0.33412135361E+02  0.00000000000E+00 0.  1.
         11    1    4    4    0    0  0.51892114820E+02  0.74044079141E+02 -0.25120907423E+03  0.26698561049E+03  0.00000000000E+00 0. -1.
</event>
<event>
 8    1  0.3528896E-009  0.1691567E+03  0.7561462E-02  0.1178730E+00
          2   -1    0    0  501    0  0.00000000000E+00  0.00000000000E+00  0.30790002230E+03  0.30790002230E+03  0.00000000000E+00 0. -1.
         -2   -1    0    0    0  501 -0.00000000000E+00 -0.00000000000E+00 -0.10500251434E+03  0.10500251434E+03  0.00000000000E+00 0.  1.
         25    2    1    2    0    0  0.66073996943E+01  0.14059584662E+03  0.59516904367E+02  0.19748756611E+03  0.12509287369E+03 0.  0.
         23    2    1    2    0    0 -0.66073996943E+01 -0.14059584662E+03  0.14338060359E+03  0.21541497052E+03  0.77683732042E+02 0.  0.
          5    1    3    3  502    0  0.46034699625E+02  0.98263155540E+01  0.34641363604E+02  0.58593911965E+02  0.41800000000E+01 0.  1.
         -5    1    3    3    0  502 -0.39427299931E+02  0.13076953106E+03  0.24875540762E+02  0.13889365415E+03  0.41800000000E+01 0.  1.
        -11    1    4    4    0    0  0.23233959578E+02 -0.21584716153E+02  0.57447482099E+02  0.65619585861E+02  0.00000000000E+00 0. -1.
         11    1    4    4    0    0 -0.29841359272E+02 -0.11901113046E+03  0.85933121490E+02  0.14979538466E+03  0.00000000000E+00 0.  1.
</event>
<event>
 8    1  0.3528896E-009  0.1055818E+03  0.7561462E-02  0.1268978E+00
          2   -1    0    0  501    0  0.00000000000E+00  0.00000000000E+00  0.31523552454E+03  0.31523552454E+03  0.00000000000E+00 0. -1.
         -2   -1    0    0    0  501 -0.00000000000E+00 -0.00000000000E+00 -0.61991485290E+02  0.61991485290E+02  0.00000000000E+00 0.  1.
         25    2    1    2    0    0 -0.75333905866E+02  0.22170628898E+02  0.83991733448E+02  0.16991090494E+03  0.12509344576E+03 0.  0.
         23    2    1    2    0    0  0.75333905866E+02 -0.22170628898E+02  0.16925230580E+03  0.20731610489E+03  0.90370848005E+02 0.  0.
          5    1    3    3  502    0 -0.10081179269E+03  0.19192291943E+02  0.96623603795E+02  0.14101402351E+03  0.41800000000E+01 0.  1.
         -5    1    3    3    0  502  0.25477886825E+02  0.29783369542E+01 -0.12631870346E+02  0.28896881432E+02  0.41800000000E+01 0.  1.
        -11    1    4    4    0    0  0.49778358321E+02 -0.26739485574E+02  0.26838616865E+02  0.62555546526E+02  0.00000000000E+00 0.  1.
         11    1    4    4    0    0  0.25555547545E+02  0.45688566760E+01  0.14241368894E+03  0.14476055837E+03  0.00000000000E+00 0. -1.
</event>
<event>
 8    1  0.3528896E-009  0.1032840E+03  0.7561462E-02  0.1273538E+00
         -1   -1    0    0    0  501 -0.00000000000E+00  0.00000000000E+00  0.35474477510E+03  0.35474477510E+03  0.00000000000E+00 0.  1.
          1   -1    0    0  501    0  0.00000000000E+00 -0.00000000000E+00 -0.35773950106E+02  0.35773950106E+02  0.00000000000E+00 0. -1.
         25    2    1    2    0    0 -0.25447644023E+02 -0.90462556844E+00  0.15105771600E+03  0.19777093642E+03  0.12508600560E+03 0.  0.
         23    2    1    2    0    0  0.25447644023E+02  0.90462556844E+00  0.16791310900E+03  0.19274778878E+03  0.91150957068E+02 0.  0.
          5    1    3    3  502    0  0.41613226725E+02 -0.22967268239E+02  0.26610388403E+02  0.54632785210E+02  0.41800000000E+01 0.  1.
         -5    1    3    3    0  502 -0.67060870748E+02  0.22062642671E+02  0.12444732760E+03  0.14313815121E+03  0.41800000000E+01 0.  1.
        -11    1    4    4    0    0 -0.13174941656E+02  0.34508743984E+02  0.37460223981E+02  0.52608942963E+02  0.00000000000E+00 0. -1.
         11    1    4    4    0    0  0.38622585679E+02 -0.33604118416E+02  0.13045288502E+03  0.14013884582E+03  0.00000000000E+00 0.  1.
</event>
<event>
 8    1  0.3528896E-009  0.8315587E+02  0.7561462E-02  0.1320327E+00
         -1   -1    0    0    0  501 -0.00000000000E+00  0.00000000000E+00  0.97660046439E+02  0.97660046439E+02  0.00000000000E+00 0. -1.
          1   -1    0    0  501    0  0.00000000000E+00 -0.00000000000E+00 -0.15835332405E+03  0.15835332405E+03  0.00000000000E+00 0.  1.
         25    2    1    2    0    0  0.15207883565E+02  0.42771904290E+01  0.31140571440E+02  0.12987104144E+03  0.12508868108E+03 0.  0.
         23    2    1    2    0    0 -0.15207883565E+02 -0.42771904290E+01 -0.91833849050E+02  0.12614232905E+03  0.85022686778E+02 0.  0.
          5    1    3    3  502    0  0.12454788053E+02  0.51328217548E+02 -0.23180645566E+02  0.57831845820E+02  0.41800000000E+01 0. -1.
         -5    1    3    3    0  502  0.27530955126E+01 -0.47051027119E+02  0.54321217006E+02  0.72039195615E+02  0.41800000000E+01 0. -1.
        -11    1    4    4    0    0 -0.10061781261E+02  0.29849594803E+02 -0.39770627711E+01  0.31749878430E+02  0.00000000000E+00 0. -1.
         11    1    4    4    0    0 -0.51461023040E+01 -0.34126785232E+02 -0.87856786279E+02  0.94392450622E+02  0.00000000000E+00 0.  1.
</event>
<event>
 8    1  0.3528896E-009  0.1243740E+03  0.7561462E-02  0.1236051E+00
          1   -1    0    0  501    0  0.00000000000E+00  0.00000000000E+00  0.37415130033E+03  0.37415130033E+03  0.00000000000E+00 0.  1.
         -1   -1    0    0    0  501 -0.00000000000E+00 -0.00000000000E+00 -0.45216595781E+02  0.45216595781E+02  0.00000000000E+00 0. -1.
         25    2    1    2    0    0  0.62797199970E+02 -0.33142137291E+02  0.18719260593E+03  0.23607160218E+03  0.12508732970E+03 0.  0.
         23    2    1    2    0    0 -0.62797199970E+02  0.33142137291E+02  0.14174209861E+03  0.18329629393E+03  0.92004452395E+02 0.  0.
          5    1    3    3  502    0  0.85684755685E+02  0.17974762950E+02  0.11199912083E+03  0.14221900340E+03  0.41800000000E+01 0. -1.
         -5    1    3    3    0  502 -0.22887555715E+02 -0.51116900241E+02  0.75193485099E+02  0.93852598782E+02  0.41800000000E+01 0. -1.
        -11    1    4    4    0    0 -0.22824667680E+01  0.43483837781E+02  0.99967689073E+02  0.10903940875E+03  0.00000000000E+00 0.  1.
         11    1    4    4    0    0 -0.60514733202E+02 -0.10341700490E+02  0.41774409541E+02  0.74256885176E+02  0.00000000000E+00 0. -1.
</event>
<event>
 8    1  0.3528896E-009  0.3982231E+03  0.7561462E-02  0.1044397E+00
          2   -1    0    0  501    0  0.00000000000E+00  0.00000000000E+00  0.49573842857E+03  0.49573842857E+03  0.00000000000E+00 0. -1.
         -2   -1    0    0    0  501 -0.00000000000E+00 -0.00000000000E+00 -0.34230329414E+03  0.34230329414E+03  0.00000000000E+00 0.  1.
         25    2    1    2    0    0 -0.38874045815E+03  0.45664123256E+02  0.66551194943E+01  0.41097270134E+03  0.12509961901E+03 0.  0.
         23    2    1    2    0    0  0.38874045815E+03 -0.45664123256E+02  0.14678001493E+03  0.42706902136E+03  0.87402633075E+02 0.  0.
          5    1    3    3  502    0 -0.31679145754E+03  0.14997321144E+02  0.50566916776E+02  0.32117944000E+03  0.41800000000E+01 0. -1.
         -5    1    3    3    0  502 -0.71949000616E+02  0.30666802112E+02 -0.43911797282E+02  0.89793261339E+02  0.41800000000E+01 0. -1.
        -11    1    4    4    0    0  0.14930716109E+03  0.24821079562E+02  0.60137816710E+02  0.16286580777E+03  0.00000000000E+00 0.  1.
         11    1    4    4    0    0  0.23943329707E+03 -0.70485202818E+02  0.86642198225E+02  0.26420321359E+03  0.00000000000E+00 0. -1.
</event>
<event>
 8    1  0.3528896E-009  0.1171075E+03  0.7561462E-02  0.1247946E+00
          1   -1    0    0  501    0  0.00000000000E+00  0.00000000000E+00  0.11337947182E+04  0.11337947182E+04  0.00000000000E+00 0.  1.
         -1   -1    0    0    0  501 -0.00000000000E+00 -0.00000000000E+00 -0.19219646279E+02  0.19219646279E+02  0.00000000000E+00 0. -1.
         25    2    1    2    0    0 -0.12360564824E+02 -0.51802455918E+02  0.93046787843E+03  0.94034814019E+03  0.12509146241E+03 0.  0.
         23    2    1    2    0    0  0.12360564824E+02  0.51802455918E+02  0.18410719346E+03  0.21266622425E+03  0.92169334673E+02 0.  0.
          5    1    3    3  502    0  0.10901020017E+02 -0.89601315388E+02  0.67479664803E+03  0.68081951834E+03  0.41800000000E+01 0.  1.
         -5    1    3    3    0  502 -0.23261584841E+02  0.37798859470E+02  0.25567123039E+03  0.25952862185E+03  0.41800000000E+01 0.  1.
        -11    1    4    4    0    0  0.46689907350E+02  0.15216768397E+02  0.12956563552E+03  0.13855955902E+03  0.00000000000E+00 0.  1.
         11    1    4    4    0    0 -0.34329342526E+02  0.36585687521E+02  0.54541557939E+02  0.74106665234E+02  0.00000000000E+00 0. -1.
</event>
<event>
 8    1  0.3528896E-009  0.1554642E+03  0.7561462E-02  0.1193915E+00
         -1   -1    0    0    0  501 -0.00000000000E+00  0.00000000000E+00  0.73872905875E+03  0.73872905875E+03  0.00000000000E+00 0.  1.
          1   -1    0    0  501    0  0.00000000000E+00 -0.00000000000E+00 -0.42471745430E+02  0.42471745430E+02  0.00000000000E+00 0. -1.
         25    2    1    2    0    0  0.86926445199E+02  0.10499665047E+03  0.44735836766E+03  0.48410608114E+03  0.12509470491E+03 0.  0.
         23    2    1    2    0    0 -0.86926445199E+02 -0.10499665047E+03  0.24889894566E+03  0.29709472304E+03  0.87943651418E+02 0.  0.
          5    1    3    3  502    0  0.47640271983E+02  0.11145582400E+03  0.20284923498E+03  0.23634144949E+03  0.41800000000E+01 0.  1.
         -5    1    3    3    0  502  0.39286173216E+02 -0.64591735322E+01  0.24450913269E+03  0.24776463165E+03  0.41800000000E+01 0.  1.
        -11    1    4    4    0    0 -0.67713162218E+02 -0.11052721710E+03  0.15970153088E+03  0.20568402228E+03  0.00000000000E+00 0. -1.
         11    1    4    4    0    0 -0.19213282981E+02  0.55305666300E+01  0.89197414778E+02  0.91410700758E+02  0.00000000000E+00 0.  1.
</event>
<event>
 8    1  0.3528896E-009  0.8106910E+02  0.7561462E-02  0.1326045E+00
         -1   -1    0    0    0  501 -0.00000000000E+00  0.00000000000E+00  0.25026462098E+02  0.25026462098E+02  0.00000000000E+00 0.  1.
          1   -1    0    0  501    0  0.00000000000E+00 -0.00000000000E+00 -0.61435681450E+03  0.61435681450E+03  0.00000000000E+00 0. -1.
         25    2    1    2    0    0  0.28184559252E+01 -0.52577543879E+02 -0.40766622143E+03  0.42966582396E+03  0.12509448575E+03 0.  0.
         23    2    1    2    0    0 -0.28184559252E+01  0.52577543879E+02 -0.18166413097E+03  0.20971745264E+03  0.90593662292E+02 0.  0.
          5    1    3    3  502    0  0.67856840464E+01 -0.40531600275E+01  0.74776428762E+01  0.11655949432E+02  0.41800000000E+01 0.  1.
         -5    1    3    3    0  502 -0.39672281212E+01 -0.48524383851E+02 -0.41514386431E+03  0.41800987452E+03  0.41800000000E+01 0.  1.
        -11    1    4    4    0    0 -0.38645159532E+02 -0.23901956900E+01 -0.77021141035E+02  0.86205670098E+02  0.00000000000E+00 0. -1.
         11    1    4    4    0    0  0.35826703607E+02  0.54967739569E+02 -0.10464298994E+03  0.12351178254E+03  0.00000000000E+00 0.  1.
</event>
<event>
 8    1  0.3528896E-009  0.1010894E+03  0.7561462E-02  0.1278022E+00
         -2   -1    0    0    0  501 -0.00000000000E+00  0.00000000000E+00  0.15873569831E+03  0.15873569831E+03  0.00000000000E+00 0.  1.
          2   -1    0    0  501    0  0.00000000000E+00 -0.00000000000E+00 -0.93734034545E+02  0.93734034545E+02  0.00000000000E+00 0. -1.
         25    2    1    2    0    0 -0.28212776820E+02 -0.26303987288E+02 -0.61093400929E+01  0.13104266992E+03  0.12508795618E+03 0.  0.
         23    2    1    2    0    0  0.28212776820E+02  0.26303987288E+02  0.71111003858E+02  0.12142706294E+03  0.90553278352E+02 0.  0.
          5    1    3    3  502    0 -0.73596120700E+02 -0.23782356970E+02  0.17857347094E+02  0.79488028849E+02  0.41800000000E+01 0.  1.
         -5    1    3    3    0  502  0.45383343880E+02 -0.25216303175E+01 -0.23966687187E+02  0.51554641071E+02  0.41800000000E+01 0.  1.
        -11    1    4    4    0    0 -0.17351092395E+02 -0.10695857819E+02  0.57735342066E+02  0.61227702107E+02  0.00000000000E+00 0.  1.
         11    1    4    4    0    0  0.45563869215E+02  0.36999845107E+02  0.13375661792E+02  0.60199360828E+02  0.00000000000E+00 0. -1.
</event>
<event>
 8    1  0.3528896E-009  0.9168799E+02  0.7561462E-02  0.1298815E+00
         -3   -1    0    0    0  501 -0.00000000000E+00  0.00000000000E+00  0.10933439879E+03  0.10933439879E+03  0.00000000000E+00 0.  1.
          3   -1    0    0  501    0  0.00000000000E+00 -0.00000000000E+00 -0.11460239264E+03  0.11460239264E+03  0.00000000000E+00 0. -1.
         25    2    1    2    0    0  0.16219548031E+02  0.49267461082E+01  0.31310037138E+02  0.13005386028E+03  0.12508533720E+03 0.  0.
         23    2    1    2    0    0 -0.16219548031E+02 -0.49267461082E+01 -0.36578030995E+02  0.93882931147E+02  0.84786236169E+02 0.  0.
          5    1    3    3  502    0 -0.47323122452E+02 -0.21673204218E+02  0.31611874170E+02  0.61040877191E+02  0.41800000000E+01 0.  1.
         -5    1    3    3    0  502  0.63542670483E+02  0.26599950326E+02 -0.30183703209E+00  0.69012983091E+02  0.41800000000E+01 0.  1.
        -11    1    4    4    0    0  0.22445881743E+02 -0.67464127357E+01  0.16156501175E+02  0.28466896955E+02  0.00000000000E+00 0.  1.
         11    1    4    4    0    0 -0.38665429774E+02  0.18196666276E+01 -0.52734532170E+02  0.65416034192E+02  0.00000000000E+00 0. -1.
</event>
<event>
 8    1  0.3528896E-009  0.8406346E+02  0.7561462E-02  0.1317900E+00
          2   -1    0    0  501    0  0.00000000000E+00  0.00000000000E+00  0.47215221700E+03  0.47215221700E+03  0.00000000000E+00 0.  1.
         -2   -1    0    0    0  501 -0.00000000000E+00 -0.00000000000E+00 -0.33981189567E+02  0.33981189567E+02  0.00000000000E+00 0. -1.
         25    2    1    2    0    0 -0.84131608645E+01 -0.64630645236E+02  0.25589887855E+03  0.29219834519E+03  0.12509090817E+03 0.  0.
         23    2    1    2    0    0  0.84131608645E+01  0.64630645236E+02  0.18227214888E+03  0.21393506138E+03  0.91088817370E+02 0.  0.
          5    1    3    3  502    0  0.22157475332E+02 -0.22539266298E+02  0.87985830746E+00  0.31893867577E+02  0.41800000000E+01 0.  1.
         -5    1    3    3    0  502 -0.30570636197E+02 -0.42091378938E+02  0.25501902025E+03  0.26030447761E+03  0.41800000000E+01 0.  1.
        -11    1    4    4    0    0  0.30440576750E+02  0.28267030900E+02  0.19848349558E+02  0.46039230325E+02  0.00000000000E+00 0. -1.
         11    1    4    4    0    0 -0.22027415886E+02  0.36363614336E+02  0.16242379933E+03  0.16789583106E+03  0.00000000000E+00 0.  1.
</event>
<event>
 8    1  0.3528896E-009  0.1076769E+03  0.7561462E-02  0.1264933E+00
          1   -1    0    0  501    0  0.00000000000E+00  0.00000000000E+00  0.19895455710E+02  0.19895455710E+02  0.00000000000E+00 0. -1.
         -1   -1    0    0    0  501 -0.00000000000E+00 -0.00000000000E+00 -0.84031510741E+03  0.84031510741E+03  0.00000000000E+00 0.  1.
         25    2    1    2    0    0  0.44437186554E+02 -0.24407089286E+02 -0.61450577942E+03  0.62915586456E+03  0.12509747965E+03 0.  0.
         23    2    1    2    0    0 -0.44437186554E+02  0.24407089286E+02 -0.20591387228E+03  0.23105469856E+03  0.91735387790E+02 0.  0.
          5    1    3    3  502    0  0.25858613548E+02 -0.73353332344E+02 -0.44276590083E+03  0.44956478354E+03  0.41800000000E+01 0.  1.
         -5    1    3    3    0  502  0.18578573006E+02  0.48946243058E+02 -0.17173987859E+03  0.17959108102E+03  0.41800000000E+01 0.  1.
        -11    1    4    4    0    0 -0.33075345363E+02 -0.20304867854E+02 -0.29613222309E+02  0.48818122300E+02  0.00000000000E+00 0. -1.
         11    1    4    4    0    0 -0.11361841192E+02  0.44711957140E+02 -0.17630064997E+03  0.18223657626E+03  0.00000000000E+00 0.  1.
</event>
<event>
 8    1  0.3528896E-009  0.2706577E+03  0.7561462E-02  0.1100904E+00
         -2   -1    0    0    0  501 -0.00000000000E+00  0.00000000000E+00  0.36830802582E+03  0.36830802582E+03  0.00000000000E+00 0.  1.
          2   -1    0    0  501    0  0.00000000000E+00 -0.00000000000E+00 -0.21825986798E+03  0.21825986798E+03  0.00000000000E+00 0. -1.
         25    2    1    2    0    0  0.13994711074E+03 -0.21992363639E+03  0.56400855681E+02  0.29458840326E+03  0.12509864574E+03 0.  0.
         23    2    1    2    0    0 -0.13994711074E+03  0.21992363639E+03  0.93647302158E+02  0.29197949054E+03  0.92361280021E+02 0.  0.
          5    1    3    3  502    0  0.45173442087E+02 -0.36236361800E+02 -0.35811636017E+02  0.68217735676E+02  0.41800000000E+01 0. -1.
         -5    1    3    3    0  502  0.94773668652E+02 -0.18368727459E+03  0.92212491698E+02  0.22637066759E+03  0.41800000000E+01 0. -1.
        -11    1    4    4    0    0 -0.14446762652E+03  0.15670993112E+03  0.74224115662E+02  0.22569474289E+03  0.00000000000E+00 0.  1.
         11    1    4    4    0    0  0.45205157782E+01  0.63213705277E+02  0.19423186497E+02  0.66284747653E+02  0.00000000000E+00 0. -1.
</event>
<event>
 8    1  0.3528896E-009  0.9812227E+02  0.7561462E-02  0.1284295E+00
          1   -1    0    0  501    0  0.00000000000E+00  0.00000000000E+00  0.31958948658E+03  0.31958948658E+03  0.00000000000E+00 0. -1.
         -1   -1    0    0    0  501 -0.00000000000E+00 -0.00000000000E+00 -0.37624265513E+02  0.37624265513E+02  0.00000000000E+00 0.  1.
         25    2    1    2    0    0  0.14814535174E+02 -0.15603694264E+01  0.14113786157E+03  0.18918404285E+03  0.12509516735E+03 0.  0.
         23    2    1    2    0    0 -0.14814535174E+02  0.15603694264E+01  0.14082735950E+03  0.16802970925E+03  0.90441875262E+02 0.  0.
          5    1    3    3  502    0 -0.49220769247E+02 -0.27417473145E+02  0.69938523592E+02  0.89907015528E+02  0.41800000000E+01 0. -1.
         -5    1    3    3    0  502  0.64035304422E+02  0.25857103719E+02  0.71199337974E+02  0.99277027318E+02  0.41800000000E+01 0. -1.
        -11    1    4    4    0    0  0.25968627499E+02 -0.10534325002E+02  0.11477592353E+03  0.11814759515E+03  0.00000000000E+00 0. -1.
         11    1    4    4    0    0 -0.40783162673E+02  0.12094694428E+02  0.26051435975E+02  0.49882114102E+02  0.00000000000E+00 0.  1.
</event>
<event>
 8    1  0.3528896E-009  0.1253356E+03  0.7561462E-02  0.1234546E+00
          2   -1    0    0  501    0  0.00000000000E+00  0.00000000000E+00  0.10389624618E+04  0.10389624618E+04  0.00000000000E+00 0. -1.
         -2   -1    0    0    0  501 -0.00000000000E+00 -0.00000000000E+00 -0.19716260362E+02  0.19716260362E+02  0.00000000000E+00 0.  1.
         25    2    1    2    0    0  0.49835734872E+02  0.53740004337E+02  0.76981695631E+03  0.78335029317E+03  0.12509175455E+03 0.  0.
         23    2    1    2    0    0 -0.49835734872E+02 -0.53740004337E+02  0.24942924512E+03  0.27532842898E+03  0.90659841977E+02 0.  0.
          5    1    3    3  502    0  0.75978969469E+02  0.71017176006E+02  0.44556345688E+03  0.45755929627E+03  0.41800000000E+01 0. -1.
         -5    1    3    3    0  502 -0.26143234597E+02 -0.17277171668E+02  0.32425349943E+03  0.32579099691E+03  0.41800000000E+01 0. -1.
        -11    1    4    4    0    0  0.23759122483E+02  0.14423583386E+00  0.72131550707E+02  0.75943908989E+02  0.00000000000E+00 0. -1.
         11    1    4    4    0    0 -0.73594857355E+02 -0.53884240171E+02  0.17729769441E+03  0.19938451999E+03  0.00000000000E+00 0.  1.
</event>
<event>
 8    1  0.3528896E-009  0.1385355E+03  0.7561462E-02  0.1215313E+00
          1   -1    0    0  501    0  0.00000000000E+00  0.00000000000E+00  0.24509213025E+03  0.24509213025E+03  0.00000000000E+00 0. -1.
         -1   -1    0    0    0  501 -0.00000000000E+00 -0.00000000000E+00 -0.10114814200E+03  0.10114814200E+03  0.00000000000E+00 0.  1.
         25    2    1    2    0    0 -0.96877306285E+02  0.53473447615E+02  0.47818506818E+02  0.17369292938E+03  0.12505199738E+03 0.  0.
         23    2    1    2    0    0  0.96877306285E+02 -0.53473447615E+02  0.96125481429E+02  0.17254734287E+03  0.91037658569E+02 0.  0.
          5    1    3    3  502    0 -0.29547503460E+02  0.73214859999E+02 -0.13753017307E+02  0.80250162433E+02  0.41800000000E+01 0. -1.
         -5    1    3    3    0  502 -0.67329802825E+02 -0.19741412384E+02  0.61571524125E+02  0.93442766946E+02  0.41800000000E+01 0. -1.
        -11    1    4    4    0    0  0.94475966647E+02 -0.23110386849E+02  0.33432136472E+02  0.10284700289E+03  0.00000000000E+00 0.  1.
         11    1    4    4    0    0  0.24013396377E+01 -0.30363060766E+02  0.62693344957E+02  0.69700339978E+02  0.00000000000E+00 0. -1.
</event>
<event>
 8    1  0.3528896E-009  0.9100558E+02  0.7561462E-02  0.1300435E+00
          1   -1    0    0  501    0  0.00000000000E+00  0.00000000000E+00  0.22710885081E+02  0.22710885081E+02  0.00000000000E+00 0. -1.
         -1   -1    0    0    0  501 -0.00000000000E+00 -0.00000000000E+00 -0.71133656886E+03  0.71133656886E+03  0.00000000000E+00 0.  1.
         25    2    1    2    0    0 -0.18866031409E+02 -0.87582809320E+01 -0.56172098137E+03  0.57585670155E+03  0.12509134738E+03 0.  0.
         23    2    1    2    0    0  0.18866031409E+02  0.87582809320E+01 -0.12690470241E+03  0.15819075239E+03  0.92124242309E+02 0.  0.
          5    1    3    3  502    0 -0.45032338459E+02 -0.49104605990E+02 -0.19810459273E+03  0.20905041472E+03  0.41800000000E+01 0.  1.
         -5    1    3    3    0  502  0.26166307049E+02  0.40346325058E+02 -0.36361638864E+03  0.36680628683E+03  0.41800000000E+01 0.  1.
        -11    1    4    4    0    0 -0.13752155097E+02 -0.19476429742E+02 -0.10883906435E+03  0.11141990403E+03  0.00000000000E+00 0.  1.
         11    1    4    4    0    0  0.32618186506E+02  0.28234710674E+02 -0.18065638063E+02  0.46770848361E+02  0.00000000000E+00 0. -1.
</event>
<event>
 8    1  0.3528896E-009  0.1074868E+03  0.7561462E-02  0.1265296E+00
         -2   -1    0    0    0  501 -0.00000000000E+00  0.00000000000E+00  0.24288714523E+02  0.24288714523E+02  0.00000000000E+00 0.  1.
          2   -1    0    0  501    0  0.00000000000E+00 -0.00000000000E+00 -0.50636506481E+03  0.50636506481E+03  0.00000000000E+00 0. -1.
         25    2    1    2    0    0 -0.97386053690E+01 -0.16187622529E+02 -0.31777843103E+03  0.34203454814E+03  0.12509045260E+03 0.  0.
         23    2    1    2    0    0  0.97386053690E+01  0.16187622529E+02 -0.16429791925E+03  0.18861923120E+03  0.90700212502E+02 0.  0.
          5    1    3    3  502    0  0.60878388477E+01  0.53708915263E+02 -0.12175947037E+03  0.13328372139E+03  0.41800000000E+01 0.  1.
         -5    1    3    3    0  502 -0.15826444217E+02 -0.69896537792E+02 -0.19601896066E+03  0.20875082675E+03  0.41800000000E+01 0.  1.
        -11    1    4    4    0    0  0.47023182242E+02 -0.28471334847E+01 -0.11287320557E+03  0.12230963320E+03  0.00000000000E+00 0. -1.
         11    1    4    4    0    0 -0.37284576873E+02  0.19034756014E+02 -0.51424713680E+02  0.66309597994E+02  0.00000000000E+00 0.  1.
</event>
<event>
 8    1  0.3528896E-009  0.1587134E+03  0.7561462E-02  0.1190157E+00
          2   -1    0    0  501    0  0.00000000000E+00  0.00000000000E+00  0.35348840282E+03  0.35348840282E+03  0.00000000000E+00 0. -1.
         -2   -1    0    0    0  501 -0.00000000000E+00 -0.00000000000E+00 -0.78649028521E+02  0.78649028521E+02  0.00000000000E+00 0.  1.
         25    2    1    2    0    0 -0.33048465324E+02 -0.11911670445E+03  0.18034093264E+03  0.25189179016E+03  0.12508249927E+03 0.  0.
         23    2    1    2    0    0  0.33048465324E+02  0.11911670445E+03  0.94498441652E+02  0.18024564118E+03  0.90981016430E+02 0.  0.
          5    1    3    3  502    0 -0.64481327538E+02 -0.11722912078E+03  0.17394650092E+03  0.21948887430E+03  0.41800000000E+01 0.  1.
         -5    1    3    3    0  502  0.31432862214E+02 -0.18875836719E+01  0.63944317263E+01  0.32402915860E+02  0.41800000000E+01 0.  1.
        -11    1    4    4    0    0 -0.17121491764E+02  0.94279756246E+02  0.46518618379E+02  0.10651666430E+03  0.00000000000E+00 0.  1.
         11    1    4    4    0    0  0.50169957088E+02  0.24836948203E+02  0.47979823273E+02  0.73728976878E+02  0.00000000000E+00 0. -1.
</event>
<event>
 7    1  0.3528896E-009  0.1328445E+03  0.7561462E-02  0.1223295E+00
          2   -1    0    0  501    0  0.00000000000E+00  0.00000000000E+00  0.37918727595E+03  0.37918727595E+03  0.00000000000E+00 0.  1.
         -2   -1    0    0    0  501 -0.00000000000E+00 -0.00000000000E+00 -0.66078805233E+02  0.66078805233E+02  0.00000000000E+00 0. -1.
         25    2    1    2    0    0 -0.39328212252E+02 -0.16665176723E+02  0.13784675235E+03  0.19097904545E+03  0.12508729860E+03 0.  0.
          5    1    3    3  502    0 -0.16581766657E+02 -0.65876805986E+02  0.11132271221E+03  0.13047960456E+03  0.41800000000E+01 0. -1.
         -5    1    3    3    0  502 -0.22746445594E+02  0.49211629264E+02  0.26524040141E+02  0.60499440885E+02  0.41800000000E+01 0. -1.
        -11    1    1    2    0    0  0.60266502524E+02 -0.46876652339E+02  0.17097360608E+03  0.18724701823E+03  0.00000000000E+00 0.  1.
         11    1    1    2    0    0 -0.20938290273E+02  0.63541829062E+02  0.42881122862E+01  0.67040017505E+02  0.00000000000E+00 0. -1.
</event>
<event>
 8    1  0.3528896E-009  0.6571468E+02  0.7561462E-02  0.1375303E+00
         -1   -1    0    0    0  501 -0.00000000000E+00  0.00000000000E+00  0.38192739590E+03  0.38192739590E+03  0.00000000000E+00 0.  1.
          1   -1    0    0  501    0  0.00000000000E+00 -0.00000000000E+00 -0.35496109418E+02  0.35496109418E+02  0.00000000000E+00 0. -1.
         25    2    1    2    0    0 -0.16943207929E+02 -0.13960507171E+02  0.18028420605E+03  0.22052634233E+03  0.12508998623E+03 0.  0.
         23    2    1    2    0    0  0.16943207929E+02  0.13960507171E+02  0.16614708044E+03  0.19689716299E+03  0.10335217657E+03 0.  0.
          5    1    3    3  502    0 -0.18024835771E+02 -0.10030952686E+02 -0.14561339403E+02  0.25593353074E+02  0.41800000000E+01 0.  1.
         -5    1    3    3    0  502  0.10816278417E+01 -0.39295544854E+01  0.19484554545E+03  0.19493298925E+03  0.41800000000E+01 0.  1.
        -11    1    4    4    0    0 -0.43304495096E+02  0.75264621468E+01  0.56049564039E+02  0.71228369046E+02  0.00000000000E+00 0.  1.
         11    1    4    4    0    0  0.60247703025E+02  0.64340450244E+01  0.11009751640E+03  0.12566879395E+03  0.00000000000E+00 0. -1.
</event>
<event>
 8    1  0.3528896E-009  0.1318486E+03  0.7561462E-02  0.1224738E+00
         -3   -1    0    0    0  501 -0.00000000000E+00  0.00000000000E+00  0.31362248950E+03  0.31362248950E+03  0.00000000000E+00 0.  1.
          3   -1    0    0  501    0  0.00000000000E+00 -0.00000000000E+00 -0.80990595847E+02  0.80990595847E+02  0.00000000000E+00 0. -1.
         25    2    1    2    0    0 -0.24178480399E+02  0.10697582843E+03  0.17367058809E+03  0.24049407074E+03  0.12508996007E+03 0.  0.
         23    2    1    2    0    0  0.24178480399E+02 -0.10697582843E+03  0.58961305562E+02  0.15411901461E+03  0.90817445064E+02 0.  0.
          5    1    3    3  502    0  0.17380862316E+02  0.34933171551E+02 -0.85361064415E+01  0.40159162873E+02  0.41800000000E+01 0. -1.
         -5    1    3    3    0  502 -0.41559342715E+02  0.72042656878E+02  0.18220669453E+03  0.20033490787E+03  0.41800000000E+01 0. -1.
        -11    1    4    4    0    0  0.44599626409E+02 -0.11165235349E+03  0.42660931312E+02  0.12757480071E+03  0.00000000000E+00 0.  1.
         11    1    4    4    0    0 -0.20421146010E+02  0.46765250578E+01  0.16300374251E+02  0.26544213902E+02  0.00000000000E+00 0. -1.
</event>
<event>
 8    1  0.3528896E-009  0.2334057E+03  0.7561462E-02  0.1124265E+00
         -2   -1    0    0    0  501 -0.00000000000E+00  0.00000000000E+00  0.80290740921E+02  0.80290740921E+02  0.00000000000E+00 0.  1.
          2   -1    0    0  501    0  0.00000000000E+00 -0.00000000000E+00 -0.11264862160E+04  0.11264862160E+04  0.00000000000E+00 0. -1.
         25    2    1    2    0    0  0.18225551604E+03  0.10628261878E+03 -0.16398315758E+03  0.29504623422E+03  0.12509490866E+03 0.  0.
         23    2    1    2    0    0 -0.18225551604E+03 -0.10628261878E+03 -0.88221231753E+03  0.91173072274E+03  0.91876381061E+02 0.  0.
          5    1    3    3  502    0  0.71406308614E+02 -0.14442987850E+02 -0.17159723095E+02  0.74962586032E+02  0.41800000000E+01 0.  1.
         -5    1    3    3    0  502  0.11084920743E+03  0.12072560663E+03 -0.14682343449E+03  0.22008364819E+03  0.41800000000E+01 0.  1.
        -11    1    4    4    0    0 -0.51116664172E+02  0.12860687139E+02 -0.18564841655E+03  0.19298612695E+03  0.00000000000E+00 0.  1.
         11    1    4    4    0    0 -0.13113885187E+03 -0.11914330592E+03 -0.69656390099E+03  0.71874459579E+03  0.00000000000E+00 0. -1.
</event>
<event>
 8    1  0.3528896E-009  0.8640809E+02  0.7561462E-02  0.1311791E+00
         -1   -1    0    0    0  501 -0.00000000000E+00  0.00000000000E+00  0.29237418017E+03  0.29237418017E+03  0.00000000000E+00 0.  1.
          1   -1    0    0  501    0  0.00000000000E+00 -0.00000000000E+00 -0.35877689113E+02  0.35877689113E+02  0.00000000000E+00 0. -1.
         25    2    1    2    0    0 -0.48971243414E+01 -0.68179340575E+01  0.16514953363E+03  0.20735138193E+03  0.12509900510E+03 0.  0.
         23    2    1    2    0    0  0.48971243414E+01  0.68179340575E+01  0.91346957426E+02  0.12090048735E+03  0.78754016786E+02 0.  0.
          5    1    3    3  502    0 -0.44796802405E+02  0.28221764760E+02  0.13736482743E+03  0.14727453862E+03  0.41800000000E+01 0.  1.
         -5    1    3    3    0  502  0.39899678063E+02 -0.35039698817E+02  0.27784706199E+02  0.60076843304E+02  0.41800000000E+01 0.  1.
        -11    1    4    4    0    0 -0.15537904732E+02 -0.24519826097E+02  0.74336009202E+02  0.79802823380E+02  0.00000000000E+00 0.  1.
         11    1    4    4    0    0  0.20435029073E+02  0.31337760154E+02  0.17010948223E+02  0.41097663974E+02  0.00000000000E+00 0. -1.
</event>
<event>
 8    1  0.3528896E-009  0.1364170E+03  0.7561462E-02  0.1218233E+00
          2   -1    0    0  501    0  0.00000000000E+00  0.00000000000E+00  0.68291960550E+03  0.68291960550E+03  0.00000000000E+00 0. -1.
         -2   -1    0    0    0  501 -0.00000000000E+00 -0.00000000000E+00 -0.34240732347E+02  0.34240732347E+02  0.00000000000E+00 0.  1.
         25    2    1    2    0    0 -0.40756263189E+02  0.85986686703E+02  0.46712574002E+03  0.49285567475E+03  0.12508187664E+03 0.  0.
         23    2    1    2    0    0  0.40756263189E+02 -0.85986686703E+02  0.18155313314E+03  0.22430466311E+03  0.91083799101E+02 0.  0.
          5    1    3    3  502    0  0.18736481615E+02 -0.23298820812E+02  0.60768835547E+02  0.67854362928E+02  0.41800000000E+01 0. -1.
         -5    1    3    3    0  502 -0.59492744803E+02  0.10928550752E+03  0.40635690447E+03  0.42500131182E+03  0.41800000000E+01 0. -1.
        -11    1    4    4    0    0  0.48845614361E+02 -0.21865826908E+02  0.13332346739E+03  0.14366334044E+03  0.00000000000E+00 0.  1.
         11    1    4    4    0    0 -0.80893511720E+01 -0.64120859795E+02  0.48229665747E+02  0.80641322666E+02  0.00000000000E+00 0. -1.
</event>
<event>
 8    1  0.3528896E-009  0.1409942E+03  0.7561462E-02  0.1211997E+00
         -2   -1    0    0    0  501 -0.00000000000E+00  0.00000000000E+00  0.55800568342E+02  0.55800568342E+02  0.00000000000E+00 0.  1.
          2   -1    0    0  501    0  0.00000000000E+00 -0.00000000000E+00 -0.39535049153E+03  0.39535049153E+03  0.00000000000E+00 0. -1.
         25    2    1    2    0    0  0.89608827218E+02  0.57764282291E+02 -0.14414448045E+03  0.21861469890E+03  0.12509316970E+03 0.  0.
         23    2    1    2    0    0 -0.89608827218E+02 -0.57764282291E+02 -0.19540544274E+03  0.23253636098E+03  0.67256359540E+02 0.  0.
          5    1    3    3  502    0  0.52889758850E+02  0.93129338037E+02 -0.12331665962E+03  0.16338565156E+03  0.41800000000E+01 0.  1.
         -5    1    3    3    0  502  0.36719068368E+02 -0.35365055746E+02 -0.20827820823E+02  0.55229047339E+02  0.41800000000E+01 0.  1.
        -11    1    4    4    0    0  0.71129728954E+01 -0.17495297444E+02 -0.48928949379E+02  0.52447325036E+02  0.00000000000E+00 0.  1.
         11    1    4    4    0    0 -0.96721800114E+02 -0.40268984848E+02 -0.14647649336E+03  0.18008903594E+03  0.00000000000E+00 0. -1.
</event>
<event>
 8    1  0.3528896E-009  0.1018081E+03  0.7561462E-02  0.1276539E+00
          4   -1    0    0  501    0  0.00000000000E+00  0.00000000000E+00  0.35775018386E+03  0.35775018386E+03  0.00000000000E+00 0. -1.
         -4   -1    0    0    0  501 -0.00000000000E+00 -0.00000000000E+00 -0.42355545649E+02  0.42355545649E+02  0.00000000000E+00 0.  1.
         25    2    1    2    0    0  0.22899421711E+02 -0.30433130062E+02  0.24592165594E+03  0.27852454449E+03  0.12509157487E+03 0.  0.
         23    2    1    2    0    0 -0.22899421711E+02  0.30433130062E+02  0.69472982274E+02  0.12158118502E+03  0.92222179357E+02 0.  0.
          5    1    3    3  502    0 -0.35359566873E+02 -0.28765395730E+02  0.19720549601E+03  0.20244808475E+03  0.41800000000E+01 0.  1.
         -5    1    3    3    0  502  0.58258988584E+02 -0.16677343321E+01  0.48716159929E+02  0.76076459742E+02  0.41800000000E+01 0.  1.
        -11    1    4    4    0    0 -0.50602030786E+02  0.45347161147E+02  0.52241132250E+02  0.85709196954E+02  0.00000000000E+00 0. -1.
         11    1    4    4    0    0  0.27702609075E+02 -0.14914031085E+02  0.17231850024E+02  0.35871988068E+02  0.00000000000E+00 0.  1.
</event>
<event>
 8    1  0.3528896E-009  0.1301337E+03  0.7561462E-02  0.1227257E+00
          4   -1    0    0  501    0  0.00000000000E+00  0.00000000000E+00  0.49281850395E+02  0.49281850395E+02  0.00000000000E+00 0. -1.
         -4   -1    0    0    0  501 -0.00000000000E+00 -0.00000000000E+00 -0.42573487153E+03  0.42573487153E+03  0.00000000000E+00 0.  1.
         25    2    1    2    0    0 -0.68539975095E+02  0.65080456501E+02 -0.22711001818E+03  0.27596882162E+03  0.12508651465E+03 0.  0.
         23    2    1    2    0    0  0.68539975095E+02 -0.65080456501E+02 -0.14934300296E+03  0.19904790030E+03  0.91561673631E+02 0.  0.
          5    1    3    3  502    0 -0.48314984710E+02 -0.12094790070E+02 -0.19733170632E+02  0.53735389806E+02  0.41800000000E+01 0.  1.
         -5    1    3    3    0  502 -0.20224990385E+02  0.77175246571E+02 -0.20737684754E+03  0.22223343181E+03  0.41800000000E+01 0.  1.
        -11    1    4    4    0    0  0.30632709885E+02 -0.82995573630E+02 -0.88310944624E+02  0.12500180438E+03  0.00000000000E+00 0. -1.
         11    1    4    4    0    0  0.37907265210E+02  0.17915117129E+02 -0.61032058336E+02  0.74046095928E+02  0.00000000000E+00 0.  1.
</event>
<event>
 8    1  0.3528896E-009  0.1012364E+03  0.7561462E-02  0.1277717E+00
         -1   -1    0    0    0  501 -0.00000000000E+00  0.00000000000E+00  0.50639625488E+02  0.50639625488E+02  0.00000000000E+00 0.  1.
          1   -1    0    0  501    0  0.00000000000E+00 -0.00000000000E+00 -0.24302417735E+03  0.24302417735E+03  0.00000000000E+00 0. -1.
         25    2    1    2    0    0  0.22179232569E+02 -0.72346798659E+01 -0.10567517898E+03  0.16540675144E+03  0.12509153056E+03 0.  0.
         23    2    1    2    0    0 -0.22179232569E+02  0.72346798659E+01 -0.86709372875E+02  0.12825705140E+03  0.91581094875E+02 0.  0.
          5    1    3    3  502    0 -0.11043399634E+02 -0.51297248433E+02 -0.95630654125E+02  0.10916070163E+03  0.41800000000E+01 0.  1.
         -5    1    3    3    0  502  0.33222632202E+02  0.44062568568E+02 -0.10044524859E+02  0.56246049807E+02  0.41800000000E+01 0.  1.
        -11    1    4    4    0    0 -0.56222442902E+02 -0.87217595613E+01 -0.53276961005E+02  0.77945280484E+02  0.00000000000E+00 0. -1.
         11    1    4    4    0    0  0.34043210333E+02  0.15956439427E+02 -0.33432411869E+02  0.50311770913E+02  0.00000000000E+00 0.  1.
</event>
<event>
 8    1  0.3528896E-009  0.2579035E+03  0.7561462E-02  0.1108409E+00
         -1   -1    0    0    0  501 -0.00000000000E+00  0.00000000000E+00  0.16179567383E+04  0.16179567383E+04  0.00000000000E+00 0.  1.
          1   -1    0    0  501    0  0.00000000000E+00 -0.00000000000E+00 -0.43026477193E+02  0.43026477193E+02  0.00000000000E+00 0. -1.
         25    2    1    2    0    0 -0.23999910633E+03  0.38215077141E+02  0.80209784620E+03  0.84738890122E+03  0.12508809648E+03 0.  0.
         23    2    1    2    0    0  0.23999910633E+03 -0.38215077141E+02  0.77283241488E+03  0.81359431424E+03  0.74871914035E+02 0.  0.
          5    1    3    3  502    0  0.54048475234E+01  0.21092920582E+02  0.12554620943E+03  0.12748900650E+03  0.41800000000E+01 0.  1.
         -5    1    3    3    0  502 -0.24540395386E+03  0.17122156559E+02  0.67655163677E+03  0.71989989472E+03  0.41800000000E+01 0.  1.
        -11    1    4    4    0    0  0.20045369660E+03 -0.13375310378E+02  0.68830265728E+03  0.71702240650E+03  0.00000000000E+00 0.  1.
         11    1    4    4    0    0  0.39545409736E+02 -0.24839766763E+02  0.84529757598E+02  0.96571907735E+02  0.00000000000E+00 0. -1.
</event>
<event>
 8    1  0.3528896E-009  0.1845978E+03  0.7561462E-02  0.1163426E+00
          2   -1    0    0  501    0  0.00000000000E+00  0.00000000000E+00  0.70928547543E+03  0.70928547543E+03  0.00000000000E+00 0. -1.
         -2   -1    0    0    0  501 -0.00000000000E+00 -0.00000000000E+00 -0.10655712146E+03  0.10655712146E+03  0.00000000000E+00 0.  1.
         25    2    1    2    0    0  0.14430805767E+03 -0.76549383741E+02  0.23713212302E+02  0.20711221861E+03  0.12509408858E+03 0.  0.
         23    2    1    2    0    0 -0.14430805767E+03  0.76549383741E+02  0.57901514167E+03  0.60873037829E+03  0.92787474918E+02 0.  0.
          5    1    3    3  502    0  0.11392775929E+01 -0.32837349783E+02 -0.33212855592E+02  0.46905817025E+02  0.41800000000E+01 0. -1.
         -5    1    3    3    0  502  0.14316878008E+03 -0.43712033958E+02  0.56926067894E+02  0.16020640158E+03  0.41800000000E+01 0. -1.
        -11    1    4    4    0    0 -0.82673913153E+02 -0.64680995101E+01  0.29694709682E+03  0.30830892063E+03  0.00000000000E+00 0. -1.
         11    1    4    4    0    0 -0.61634144520E+02  0.83017483251E+02  0.28206804485E+03  0.30042145766E+03  0.00000000000E+00 0.  1.
</event>
<event>
 8    1  0.3528896E-009  0.1160319E+03  0.7561462E-02  0.1249791E+00
         -1   -1    0    0    0  501 -0.00000000000E+00  0.00000000000E+00  0.43696794458E+02  0.43696794458E+02  0.00000000000E+00 0.  1.
          1   -1    0    0  501    0  0.00000000000E+00 -0.00000000000E+00 -0.39851371353E+03  0.39851371353E+03  0.00000000000E+00 0. -1.
         25    2    1    2    0    0 -0.75730756781E+02  0.30894191014E+01 -0.19506604396E+03  0.24381033998E+03  0.12509207945E+03 0.  0.
         23    2    1    2    0    0  0.75730756781E+02 -0.30894191014E+01 -0.15975087511E+03  0.19840016800E+03  0.89986624192E+02 0.  0.
          5    1    3    3  502    0  0.21564474060E+02  0.36601950701E+02 -0.47555892849E+02  0.63904340082E+02  0.41800000000E+01 0.  1.
         -5    1    3    3    0  502 -0.97295230841E+02 -0.33512531599E+02 -0.14751015112E+03  0.17990599990E+03  0.41800000000E+01 0.  1.
        -11    1    4    4    0    0  0.67693026767E+02  0.12508920774E+02 -0.16605202973E+03  0.17975565513E+03  0.00000000000E+00 0. -1.
         11    1    4    4    0    0  0.80377300146E+01 -0.15598339876E+02  0.63011546288E+01  0.18644512874E+02  0.00000000000E+00 0.  1.
</event>
<event>
 8    1  0.3528896E-009  0.7410732E+02  0.7561462E-02  0.1346658E+00
         -1   -1    0    0    0  501 -0.00000000000E+00  0.00000000000E+00  0.58881349080E+02  0.58881349080E+02  0.00000000000E+00 0. -1.
          1   -1    0    0  501    0  0.00000000000E+00 -0.00000000000E+00 -0.29705893721E+03  0.29705893721E+03  0.00000000000E+00 0.  1.
         25    2    1    2    0    0  0.19877943216E+02  0.15628443333E+02 -0.36608838926E+02  0.13276992333E+03  0.12509302373E+03 0.  0.
         23    2    1    2    0    0 -0.19877943216E+02 -0.15628443333E+02 -0.20156874920E+03  0.22317036296E+03  0.92388686428E+02 0.  0.
          5    1    3    3  502    0  0.32404518921E+02  0.74281700946E-01 -0.79128148977E+02  0.85608379992E+02  0.41800000000E+01 0.  1.
         -5    1    3    3    0  502 -0.12526575705E+02  0.15554161632E+02  0.42519310051E+02  0.47161543339E+02  0.41800000000E+01 0.  1.
        -11    1    4    4    0    0 -0.28369874551E+02 -0.51217314648E+02 -0.13635584158E+03  0.14839467185E+03  0.00000000000E+00 0.  1.
         11    1    4    4    0    0  0.84919313346E+01  0.35588871316E+02 -0.65212907622E+02  0.74775691103E+02  0.00000000000E+00 0. -1.
</event>
<event>
 8    1  0.3528896E-009  0.1060996E+03  0.7561462E-02  0.1267968E+00
          2   -1    0    0  501    0  0.00000000000E+00  0.00000000000E+00  0.21662635601E+03  0.21662635601E+03  0.00000000000E+00 0. -1.
         -2   -1    0    0    0  501 -0.00000000000E+00 -0.00000000000E+00 -0.59967830946E+02  0.59967830946E+02  0.00000000000E+00 0.  1.
         25    2    1    2    0    0  0.36497981251E+01 -0.30638601050E+02  0.11048948040E+03  0.16972717508E+03  0.12508934320E+03 0.  0.
         23    2    1    2    0    0 -0.36497981251E+01  0.30638601050E+02  0.46169044666E+02  0.10686701188E+03  0.91306805013E+02 0.  0.
          5    1    3    3  502    0  0.55592976987E+02  0.12986332700E+02  0.30831212501E+02  0.65017382226E+02  0.41800000000E+01 0. -1.
         -5    1    3    3    0  502 -0.51943178862E+02 -0.43624933749E+02  0.79658267900E+02  0.10470979286E+03  0.41800000000E+01 0. -1.
        -11    1    4    4    0    0  0.36360991931E+02  0.29740901956E+02  0.47525701950E+02  0.66823164616E+02  0.00000000000E+00 0.  1.
         11    1    4    4    0    0 -0.40010790056E+02  0.89769909331E+00 -0.13566572847E+01  0.40043847262E+02  0.00000000000E+00 0. -1.
</event>
<event>
 8    1  0.3528896E-009  0.1704010E+03  0.7561462E-02  0.1177430E+00
          2   -1    0    0  501    0  0.00000000000E+00  0.00000000000E+00  0.19933333999E+03  0.19933333999E+03  0.00000000000E+00 0. -1.
         -2   -1    0    0    0  501 -0.00000000000E+00 -0.00000000000E+00 -0.21950228922E+03  0.21950228922E+03  0.00000000000E+00 0.  1.
         25    2    1    2    0    0  0.75041062042E+02  0.14224610542E+03 -0.87188920105E+02  0.22161778379E+03  0.12508964307E+03 0.  0.
         23    2    1    2    0    0 -0.75041062042E+02 -0.14224610542E+03  0.67019970869E+02  0.19721784542E+03  0.92401767080E+02 0.  0.
          5    1    3    3  502    0  0.77806024658E+02  0.63588971709E+02  0.45448581387E+01  0.10067503629E+03  0.41800000000E+01 0.  1.
         -5    1    3    3    0  502 -0.27649626156E+01  0.78657133709E+02 -0.91733778243E+02  0.12094274750E+03  0.41800000000E+01 0.  1.
        -11    1    4    4    0    0 -0.37252236146E+02 -0.56086927153E+02  0.77373848765E+02  0.10256795293E+03  0.00000000000E+00 0. -1.
         11    1    4    4    0    0 -0.37788825896E+02 -0.86159178265E+02 -0.10353877896E+02  0.94649892495E+02  0.00000000000E+00 0.  1.
</event>
<event>
 8    1  0.3528896E-009  0.1089439E+03  0.7561462E-02  0.1262538E+00
          2   -1    0    0  501    0  0.00000000000E+00  0.00000000000E+00  0.29832110045E+03  0.29832110045E+03  0.00000000000E+00 0. -1.
         -2   -1    0    0    0  501 -0.00000000000E+00 -0.00000000000E+00 -0.68618801313E+02  0.68618801313E+02  0.00000000000E+00 0.  1.
         25    2    1    2    0    0 -0.83950944132E+02 -0.33603537024E+02  0.14519364632E+03  0.21191088146E+03  0.12509223807E+03 0.  0.
         23    2    1    2    0    0  0.83950944132E+02  0.33603537024E+02  0.84508652817E+02  0.15502902031E+03  0.93355910451E+02 0.  0.
          5    1    3    3  502    0 -0.87046957457E+02 -0.15842310763E+02  0.16345453093E+03  0.18591128985E+03  0.41800000000E+01 0.  1.
         -5    1    3    3    0  502  0.30960133244E+01 -0.17761226262E+02 -0.18260884609E+02  0.25999591603E+02  0.41800000000E+01 0.  1.
        -11    1    4    4    0    0  0.42463389136E+02 -0.16674526743E+02 -0.32205561253E+01  0.45733480523E+02  0.00000000000E+00 0.  1.
         11    1    4    4    0    0  0.41487554996E+02  0.50278063767E+02  0.87729208942E+02  0.10929553979E+03  0.00000000000E+00 0. -1.
</event>
<event>
 8    1  0.3528896E-009  0.1862671E+03  0.7561462E-02  0.1161872E+00
         -1   -1    0    0    0  501 -0.00000000000E+00  0.00000000000E+00  0.22756175632E+03  0.22756175632E+03  0.00000000000E+00 0.  1.
          1   -1    0    0  501    0  0.00000000000E+00 -0.00000000000E+00 -0.17873681004E+03  0.17873681004E+03  0.00000000000E+00 0. -1.
         25    2    1    2    0    0  0.44175035061E+02  0.15447680064E+03  0.80816208445E+02  0.21907291182E+03  0.12508863052E+03 0.  0.
         23    2    1    2    0    0 -0.44175035061E+02 -0.15447680064E+03 -0.31991262164E+02  0.18722565454E+03  0.90639335841E+02 0.  0.
          5    1    3    3  502    0  0.51932583788E+02  0.17429988333E+03  0.72797667528E+02  0.19594492947E+03  0.41800000000E+01 0. -1.
         -5    1    3    3    0  502 -0.77575487268E+01 -0.19823082682E+02  0.80185409174E+01  0.23127982353E+02  0.41800000000E+01 0. -1.
        -11    1    4    4    0    0 -0.53427789116E+02 -0.97332651816E+02  0.15809883597E+02  0.11215224554E+03  0.00000000000E+00 0.  1.
         11    1    4    4    0    0  0.92527540553E+01 -0.57144148828E+02 -0.47801145760E+02  0.75073409000E+02  0.00000000000E+00 0. -1.
</event>
<event>
 8    1  0.3528896E-009  0.8694314E+02  0.7561462E-02  0.1310428E+00
          2   -1    0    0  501    0  0.00000000000E+00  0.00000000000E+00  0.46592563430E+03  0.46592563430E+03  0.00000000000E+00 0. -1.
         -2   -1    0    0    0  501 -0.00000000000E+00 -0.00000000000E+00 -0.27733503709E+02  0.27733503709E+02  0.00000000000E+00 0.  1.
         25    2    1    2    0    0 -0.78186189265E+01 -0.29704946976E+02  0.27407955734E+03  0.30283722352E+03  0.12508903037E+03 0.  0.
         23    2    1    2    0    0  0.78186189265E+01  0.29704946976E+02  0.16411257325E+03  0.19082191449E+03  0.92393461210E+02 0.  0.
          5    1    3    3  502    0 -0.39815982642E+02  0.27291264945E+01  0.24579261506E+03  0.24904666756E+03  0.41800000000E+01 0.  1.
         -5    1    3    3    0  502  0.31997363715E+02 -0.32434073470E+02  0.28286942280E+02  0.53790555957E+02  0.41800000000E+01 0.  1.
        -11    1    4    4    0    0 -0.34172910955E+02 -0.36666422327E+01  0.27369268624E+02  0.43935281647E+02  0.00000000000E+00 0.  1.
         11    1    4    4    0    0  0.41991529881E+02  0.33371589208E+02  0.13674330463E+03  0.14688663285E+03  0.00000000000E+00 0. -1.
</event>
<event>
 8    1  0.3528896E-009  0.1908957E+03  0.7561462E-02  0.1157656E+00
          1   -1    0    0  501    0  0.00000000000E+00  0.00000000000E+00  0.65864305223E+02  0.65864305223E+02  0.00000000000E+00 0.  1.
         -1   -1    0    0    0  501 -0.00000000000E+00 -0.00000000000E+00 -0.72147118980E+03  0.72147118980E+03  0.00000000000E+00 0. -1.
         25    2    1    2    0    0  0.85108418556E+02  0.16494353176E+03 -0.40383138737E+03  0.46172624993E+03  0.12514603020E+03 0.  0.
         23    2    1    2    0    0 -0.85108418556E+02 -0.16494353176E+03 -0.25177549721E+03  0.32560924509E+03  0.90447044816E+02 0.  0.
          5    1    3    3  502    0  0.50573629262E+02  0.88638224146E+02 -0.34364746873E+03  0.35850450753E+03  0.41800000000E+01 0.  1.
         -5    1    3    3    0  502  0.34534789294E+02  0.76305307611E+02 -0.60183918636E+02  0.10322174240E+03  0.41800000000E+01 0.  1.
        -11    1    4    4    0    0  0.83129206248E+01 -0.33612550171E+02 -0.93556554555E+02  0.99758393524E+02  0.00000000000E+00 0.  1.
         11    1    4    4    0    0 -0.93421339181E+02 -0.13133098159E+03 -0.15821894265E+03  0.22585085157E+03  0.00000000000E+00 0. -1.
</event>
<event>
 8    1  0.3528896E-009  0.2348077E+03  0.7561462E-02  0.1123301E+00
         -2   -1    0    0    0  501 -0.00000000000E+00  0.00000000000E+00  0.19548905694E+02  0.19548905694E+02  0.00000000000E+00 0. -1.
          2   -1    0    0  501    0  0.00000000000E+00 -0.00000000000E+00 -0.44682492344E+04  0.44682492344E+04  0.00000000000E+00 0.  1.
         25    2    1    2    0    0 -0.13620996234E+03 -0.17512757541E+03 -0.35062082450E+04  0.35154471209E+04  0.12509748732E+03 0.  0.
         23    2    1    2    0    0  0.13620996234E+03  0.17512757541E+03 -0.94249208369E+03  0.97235101913E+03  0.89175978191E+02 0.  0.
          5    1    3    3  502    0 -0.80420973119E+02 -0.53647431133E+02 -0.22625392528E+04  0.22646074545E+04  0.41800000000E+01 0. -1.
         -5    1    3    3    0  502 -0.55788989220E+02 -0.12148014427E+03 -0.12436689922E+04  0.12508396665E+04  0.41800000000E+01 0. -1.
        -11    1    4    4    0    0  0.13273660448E+03  0.10592898254E+03 -0.66673794672E+03  0.68802575904E+03  0.00000000000E+00 0. -1.
         11    1    4    4    0    0  0.34733578545E+01  0.69198592869E+02 -0.27575413697E+03  0.28432526009E+03  0.00000000000E+00 0.  1.
</event>
<event>
 8    1  0.3528896E-009  0.9541664E+02  0.7561462E-02  0.1290240E+00
         -3   -1    0    0    0  501 -0.00000000000E+00  0.00000000000E+00  0.38319884618E+03  0.38319884618E+03  0.00000000000E+00 0.  1.
          3   -1    0    0  501    0  0.00000000000E+00 -0.00000000000E+00 -0.45029640013E+02  0.45029640013E+02  0.00000000000E+00 0. -1.
         25    2    1    2    0    0  0.18092084936E+01  0.77097859605E+02  0.23907979915E+03  0.28063122061E+03  0.12508948168E+03 0.  0.
         23    2    1    2    0    0 -0.18092084936E+01 -0.77097859605E+02  0.99089407011E+02  0.14759726558E+03  0.77581499301E+02 0.  0.
          5    1    3    3  502    0  0.96972310301E+01  0.93517212803E+02  0.89452232765E+02  0.12984097861E+03  0.41800000000E+01 0.  1.
         -5    1    3    3    0  502 -0.78880225365E+01 -0.16419353198E+02  0.14962756639E+03  0.15079024200E+03  0.41800000000E+01 0.  1.
        -11    1    4    4    0    0 -0.64459449987E+01 -0.58961933455E+02  0.11068637451E+03  0.12557680242E+03  0.00000000000E+00 0.  1.
         11    1    4    4    0    0  0.46367365051E+01 -0.18135926150E+02 -0.11596967497E+02  0.22020463162E+02  0.00000000000E+00 0. -1.
</event>
<event>
 8    1  0.3528896E-009  0.1136201E+03  0.7561462E-02  0.1254009E+00
          2   -1    0    0  501    0  0.00000000000E+00  0.00000000000E+00  0.38822292449E+03  0.38822292449E+03  0.00000000000E+00 0. -1.
         -2   -1    0    0    0  501 -0.00000000000E+00 -0.00000000000E+00 -0.43251060448E+02  0.43251060448E+02  0.00000000000E+00 0.  1.
         25    2    1    2    0    0  0.94484494342E+01  0.37189296664E+02  0.29070715692E+03  0.31879545870E+03  0.12509027309E+03 0.  0.
         23    2    1    2    0    0 -0.94484494342E+01 -0.37189296664E+02  0.54264707125E+02  0.11267852624E+03  0.90991619684E+02 0.  0.
          5    1    3    3  502    0 -0.57150164226E+02  0.18648335361E+02  0.15802977400E+03  0.16912948753E+03  0.41800000000E+01 0.  1.
         -5    1    3    3    0  502  0.66598613660E+02  0.18540961303E+02  0.13267738292E+03  0.14966597117E+03  0.41800000000E+01 0.  1.
        -11    1    4    4    0    0  0.34947356259E+02  0.63724238596E+01  0.27691799533E+02  0.45041772354E+02  0.00000000000E+00 0. -1.
         11    1    4    4    0    0 -0.44395805694E+02 -0.43561720523E+02  0.26572907592E+02  0.67636753884E+02  0.00000000000E+00 0.  1.
</event>
<event>
 8    1  0.3528896E-009  0.1254853E+03  0.7561462E-02  0.1234313E+00
          2   -1    0    0  501    0  0.00000000000E+00  0.00000000000E+00  0.67701245215E+03  0.67701245215E+03  0.00000000000E+00 0. -1.
         -2   -1    0    0    0  501 -0.00000000000E+00 -0.00000000000E+00 -0.33861081017E+02  0.33861081017E+02  0.00000000000E+00 0.  1.
         25    2    1    2    0    0 -0.46983864449E+02 -0.92162838151E+02  0.40911560080E+03  0.44014181886E+03  0.12509106139E+03 0.  0.
         23    2    1    2    0    0  0.46983864449E+02  0.92162838151E+02  0.23403577033E+03  0.27073171430E+03  0.88438945494E+02 0.  0.
          5    1    3    3  502    0 -0.69435904556E+02 -0.38087664962E+02  0.34156063846E+03  0.35064676985E+03  0.41800000000E+01 0. -1.
         -5    1    3    3    0  502  0.22452040107E+02 -0.54075173189E+02  0.67554962342E+02  0.89495049011E+02  0.41800000000E+01 0. -1.
        -11    1    4    4    0    0  0.12140175176E+02 -0.22322396734E+01 -0.34436792177E+01  0.12815056528E+02  0.00000000000E+00 0.  1.
         11    1    4    4    0    0  0.34843689273E+02  0.94395077824E+02  0.23747944955E+03  0.25791665778E+03  0.00000000000E+00 0. -1.
</event>
<event>
 8    1  0.3528896E-009  0.1733436E+03  0.7561462E-02  0.1174405E+00
         -2   -1    0    0    0  501 -0.00000000000E+00  0.00000000000E+00  0.57157779487E+02  0.57157779487E+02  0.00000000000E+00 0.  1.
          2   -1    0    0  501    0  0.00000000000E+00 -0.00000000000E+00 -0.71511837010E+03  0.71511837010E+03  0.00000000000E+00 0. -1.
         25    2    1    2    0    0 -0.37772275226E+02  0.16334198017E+03 -0.28876189620E+03  0.35656451950E+03  0.12508987411E+03 0.  0.
         23    2    1    2    0    0  0.37772275226E+02 -0.16334198017E+03 -0.36919869442E+03  0.41571163009E+03  0.91657712020E+02 0.  0.
          5    1    3    3  502    0  0.13210250087E+02  0.17255909786E+02  0.66082461356E+01  0.23095853456E+02  0.41800000000E+01 0.  1.
         -5    1    3    3    0  502 -0.50982525313E+02  0.14608607039E+03 -0.29537014233E+03  0.33346866604E+03  0.41800000000E+01 0.  1.
        -11    1    4    4    0    0  0.40510222845E+02 -0.12645630158E+03 -0.34935088674E+03  0.37373562371E+03  0.00000000000E+00 0. -1.
         11    1    4    4    0    0 -0.27379476191E+01 -0.36885678588E+02 -0.19847807676E+02  0.41976006380E+02  0.00000000000E+00 0.  1.
</event>
<event>
 8    1  0.3528896E-009  0.2170510E+03  0.7561462E-02  0.1136101E+00
          1   -1    0    0  501    0  0.00000000000E+00  0.00000000000E+00  0.10565288423E+04  0.10565288423E+04  0.00000000000E+00 0. -1.
         -1   -1    0    0    0  501 -0.00000000000E+00 -0.00000000000E+00 -0.52665874548E+02  0.52665874548E+02  0.00000000000E+00 0.  1.
         25    2    1    2    0    0  0.19735540253E+03 -0.43871689728E+01  0.68031511882E+03  0.71933641236E+03  0.12509121108E+03 0.  0.
         23    2    1    2    0    0 -0.19735540253E+03  0.43871689728E+01  0.32354784894E+03  0.38985830450E+03  0.91312019331E+02 0.  0.
          5    1    3    3  502    0  0.30763383975E+02 -0.42422679499E+02  0.84771545211E+02  0.99748467692E+02  0.41800000000E+01 0. -1.
         -5    1    3    3    0  502  0.16659201855E+03  0.38035510526E+02  0.59554357361E+03  0.61958794467E+03  0.41800000000E+01 0. -1.
        -11    1    4    4    0    0 -0.47878591074E+02 -0.30942856808E+02  0.48575626729E+02  0.74896003784E+02  0.00000000000E+00 0. -1.
         11    1    4    4    0    0 -0.14947681145E+03  0.35330025781E+02  0.27497222221E+03  0.31496230071E+03  0.00000000000E+00 0.  1.
</event>
<event>
 8    1  0.3528896E-009  0.1142862E+03  0.7561462E-02  0.1252832E+00
         -1   -1    0    0    0  501 -0.00000000000E+00  0.00000000000E+00  0.11084617435E+03  0.11084617435E+03  0.00000000000E+00 0.  1.
          1   -1    0    0  501    0  0.00000000000E+00 -0.00000000000E+00 -0.17974010550E+03  0.17974010550E+03  0.00000000000E+00 0. -1.
         25    2    1    2    0    0  0.32675261459E+02 -0.83388671665E+02 -0.50322310547E+02  0.16186547470E+03  0.12508698448E+03 0.  0.
         23    2    1    2    0    0 -0.32675261459E+02  0.83388671665E+02 -0.18571620606E+02  0.12872080516E+03  0.90569295651E+02 0.  0.
          5    1    3    3  502    0  0.56292098152E+02 -0.15947558958E+02 -0.66302321931E+02  0.88524546001E+02  0.41800000000E+01 0.  1.
         -5    1    3    3    0  502 -0.23616836694E+02 -0.67441112707E+02  0.15980011385E+02  0.73340928699E+02  0.41800000000E+01 0.  1.
        -11    1    4    4    0    0  0.10727972750E+01  0.52734000463E+02 -0.50530136562E+02  0.73043277581E+02  0.00000000000E+00 0.  1.
         11    1    4    4    0    0 -0.33748058734E+02  0.30654671202E+02  0.31958515956E+02  0.55677527575E+02  0.00000000000E+00 0. -1.
</event>
<event>
 8    1  0.3528896E-009  0.1035196E+03  0.7561462E-02  0.1273064E+00
          1   -1    0    0  501    0  0.00000000000E+00  0.00000000000E+00  0.40144236770E+02  0.40144236770E+02  0.00000000000E+00 0. -1.
         -1   -1    0    0    0  501 -0.00000000000E+00 -0.00000000000E+00 -0.52833348477E+03  0.52833348477E+03  0.00000000000E+00 0.  1.
         25    2    1    2    0    0 -0.91243392254E+02 -0.20669304298E+02 -0.35007037806E+03  0.38333993562E+03  0.12509060666E+03 0.  0.
         23    2    1    2    0    0  0.91243392254E+02  0.20669304298E+02 -0.13811886994E+03  0.18513778592E+03  0.80290726559E+02 0.  0.
          5    1    3    3  502    0  0.38683441593E+01  0.63248311143E+01 -0.21871892673E+03  0.21888446470E+03  0.41800000000E+01 0.  1.
         -5    1    3    3    0  502 -0.95111736413E+02 -0.26994135413E+02 -0.13135145133E+03  0.16445547092E+03  0.41800000000E+01 0.  1.
        -11    1    4    4    0    0  0.75978172759E+02  0.27449816046E+01 -0.43413289336E+02  0.87549593664E+02  0.00000000000E+00 0. -1.
         11    1    4    4    0    0  0.15265219495E+02  0.17924322694E+02 -0.94705580600E+02  0.97588192252E+02  0.00000000000E+00 0.  1.
</event>
<event>
 8    1  0.3528896E-009  0.1301043E+03  0.7561462E-02  0.1227301E+00
         -1   -1    0    0    0  501 -0.00000000000E+00  0.00000000000E+00  0.52423565115E+03  0.52423565115E+03  0.00000000000E+00 0.  1.
          1   -1    0    0  501    0  0.00000000000E+00 -0.00000000000E+00 -0.42480069475E+02  0.42480069475E+02  0.00000000000E+00 0. -1.
         25    2    1    2    0    0 -0.79005524596E+02 -0.63366265178E+02  0.29951565799E+03  0.34002085035E+03  0.12508953917E+03 0.  0.
         23    2    1    2    0    0  0.79005524596E+02  0.63366265178E+02  0.18223992368E+03  0.22669487027E+03  0.89005718613E+02 0.  0.
          5    1    3    3  502    0  0.17221769655E+02 -0.47695565176E+02  0.17249511565E+03  0.17984296931E+03  0.41800000000E+01 0. -1.
         -5    1    3    3    0  502 -0.96227294250E+02 -0.15670700002E+02  0.12702054235E+03  0.16017788104E+03  0.41800000000E+01 0. -1.
        -11    1    4    4    0    0  0.40517459106E+02  0.60937330936E+02  0.17180956491E+03  0.18674461006E+03  0.00000000000E+00 0.  1.
         11    1    4    4    0    0  0.38488065490E+02  0.24289342423E+01  0.10430358773E+02  0.39950260210E+02  0.00000000000E+00 0. -1.
</event>
<event>
 8    1  0.3528896E-009  0.1038971E+03  0.7561462E-02  0.1272308E+00
         -1   -1    0    0    0  501 -0.00000000000E+00  0.00000000000E+00  0.48605118804E+03  0.48605118804E+03  0.00000000000E+00 0.  1.
          1   -1    0    0  501    0  0.00000000000E+00 -0.00000000000E+00 -0.32798906706E+02  0.32798906706E+02  0.00000000000E+00 0. -1.
         25    2    1    2    0    0 -0.86716467716E+01 -0.26206295156E+02  0.37181756628E+03  0.39326587003E+03  0.12509106511E+03 0.  0.
         23    2    1    2    0    0  0.86716467716E+01  0.26206295156E+02  0.81434715060E+02  0.12558422472E+03  0.91530417453E+02 0.  0.
          5    1    3    3  502    0  0.46616744533E+02  0.24031528083E+02  0.17358547792E+03  0.18138364248E+03  0.41800000000E+01 0. -1.
         -5    1    3    3    0  502 -0.55288391304E+02 -0.50237823239E+02  0.19823208836E+03  0.21188222755E+03  0.41800000000E+01 0. -1.
        -11    1    4    4    0    0  0.32071270837E+02  0.41468856191E+02  0.82363179885E+02  0.97631582225E+02  0.00000000000E+00 0.  1.
         11    1    4    4    0    0 -0.23399624065E+02 -0.15262561036E+02 -0.92846482478E+00  0.27952642499E+02  0.00000000000E+00 0. -1.
</event>
<event>
 8    1  0.3528896E-009  0.1135963E+03  0.7561462E-02  0.1254051E+00
          4   -1    0    0  501    0  0.00000000000E+00  0.00000000000E+00  0.12245192183E+04  0.12245192183E+04  0.00000000000E+00 0. -1.
         -4   -1    0    0    0  501 -0.00000000000E+00 -0.00000000000E+00 -0.14951632968E+02  0.14951632968E+02  0.00000000000E+00 0.  1.
         25    2    1    2    0    0 -0.15469123642E+02  0.79058608330E+02  0.65010258320E+03  0.66691106598E+03  0.12508974341E+03 0.  0.
         23    2    1    2    0    0  0.15469123642E+02 -0.79058608330E+02  0.55946500210E+03  0.57255978525E+03  0.91291082697E+02 0.  0.
          5    1    3    3  502    0 -0.19628905265E+02  0.92313912717E+02  0.64445551694E+03  0.65134287293E+03  0.41800000000E+01 0. -1.
         -5    1    3    3    0  502  0.41597816230E+01 -0.13255304387E+02  0.56470662628E+01  0.15568193053E+02  0.41800000000E+01 0. -1.
        -11    1    4    4    0    0 -0.26029877174E+02 -0.71423608288E+02  0.42099925527E+03  0.42780750259E+03  0.00000000000E+00 0. -1.
         11    1    4    4    0    0  0.41499000816E+02 -0.76350000418E+01  0.13846574682E+03  0.14475228267E+03  0.00000000000E+00 0.  1.
</event>
<event>
 8    1  0.3528896E-009  0.1375631E+03  0.7561462E-02  0.1216646E+00
          1   -1    0    0  501    0  0.00000000000E+00  0.00000000000E+00  0.38123976680E+03  0.38123976680E+03  0.00000000000E+00 0. -1.
         -1   -1    0    0    0  501 -0.00000000000E+00 -0.00000000000E+00 -0.56968812481E+02  0.56968812481E+02  0.00000000000E+00 0.  1.
         25    2    1    2    0    0 -0.20325588031E+02 -0.84838184560E+02  0.10042110388E+03  0.18259906384E+03  0.12508945967E+03 0.  0.
         23    2    1    2    0    0  0.20325588031E+02  0.84838184560E+02  0.22384985043E+03  0.25560951544E+03  0.87274404939E+02 0.  0.
          5    1    3    3  502    0 -0.73340367479E+02 -0.51849476023E+02  0.60279313731E+02  0.10825084632E+03  0.41800000000E+01 0.  1.
         -5    1    3    3    0  502  0.53014779448E+02 -0.32988708537E+02  0.40141790151E+02  0.74348217513E+02  0.41800000000E+01 0.  1.
        -11    1    4    4    0    0 -0.33596881024E+02  0.23721402938E+02  0.62074576772E+02  0.74462799123E+02  0.00000000000E+00 0. -1.
         11    1    4    4    0    0  0.53922469055E+02  0.61116781622E+02  0.16177527366E+03  0.18114671632E+03  0.00000000000E+00 0.  1.
</event>
<event>
 8    1  0.3528896E-009  0.1853671E+03  0.7561462E-02  0.1162708E+00
         -1   -1    0    0    0  501 -0.00000000000E+00  0.00000000000E+00  0.38876374339E+02  0.38876374339E+02  0.00000000000E+00 0.  1.
          1   -1    0    0  501    0  0.00000000000E+00 -0.00000000000E+00 -0.14056785492E+04  0.14056785492E+04  0.00000000000E+00 0. -1.
         25    2    1    2    0    0  0.11882878773E+03  0.10603452744E+03 -0.11181165614E+04  0.11363073084E+04  0.12508418130E+03 0.  0.
         23    2    1    2    0    0 -0.11882878773E+03 -0.10603452744E+03 -0.24868561345E+03  0.30824761514E+03  0.88365468933E+02 0.  0.
          5    1    3    3  502    0  0.10462325732E+02  0.75010474276E+02 -0.26094115761E+03  0.27174214183E+03  0.41800000000E+01 0.  1.
         -5    1    3    3    0  502  0.10836646200E+03  0.31024053166E+02 -0.85717540381E+03  0.86456516658E+03  0.41800000000E+01 0.  1.
        -11    1    4    4    0    0 -0.76386514039E+02 -0.99343787855E+01 -0.10867476504E+03  0.13320584059E+03  0.00000000000E+00 0.  1.
         11    1    4    4    0    0 -0.42442273693E+02 -0.96100148657E+02 -0.14001084840E+03  0.17504177455E+03  0.00000000000E+00 0. -1.
</event>
<event>
 8    1  0.3528896E-009  0.1626660E+03  0.7561462E-02  0.1185719E+00
          2   -1    0    0  501    0  0.00000000000E+00  0.00000000000E+00  0.50783474658E+03  0.50783474658E+03  0.00000000000E+00 0. -1.
         -2   -1    0    0    0  501 -0.00000000000E+00 -0.00000000000E+00 -0.58073026251E+02  0.58073026251E+02  0.00000000000E+00 0.  1.
         25    2    1    2    0    0 -0.91913549507E+02  0.93462198311E+02  0.26983683870E+03  0.32502691683E+03  0.12508914441E+03 0.  0.
         23    2    1    2    0    0  0.91913549507E+02 -0.93462198311E+02  0.17992488163E+03  0.24088085600E+03  0.92018153976E+02 0.  0.
          5    1    3    3  502    0  0.10662191016E+02  0.70001041619E+02  0.14707361064E+03  0.16328486608E+03  0.41800000000E+01 0. -1.
         -5    1    3    3    0  502 -0.10257574052E+03  0.23461156692E+02  0.12276322806E+03  0.16174205075E+03  0.41800000000E+01 0. -1.
        -11    1    4    4    0    0  0.92511423663E+02 -0.49113607215E+02  0.80795374099E+02  0.13228152705E+03  0.00000000000E+00 0.  1.
         11    1    4    4    0    0 -0.59787415594E+00 -0.44348591096E+02  0.99129507530E+02  0.10859932895E+03  0.00000000000E+00 0. -1.
</event>
<event>
 8    1  0.3528896E-009  0.1044804E+03  0.7561462E-02  0.1271147E+00
          1   -1    0    0  501    0  0.00000000000E+00  0.00000000000E+00  0.41720864155E+03  0.41720864155E+03  0.00000000000E+00 0. -1.
         -1   -1    0    0    0  501 -0.00000000000E+00 -0.00000000000E+00 -0.43906610966E+02  0.43906610966E+02  0.00000000000E+00 0.  1.
         25    2    1    2    0    0  0.30277553708E+02 -0.54583984575E+02  0.28999754131E+03  0.32193470114E+03  0.12508891317E+03 0.  0.
         23    2    1    2    0    0 -0.30277553708E+02  0.54583984575E+02  0.83304489275E+02  0.13918055139E+03  0.92387479237E+02 0.  0.
          5    1    3    3  502    0  0.19449448250E+02 -0.73437373383E+02  0.78642501657E+02  0.10942323480E+03  0.41800000000E+01 0. -1.
         -5    1    3    3    0  502  0.10828105458E+02  0.18853388808E+02  0.21135503966E+03  0.21251146634E+03  0.41800000000E+01 0. -1.
        -11    1    4    4    0    0 -0.59428930562E+02  0.14498019584E+02  0.37890047735E+02  0.71955862005E+02  0.00000000000E+00 0.  1.
         11    1    4    4    0    0  0.29151376854E+02  0.40085964991E+02  0.45414441540E+02  0.67224689380E+02  0.00000000000E+00 0. -1.
</event>
<event>
 8    1  0.3528896E-009  0.6924149E+02  0.7561462E-02  0.1362692E+00
          4   -1    0    0  501    0  0.00000000000E+00  0.00000000000E+00  0.12048085729E+03  0.12048085729E+03  0.00000000000E+00 0. -1.
         -4   -1    0    0    0  501 -0.00000000000E+00 -0.00000000000E+00 -0.15600330570E+03  0.15600330570E+03  0.00000000000E+00 0.  1.
         25    2    1    2    0    0  0.98957561085E+01 -0.49213731224E+02  0.49609854069E+02  0.14362170662E+03  0.12508453006E+03 0.  0.
         23    2    1    2    0    0 -0.98957561085E+01  0.49213731224E+02 -0.85132302475E+02  0.13286245637E+03  0.88797556597E+02 0.  0.
          5    1    3    3  502    0  0.26226876895E+02 -0.31393012572E+02 -0.35947297268E+02  0.54617313106E+02  0.41800000000E+01 0.  1.
         -5    1    3    3    0  502 -0.16331120787E+02 -0.17820718651E+02  0.85557151337E+02  0.89004393511E+02  0.41800000000E+01 0.  1.
        -11    1    4    4    0    0  0.19452391473E+02  0.55616184193E+01 -0.77028642144E+02  0.79641313676E+02  0.00000000000E+00 0.  1.
         11    1    4    4    0    0 -0.29348147581E+02  0.43652112804E+02 -0.81036603312E+01  0.53221142693E+02  0.00000000000E+00 0. -1.
</event>
<event>
 8    1  0.3528896E-009  0.9823300E+02  0.7561462E-02  0.1284056E+00
          1   -1    0    0  501    0  0.00000000000E+00  0.00000000000E+00  0.49695611852E+03  0.49695611852E+03  0.00000000000E+00 0. -1.
         -1   -1    0    0    0  501 -0.00000000000E+00 -0.00000000000E+00 -0.58686723753E+02  0.58686723753E+02  0.00000000000E+00 0.  1.
         25    2    1    2    0    0  0.44894425243E+02  0.21120783901E+02  0.34538460460E+02  0.13893309134E+03  0.12509157321E+03 0.  0.
         23    2    1    2    0    0 -0.44894425243E+02 -0.21120783901E+02  0.40373093431E+03  0.41670975093E+03  0.90480673485E+02 0.  0.
          5    1    3    3  502    0 -0.73728194754E+01 -0.32146725020E+02 -0.26434185496E+02  0.42473626633E+02  0.41800000000E+01 0. -1.
         -5    1    3    3    0  502  0.52267244719E+02  0.53267508921E+02  0.60972645955E+02  0.96459464709E+02  0.41800000000E+01 0. -1.
        -11    1    4    4    0    0 -0.92338390402E+01  0.27026790732E+02  0.47115609405E+02  0.55096205407E+02  0.00000000000E+00 0.  1.
         11    1    4    4    0    0 -0.35660586203E+02 -0.48147574633E+02  0.35661532491E+03  0.36161354553E+03  0.00000000000E+00 0. -1.
</event>
<event>
 8    1  0.3528896E-009  0.1065339E+03  0.7561462E-02  0.1267127E+00
          2   -1    0    0  501    0  0.00000000000E+00  0.00000000000E+00  0.15674256454E+03  0.15674256454E+03  0.00000000000E+00 0. -1.
         -2   -1    0    0    0  501 -0.00000000000E+00 -0.00000000000E+00 -0.85493639864E+02  0.85493639864E+02  0.00000000000E+00 0.  1.
         25    2    1    2    0    0 -0.31773195943E+02  0.14607151766E+01  0.66383885241E+02  0.14514184488E+03  0.12509062814E+03 0.  0.
         23    2    1    2    0    0  0.31773195943E+02 -0.14607151766E+01  0.48650394372E+01  0.97094359522E+02  0.91607730967E+02 0.  0.
          5    1    3    3  502    0  0.19444232303E+02  0.52741993273E+02  0.26107006302E+02  0.62119595960E+02  0.41800000000E+01 0.  1.
         -5    1    3    3    0  502 -0.51217428246E+02 -0.51281278096E+02  0.40276878939E+02  0.83022248924E+02  0.41800000000E+01 0.  1.
        -11    1    4    4    0    0  0.15591249518E+02 -0.39661320538E+02 -0.21708860649E+02  0.47826582975E+02  0.00000000000E+00 0.  1.
         11    1    4    4    0    0  0.16181946425E+02  0.38200605361E+02  0.26573900086E+02  0.49267776547E+02  0.00000000000E+00 0. -1.
</event>
<event>
 8    1  0.3528896E-009  0.1341987E+03  0.7561462E-02  0.1221355E+00
         -2   -1    0    0    0  501 -0.00000000000E+00  0.00000000000E+00  0.72615299232E+03  0.72615299232E+03  0.00000000000E+00 0. -1.
          2   -1    0    0  501    0  0.00000000000E+00 -0.00000000000E+00 -0.34010069700E+02  0.34010069700E+02  0.00000000000E+00 0.  1.
         25    2    1    2    0    0  0.10180611818E+03  0.37586542994E+02  0.33708349992E+03  0.37556648697E+03  0.12509063235E+03 0.  0.
         23    2    1    2    0    0 -0.10180611818E+03 -0.37586542994E+02  0.35505942270E+03  0.38459657505E+03  0.10034987785E+03 0.  0.
          5    1    3    3  502    0  0.36764643902E+02  0.63844650395E+02  0.26426452304E+03  0.27437381246E+03  0.41800000000E+01 0.  1.
         -5    1    3    3    0  502  0.65041474275E+02 -0.26258107401E+02  0.72818976880E+02  0.10119267451E+03  0.41800000000E+01 0.  1.
        -11    1    4    4    0    0 -0.61621949966E+02 -0.53021095667E+02  0.31660647743E+03  0.32687637243E+03  0.00000000000E+00 0. -1.
         11    1    4    4    0    0 -0.40184168211E+02  0.15434552673E+02  0.38452945270E+02  0.57720202624E+02  0.00000000000E+00 0.  1.
</event>
<event>
 8    1  0.3528896E-009  0.1122497E+03  0.7561462E-02  0.1256460E+00
          1   -1    0    0  501    0  0.00000000000E+00  0.00000000000E+00  0.12859779875E+03  0.12859779875E+03  0.00000000000E+00 0. -1.
         -1   -1    0    0    0  501 -0.00000000000E+00 -0.00000000000E+00 -0.13950893013E+03  0.13950893013E+03  0.00000000000E+00 0.  1.
         25    2    1    2    0    0  0.62088391610E+02 -0.53591151778E+01  0.39260776795E+02  0.14516547019E+03  0.12509163303E+03 0.  0.
         23    2    1    2    0    0 -0.62088391610E+02  0.53591151778E+01 -0.50171908175E+02  0.12294125868E+03  0.93346902620E+02 0.  0.
          5    1    3    3  502    0  0.63170188776E+02 -0.41826196124E+02  0.65333451708E+02  0.10012909539E+03  0.41800000000E+01 0.  1.
         -5    1    3    3    0  502 -0.10817971663E+01  0.36467080946E+02 -0.26072674913E+02  0.45036374798E+02  0.41800000000E+01 0.  1.
        -11    1    4    4    0    0 -0.86009646092E+02 -0.42652863885E+01 -0.42547702625E+02  0.96052896299E+02  0.00000000000E+00 0.  1.
         11    1    4    4    0    0  0.23921254482E+02  0.96244015663E+01 -0.76242055502E+01  0.26888362385E+02  0.00000000000E+00 0. -1.
</event>
<event>
 8    1  0.3528896E-009  0.1191038E+03  0.7561462E-02  0.1244583E+00
         -2   -1    0    0    0  501 -0.00000000000E+00  0.00000000000E+00  0.28558448043E+03  0.28558448043E+03  0.00000000000E+00 0. -1.
          2   -1    0    0  501    0  0.00000000000E+00 -0.00000000000E+00 -0.11610146824E+03  0.11610146824E+03  0.00000000000E+00 0.  1.
         25    2    1    2    0    0 -0.65033550439E+02 -0.98839443509E+02 -0.49708611241E+01  0.17225212321E+03  0.12508991252E+03 0.  0.
         23    2    1    2    0    0  0.65033550439E+02  0.98839443509E+02  0.17445387332E+03  0.22943382547E+03  0.90593201062E+02 0.  0.
          5    1    3    3  502    0 -0.41355567329E+02 -0.47520871749E+02  0.59263140429E+02  0.86591618615E+02  0.41800000000E+01 0.  1.
         -5    1    3    3    0  502 -0.23677983110E+02 -0.51318571760E+02 -0.64234001553E+02  0.85660504593E+02  0.41800000000E+01 0.  1.
        -11    1    4    4    0    0  0.46446561821E+02  0.66804003013E+02  0.41340361837E+02  0.91263812326E+02  0.00000000000E+00 0.  1.
         11    1    4    4    0    0  0.18586988618E+02  0.32035440497E+02  0.13311351148E+03  0.13817001314E+03  0.00000000000E+00 0. -1.
</event>
<event>
 8    1  0.3528896E-009  0.1197630E+03  0.7561462E-02  0.1243489E+00
         -2   -1    0    0    0  501 -0.00000000000E+00  0.00000000000E+00  0.64411979494E+03  0.64411979494E+03  0.00000000000E+00 0.  1.
          2   -1    0    0  501    0  0.00000000000E+00 -0.00000000000E+00 -0.27789299029E+02  0.27789299029E+02  0.00000000000E+00 0. -1.
         25    2    1    2    0    0 -0.68466455952E+02 -0.81599454917E+01  0.43245632136E+03  0.45543400453E+03  0.12508965704E+03 0.  0.
         23    2    1    2    0    0  0.68466455952E+02  0.81599454917E+01  0.18387417455E+03  0.21647508944E+03  0.91090679983E+02 0.  0.
          5    1    3    3  502    0 -0.14877032665E+02 -0.62734427777E+02  0.23240234205E+03  0.24121620079E+03  0.41800000000E+01 0.  1.
         -5    1    3    3    0  502 -0.53589423288E+02  0.54574482286E+02  0.20005397931E+03  0.21421780374E+03  0.41800000000E+01 0.  1.
        -11    1    4    4    0    0  0.79907295336E+02  0.19451842035E+02  0.18270079203E+03  0.20035750402E+03  0.00000000000E+00 0.  1.
         11    1    4    4    0    0 -0.11440839384E+02 -0.11291896543E+02  0.11733825198E+01  0.16117585424E+02  0.00000000000E+00 0. -1.
</event>
<event>
 8    1  0.3528896E-009  0.1086899E+03  0.7561462E-02  0.1263015E+00
         -3   -1    0    0    0  501 -0.00000000000E+00  0.00000000000E+00  0.41604446049E+03  0.41604446049E+03  0.00000000000E+00 0.  1.
          3   -1    0    0  501    0  0.00000000000E+00 -0.00000000000E+00 -0.36513523073E+02  0.36513523073E+02  0.00000000000E+00 0. -1.
         25    2    1    2    0    0 -0.23468997972E+02  0.28628201744E+02  0.29825084715E+03  0.32552529283E+03  0.12507110236E+03 0.  0.
         23    2    1    2    0    0  0.23468997972E+02 -0.28628201744E+02  0.81280090267E+02  0.12703269073E+03  0.90335395281E+02 0.  0.
          5    1    3    3  502    0 -0.64068145855E+02 -0.12341066448E+02  0.21060981756E+03  0.22052436801E+03  0.41800000000E+01 0. -1.
         -5    1    3    3    0  502  0.40599147883E+02  0.40969268192E+02  0.87641029593E+02  0.10500092482E+03  0.41800000000E+01 0. -1.
        -11    1    4    4    0    0 -0.94010578798E+01  0.27535068486E+02  0.10622546692E+02  0.30974156712E+02  0.00000000000E+00 0.  1.
         11    1    4    4    0    0  0.32870055851E+02 -0.56163270229E+02  0.70657543575E+02  0.96058534023E+02  0.00000000000E+00 0. -1.
</event>
<event>
 8    1  0.3528896E-009  0.1161604E+03  0.7561462E-02  0.1249569E+00
         -1   -1    0    0    0  501 -0.00000000000E+00  0.00000000000E+00  0.14555353851E+03  0.14555353851E+03  0.00000000000E+00 0.  1.
          1   -1    0    0  501    0  0.00000000000E+00 -0.00000000000E+00 -0.13271998413E+03  0.13271998413E+03  0.00000000000E+00 0. -1.
         25    2    1    2    0    0 -0.82086224017E+02 -0.15313815827E+02  0.32040715561E+02  0.15377116915E+03  0.12508518649E+03 0.  0.
         23    2    1    2    0    0  0.82086224017E+02  0.15313815827E+02 -0.19207161175E+02  0.12450235349E+03  0.90328621470E+02 0.  0.
          5    1    3    3  502    0 -0.50124967780E+01  0.28625332587E+02 -0.32637201589E+02  0.43899819102E+02  0.41800000000E+01 0. -1.
         -5    1    3    3    0  502 -0.77073727239E+02 -0.43939148414E+02  0.64677917150E+02  0.10987135004E+03  0.41800000000E+01 0. -1.
        -11    1    4    4    0    0 -0.11174021087E+02  0.17609236242E+02  0.14401399696E+02  0.25344511467E+02  0.00000000000E+00 0.  1.
         11    1    4    4    0    0  0.93260245104E+02 -0.22954204155E+01 -0.33608560870E+02  0.99157842027E+02  0.00000000000E+00 0. -1.
</event>
<event>
 8    1  0.3528896E-009  0.1090569E+03  0.7561462E-02  0.1262326E+00
          2   -1    0    0  501    0  0.00000000000E+00  0.00000000000E+00  0.46276752157E+03  0.46276752157E+03  0.00000000000E+00 0.  1.
         -2   -1    0    0    0  501 -0.00000000000E+00 -0.00000000000E+00 -0.29681723661E+02  0.29681723661E+02  0.00000000000E+00 0. -1.
         25    2    1    2    0    0 -0.36973912064E+02 -0.22986567733E+02  0.27013383206E+03  0.30086407611E+03  0.12510576565E+03 0.  0.
         23    2    1    2    0    0  0.36973912064E+02  0.22986567733E+02  0.16295196585E+03  0.19158516913E+03  0.90862981376E+02 0.  0.
          5    1    3    3  502    0 -0.64595471114E+02 -0.56859842768E+02  0.15034727803E+03  0.17328413955E+03  0.41800000000E+01 0.  1.
         -5    1    3    3    0  502  0.27621559050E+02  0.33873275035E+02  0.11978655403E+03  0.12757993656E+03  0.41800000000E+01 0.  1.
        -11    1    4    4    0    0  0.31175136750E+02 -0.24847053250E+02  0.29190892024E+02  0.49410255856E+02  0.00000000000E+00 0.  1.
         11    1    4    4    0    0  0.57987753141E+01  0.47833620984E+02  0.13376107383E+03  0.14217491327E+03  0.00000000000E+00 0. -1.
</event>
<event>
 8    1  0.3528896E-009  0.1552601E+03  0.7561462E-02  0.1194154E+00
          1   -1    0    0  501    0  0.00000000000E+00  0.00000000000E+00  0.27514950892E+03  0.27514950892E+03  0.00000000000E+00 0. -1.
         -1   -1    0    0    0  501 -0.00000000000E+00 -0.00000000000E+00 -0.14183550534E+03  0.14183550534E+03  0.00000000000E+00 0.  1.
         25    2    1    2    0    0 -0.15300640004E+02  0.13097327494E+03  0.17333339878E+03  0.25116938843E+03  0.12511389300E+03 0.  0.
         23    2    1    2    0    0  0.15300640004E+02 -0.13097327494E+03 -0.40019395197E+02  0.16581562583E+03  0.92223432193E+02 0.  0.
          5    1    3    3  502    0 -0.45701252947E+02  0.18832055395E+01  0.66494318722E+02  0.80815331505E+02  0.41800000000E+01 0. -1.
         -5    1    3    3    0  502  0.30400612943E+02  0.12909006940E+03  0.10683908005E+03  0.17035405693E+03  0.41800000000E+01 0. -1.
        -11    1    4    4    0    0  0.68073402179E+01 -0.45222390807E+02 -0.61851844484E+02  0.76922397110E+02  0.00000000000E+00 0.  1.
         11    1    4    4    0    0  0.84932997860E+01 -0.85750884133E+02  0.21832449287E+02  0.88893228722E+02  0.00000000000E+00 0. -1.
</event>
<event>
 8    1  0.3528896E-009  0.1062377E+03  0.7561462E-02  0.1267700E+00
          1   -1    0    0  501    0  0.00000000000E+00  0.00000000000E+00  0.34382659627E+03  0.34382659627E+03  0.00000000000E+00 0. -1.
         -1   -1    0    0    0  501 -0.00000000000E+00 -0.00000000000E+00 -0.56003992938E+02  0.56003992938E+02  0.00000000000E+00 0.  1.
         25    2    1    2    0    0  0.78221894911E+02 -0.35472176318E+02  0.14541581371E+03  0.21016740829E+03  0.12509052919E+03 0.  0.
         23    2    1    2    0    0 -0.78221894911E+02  0.35472176318E+02  0.14240678962E+03  0.18966318092E+03  0.91189299425E+02 0.  0.
          5    1    3    3  502    0  0.24269886725E+02 -0.33013487592E+02 -0.12642812452E+02  0.43083997857E+02  0.41800000000E+01 0. -1.
         -5    1    3    3    0  502  0.53952008186E+02 -0.24586887256E+01  0.15805862616E+03  0.16708341043E+03  0.41800000000E+01 0. -1.
        -11    1    4    4    0    0 -0.46841830410E+02  0.60828779432E+02  0.12275693611E+03  0.14478799276E+03  0.00000000000E+00 0. -1.
         11    1    4    4    0    0 -0.31380064501E+02 -0.25356603114E+02  0.19649853514E+02  0.44875188164E+02  0.00000000000E+00 0.  1.
</event>
<event>
 8    1  0.3528896E-009  0.1309430E+03  0.7561462E-02  0.1226063E+00
         -1   -1    0    0    0  501 -0.00000000000E+00  0.00000000000E+00  0.15565434775E+03  0.15565434775E+03  0.00000000000E+00 0.  1.
          1   -1    0    0  501    0  0.00000000000E+00 -0.00000000000E+00 -0.14550851013E+03  0.14550851013E+03  0.00000000000E+00 0. -1.
         25    2    1    2    0    0 -0.81077378170E+02  0.13953573007E+02 -0.59919839910E+02  0.16129726677E+03  0.12513264003E+03 0.  0.
         23    2    1    2    0    0  0.81077378170E+02 -0.13953573007E+02  0.70065677536E+02  0.13986559111E+03  0.88797190030E+02 0.  0.
          5    1    3    3  502    0 -0.57142082343E+01 -0.47397938315E+02 -0.39041456539E+02  0.61813626823E+02  0.41800000000E+01 0. -1.
         -5    1    3    3    0  502 -0.75363169936E+02  0.61351511322E+02 -0.20878383371E+02  0.99483639944E+02  0.41800000000E+01 0. -1.
        -11    1    4    4    0    0  0.27623730711E+01  0.27804799133E+02  0.34142715663E+02  0.44118732899E+02  0.00000000000E+00 0.  1.
         11    1    4    4    0    0  0.78315005099E+02 -0.41758372139E+02  0.35922961873E+02  0.95746858210E+02  0.00000000000E+00 0. -1.
</event>
<event>
 8    1  0.3528896E-009  0.1856477E+03  0.7561462E-02  0.1162446E+00
         -2   -1    0    0    0  501 -0.00000000000E+00  0.00000000000E+00  0.27551322593E+02  0.27551322593E+02  0.00000000000E+00 0. -1.
          2   -1    0    0  501    0  0.00000000000E+00 -0.00000000000E+00 -0.15319011785E+04  0.15319011785E+04  0.00000000000E+00 0.  1.
         25    2    1    2    0    0 -0.16268173661E+03  0.37391277420E+02 -0.97625752388E+03  0.99829346517E+03  0.12509050572E+03 0.  0.
         23    2    1    2    0    0  0.16268173661E+03 -0.37391277420E+02 -0.52809233206E+03  0.56115903596E+03  0.90302255774E+02 0.  0.
          5    1    3    3  502    0 -0.39679243718E+01  0.24288853178E+02 -0.31469122296E+02  0.40168032944E+02  0.41800000000E+01 0.  1.
         -5    1    3    3    0  502 -0.15871381224E+03  0.13102424242E+02 -0.94478840158E+03  0.95812543223E+03  0.41800000000E+01 0.  1.
        -11    1    4    4    0    0  0.15572336489E+03 -0.70374446476E+01 -0.47100872591E+03  0.49613356254E+03  0.00000000000E+00 0.  1.
         11    1    4    4    0    0  0.69583717190E+01 -0.30353832772E+02 -0.57083606155E+02  0.65025473413E+02  0.00000000000E+00 0. -1.
</event>
<event>
 8    1  0.3528896E-009  0.1637003E+03  0.7561462E-02  0.1184581E+00
          1   -1    0    0  501    0  0.00000000000E+00  0.00000000000E+00  0.13397877574E+03  0.13397877574E+03  0.00000000000E+00 0. -1.
         -1   -1    0    0    0  501 -0.00000000000E+00 -0.00000000000E+00 -0.32553279793E+03  0.32553279793E+03  0.00000000000E+00 0.  1.
         25    2    1    2    0    0  0.14963087789E+03  0.12688049378E+02  0.55489525267E+01  0.19552303394E+03  0.12509228477E+03 0.  0.
         23    2    1    2    0    0 -0.14963087789E+03 -0.12688049378E+02 -0.19710297472E+03  0.26398853973E+03  0.91049328661E+02 0.  0.
          5    1    3    3  502    0  0.22554985999E+02  0.94732174207E+01 -0.50704678695E+02  0.56452688893E+02  0.41800000000E+01 0. -1.
         -5    1    3    3    0  502  0.12707589189E+03  0.32148319572E+01  0.56253631222E+02  0.13907034504E+03  0.41800000000E+01 0. -1.
        -11    1    4    4    0    0 -0.44314595116E+02  0.38130307943E+02 -0.71964427394E+02  0.92717757384E+02  0.00000000000E+00 0. -1.
         11    1    4    4    0    0 -0.10531628278E+03 -0.50818357321E+02 -0.12513854732E+03  0.17127078234E+03  0.00000000000E+00 0.  1.
</event>
<event>
 8    1  0.3528896E-009  0.1541913E+03  0.7561462E-02  0.1195415E+00
          1   -1    0    0  501    0  0.00000000000E+00  0.00000000000E+00  0.28646285556E+03  0.28646285556E+03  0.00000000000E+00 0. -1.
         -1   -1    0    0    0  501 -0.00000000000E+00 -0.00000000000E+00 -0.88827558583E+02  0.88827558583E+02  0.00000000000E+00 0.  1.
         25    2    1    2    0    0 -0.67504034222E+02  0.93440690857E+02  0.93125212303E+02  0.19392850964E+03  0.12509198352E+03 0.  0.
         23    2    1    2    0    0  0.67504034222E+02 -0.93440690857E+02  0.10451008467E+03  0.18136190450E+03  0.93176312776E+02 0.  0.
          5    1    3    3  502    0  0.39069367902E+01 -0.27555800919E+02  0.25368887160E+02  0.37889829178E+02  0.41800000000E+01 0. -1.
         -5    1    3    3    0  502 -0.71410971013E+02  0.12099649178E+03  0.67756325143E+02  0.15603868046E+03  0.41800000000E+01 0. -1.
        -11    1    4    4    0    0  0.49766818344E+00 -0.68005622450E+02  0.20705706038E+02  0.71089651996E+02  0.00000000000E+00 0.  1.
         11    1    4    4    0    0  0.67006366039E+02 -0.25435068407E+02  0.83804378634E+02  0.11027225251E+03  0.00000000000E+00 0. -1.
</event>
<event>
 8    1  0.3528896E-009  0.9114193E+02  0.7561462E-02  0.1300110E+00
          2   -1    0    0  501    0  0.00000000000E+00  0.00000000000E+00  0.55244370774E+02  0.55244370774E+02  0.00000000000E+00 0. -1.
         -2   -1    0    0    0  501 -0.00000000000E+00 -0.00000000000E+00 -0.30515914476E+03  0.30515914476E+03  0.00000000000E+00 0.  1.
         25    2    1    2    0    0  0.20799255516E+02 -0.94273104332E+01 -0.44070121819E+02  0.13458390049E+03  0.12509663234E+03 0.  0.
         23    2    1    2    0    0 -0.20799255516E+02  0.94273104332E+01 -0.20584465217E+03  0.22581961505E+03  0.90005524831E+02 0.  0.
          5    1    3    3  502    0 -0.21299082123E+02  0.42042993206E+02 -0.48569795543E+02  0.67806796238E+02  0.41800000000E+01 0.  1.
         -5    1    3    3    0  502  0.42098337640E+02 -0.51470303640E+02  0.44996737237E+01  0.66777104253E+02  0.41800000000E+01 0.  1.
        -11    1    4    4    0    0  0.16884110597E-01  0.35207896486E+02 -0.18103155110E+03  0.18442347669E+03  0.00000000000E+00 0.  1.
         11    1    4    4    0    0 -0.20816139627E+02 -0.25780586053E+02 -0.24813101070E+02  0.41396138357E+02  0.00000000000E+00 0. -1.
</event>
<event>
 8    1  0.3528896E-009  0.1145265E+03  0.7561462E-02  0.1252410E+00
         -1   -1    0    0    0  501 -0.00000000000E+00  0.00000000000E+00  0.64517448649E+02  0.64517448649E+02  0.00000000000E+00 0.  1.
          1   -1    0    0  501    0  0.00000000000E+00 -0.00000000000E+00 -0.23579831959E+03  0.23579831959E+03  0.00000000000E+00 0. -1.
         25    2    1    2    0    0 -0.28223028761E+02  0.25591476006E+02 -0.41422894820E+02  0.13716605714E+03  0.12508880054E+03 0.  0.
         23    2    1    2    0    0  0.28223028761E+02 -0.25591476006E+02 -0.12985797612E+03  0.16314971109E+03  0.91122287457E+02 0.  0.
          5    1    3    3  502    0 -0.53230084816E+02 -0.35831927642E+02 -0.19579207216E+02  0.67217458471E+02  0.41800000000E+01 0.  1.
         -5    1    3    3    0  502  0.25007056056E+02  0.61423403648E+02 -0.21843687605E+02  0.69948598674E+02  0.41800000000E+01 0.  1.
        -11    1    4    4    0    0 -0.24056325795E+02 -0.37620616651E+02 -0.51162315825E+02  0.67908763562E+02  0.00000000000E+00 0.  1.
         11    1    4    4    0    0  0.52279354556E+02  0.12029140645E+02 -0.78695660293E+02  0.95240947530E+02  0.00000000000E+00 0. -1.
</event>
<event>
 8    1  0.3528896E-009  0.7885678E+02  0.7561462E-02  0.1332327E+00
          2   -1    0    0  501    0  0.00000000000E+00  0.00000000000E+00  0.85107721955E+02  0.85107721955E+02  0.00000000000E+00 0. -1.
         -2   -1    0    0    0  501 -0.00000000000E+00 -0.00000000000E+00 -0.14825406022E+03  0.14825406022E+03  0.00000000000E+00 0.  1.
         25    2    1    2    0    0  0.13515509253E+02 -0.17407216507E+02 -0.62142569457E+02  0.14140776892E+03  0.12509507582E+03 0.  0.
         23    2    1    2    0    0 -0.13515509253E+02  0.17407216507E+02 -0.10037688068E+01  0.91954013257E+02  0.89268431292E+02 0.  0.
          5    1    3    3  502    0 -0.20989247566E+02 -0.37394459011E+02  0.21869947483E+02  0.48318330693E+02  0.41800000000E+01 0.  1.
         -5    1    3    3    0  502  0.34504756819E+02  0.19987242504E+02 -0.84012516940E+02  0.93089438223E+02  0.41800000000E+01 0.  1.
        -11    1    4    4    0    0  0.22662009939E+02  0.28761123667E+02  0.26425072091E+02  0.45155878511E+02  0.00000000000E+00 0. -1.
         11    1    4    4    0    0 -0.36177519193E+02 -0.11353907160E+02 -0.27428840897E+02  0.46798134746E+02  0.00000000000E+00 0.  1.
</event>
<event>
 8    1  0.3528896E-009  0.2767412E+03  0.7561462E-02  0.1097482E+00
         -2   -1    0    0    0  501 -0.00000000000E+00  0.00000000000E+00  0.31030767876E+03  0.31030767876E+03  0.00000000000E+00 0.  1.
          2   -1    0    0  501    0  0.00000000000E+00 -0.00000000000E+00 -0.30169276098E+03  0.30169276098E+03  0.00000000000E+00 0. -1.
         25    2    1    2    0    0  0.59575231614E+02 -0.25311500298E+03  0.12310203650E+03  0.31371358719E+03  0.12508273440E+03 0.  0.
         23    2    1    2    0    0 -0.59575231614E+02  0.25311500298E+03 -0.11448711873E+03  0.29828685255E+03  0.90836848765E+02 0.  0.
          5    1    3    3  502    0  0.35621159660E+02 -0.14153434865E+02 -0.89919667872E+01  0.39591850180E+02  0.41800000000E+01 0.  1.
         -5    1    3    3    0  502  0.23954071954E+02 -0.23896156811E+03  0.13209400329E+03  0.27412173701E+03  0.41800000000E+01 0.  1.
        -11    1    4    4    0    0 -0.77881827315E+02  0.14055016260E+03 -0.56353913580E+02  0.17028121097E+03  0.00000000000E+00 0.  1.
         11    1    4    4    0    0  0.18306595701E+02  0.11256484037E+03 -0.58133205154E+02  0.12800564158E+03  0.00000000000E+00 0. -1.
</event>
<event>
 8    1  0.3528896E-009  0.7338361E+02  0.7561462E-02  0.1348951E+00
          1   -1    0    0  501    0  0.00000000000E+00  0.00000000000E+00  0.41406008925E+03  0.41406008925E+03  0.00000000000E+00 0. -1.
         -1   -1    0    0    0  501 -0.00000000000E+00 -0.00000000000E+00 -0.38795470849E+02  0.38795470849E+02  0.00000000000E+00 0.  1.
         25    2    1    2    0    0 -0.27868828103E+02  0.20883879786E+02  0.30858973276E+03  0.33479391771E+03  0.12508611498E+03 0.  0.
         23    2    1    2    0    0  0.27868828103E+02 -0.20883879786E+02  0.66674885644E+02  0.11806164238E+03  0.90995620838E+02 0.  0.
          5    1    3    3  502    0  0.30407516927E+02  0.14040929824E+02  0.24821576345E+03  0.25050010463E+03  0.41800000000E+01 0. -1.
         -5    1    3    3    0  502 -0.58276345030E+02  0.68429499612E+01  0.60373969306E+02  0.84293813083E+02  0.41800000000E+01 0. -1.
        -11    1    4    4    0    0  0.38548366658E+02 -0.12224962098E+02 -0.87648176996E+01  0.41379322126E+02  0.00000000000E+00 0.  1.
         11    1    4    4    0    0 -0.10679538555E+02 -0.86589176875E+01  0.75439703344E+02  0.76682320256E+02  0.00000000000E+00 0. -1.
</event>
<event>
 8    1  0.3528896E-009  0.1406198E+03  0.7561462E-02  0.1212497E+00
         -2   -1    0    0    0  501 -0.00000000000E+00  0.00000000000E+00  0.33487694592E+02  0.33487694592E+02  0.00000000000E+00 0.  1.
          2   -1    0    0  501    0  0.00000000000E+00 -0.00000000000E+00 -0.10212081783E+04  0.10212081783E+04  0.00000000000E+00 0. -1.
         25    2    1    2    0    0  0.10134980078E+03 -0.57441849180E+02 -0.25262244206E+03  0.30502040303E+03  0.12509196566E+03 0.  0.
         23    2    1    2    0    0 -0.10134980078E+03  0.57441849180E+02 -0.73509804160E+03  0.74967546983E+03  0.89848935073E+02 0.  0.
          5    1    3    3  502    0  0.10834557535E+03 -0.40377116311E+02 -0.26010951209E+03  0.28468141123E+03  0.41800000000E+01 0. -1.
         -5    1    3    3    0  502 -0.69957745709E+01 -0.17064732869E+02  0.74870700263E+01  0.20338991797E+02  0.41800000000E+01 0. -1.
        -11    1    4    4    0    0 -0.98213898101E+02  0.78256531743E+02 -0.64935803715E+03  0.66138938225E+03  0.00000000000E+00 0. -1.
         11    1    4    4    0    0 -0.31359026760E+01 -0.20814682564E+02 -0.85740004457E+02  0.88286087580E+02  0.00000000000E+00 0.  1.
</event>
<event>
 8    1  0.3528896E-009  0.1010547E+03  0.7561462E-02  0.1278094E+00
         -1   -1    0    0    0  501 -0.00000000000E+00  0.00000000000E+00  0.10406578441E+03  0.10406578441E+03  0.00000000000E+00 0.  1.
          1   -1    0    0  501    0  0.00000000000E+00 -0.00000000000E+00 -0.12988948917E+03  0.12988948917E+03  0.00000000000E+00 0. -1.
         25    2    1    2    0    0 -0.38616921178E+02  0.10365117412E+02 -0.43611871461E+01  0.13139817536E+03  0.12509099997E+03 0.  0.
         23    2    1    2    0    0  0.38616921178E+02 -0.10365117412E+02 -0.21462517609E+02  0.10255709822E+03  0.91970737044E+02 0.  0.
          5    1    3    3  502    0 -0.21376814234E+02 -0.41698164133E+02  0.39199488416E+02  0.61235425784E+02  0.41800000000E+01 0. -1.
         -5    1    3    3    0  502 -0.17240106943E+02  0.52063281545E+02 -0.43560675562E+02  0.70162749576E+02  0.41800000000E+01 0. -1.
        -11    1    4    4    0    0 -0.29247873814E+02 -0.13309604266E+02 -0.10107183411E+02  0.33685884950E+02  0.00000000000E+00 0.  1.
         11    1    4    4    0    0  0.67864794992E+02  0.29444868546E+01 -0.11355334198E+02  0.68871213267E+02  0.00000000000E+00 0. -1.
</event>
<event>
 8    1  0.3528896E-009  0.1095091E+03  0.7561462E-02  0.1261482E+00
         -2   -1    0    0    0  501 -0.00000000000E+00  0.00000000000E+00  0.43846857955E+03  0.43846857955E+03  0.00000000000E+00 0.  1.
          2   -1    0    0  501    0  0.00000000000E+00 -0.00000000000E+00 -0.35852703688E+02  0.35852703688E+02  0.00000000000E+00 0. -1.
         25    2    1    2    0    0  0.61809910482E+02  0.93742596234E+01  0.24249591352E+03  0.27992867865E+03  0.12508978889E+03 0.  0.
         23    2    1    2    0    0 -0.61809910482E+02 -0.93742596234E+01  0.16011996234E+03  0.19439260458E+03  0.90784032726E+02 0.  0.
          5    1    3    3  502    0 -0.27214717517E+02  0.30630281025E+02  0.38838885764E+02  0.56610832997E+02  0.41800000000E+01 0.  1.
         -5    1    3    3    0  502  0.89024627999E+02 -0.21256021402E+02  0.20365702775E+03  0.22331784566E+03  0.41800000000E+01 0.  1.
        -11    1    4    4    0    0 -0.70053459088E+02 -0.19913588245E+02  0.16483392944E+03  0.18020616643E+03  0.00000000000E+00 0.  1.
         11    1    4    4    0    0  0.82435486063E+01  0.10539328622E+02 -0.47139670981E+01  0.14186438144E+02  0.00000000000E+00 0. -1.
</event>
<event>
 8    1  0.3528896E-009  0.1012086E+03  0.7561462E-02  0.1277775E+00
          2   -1    0    0  501    0  0.00000000000E+00  0.00000000000E+00  0.18747698789E+03  0.18747698789E+03  0.00000000000E+00 0. -1.
         -2   -1    0    0    0  501 -0.00000000000E+00 -0.00000000000E+00 -0.66675467330E+02  0.66675467330E+02  0.00000000000E+00 0.  1.
         25    2    1    2    0    0  0.18649521266E+02 -0.15076695353E+02  0.73112215824E+02  0.14686335970E+03  0.12509332090E+03 0.  0.
         23    2    1    2    0    0 -0.18649521266E+02  0.15076695353E+02  0.47689304735E+02  0.10728909551E+03  0.93067549898E+02 0.  0.
          5    1    3    3  502    0  0.53506124686E+02 -0.47938404961E+02  0.18909542232E+02  0.74404564622E+02  0.41800000000E+01 0. -1.
         -5    1    3    3    0  502 -0.34856603420E+02  0.32861709608E+02  0.54202673592E+02  0.72458795083E+02  0.41800000000E+01 0. -1.
        -11    1    4    4    0    0 -0.47048485908E+02  0.23711792863E+02  0.55572365309E+02  0.76577391788E+02  0.00000000000E+00 0. -1.
         11    1    4    4    0    0  0.28398964642E+02 -0.86350975103E+01 -0.78830605742E+01  0.30711703726E+02  0.00000000000E+00 0.  1.
</event>
<event>
 8    1  0.3528896E-009  0.1065920E+03  0.7561462E-02  0.1267014E+00
          1   -1    0    0  501    0  0.00000000000E+00  0.00000000000E+00  0.27861893844E+03  0.27861893844E+03  0.00000000000E+00 0. -1.
         -1   -1    0    0    0  501 -0.00000000000E+00 -0.00000000000E+00 -0.82844335274E+02  0.82844335274E+02  0.00000000000E+00 0.  1.
         25    2    1    2    0    0  0.64789948604E+01  0.58955970042E+02  0.21099783681E+03  0.25236428475E+03  0.12509940567E+03 0.  0.
         23    2    1    2    0    0 -0.64789948604E+01 -0.58955970042E+02 -0.15223233652E+02  0.10909898896E+03  0.90294289804E+02 0.  0.
          5    1    3    3  502    0  0.38090376627E+02 -0.54237788715E+00  0.16803114669E+03  0.17234590109E+03  0.41800000000E+01 0. -1.
         -5    1    3    3    0  502 -0.31611381767E+02  0.59498347929E+02  0.42966690129E+02  0.80018383663E+02  0.41800000000E+01 0. -1.
        -11    1    4    4    0    0  0.41348635634E+02 -0.21475340567E+02 -0.12653493380E+02  0.48280542830E+02  0.00000000000E+00 0.  1.
         11    1    4    4    0    0 -0.47827630494E+02 -0.37480629474E+02 -0.25697402721E+01  0.60818446129E+02  0.00000000000E+00 0. -1.
</event>
<event>
 8    1  0.3528896E-009  0.9174158E+02  0.7561462E-02  0.1298688E+00
         -1   -1    0    0    0  501 -0.00000000000E+00  0.00000000000E+00  0.41504146541E+02  0.41504146541E+02  0.00000000000E+00 0.  1.
          1   -1    0    0  501    0  0.00000000000E+00 -0.00000000000E+00 -0.48760372281E+03  0.48760372281E+03  0.00000000000E+00 0. -1.
         25    2    1    2    0    0  0.67430320433E+02 -0.21430618035E+02 -0.13803764126E+03  0.19926724489E+03  0.12508766918E+03 0.  0.
         23    2    1    2    0    0 -0.67430320433E+02  0.21430618035E+02 -0.30806193501E+03  0.32984062445E+03  0.94268564404E+02 0.  0.
          5    1    3    3  502    0  0.72581074106E+02 -0.39506228963E+02 -0.27689888077E+02  0.87252259266E+02  0.41800000000E+01 0. -1.
         -5    1    3    3    0  502 -0.51507536730E+01  0.18075610928E+02 -0.11034775318E+03  0.11201498563E+03  0.41800000000E+01 0. -1.
        -11    1    4    4    0    0 -0.13347746105E+02 -0.11964056660E+02 -0.29349766431E+01  0.18163564235E+02  0.00000000000E+00 0.  1.
         11    1    4    4    0    0 -0.54082574329E+02  0.33394674695E+02 -0.30512695837E+03  0.31167706022E+03  0.00000000000E+00 0. -1.
</event>
<event>
 7    1  0.3528896E-009  0.1337276E+03  0.7561462E-02  0.1222027E+00
         -2   -1    0    0    0  501 -0.00000000000E+00  0.00000000000E+00  0.77709561551E+03  0.77709561551E+03  0.00000000000E+00 0.  1.
          2   -1    0    0  501    0  0.00000000000E+00 -0.00000000000E+00 -0.25091556246E+02  0.25091556246E+02  0.00000000000E+00 0. -1.
         25    2    1    2    0    0  0.35358959621E+02 -0.15124038762E+02  0.39456715169E+03  0.41570441638E+03  0.12509169449E+03 0.  0.
          5    1    3    3  502    0 -0.38751598596E+02 -0.36404411613E+02  0.14712557463E+03  0.15649400847E+03  0.41800000000E+01 0.  1.
         -5    1    3    3    0  502  0.74110558217E+02  0.21280372851E+02  0.24744157706E+03  0.25921040791E+03  0.41800000000E+01 0.  1.
        -11    1    1    2    0    0  0.41860050456E+02  0.37823632400E+02  0.82045956150E+02  0.99571230346E+02  0.00000000000E+00 0. -1.
         11    1    1    2    0    0 -0.77219010076E+02 -0.22699593637E+02  0.27539095142E+03  0.28691152503E+03  0.00000000000E+00 0.  1.
</event>
<event>
 8    1  0.3528896E-009  0.1120289E+03  0.7561462E-02  0.1256858E+00
          2   -1    0    0  501    0  0.00000000000E+00  0.00000000000E+00  0.21006091626E+02  0.21006091626E+02  0.00000000000E+00 0. -1.
         -2   -1    0    0    0  501 -0.00000000000E+00 -0.00000000000E+00 -0.97687827128E+03  0.97687827128E+03  0.00000000000E+00 0.  1.
         25    2    1    2    0    0 -0.52541785932E+02  0.23915849465E+02 -0.75949634100E+03  0.77188808399E+03  0.12507563743E+03 0.  0.
         23    2    1    2    0    0  0.52541785932E+02 -0.23915849465E+02 -0.19637583865E+03  0.22599627892E+03  0.95803136457E+02 0.  0.
          5    1    3    3  502    0 -0.52798161944E+02 -0.29937408099E+02 -0.60825951894E+03  0.61129453547E+03  0.41800000000E+01 0. -1.
         -5    1    3    3    0  502  0.25637601218E+00  0.53853257564E+02 -0.15123682206E+03  0.16059354852E+03  0.41800000000E+01 0. -1.
        -11    1    4    4    0    0 -0.27001918921E+02 -0.55343981760E+01 -0.73239963032E+02  0.78254874439E+02  0.00000000000E+00 0.  1.
         11    1    4    4    0    0  0.79543704853E+02 -0.18381451289E+02 -0.12313587561E+03  0.14774140448E+03  0.00000000000E+00 0. -1.
</event>
<event>
 8    1  0.3528896E-009  0.1086009E+03  0.7561462E-02  0.1263183E+00
         -2   -1    0    0    0  501 -0.00000000000E+00  0.00000000000E+00  0.24132280645E+02  0.24132280645E+02  0.00000000000E+00 0. -1.
          2   -1    0    0  501    0  0.00000000000E+00 -0.00000000000E+00 -0.62661639925E+03  0.62661639925E+03  0.00000000000E+00 0.  1.
         25    2    1    2    0    0  0.19807201997E+02  0.54765134055E+02 -0.34150858190E+03  0.36832842825E+03  0.12508466887E+03 0.  0.
         23    2    1    2    0    0 -0.19807201997E+02 -0.54765134055E+02 -0.26097553670E+03  0.28242025164E+03  0.90892368333E+02 0.  0.
          5    1    3    3  502    0  0.40703599225E+02  0.72687113697E+02 -0.32590435082E+03  0.33640944959E+03  0.41800000000E+01 0.  1.
         -5    1    3    3    0  502 -0.20896397228E+02 -0.17921979642E+02 -0.15604231080E+02  0.31918978665E+02  0.41800000000E+01 0.  1.
        -11    1    4    4    0    0 -0.55090204146E+01  0.24647092113E+02 -0.41481915118E+02  0.48565190594E+02  0.00000000000E+00 0. -1.
         11    1    4    4    0    0 -0.14298181583E+02 -0.79412226167E+02 -0.21949362158E+03  0.23385506105E+03  0.00000000000E+00 0.  1.
</event>
<event>
 8    1  0.3528896E-009  0.9305097E+02  0.7561462E-02  0.1295627E+00
          2   -1    0    0  501    0  0.00000000000E+00  0.00000000000E+00  0.56236841794E+02  0.56236841794E+02  0.00000000000E+00 0. -1.
         -2   -1    0    0    0  501 -0.00000000000E+00 -0.00000000000E+00 -0.25419139497E+03  0.25419139497E+03  0.00000000000E+00 0.  1.
         25    2    1    2    0    0 -0.11164397706E+02  0.13863354076E+01 -0.46556406530E+02  0.13395686649E+03  0.12510146837E+03 0.  0.
         23    2    1    2    0    0  0.11164397706E+02 -0.13863354076E+01 -0.15139814665E+03  0.17647137028E+03  0.89967660959E+02 0.  0.
          5    1    3    3  502    0  0.47680767944E+02 -0.31856875752E+02 -0.26681648630E+02  0.63385321156E+02  0.41800000000E+01 0. -1.
         -5    1    3    3    0  502 -0.58845165650E+02  0.33243211159E+02 -0.19874757900E+02  0.70571545329E+02  0.41800000000E+01 0. -1.
        -11    1    4    4    0    0  0.96486144595E+01 -0.30370874592E+02 -0.11948200840E+02  0.34033002920E+02  0.00000000000E+00 0. -1.
         11    1    4    4    0    0  0.15157832463E+01  0.28984539184E+02 -0.13944994581E+03  0.14243836736E+03  0.00000000000E+00 0.  1.
</event>
<event>
 8    1  0.3528896E-009  0.1081668E+03  0.7561462E-02  0.1264003E+00
          4   -1    0    0  501    0  0.00000000000E+00  0.00000000000E+00  0.42362666780E+03  0.42362666780E+03  0.00000000000E+00 0.  1.
         -4   -1    0    0    0  501 -0.00000000000E+00 -0.00000000000E+00 -0.33904783947E+02  0.33904783947E+02  0.00000000000E+00 0. -1.
         25    2    1    2    0    0 -0.19091581862E+02  0.43386418493E+02  0.19188699379E+03  0.23391376755E+03  0.12509261550E+03 0.  0.
         23    2    1    2    0    0  0.19091581862E+02 -0.43386418493E+02  0.19783489006E+03  0.22361768420E+03  0.92840482302E+02 0.  0.
          5    1    3    3  502    0 -0.55794715577E+02 -0.18497721556E+02  0.11028379191E+03  0.12504080593E+03  0.41800000000E+01 0. -1.
         -5    1    3    3    0  502  0.36703133716E+02  0.61884140049E+02  0.81603201882E+02  0.10887296162E+03  0.41800000000E+01 0. -1.
        -11    1    4    4    0    0 -0.25641911548E+02 -0.28144913150E+02  0.15575040515E+03  0.16033662236E+03  0.00000000000E+00 0.  1.
         11    1    4    4    0    0  0.44733493409E+02 -0.15241505343E+02  0.42084484903E+02  0.63281061838E+02  0.00000000000E+00 0. -1.
</event>
<event>
 8    1  0.3528896E-009  0.1299886E+03  0.7561462E-02  0.1227473E+00
         -2   -1    0    0    0  501 -0.00000000000E+00  0.00000000000E+00  0.63993293048E+03  0.63993293048E+03  0.00000000000E+00 0.  1.
          2   -1    0    0  501    0  0.00000000000E+00 -0.00000000000E+00 -0.41093637000E+02  0.41093637000E+02  0.00000000000E+00 0. -1.
         25    2    1    2    0    0 -0.92541793222E+01  0.10609229947E+03  0.21784874729E+03  0.27284818253E+03  0.12508732220E+03 0.  0.
         23    2    1    2    0    0  0.92541793222E+01 -0.10609229947E+03  0.38099054620E+03  0.40817838495E+03  0.10057127726E+03 0.  0.
          5    1    3    3  502    0 -0.58661788370E+02  0.70945271557E+02  0.79375025492E+02  0.12162361630E+03  0.41800000000E+01 0.  1.
         -5    1    3    3    0  502  0.49407609048E+02  0.35147027909E+02  0.13847372179E+03  0.15122456623E+03  0.41800000000E+01 0.  1.
        -11    1    4    4    0    0 -0.23494258947E+01 -0.10833607153E+02 -0.37098451154E+01  0.11689730397E+02  0.00000000000E+00 0. -1.
         11    1    4    4    0    0  0.11603605217E+02 -0.95258692313E+02  0.38470039131E+03  0.39648865456E+03  0.00000000000E+00 0.  1.
</event>
<event>
 8    1  0.3528896E-009  0.1254492E+03  0.7561462E-02  0.1234369E+00
          2   -1    0    0  501    0  0.00000000000E+00  0.00000000000E+00  0.23236384823E+03  0.23236384823E+03  0.00000000000E+00 0. -1.
         -2   -1    0    0    0  501 -0.00000000000E+00 -0.00000000000E+00 -0.11220946710E+03  0.11220946710E+03  0.00000000000E+00 0.  1.
         25    2    1    2    0    0  0.10664878178E+03  0.18687654824E+02  0.11801304983E+03  0.20321984237E+03  0.12509209930E+03 0.  0.
         23    2    1    2    0    0 -0.10664878178E+03 -0.18687654824E+02  0.21413313050E+01  0.14135347296E+03  0.90846177253E+02 0.  0.
          5    1    3    3  502    0  0.27063419983E+02  0.15138480305E+02  0.11940186322E+03  0.12343370539E+03  0.41800000000E+01 0. -1.
         -5    1    3    3    0  502  0.79585361793E+02  0.35491745194E+01 -0.13888133860E+01  0.79786136980E+02  0.41800000000E+01 0. -1.
        -11    1    4    4    0    0 -0.11083647048E+03  0.95877542392E+01 -0.66479613965E+01  0.11144883853E+03  0.00000000000E+00 0.  1.
         11    1    4    4    0    0  0.41876886991E+01 -0.28275409064E+02  0.87892927015E+01  0.29904634433E+02  0.00000000000E+00 0. -1.
</event>
<event>
 8    1  0.3528896E-009  0.9603272E+02  0.7561462E-02  0.1288867E+00
          1   -1    0    0  501    0  0.00000000000E+00  0.00000000000E+00  0.42215684201E+02  0.42215684201E+02  0.00000000000E+00 0. -1.
         -1   -1    0    0    0  501 -0.00000000000E+00 -0.00000000000E+00 -0.31133961716E+03  0.31133961716E+03  0.00000000000E+00 0.  1.
         25    2    1    2    0    0 -0.36689230041E+02  0.86870366498E+01 -0.16813944402E+03  0.21294100978E+03  0.12510570252E+03 0.  0.
         23    2    1    2    0    0  0.36689230041E+02 -0.86870366498E+01 -0.10098448893E+03  0.14061429158E+03  0.90293675219E+02 0.  0.
          5    1    3    3  502    0  0.28144822323E+02 -0.24423100418E+01 -0.13717335515E+03  0.14011458762E+03  0.41800000000E+01 0.  1.
         -5    1    3    3    0  502 -0.64834052364E+02  0.11129346692E+02 -0.30966088874E+02  0.72826422155E+02  0.41800000000E+01 0.  1.
        -11    1    4    4    0    0  0.55295595154E+02  0.23763757182E+02 -0.57261789713E+02  0.83073651419E+02  0.00000000000E+00 0. -1.
         11    1    4    4    0    0 -0.18606365114E+02 -0.32450793831E+02 -0.43722699219E+02  0.57540640160E+02  0.00000000000E+00 0.  1.
</event>
<event>
 8    1  0.3528896E-009  0.9923629E+02  0.7561462E-02  0.1281910E+00
         -1   -1    0    0    0  501 -0.00000000000E+00  0.00000000000E+00  0.20019866341E+03  0.20019866341E+03  0.00000000000E+00 0.  1.
          1   -1    0    0  501    0  0.00000000000E+00 -0.00000000000E+00 -0.65339641950E+02  0.65339641950E+02  0.00000000000E+00 0. -1.
         25    2    1    2    0    0 -0.24680018242E+02 -0.19076652500E+02  0.48878624663E+02  0.13787562094E+03  0.12509014721E+03 0.  0.
         23    2    1    2    0    0  0.24680018242E+02  0.19076652500E+02  0.85980396794E+02  0.12766268442E+03  0.89062396049E+02 0.  0.
          5    1    3    3  502    0  0.22848102144E+02 -0.58395637960E+02  0.42180364035E+02  0.75688452319E+02  0.41800000000E+01 0. -1.
         -5    1    3    3    0  502 -0.47528120386E+02  0.39318985460E+02  0.66982606283E+01  0.62187168616E+02  0.41800000000E+01 0. -1.
        -11    1    4    4    0    0 -0.17229401537E+02  0.26133838051E+02  0.78498821945E+02  0.84509732075E+02  0.00000000000E+00 0.  1.
         11    1    4    4    0    0  0.41909419779E+02 -0.70571855513E+01  0.74815748491E+01  0.43152952347E+02  0.00000000000E+00 0. -1.
</event>
<event>
 8    1  0.3528896E-009  0.1160899E+03  0.7561462E-02  0.1249691E+00
          2   -1    0    0  501    0  0.00000000000E+00  0.00000000000E+00  0.55482732800E+03  0.55482732800E+03  0.00000000000E+00 0. -1.
         -2   -1    0    0    0  501 -0.00000000000E+00 -0.00000000000E+00 -0.68248803982E+02  0.68248803982E+02  0.00000000000E+00 0.  1.
         25    2    1    2    0    0  0.28421103115E+02  0.39492115600E+02  0.50115126933E+03  0.51881477176E+03  0.12509510920E+03 0.  0.
         23    2    1    2    0    0 -0.28421103115E+02 -0.39492115600E+02 -0.14572745307E+02  0.10426136023E+03  0.91053171469E+02 0.  0.
          5    1    3    3  502    0  0.76751324153E+02  0.10314941885E+02  0.29739245739E+03  0.30733842893E+03  0.41800000000E+01 0.  1.
         -5    1    3    3    0  502 -0.48330221038E+02  0.29177173715E+02  0.20375881194E+03  0.21147634283E+03  0.41800000000E+01 0.  1.
        -11    1    4    4    0    0 -0.24091905524E+02 -0.66465926996E+02 -0.25046925053E+02  0.75003252049E+02  0.00000000000E+00 0.  1.
         11    1    4    4    0    0 -0.43291975910E+01  0.26973811397E+02  0.10474179746E+02  0.29258108182E+02  0.00000000000E+00 0. -1.
</event>
<event>
 8    1  0.3528896E-009  0.1254518E+03  0.7561462E-02  0.1234365E+00
         -4   -1    0    0    0  501 -0.00000000000E+00  0.00000000000E+00  0.35445652397E+03  0.35445652397E+03  0.00000000000E+00 0. -1.
          4   -1    0    0  501    0  0.00000000000E+00 -0.00000000000E+00 -0.44878795982E+02  0.44878795982E+02  0.00000000000E+00 0.  1.
         25    2    1    2    0    0 -0.64237596977E+02  0.79188018355E+01  0.17897505685E+03  0.22774717508E+03  0.12509008152E+03 0.  0.
         23    2    1    2    0    0  0.64237596977E+02 -0.79188018355E+01  0.13060267114E+03  0.17158814488E+03  0.90533184330E+02 0.  0.
          5    1    3    3  502    0 -0.80487705619E+02 -0.39281337730E+02  0.10086231702E+03  0.13495174562E+03  0.41800000000E+01 0.  1.
         -5    1    3    3    0  502  0.16250108642E+02  0.47200139565E+02  0.78112739827E+02  0.92795429462E+02  0.41800000000E+01 0.  1.
        -11    1    4    4    0    0  0.30081767699E+01  0.35793060805E+02  0.46275941753E+02  0.58580330439E+02  0.00000000000E+00 0.  1.
         11    1    4    4    0    0  0.61229420207E+02 -0.43711862641E+02  0.84326729387E+02  0.11300781444E+03  0.00000000000E+00 0. -1.
</event>
<event>
 8    1  0.3528896E-009  0.1080313E+03  0.7561462E-02  0.1264260E+00
          2   -1    0    0  501    0  0.00000000000E+00  0.00000000000E+00  0.87985168991E+03  0.87985168991E+03  0.00000000000E+00 0. -1.
         -2   -1    0    0    0  501 -0.00000000000E+00 -0.00000000000E+00 -0.16702826800E+02  0.16702826800E+02  0.00000000000E+00 0.  1.
         25    2    1    2    0    0 -0.20611873860E+01  0.43346587399E+02  0.61764383237E+03  0.63167637057E+03  0.12509179965E+03 0.  0.
         23    2    1    2    0    0  0.20611873860E+01 -0.43346587399E+02  0.24550503075E+03  0.26487814615E+03  0.89468078396E+02 0.  0.
          5    1    3    3  502    0 -0.63124295424E+02  0.27828353613E+02  0.30772369836E+03  0.31538934806E+03  0.41800000000E+01 0.  1.
         -5    1    3    3    0  502  0.61063108038E+02  0.15518233785E+02  0.30992013401E+03  0.31628702250E+03  0.41800000000E+01 0.  1.
        -11    1    4    4    0    0  0.28615453024E+02 -0.48919906321E+02  0.85428733342E+02  0.10251863180E+03  0.00000000000E+00 0.  1.
         11    1    4    4    0    0 -0.26554265638E+02  0.55733189226E+01  0.16007629740E+03  0.16235951434E+03  0.00000000000E+00 0. -1.
</event>
<event>
 8    1  0.3528896E-009  0.1193656E+03  0.7561462E-02  0.1244147E+00
          1   -1    0    0  501    0  0.00000000000E+00  0.00000000000E+00  0.17930906663E+03  0.17930906663E+03  0.00000000000E+00 0. -1.
         -1   -1    0    0    0  501 -0.00000000000E+00 -0.00000000000E+00 -0.11850168104E+03  0.11850168104E+03  0.00000000000E+00 0.  1.
         25    2    1    2    0    0  0.90695594949E+02 -0.88674388454E+01  0.68703556793E+02  0.16934801809E+03  0.12511694569E+03 0.  0.
         23    2    1    2    0    0 -0.90695594949E+02  0.88674388454E+01 -0.78961712059E+01  0.12846272959E+03  0.90199783582E+02 0.  0.
          5    1    3    3  502    0 -0.16643499414E+02 -0.32375307071E+02  0.42862321810E+02  0.56389871534E+02  0.41800000000E+01 0. -1.
         -5    1    3    3    0  502  0.10733909436E+03  0.23507868225E+02  0.25841234983E+02  0.11295814655E+03  0.41800000000E+01 0. -1.
        -11    1    4    4    0    0 -0.38481430815E+02 -0.29413486794E+01 -0.47987649297E+02  0.61581543783E+02  0.00000000000E+00 0.  1.
         11    1    4    4    0    0 -0.52214164133E+02  0.11808787525E+02  0.40091478091E+02  0.66881185803E+02  0.00000000000E+00 0. -1.
</event>
<event>
 8    1  0.3528896E-009  0.1172195E+03  0.7561462E-02  0.1247756E+00
         -2   -1    0    0    0  501 -0.00000000000E+00  0.00000000000E+00  0.30210851295E+03  0.30210851295E+03  0.00000000000E+00 0.  1.
          2   -1    0    0  501    0  0.00000000000E+00 -0.00000000000E+00 -0.12936217349E+03  0.12936217349E+03  0.00000000000E+00 0. -1.
         25    2    1    2    0    0 -0.59179494352E+02  0.41534887509E+02 -0.70647300762E+02  0.16083141777E+03  0.12509334276E+03 0.  0.
         23    2    1    2    0    0  0.59179494352E+02 -0.41534887509E+02  0.24339364023E+03  0.27063926867E+03  0.93689861838E+02 0.  0.
          5    1    3    3  502    0 -0.57430254185E+02 -0.35278349355E+02 -0.32191029403E+02  0.74809964597E+02  0.41800000000E+01 0. -1.
         -5    1    3    3    0  502 -0.17492401667E+01  0.76813236864E+02 -0.38456271359E+02  0.86021453170E+02  0.41800000000E+01 0. -1.
        -11    1    4    4    0    0  0.18842622096E+01 -0.31788298277E+02  0.15433228591E+02  0.35386874631E+02  0.00000000000E+00 0. -1.
         11    1    4    4    0    0  0.57295232142E+02 -0.97465892321E+01  0.22796041163E+03  0.23525239404E+03  0.00000000000E+00 0.  1.
</event>
<event>
 8    1  0.3528896E-009  0.1012868E+03  0.7561462E-02  0.1277613E+00
         -1   -1    0    0    0  501 -0.00000000000E+00  0.00000000000E+00  0.15771201932E+03  0.15771201932E+03  0.00000000000E+00 0.  1.
          1   -1    0    0  501    0  0.00000000000E+00 -0.00000000000E+00 -0.69159105713E+02  0.69159105713E+02  0.00000000000E+00 0. -1.
         25    2    1    2    0    0 -0.20743066909E+02 -0.19929730317E+02  0.46319625863E+02  0.13645707063E+03  0.12509018910E+03 0.  0.
         23    2    1    2    0    0  0.20743066909E+02  0.19929730317E+02  0.42233287747E+02  0.90414054404E+02  0.74589420594E+02 0.  0.
          5    1    3    3  502    0 -0.64290991612E+02  0.17216271950E+02  0.42201099248E+02  0.78918545349E+02  0.41800000000E+01 0. -1.
         -5    1    3    3    0  502  0.43547924702E+02 -0.37146002267E+02  0.41185266145E+01  0.57538525283E+02  0.41800000000E+01 0. -1.
        -11    1    4    4    0    0 -0.21785869433E+02  0.27722258039E+02  0.10522593243E+02  0.36795008715E+02  0.00000000000E+00 0.  1.
         11    1    4    4    0    0  0.42528936343E+02 -0.77925277219E+01  0.31710694503E+02  0.53619045689E+02  0.00000000000E+00 0. -1.
</event>
<event>
 8    1  0.3528896E-009  0.1390457E+03  0.7561462E-02  0.1214619E+00
         -1   -1    0    0    0  501 -0.00000000000E+00  0.00000000000E+00  0.83674553837E+02  0.83674553837E+02  0.00000000000E+00 0.  1.
          1   -1    0    0  501    0  0.00000000000E+00 -0.00000000000E+00 -0.28830293311E+03  0.28830293311E+03  0.00000000000E+00 0. -1.
         25    2    1    2    0    0  0.42021262650E+01  0.10116814628E+03 -0.55233972745E+02  0.17014957088E+03  0.12508969998E+03 0.  0.
         23    2    1    2    0    0 -0.42021262650E+01 -0.10116814628E+03 -0.14939440653E+03  0.20182791607E+03  0.90350248000E+02 0.  0.
          5    1    3    3  502    0  0.27692492236E+02  0.12392208386E+03 -0.51030252512E+02  0.13691280461E+03  0.41800000000E+01 0.  1.
         -5    1    3    3    0  502 -0.23490365971E+02 -0.22753937579E+02 -0.42037202328E+01  0.33236766278E+02  0.41800000000E+01 0.  1.
        -11    1    4    4    0    0  0.27568574901E+02 -0.60352166069E+02 -0.32250834437E+02  0.73773481639E+02  0.00000000000E+00 0.  1.
         11    1    4    4    0    0 -0.31770701166E+02 -0.40815980210E+02 -0.11714357210E+03  0.12805443443E+03  0.00000000000E+00 0. -1.
</event>
<event>
 8    1  0.3528896E-009  0.1174438E+03  0.7561462E-02  0.1247375E+00
          2   -1    0    0  501    0  0.00000000000E+00  0.00000000000E+00  0.24558254948E+03  0.24558254948E+03  0.00000000000E+00 0. -1.
         -2   -1    0    0    0  501 -0.00000000000E+00 -0.00000000000E+00 -0.64135789500E+02  0.64135789500E+02  0.00000000000E+00 0.  1.
         25    2    1    2    0    0 -0.55870184366E+02  0.17152593295E+02  0.12945471384E+03  0.18926818607E+03  0.12509290295E+03 0.  0.
         23    2    1    2    0    0  0.55870184366E+02 -0.17152593295E+02  0.51992046148E+02  0.12045015291E+03  0.91593545161E+02 0.  0.
          5    1    3    3  502    0  0.30937562571E+02 -0.25798525347E+02  0.30142817994E+02  0.50485231153E+02  0.41800000000E+01 0. -1.
         -5    1    3    3    0  502 -0.86807746938E+02  0.42951118642E+02  0.99311895841E+02  0.13878295492E+03  0.41800000000E+01 0. -1.
        -11    1    4    4    0    0  0.17045362325E+02 -0.46013485049E+02 -0.49197271253E+00  0.49071653939E+02  0.00000000000E+00 0.  1.
         11    1    4    4    0    0  0.38824822041E+02  0.28860891754E+02  0.52484018861E+02  0.71378498969E+02  0.00000000000E+00 0. -1.
</event>
<event>
 8    1  0.3528896E-009  0.1449472E+03  0.7561462E-02  0.1206823E+00
         -2   -1    0    0    0  501 -0.00000000000E+00  0.00000000000E+00  0.17062662666E+03  0.17062662666E+03  0.00000000000E+00 0.  1.
          2   -1    0    0  501    0  0.00000000000E+00 -0.00000000000E+00 -0.15467058314E+03  0.15467058314E+03  0.00000000000E+00 0. -1.
         25    2    1    2    0    0 -0.50477133043E+02  0.12009355651E+03  0.16288393949E+02  0.18133895808E+03  0.12509237652E+03 0.  0.
         23    2    1    2    0    0  0.50477133043E+02 -0.12009355651E+03 -0.33235042994E+00  0.14395825172E+03  0.61265524620E+02 0.  0.
          5    1    3    3  502    0 -0.41281635854E+02  0.13298706977E+03  0.46589981781E+02  0.14689395150E+03  0.41800000000E+01 0. -1.
         -5    1    3    3    0  502 -0.91954971887E+01 -0.12893513263E+02 -0.30301587831E+02  0.34445006574E+02  0.41800000000E+01 0. -1.
        -11    1    4    4    0    0  0.34512529189E+02 -0.41351519154E+02  0.25459821948E+02  0.59575710999E+02  0.00000000000E+00 0.  1.
         11    1    4    4    0    0  0.15964603853E+02 -0.78742037355E+02 -0.25792172378E+02  0.84382540724E+02  0.00000000000E+00 0. -1.
</event>
<event>
 8    1  0.3528896E-009  0.1201173E+03  0.7561462E-02  0.1242904E+00
         -1   -1    0    0    0  501 -0.00000000000E+00  0.00000000000E+00  0.23507876738E+02  0.23507876738E+02  0.00000000000E+00 0.  1.
          1   -1    0    0  501    0  0.00000000000E+00 -0.00000000000E+00 -0.86307097436E+03  0.86307097436E+03  0.00000000000E+00 0. -1.
         25    2    1    2    0    0  0.22464859846E+02  0.65255906986E+02 -0.64832491305E+03  0.66387894725E+03  0.12508821046E+03 0.  0.
         23    2    1    2    0    0 -0.22464859846E+02 -0.65255906986E+02 -0.19123818457E+03  0.22269990385E+03  0.90885645790E+02 0.  0.
          5    1    3    3  502    0  0.53148560432E+02 -0.14822604333E+02 -0.20625977010E+03  0.21355337562E+03  0.41800000000E+01 0. -1.
         -5    1    3    3    0  502 -0.30683700586E+02  0.80078511319E+02 -0.44206514295E+03  0.45032557163E+03  0.41800000000E+01 0. -1.
        -11    1    4    4    0    0 -0.46558731355E+02 -0.26971006275E+02 -0.46692847367E+02  0.71241649617E+02  0.00000000000E+00 0.  1.
         11    1    4    4    0    0  0.24093871509E+02 -0.38284900711E+02 -0.14454533720E+03  0.15145825423E+03  0.00000000000E+00 0. -1.
</event>
<event>
 8    1  0.3528896E-009  0.6518032E+02  0.7561462E-02  0.1377294E+00
          1   -1    0    0  501    0  0.00000000000E+00  0.00000000000E+00  0.11054954860E+03  0.11054954860E+03  0.00000000000E+00 0. -1.
         -1   -1    0    0    0  501 -0.00000000000E+00 -0.00000000000E+00 -0.17850174855E+03  0.17850174855E+03  0.00000000000E+00 0.  1.
         25    2    1    2    0    0  0.37368176714E+02 -0.22453926741E+01 -0.12040387329E+03  0.17760477794E+03  0.12507974267E+03 0.  0.
         23    2    1    2    0    0 -0.37368176714E+02  0.22453926741E+01  0.52451673342E+02  0.11144651921E+03  0.90927037722E+02 0.  0.
          5    1    3    3  502    0 -0.16892109788E+02  0.15925199774E+02 -0.11783504825E+03  0.12017290192E+03  0.41800000000E+01 0. -1.
         -5    1    3    3    0  502  0.54260286502E+02 -0.18170592448E+02 -0.25688250404E+01  0.57431876021E+02  0.41800000000E+01 0. -1.
        -11    1    4    4    0    0 -0.29957498140E+02 -0.12837640773E+02  0.75897742680E+02  0.82599782442E+02  0.00000000000E+00 0. -1.
         11    1    4    4    0    0 -0.74106785736E+01  0.15083033447E+02 -0.23446069338E+02  0.28846736770E+02  0.00000000000E+00 0.  1.
</event>
<event>
 8    1  0.3528896E-009  0.7769878E+02  0.7561462E-02  0.1335712E+00
          3   -1    0    0  501    0  0.00000000000E+00  0.00000000000E+00  0.30532543278E+02  0.30532543278E+02  0.00000000000E+00 0. -1.
         -3   -1    0    0    0  501 -0.00000000000E+00 -0.00000000000E+00 -0.81224763802E+03  0.81224763802E+03  0.00000000000E+00 0.  1.
         25    2    1    2    0    0 -0.29116253382E+02  0.28608535441E+02 -0.70206024795E+03  0.71428458647E+03  0.12509066394E+03 0.  0.
         23    2    1    2    0    0  0.29116253382E+02 -0.28608535441E+02 -0.79654846792E+02  0.12849559483E+03  0.92195546324E+02 0.  0.
          5    1    3    3  502    0 -0.73777595631E+01  0.31461450864E+02 -0.38878509615E+02  0.50727360828E+02  0.41800000000E+01 0. -1.
         -5    1    3    3    0  502 -0.21738493819E+02 -0.28529154233E+01 -0.66318173834E+03  0.66355722564E+03  0.41800000000E+01 0. -1.
        -11    1    4    4    0    0 -0.32674952362E+01 -0.57200645844E+02 -0.40201845866E+02  0.69991276750E+02  0.00000000000E+00 0. -1.
         11    1    4    4    0    0  0.32383748618E+02  0.28592110403E+02 -0.39453000926E+02  0.58504318079E+02  0.00000000000E+00 0.  1.
</event>
<event>
 8    1  0.3528896E-009  0.9792732E+02  0.7561462E-02  0.1284716E+00
         -2   -1    0    0    0  501 -0.00000000000E+00  0.00000000000E+00  0.17506013538E+02  0.17506013538E+02  0.00000000000E+00 0. -1.
          2   -1    0    0  501    0  0.00000000000E+00 -0.00000000000E+00 -0.66829326321E+03  0.66829326321E+03  0.00000000000E+00 0.  1.
         25    2    1    2    0    0  0.16954038975E+02  0.80364966731E+01 -0.38113031795E+03  0.40156423881E+03  0.12506595825E+03 0.  0.
         23    2    1    2    0    0 -0.16954038975E+02 -0.80364966731E+01 -0.26965693172E+03  0.28423503793E+03  0.87878730362E+02 0.  0.
          5    1    3    3  502    0 -0.75380155535E+00 -0.49564646600E+02 -0.27486021603E+03  0.27932567581E+03  0.41800000000E+01 0.  1.
         -5    1    3    3    0  502  0.17707840531E+02  0.57601143273E+02 -0.10627010192E+03  0.12223856300E+03  0.41800000000E+01 0.  1.
        -11    1    4    4    0    0 -0.82461928905E+01 -0.46009840412E+02 -0.18853450431E+03  0.19424254021E+03  0.00000000000E+00 0.  1.
         11    1    4    4    0    0 -0.87078460847E+01  0.37973343739E+02 -0.81122427405E+02  0.89992497722E+02  0.00000000000E+00 0. -1.
</event>
<event>
 8    1  0.3528896E-009  0.1803382E+03  0.7561462E-02  0.1167476E+00
         -2   -1    0    0    0  501 -0.00000000000E+00  0.00000000000E+00  0.23380570063E+03  0.23380570063E+03  0.00000000000E+00 0.  1.
          2   -1    0    0  501    0  0.00000000000E+00 -0.00000000000E+00 -0.16313750482E+03  0.16313750482E+03  0.00000000000E+00 0. -1.
         25    2    1    2    0    0  0.11741334965E+03 -0.95257453001E+02  0.38307052482E+02  0.19993497915E+03  0.12508672428E+03 0.  0.
         23    2    1    2    0    0 -0.11741334965E+03  0.95257453001E+02  0.32361143335E+02  0.19700822630E+03  0.12208652916E+03 0.  0.
          5    1    3    3  502    0 -0.14751480373E+02 -0.49043953129E+02 -0.88395822991E+01  0.52139487214E+02  0.41800000000E+01 0. -1.
         -5    1    3    3    0  502  0.13216483003E+03 -0.46213499872E+02  0.47146634781E+02  0.14779549194E+03  0.41800000000E+01 0. -1.
        -11    1    4    4    0    0 -0.41473700687E+02 -0.67788003359E+01  0.53540565841E+02  0.68063295345E+02  0.00000000000E+00 0.  1.
         11    1    4    4    0    0 -0.75939648968E+02  0.10203625334E+03 -0.21179422507E+02  0.12894493095E+03  0.00000000000E+00 0. -1.
</event>
<event>
 8    1  0.3528896E-009  0.2749778E+03  0.7561462E-02  0.1098464E+00
          1   -1    0    0  501    0  0.00000000000E+00  0.00000000000E+00  0.23740213092E+03  0.23740213092E+03  0.00000000000E+00 0. -1.
         -1   -1    0    0    0  501 -0.00000000000E+00 -0.00000000000E+00 -0.34121913684E+03  0.34121913684E+03  0.00000000000E+00 0.  1.
         25    2    1    2    0    0  0.25409835874E+03 -0.40640664097E+02 -0.10783772201E+03  0.30576828451E+03  0.12509048739E+03 0.  0.
         23    2    1    2    0    0 -0.25409835874E+03  0.40640664097E+02  0.40207160864E+01  0.27285298325E+03  0.90636332772E+02 0.  0.
          5    1    3    3  502    0  0.11959946591E+03  0.39134628651E+02 -0.72865364462E+02  0.14547297049E+03  0.41800000000E+01 0.  1.
         -5    1    3    3    0  502  0.13449889283E+03 -0.79775292748E+02 -0.34972357551E+02  0.16029531402E+03  0.41800000000E+01 0.  1.
        -11    1    4    4    0    0 -0.23651068393E+03  0.15615488862E+02  0.20851090909E+02  0.23794099079E+03  0.00000000000E+00 0. -1.
         11    1    4    4    0    0 -0.17587674803E+02  0.25025175235E+02 -0.16830374823E+02  0.34911992455E+02  0.00000000000E+00 0.  1.
</event>
<event>
 8    1  0.3528896E-009  0.1284543E+03  0.7561462E-02  0.1229767E+00
          2   -1    0    0  501    0  0.00000000000E+00  0.00000000000E+00  0.14461583062E+04  0.14461583062E+04  0.00000000000E+00 0. -1.
         -2   -1    0    0    0  501 -0.00000000000E+00 -0.00000000000E+00 -0.15628190295E+02  0.15628190295E+02  0.00000000000E+00 0.  1.
         25    2    1    2    0    0  0.59066642884E+02 -0.80285629353E+02  0.96945638356E+03  0.98256140624E+03  0.12508631746E+03 0.  0.
         23    2    1    2    0    0 -0.59066642884E+02  0.80285629353E+02  0.46107373230E+03  0.47922509022E+03  0.84457385073E+02 0.  0.
          5    1    3    3  502    0  0.91201203264E+02 -0.69455537816E+02  0.86705016843E+03  0.87460573871E+03  0.41800000000E+01 0.  1.
         -5    1    3    3    0  502 -0.32134560379E+02 -0.10830091537E+02  0.10240621513E+03  0.10795566752E+03  0.41800000000E+01 0.  1.
        -11    1    4    4    0    0 -0.29532972820E+02  0.90116639488E+01  0.37003566054E+02  0.48194091665E+02  0.00000000000E+00 0.  1.
         11    1    4    4    0    0 -0.29533670064E+02  0.71273965404E+02  0.42407016625E+03  0.43103099855E+03  0.00000000000E+00 0. -1.
</event>
<event>
 8    1  0.3528896E-009  0.6312791E+02  0.7561462E-02  0.1385155E+00
          1   -1    0    0  501    0  0.00000000000E+00  0.00000000000E+00  0.10717674876E+03  0.10717674876E+03  0.00000000000E+00 0. -1.
         -1   -1    0    0    0  501 -0.00000000000E+00 -0.00000000000E+00 -0.13085439012E+03  0.13085439012E+03  0.00000000000E+00 0.  1.
         25    2    1    2    0    0  0.52246311537E+02 -0.57495284602E+01 -0.20355457408E+01  0.13569963662E+03  0.12509002272E+03 0.  0.
         23    2    1    2    0    0 -0.52246311537E+02  0.57495284602E+01 -0.21642095613E+02  0.10233150226E+03  0.85091843944E+02 0.  0.
          5    1    3    3  502    0  0.39883884485E+02  0.18505737179E+02  0.56082345678E+02  0.71385491852E+02  0.41800000000E+01 0. -1.
         -5    1    3    3    0  502  0.12362427052E+02 -0.24255265639E+02 -0.58117891419E+02  0.64314144765E+02  0.41800000000E+01 0. -1.
        -11    1    4    4    0    0 -0.21734159718E+02 -0.48077157030E+01 -0.52900079016E+02  0.57392562138E+02  0.00000000000E+00 0.  1.
         11    1    4    4    0    0 -0.30512151820E+02  0.10557244163E+02  0.31257983403E+02  0.44938940123E+02  0.00000000000E+00 0. -1.
</event>
<event>
 8    1  0.3528896E-009  0.1058543E+03  0.7561462E-02  0.1268446E+00
         -2   -1    0    0    0  501 -0.00000000000E+00  0.00000000000E+00  0.45166704237E+02  0.45166704237E+02  0.00000000000E+00 0. -1.
          2   -1    0    0  501    0  0.00000000000E+00 -0.00000000000E+00 -0.27548505981E+03  0.27548505981E+03  0.00000000000E+00 0.  1.
         25    2    1    2    0    0  0.54766583709E+00  0.12135535574E+02 -0.17072117028E+03  0.21201245277E+03  0.12512390254E+03 0.  0.
         23    2    1    2    0    0 -0.54766583709E+00 -0.12135535574E+02 -0.59597185290E+02  0.10863931127E+03  0.90017244449E+02 0.  0.
          5    1    3    3  502    0  0.25379630722E+02  0.62328175598E+02 -0.73531340705E+02  0.99766014227E+02  0.41800000000E+01 0. -1.
         -5    1    3    3    0  502 -0.24831964885E+02 -0.50192640024E+02 -0.97189829579E+02  0.11224643855E+03  0.41800000000E+01 0. -1.
        -11    1    4    4    0    0 -0.11204278089E+02  0.36580798409E+02 -0.39157108057E+02  0.54744586683E+02  0.00000000000E+00 0.  1.
         11    1    4    4    0    0  0.10656612251E+02 -0.48716333983E+02 -0.20440077233E+02  0.53894724591E+02  0.00000000000E+00 0. -1.
</event>
<event>
 7    1  0.3528896E-009  0.1600393E+03  0.7561462E-02  0.1188652E+00
          1   -1    0    0  501    0  0.00000000000E+00  0.00000000000E+00  0.84874051746E+02  0.84874051746E+02  0.00000000000E+00 0. -1.
         -1   -1    0    0    0  501 -0.00000000000E+00 -0.00000000000E+00 -0.31294661865E+03  0.31294661865E+03  0.00000000000E+00 0.  1.
         23    2    1    2    0    0  0.25961144176E+02 -0.11766894873E+03 -0.12079751561E+03  0.19372558864E+03  0.91747487243E+02 0.  0.
          5    1    1    2  502    0 -0.76476458862E+02  0.75895622534E+02 -0.70329748376E+02  0.12873437842E+03  0.41800000000E+01 0.  1.
         -5    1    1    2    0  502  0.50515314687E+02  0.41773326199E+02 -0.36945302926E+02  0.75360703340E+02  0.41800000000E+01 0.  1.
        -11    1    3    3    0    0  0.48999701005E+02 -0.11285592965E+03 -0.80408880135E+02  0.14697965696E+03  0.00000000000E+00 0. -1.
         11    1    3    3    0    0 -0.23038556829E+02 -0.48130190821E+01 -0.40388635472E+02  0.46745931682E+02  0.00000000000E+00 0.  1.
</event>
<event>
 8    1  0.3528896E-009  0.9201337E+02  0.7561462E-02  0.1298048E+00
         -1   -1    0    0    0  501 -0.00000000000E+00  0.00000000000E+00  0.74765453560E+02  0.74765453560E+02  0.00000000000E+00 0.  1.
          1   -1    0    0  501    0  0.00000000000E+00 -0.00000000000E+00 -0.92763198974E+03  0.92763198974E+03  0.00000000000E+00 0. -1.
         25    2    1    2    0    0 -0.30301883347E+02  0.42459635251E+02 -0.88341276230E+03  0.89374848580E+03  0.12508885848E+03 0.  0.
         23    2    1    2    0    0  0.30301883347E+02 -0.42459635251E+02  0.30546226118E+02  0.10864895750E+03  0.90280115617E+02 0.  0.
          5    1    3    3  502    0 -0.40984888694E+02  0.60993343966E+01 -0.80959803086E+03  0.81066849387E+03  0.41800000000E+01 0. -1.
         -5    1    3    3    0  502  0.10683005347E+02  0.36360300855E+02 -0.73814731431E+02  0.83079991922E+02  0.41800000000E+01 0. -1.
        -11    1    4    4    0    0 -0.30903857225E+02 -0.21762000833E+01  0.82812450915E+01  0.32068103444E+02  0.00000000000E+00 0.  1.
         11    1    4    4    0    0  0.61205740573E+02 -0.40283435168E+02  0.22264981026E+02  0.76580854057E+02  0.00000000000E+00 0. -1.
</event>
<event>
 8    1  0.3528896E-009  0.1018970E+03  0.7561462E-02  0.1276357E+00
         -2   -1    0    0    0  501 -0.00000000000E+00  0.00000000000E+00  0.10433827909E+02  0.10433827909E+02  0.00000000000E+00 0.  1.
          2   -1    0    0  501    0  0.00000000000E+00 -0.00000000000E+00 -0.19398222002E+04  0.19398222002E+04  0.00000000000E+00 0. -1.
         25    2    1    2    0    0  0.89888362159E+01  0.31236392301E+02 -0.16442815291E+04  0.16493530173E+04  0.12508843776E+03 0.  0.
         23    2    1    2    0    0 -0.89888362159E+01 -0.31236392301E+02 -0.28510684323E+03  0.30090301087E+03  0.90554947506E+02 0.  0.
          5    1    3    3  502    0 -0.12634457358E+02 -0.36422470758E+02 -0.22713550562E+03  0.23042186572E+03  0.41800000000E+01 0.  1.
         -5    1    3    3    0  502  0.21623293574E+02  0.67658863059E+02 -0.14171460235E+04  0.14189311516E+04  0.41800000000E+01 0.  1.
        -11    1    4    4    0    0  0.34558910472E+02 -0.36183469743E+02 -0.11855767956E+03  0.12868366314E+03  0.00000000000E+00 0.  1.
         11    1    4    4    0    0 -0.43547746688E+02  0.49470774423E+01 -0.16654916367E+03  0.17221934774E+03  0.00000000000E+00 0. -1.
</event>
<event>
 8    1  0.3528896E-009  0.1113945E+03  0.7561462E-02  0.1258009E+00
          2   -1    0    0  501    0  0.00000000000E+00  0.00000000000E+00  0.27042691098E+03  0.27042691098E+03  0.00000000000E+00 0.  1.
         -2   -1    0    0    0  501 -0.00000000000E+00 -0.00000000000E+00 -0.58544593247E+02  0.58544593247E+02  0.00000000000E+00 0. -1.
         25    2    1    2    0    0 -0.30729550357E+02  0.22109030632E+02  0.51167745551E+02  0.14035201231E+03  0.12508970650E+03 0.  0.
         23    2    1    2    0    0  0.30729550357E+02 -0.22109030632E+02  0.16071457218E+03  0.18861949192E+03  0.91186756274E+02 0.  0.
          5    1    3    3  502    0 -0.16492406985E+01 -0.51360455347E+02  0.21038395449E+02  0.55683955063E+02  0.41800000000E+01 0. -1.
         -5    1    3    3    0  502 -0.29080309659E+02  0.73469485979E+02  0.30129350102E+02  0.84668057244E+02  0.41800000000E+01 0. -1.
        -11    1    4    4    0    0  0.38950227024E+02  0.23681162973E+02  0.45679174163E+02  0.64532973101E+02  0.00000000000E+00 0. -1.
         11    1    4    4    0    0 -0.82206766674E+01 -0.45790193605E+02  0.11503539802E+03  0.12408651882E+03  0.00000000000E+00 0.  1.
</event>
<event>
 8    1  0.3528896E-009  0.1117353E+03  0.7561462E-02  0.1257390E+00
          1   -1    0    0  501    0  0.00000000000E+00  0.00000000000E+00  0.62947007261E+02  0.62947007261E+02  0.00000000000E+00 0. -1.
         -1   -1    0    0    0  501 -0.00000000000E+00 -0.00000000000E+00 -0.23208046713E+03  0.23208046713E+03  0.00000000000E+00 0.  1.
         25    2    1    2    0    0  0.50183583677E+02 -0.15859158608E+02 -0.10018726880E+03  0.16868626314E+03  0.12509061339E+03 0.  0.
         23    2    1    2    0    0 -0.50183583677E+02  0.15859158608E+02 -0.68946191073E+02  0.12634121126E+03  0.91861958483E+02 0.  0.
          5    1    3    3  502    0 -0.26370011097E+02  0.25585833173E+02 -0.14792944947E+01  0.37009094242E+02  0.41800000000E+01 0.  1.
         -5    1    3    3    0  502  0.76553594774E+02 -0.41444991781E+02 -0.98707974304E+02  0.13167716889E+03  0.41800000000E+01 0.  1.
        -11    1    4    4    0    0  0.17116892023E+02 -0.17278914438E+02 -0.38162671619E+02  0.45254153200E+02  0.00000000000E+00 0.  1.
         11    1    4    4    0    0 -0.67300475700E+02  0.33138073046E+02 -0.30783519454E+02  0.81087058059E+02  0.00000000000E+00 0. -1.
</event>
<event>
 8    1  0.3528896E-009  0.2534759E+03  0.7561462E-02  0.1111128E+00
         -1   -1    0    0    0  501 -0.00000000000E+00  0.00000000000E+00  0.31524579483E+03  0.31524579483E+03  0.00000000000E+00 0.  1.
          1   -1    0    0  501    0  0.00000000000E+00 -0.00000000000E+00 -0.40231730844E+03  0.40231730844E+03  0.00000000000E+00 0. -1.
         25    2    1    2    0    0  0.10117997946E+03 -0.21802765707E+03  0.19665699016E+03  0.33480480263E+03  0.12508731586E+03 0.  0.
         23    2    1    2    0    0 -0.10117997946E+03  0.21802765707E+03 -0.28372850377E+03  0.38275830064E+03  0.90711660562E+02 0.  0.
          5    1    3    3  502    0  0.15017758494E+02  0.39087067652E+00 -0.12765925354E+02  0.20152595372E+02  0.41800000000E+01 0. -1.
         -5    1    3    3    0  502  0.86162220970E+02 -0.21841852775E+03  0.20942291552E+03  0.31465220726E+03  0.41800000000E+01 0. -1.
        -11    1    4    4    0    0  0.38442146575E+01  0.93672617889E+02 -0.93699950228E+02  0.13254817238E+03  0.00000000000E+00 0.  1.
         11    1    4    4    0    0 -0.10502419412E+03  0.12435503919E+03 -0.19002855354E+03  0.25021012826E+03  0.00000000000E+00 0. -1.
</event>
<event>
 8    1  0.3528896E-009  0.9993828E+02  0.7561462E-02  0.1280426E+00
          1   -1    0    0  501    0  0.00000000000E+00  0.00000000000E+00  0.31412845432E+02  0.31412845432E+02  0.00000000000E+00 0. -1.
         -1   -1    0    0    0  501 -0.00000000000E+00 -0.00000000000E+00 -0.44663691382E+03  0.44663691382E+03  0.00000000000E+00 0.  1.
         25    2    1    2    0    0  0.24751731798E+02 -0.86783961368E+01 -0.31778245072E+03  0.34252303051E+03  0.12509347569E+03 0.  0.
         23    2    1    2    0    0 -0.24751731798E+02  0.86783961368E+01 -0.97441617669E+02  0.13552672874E+03  0.90469124912E+02 0.  0.
          5    1    3    3  502    0  0.66446560198E+02  0.82537689496E+01 -0.26341235905E+03  0.27182128939E+03  0.41800000000E+01 0.  1.
         -5    1    3    3    0  502 -0.41694828401E+02 -0.16932165086E+02 -0.54370091661E+02  0.70701741118E+02  0.41800000000E+01 0.  1.
        -11    1    4    4    0    0 -0.47140177621E+02 -0.20003014857E+02 -0.31240663760E+02  0.59985798500E+02  0.00000000000E+00 0. -1.
         11    1    4    4    0    0  0.22388445823E+02  0.28681410994E+02 -0.66200953909E+02  0.75540930240E+02  0.00000000000E+00 0.  1.
</event>
<event>
 8    1  0.3528896E-009  0.1251306E+03  0.7561462E-02  0.1234865E+00
          2   -1    0    0  501    0  0.00000000000E+00  0.00000000000E+00  0.57590716972E+03  0.57590716972E+03  0.00000000000E+00 0. -1.
         -2   -1    0    0    0  501 -0.00000000000E+00 -0.00000000000E+00 -0.40744394338E+02  0.40744394338E+02  0.00000000000E+00 0.  1.
         25    2    1    2    0    0  0.80969058702E+02 -0.44092647232E+02  0.39964952710E+03  0.42879674823E+03  0.12508699683E+03 0.  0.
         23    2    1    2    0    0 -0.80969058702E+02  0.44092647232E+02  0.13551324828E+03  0.18785481583E+03  0.91790202974E+02 0.  0.
          5    1    3    3  502    0  0.74625972598E+02 -0.76146949417E+02  0.36784229300E+03  0.38300498510E+03  0.41800000000E+01 0. -1.
         -5    1    3    3    0  502  0.63430861050E+01  0.32054302185E+02  0.31807234106E+02  0.45791763139E+02  0.41800000000E+01 0. -1.
        -11    1    4    4    0    0 -0.40306514036E+02 -0.11340234653E+02  0.74834464656E+01  0.42534902924E+02  0.00000000000E+00 0.  1.
         11    1    4    4    0    0 -0.40662544666E+02  0.55432881885E+02  0.12802980182E+03  0.14531991290E+03  0.00000000000E+00 0. -1.
</event>
<event>
 8    1  0.3528896E-009  0.8741185E+02  0.7561462E-02  0.1309243E+00
          2   -1    0    0  501    0  0.00000000000E+00  0.00000000000E+00  0.91321151415E+03  0.91321151415E+03  0.00000000000E+00 0.  1.
         -2   -1    0    0    0  501 -0.00000000000E+00 -0.00000000000E+00 -0.20723738480E+02  0.20723738480E+02  0.00000000000E+00 0. -1.
         25    2    1    2    0    0 -0.16617173769E+01 -0.38834608324E+02  0.75022463435E+03  0.76157416905E+03  0.12508926758E+03 0.  0.
         23    2    1    2    0    0  0.16617173769E+01  0.38834608324E+02  0.14226314132E+03  0.17236108358E+03  0.89211286547E+02 0.  0.
          5    1    3    3  502    0  0.47443046070E+02 -0.70043926512E+01  0.13079688438E+03  0.13937432152E+03  0.41800000000E+01 0. -1.
         -5    1    3    3    0  502 -0.49104763447E+02 -0.31830215673E+02  0.61942774997E+03  0.62219984752E+03  0.41800000000E+01 0. -1.
        -11    1    4    4    0    0 -0.19710820378E+02 -0.40307144393E+01 -0.21297253610E+01  0.20231135138E+02  0.00000000000E+00 0. -1.
         11    1    4    4    0    0  0.21372537755E+02  0.42865322763E+02  0.14439286668E+03  0.15212994844E+03  0.00000000000E+00 0.  1.
</event>
<event>
 8    1  0.3528896E-009  0.1152814E+03  0.7561462E-02  0.1251091E+00
          1   -1    0    0  501    0  0.00000000000E+00  0.00000000000E+00  0.59410270903E+03  0.59410270903E+03  0.00000000000E+00 0. -1.
         -1   -1    0    0    0  501 -0.00000000000E+00 -0.00000000000E+00 -0.32054733276E+02  0.32054733276E+02  0.00000000000E+00 0.  1.
         25    2    1    2    0    0 -0.68242695734E+02 -0.42929950498E+02  0.36744197746E+03  0.39643463099E+03  0.12508702444E+03 0.  0.
         23    2    1    2    0    0  0.68242695734E+02  0.42929950498E+02  0.19460599829E+03  0.22972281131E+03  0.91657128980E+02 0.  0.
          5    1    3    3  502    0  0.12240071391E+02  0.29779904261E+02  0.40275567830E+02  0.51732541108E+02  0.41800000000E+01 0. -1.
         -5    1    3    3    0  502 -0.80482767125E+02 -0.72709854759E+02  0.32716640963E+03  0.34470208989E+03  0.41800000000E+01 0. -1.
        -11    1    4    4    0    0  0.26942473726E+02  0.39894948153E+02  0.17917529527E+03  0.18552975560E+03  0.00000000000E+00 0. -1.
         11    1    4    4    0    0  0.41300222007E+02  0.30350023449E+01  0.15430703027E+02  0.44193055710E+02  0.00000000000E+00 0.  1.
</event>
<event>
 8    1  0.3528896E-009  0.1272312E+03  0.7561462E-02  0.1231623E+00
          2   -1    0    0  501    0  0.00000000000E+00  0.00000000000E+00  0.40928973776E+03  0.40928973776E+03  0.00000000000E+00 0. -1.
         -2   -1    0    0    0  501 -0.00000000000E+00 -0.00000000000E+00 -0.40643325009E+02  0.40643325009E+02  0.00000000000E+00 0.  1.
         25    2    1    2    0    0 -0.13550576520E+02  0.65995784982E+02  0.23441654897E+03  0.27411878161E+03  0.12510366197E+03 0.  0.
         23    2    1    2    0    0  0.13550576520E+02 -0.65995784982E+02  0.13422986378E+03  0.17581428116E+03  0.91399909029E+02 0.  0.
          5    1    3    3  502    0 -0.61195682028E+02  0.69971968593E+02  0.16985602375E+03  0.19367376976E+03  0.41800000000E+01 0. -1.
         -5    1    3    3    0  502  0.47645105507E+02 -0.39761836114E+01  0.64560525221E+02  0.80445011851E+02  0.41800000000E+01 0. -1.
        -11    1    4    4    0    0  0.40422198073E+02 -0.74898813010E+02  0.97026168813E+02  0.12906534671E+03  0.00000000000E+00 0.  1.
         11    1    4    4    0    0 -0.26871621553E+02  0.89030280283E+01  0.37203694963E+02  0.46748934446E+02  0.00000000000E+00 0. -1.
</event>
<event>
 8    1  0.3528896E-009  0.1171066E+03  0.7561462E-02  0.1247948E+00
         -2   -1    0    0    0  501 -0.00000000000E+00  0.00000000000E+00  0.28407895370E+03  0.28407895370E+03  0.00000000000E+00 0.  1.
          2   -1    0    0  501    0  0.00000000000E+00 -0.00000000000E+00 -0.72925926571E+02  0.72925926571E+02  0.00000000000E+00 0. -1.
         25    2    1    2    0    0  0.49792862078E+02  0.16102064092E+01  0.16241405286E+02  0.13562167487E+03  0.12509010181E+03 0.  0.
         23    2    1    2    0    0 -0.49792862078E+02 -0.16102064092E+01  0.19491162184E+03  0.22138320540E+03  0.92401631069E+02 0.  0.
          5    1    3    3  502    0 -0.40870861470E+02  0.63323812062E+01 -0.61486508197E+01  0.42021478746E+02  0.41800000000E+01 0.  1.
         -5    1    3    3    0  502  0.90663723548E+02 -0.47221747971E+01  0.22390056105E+02  0.93600196126E+02  0.41800000000E+01 0.  1.
        -11    1    4    4    0    0 -0.46373356217E+02  0.39252522428E+02  0.14192834967E+03  0.15438557291E+03  0.00000000000E+00 0.  1.
         11    1    4    4    0    0 -0.34195058605E+01 -0.40862728838E+02  0.52983272177E+02  0.66997632488E+02  0.00000000000E+00 0. -1.
</event>
<event>
 8    1  0.3528896E-009  0.9570472E+02  0.7561462E-02  0.1289597E+00
         -1   -1    0    0    0  501 -0.00000000000E+00  0.00000000000E+00  0.77650204831E+03  0.77650204831E+03  0.00000000000E+00 0.  1.
          1   -1    0    0  501    0  0.00000000000E+00 -0.00000000000E+00 -0.17354556855E+02  0.17354556855E+02  0.00000000000E+00 0. -1.
         25    2    1    2    0    0  0.15145891462E+02 -0.41187369301E+01  0.55572524123E+03  0.56984567230E+03  0.12508870640E+03 0.  0.
         23    2    1    2    0    0 -0.15145891462E+02  0.41187369301E+01  0.20342225022E+03  0.22401093287E+03  0.92487426913E+02 0.  0.
          5    1    3    3  502    0 -0.46237447027E+02  0.98259438576E+01  0.11171503836E+03  0.12137616272E+03  0.41800000000E+01 0.  1.
         -5    1    3    3    0  502  0.61383338489E+02 -0.13944680788E+02  0.44401020288E+03  0.44846950958E+03  0.41800000000E+01 0.  1.
        -11    1    4    4    0    0  0.30059917019E+02  0.16103353229E+02  0.14611945733E+03  0.15004603429E+03  0.00000000000E+00 0.  1.
         11    1    4    4    0    0 -0.45205808480E+02 -0.11984616299E+02  0.57302792894E+02  0.73964898578E+02  0.00000000000E+00 0. -1.
</event>
<event>
 8    1  0.3528896E-009  0.1104775E+03  0.7561462E-02  0.1259688E+00
          1   -1    0    0  501    0  0.00000000000E+00  0.00000000000E+00  0.24988182573E+03  0.24988182573E+03  0.00000000000E+00 0. -1.
         -1   -1    0    0    0  501 -0.00000000000E+00 -0.00000000000E+00 -0.64664147024E+02  0.64664147024E+02  0.00000000000E+00 0.  1.
         25    2    1    2    0    0  0.24451729088E+01  0.57118448451E+02  0.13863243118E+03  0.19528302655E+03  0.12509201998E+03 0.  0.
         23    2    1    2    0    0 -0.24451729088E+01 -0.57118448451E+02  0.46585247530E+02  0.11926294620E+03  0.93728165595E+02 0.  0.
          5    1    3    3  502    0  0.49689654935E+02  0.70053334794E+02  0.10500763931E+03  0.13572254138E+03  0.41800000000E+01 0.  1.
         -5    1    3    3    0  502 -0.47244482026E+02 -0.12934886344E+02  0.33624791865E+02  0.59560485177E+02  0.41800000000E+01 0.  1.
        -11    1    4    4    0    0 -0.32279633947E+02 -0.19203876408E+02  0.58544637115E+02  0.69557445121E+02  0.00000000000E+00 0. -1.
         11    1    4    4    0    0  0.29834461038E+02 -0.37914572042E+02 -0.11959389585E+02  0.49705501082E+02  0.00000000000E+00 0.  1.
</event>
<event>
 8    1  0.3528896E-009  0.9247553E+02  0.7561462E-02  0.1296965E+00
         -2   -1    0    0    0  501 -0.00000000000E+00  0.00000000000E+00  0.62262798272E+02  0.62262798272E+02  0.00000000000E+00 0.  1.
          2   -1    0    0  501    0  0.00000000000E+00 -0.00000000000E+00 -0.28687884711E+03  0.28687884711E+03  0.00000000000E+00 0. -1.
         25    2    1    2    0    0 -0.65915460381E+02 -0.23825281639E+02 -0.14813529473E+03  0.20615976087E+03  0.12508113165E+03 0.  0.
         23    2    1    2    0    0  0.65915460381E+02  0.23825281639E+02 -0.76480754110E+02  0.14298188451E+03  0.98397264126E+02 0.  0.
          5    1    3    3  502    0 -0.11304695958E+02 -0.22215725863E+02 -0.14922947067E+03  0.15135468920E+03  0.41800000000E+01 0.  1.
         -5    1    3    3    0  502 -0.54610764423E+02 -0.16095557755E+01  0.10941759328E+01  0.54805071678E+02  0.41800000000E+01 0.  1.
        -11    1    4    4    0    0  0.46561957563E+02 -0.24651478177E+02 -0.73852081832E+02  0.90718472537E+02  0.00000000000E+00 0. -1.
         11    1    4    4    0    0  0.19353502818E+02  0.48476759815E+02 -0.26286722776E+01  0.52263411977E+02  0.00000000000E+00 0.  1.
</event>
<event>
 8    1  0.3528896E-009  0.1284041E+03  0.7561462E-02  0.1229843E+00
         -2   -1    0    0    0  501 -0.00000000000E+00  0.00000000000E+00  0.40377666520E+02  0.40377666520E+02  0.00000000000E+00 0.  1.
          2   -1    0    0  501    0  0.00000000000E+00 -0.00000000000E+00 -0.53515710578E+03  0.53515710578E+03  0.00000000000E+00 0. -1.
         25    2    1    2    0    0 -0.97477330520E+02 -0.17669675249E+01 -0.30785866804E+03  0.34630906068E+03  0.12509218154E+03 0.  0.
         23    2    1    2    0    0  0.97477330520E+02  0.17669675249E+01 -0.18692077123E+03  0.22922571163E+03  0.90000555640E+02 0.  0.
          5    1    3    3  502    0 -0.40514867219E+02 -0.62867077309E+02 -0.14981915651E+03  0.16750216694E+03  0.41800000000E+01 0. -1.
         -5    1    3    3    0  502 -0.56962463301E+02  0.61100109784E+02 -0.15803951153E+03  0.17880689373E+03  0.41800000000E+01 0. -1.
        -11    1    4    4    0    0  0.73496890080E+02  0.66221575594E+01 -0.47694373875E+02  0.87865801774E+02  0.00000000000E+00 0.  1.
         11    1    4    4    0    0  0.23980440440E+02 -0.48551900346E+01 -0.13922639735E+03  0.14135990985E+03  0.00000000000E+00 0. -1.
</event>
<event>
 8    1  0.3528896E-009  0.1080418E+03  0.7561462E-02  0.1264240E+00
          2   -1    0    0  501    0  0.00000000000E+00  0.00000000000E+00  0.13892519370E+04  0.13892519370E+04  0.00000000000E+00 0. -1.
         -2   -1    0    0    0  501 -0.00000000000E+00 -0.00000000000E+00 -0.15238422597E+02  0.15238422597E+02  0.00000000000E+00 0.  1.
         25    2    1    2    0    0 -0.69727442778E+02 -0.10776425415E+02  0.10943871205E+04  0.11037701823E+04  0.12508956101E+03 0.  0.
         23    2    1    2    0    0  0.69727442778E+02  0.10776425415E+02  0.27962639392E+03  0.30072017728E+03  0.85227092085E+02 0.  0.
          5    1    3    3  502    0 -0.84173339583E+02  0.25778637786E+02  0.47389856502E+03  0.48202387035E+03  0.41800000000E+01 0.  1.
         -5    1    3    3    0  502  0.14445896806E+02 -0.36555063201E+02  0.62048855549E+03  0.62174631199E+03  0.41800000000E+01 0.  1.
        -11    1    4    4    0    0  0.39722986826E+02 -0.20822620819E+02  0.50729189276E+02  0.67712243094E+02  0.00000000000E+00 0.  1.
         11    1    4    4    0    0  0.30004455952E+02  0.31599046234E+02  0.22889720464E+03  0.23300793418E+03  0.00000000000E+00 0. -1.
</event>
<event>
 8    1  0.3528896E-009  0.1104694E+03  0.7561462E-02  0.1259703E+00
          1   -1    0    0  501    0  0.00000000000E+00  0.00000000000E+00  0.25382975926E+03  0.25382975926E+03  0.00000000000E+00 0. -1.
         -1   -1    0    0    0  501 -0.00000000000E+00 -0.00000000000E+00 -0.68534524026E+02  0.68534524026E+02  0.00000000000E+00 0.  1.
         25    2    1    2    0    0 -0.28298768083E+02  0.51375530635E+02  0.15707855841E+03  0.20919374391E+03  0.12509230014E+03 0.  0.
         23    2    1    2    0    0  0.28298768083E+02 -0.51375530635E+02  0.28216676828E+02  0.11317053938E+03  0.92580368922E+02 0.  0.
          5    1    3    3  502    0 -0.29558214660E+01  0.80758507434E+02  0.14867823861E+03  0.16927304700E+03  0.41800000000E+01 0. -1.
         -5    1    3    3    0  502 -0.25342946617E+02 -0.29382976799E+02  0.84003197955E+01  0.39920696906E+02  0.41800000000E+01 0. -1.
        -11    1    4    4    0    0  0.45178802775E+02  0.17862053150E+01  0.34731653995E+02  0.57014055625E+02  0.00000000000E+00 0. -1.
         11    1    4    4    0    0 -0.16880034692E+02 -0.53161735950E+02 -0.65149771668E+01  0.56156483757E+02  0.00000000000E+00 0.  1.
</event>
<event>
 8    1  0.3528896E-009  0.1502393E+03  0.7561462E-02  0.1200179E+00
          1   -1    0    0  501    0  0.00000000000E+00  0.00000000000E+00  0.12520264690E+03  0.12520264690E+03  0.00000000000E+00 0. -1.
         -1   -1    0    0    0  501 -0.00000000000E+00 -0.00000000000E+00 -0.23273963484E+03  0.23273963484E+03  0.00000000000E+00 0.  1.
         25    2    1    2    0    0  0.12981523651E+03  0.22625575072E+02 -0.52069986820E+02  0.18900061541E+03  0.12508411898E+03 0.  0.
         23    2    1    2    0    0 -0.12981523651E+03 -0.22625575072E+02 -0.55467001116E+02  0.16894166633E+03  0.90004367279E+02 0.  0.
          5    1    3    3  502    0 -0.17718822663E+02  0.12293568127E+00 -0.34058861355E+02  0.38619298628E+02  0.41800000000E+01 0.  1.
         -5    1    3    3    0  502  0.14753405918E+03  0.22502639391E+02 -0.18011125465E+02  0.15038131678E+03  0.41800000000E+01 0.  1.
        -11    1    4    4    0    0 -0.46346649068E+02  0.54293710893E+00 -0.67087160464E+02  0.81541362262E+02  0.00000000000E+00 0.  1.
         11    1    4    4    0    0 -0.83468587446E+02 -0.23168512181E+02  0.11620159348E+02  0.87400304063E+02  0.00000000000E+00 0. -1.
</event>
<event>
 8    1  0.3528896E-009  0.1167104E+03  0.7561462E-02  0.1248625E+00
          2   -1    0    0  501    0  0.00000000000E+00  0.00000000000E+00  0.14786323165E+03  0.14786323165E+03  0.00000000000E+00 0. -1.
         -2   -1    0    0    0  501 -0.00000000000E+00 -0.00000000000E+00 -0.14242468977E+03  0.14242468977E+03  0.00000000000E+00 0.  1.
         25    2    1    2    0    0 -0.21487986446E+02 -0.85003575889E+02  0.40617278617E+02  0.15806960789E+03  0.12509554805E+03 0.  0.
         23    2    1    2    0    0  0.21487986446E+02  0.85003575889E+02 -0.35178736739E+02  0.13221831352E+03  0.92502959068E+02 0.  0.
          5    1    3    3  502    0  0.20429344180E+02  0.21604372246E+02  0.30810910174E+02  0.43021989604E+02  0.41800000000E+01 0. -1.
         -5    1    3    3    0  502 -0.41917330626E+02 -0.10660794813E+03  0.98063684439E+01  0.11504761829E+03  0.41800000000E+01 0. -1.
        -11    1    4    4    0    0 -0.79421568656E+00  0.20619667075E+02 -0.57046812240E+02  0.60664159399E+02  0.00000000000E+00 0.  1.
         11    1    4    4    0    0  0.22282202133E+02  0.64383908814E+02  0.21868075500E+02  0.71554154122E+02  0.00000000000E+00 0. -1.
</event>
<event>
 8    1  0.3528896E-009  0.1352589E+03  0.7561462E-02  0.1219855E+00
         -2   -1    0    0    0  501 -0.00000000000E+00  0.00000000000E+00  0.11462049547E+03  0.11462049547E+03  0.00000000000E+00 0.  1.
          2   -1    0    0  501    0  0.00000000000E+00 -0.00000000000E+00 -0.28616581791E+03  0.28616581791E+03  0.00000000000E+00 0. -1.
         25    2    1    2    0    0  0.17667561718E+02  0.97172899726E+02 -0.21092475100E+03  0.26437204083E+03  0.12509440518E+03 0.  0.
         23    2    1    2    0    0 -0.17667561718E+02 -0.97172899726E+02  0.39379428556E+02  0.13641427255E+03  0.85459927362E+02 0.  0.
          5    1    3    3  502    0  0.63831597001E+02  0.23096774463E+02 -0.63788737167E+02  0.93243815643E+02  0.41800000000E+01 0.  1.
         -5    1    3    3    0  502 -0.46164035283E+02  0.74076125263E+02 -0.14713601383E+03  0.17112822518E+03  0.41800000000E+01 0.  1.
        -11    1    4    4    0    0 -0.34925263132E+02 -0.89808883936E+02  0.40909687863E+01  0.96447631719E+02  0.00000000000E+00 0. -1.
         11    1    4    4    0    0  0.17257701414E+02 -0.73640157901E+01  0.35288459770E+02  0.39966640835E+02  0.00000000000E+00 0.  1.
</event>
<event>
 8    1  0.3528896E-009  0.9481040E+02  0.7561462E-02  0.1291604E+00
         -1   -1    0    0    0  501 -0.00000000000E+00  0.00000000000E+00  0.47499149269E+02  0.47499149269E+02  0.00000000000E+00 0.  1.
          1   -1    0    0  501    0  0.00000000000E+00 -0.00000000000E+00 -0.30545492486E+03  0.30545492486E+03  0.00000000000E+00 0. -1.
         25    2    1    2    0    0 -0.41131566276E+02 -0.23714847258E+02 -0.11354327081E+03  0.17548159303E+03  0.12509002926E+03 0.  0.
         23    2    1    2    0    0  0.41131566276E+02  0.23714847258E+02 -0.14441250478E+03  0.17747248110E+03  0.91582259671E+02 0.  0.
          5    1    3    3  502    0 -0.24747600861E+02  0.45347800364E+02 -0.14985052959E+02  0.53952673320E+02  0.41800000000E+01 0.  1.
         -5    1    3    3    0  502 -0.16383965414E+02 -0.69062647622E+02 -0.98558217850E+02  0.12152891971E+03  0.41800000000E+01 0.  1.
        -11    1    4    4    0    0 -0.24470706120E+01  0.22973567465E+02  0.34141701913E+01  0.23354432444E+02  0.00000000000E+00 0.  1.
         11    1    4    4    0    0  0.43578636888E+02  0.74127979246E+00 -0.14782667497E+03  0.15411804866E+03  0.00000000000E+00 0. -1.
</event>
<event>
 8    1  0.3528896E-009  0.1152240E+03  0.7561462E-02  0.1251191E+00
          2   -1    0    0  501    0  0.00000000000E+00  0.00000000000E+00  0.92009357804E+03  0.92009357804E+03  0.00000000000E+00 0. -1.
         -2   -1    0    0    0  501 -0.00000000000E+00 -0.00000000000E+00 -0.22075923242E+02  0.22075923242E+02  0.00000000000E+00 0.  1.
         25    2    1    2    0    0  0.65521285588E+02 -0.14891292399E+02  0.27991748615E+03  0.31387374599E+03  0.12509252541E+03 0.  0.
         23    2    1    2    0    0 -0.65521285588E+02  0.14891292399E+02  0.61810016865E+03  0.62829575530E+03  0.90514905881E+02 0.  0.
          5    1    3    3  502    0 -0.93686835943E+01  0.29354468950E+02  0.14077631229E+02  0.34133695679E+02  0.41800000000E+01 0.  1.
         -5    1    3    3    0  502  0.74889969183E+02 -0.44245761350E+02  0.26583985492E+03  0.27974005031E+03  0.41800000000E+01 0.  1.
        -11    1    4    4    0    0 -0.29902192884E+02 -0.38091033357E+02  0.23886282925E+03  0.24372221720E+03  0.00000000000E+00 0. -1.
         11    1    4    4    0    0 -0.35619092705E+02  0.52982325756E+02  0.37923733940E+03  0.38457353809E+03  0.00000000000E+00 0.  1.
</event>
<event>
 8    1  0.3528896E-009  0.8498623E+02  0.7561462E-02  0.1315469E+00
          2   -1    0    0  501    0  0.00000000000E+00  0.00000000000E+00  0.37485549072E+03  0.37485549072E+03  0.00000000000E+00 0. -1.
         -2   -1    0    0    0  501 -0.00000000000E+00 -0.00000000000E+00 -0.44121939782E+02  0.44121939782E+02  0.00000000000E+00 0.  1.
         25    2    1    2    0    0  0.49743189006E+02  0.21814660736E+02  0.13088377994E+03  0.18901963760E+03  0.12509034843E+03 0.  0.
         23    2    1    2    0    0 -0.49743189006E+02 -0.21814660736E+02  0.19984977100E+03  0.22995779291E+03  0.99951944822E+02 0.  0.
          5    1    3    3  502    0  0.59274739724E+02  0.22699882410E+02  0.15237782207E+03  0.16512193219E+03  0.41800000000E+01 0. -1.
         -5    1    3    3    0  502 -0.95315507182E+01 -0.88522167416E+00 -0.21494042134E+02  0.23897705407E+02  0.41800000000E+01 0. -1.
        -11    1    4    4    0    0  0.58856657569E+01 -0.37626877079E+02  0.24419687091E+02  0.45240955535E+02  0.00000000000E+00 0.  1.
         11    1    4    4    0    0 -0.55628854763E+02  0.15812216342E+02  0.17543008391E+03  0.18471683737E+03  0.00000000000E+00 0. -1.
</event>
<event>
 8    1  0.3528896E-009  0.1158348E+03  0.7561462E-02  0.1250131E+00
         -1   -1    0    0    0  501 -0.00000000000E+00  0.00000000000E+00  0.51430267682E+02  0.51430267682E+02  0.00000000000E+00 0.  1.
          1   -1    0    0  501    0  0.00000000000E+00 -0.00000000000E+00 -0.37278299458E+03  0.37278299458E+03  0.00000000000E+00 0. -1.
         25    2    1    2    0    0  0.71679880320E+02  0.42578452810E+02 -0.14411223755E+03  0.20824581144E+03  0.12508817323E+03 0.  0.
         23    2    1    2    0    0 -0.71679880320E+02 -0.42578452810E+02 -0.17724048935E+03  0.21596745082E+03  0.90977023835E+02 0.  0.
          5    1    3    3  502    0  0.65317749633E+02 -0.48125134347E+00 -0.15044096595E+03  0.16406278266E+03  0.41800000000E+01 0. -1.
         -5    1    3    3    0  502  0.63621306863E+01  0.43059704153E+02  0.63287283937E+01  0.44183028775E+02  0.41800000000E+01 0. -1.
        -11    1    4    4    0    0 -0.81366139893E+02 -0.60988740500E+02 -0.13638248196E+03  0.17011836049E+03  0.00000000000E+00 0.  1.
         11    1    4    4    0    0  0.96862595736E+01  0.18410287690E+02 -0.40858007385E+02  0.45849090338E+02  0.00000000000E+00 0. -1.
</event>
<event>
 8    1  0.3528896E-009  0.1247441E+03  0.7561462E-02  0.1235470E+00
         -2   -1    0    0    0  501 -0.00000000000E+00  0.00000000000E+00  0.13156157203E+03  0.13156157203E+03  0.00000000000E+00 0.  1.
          2   -1    0    0  501    0  0.00000000000E+00 -0.00000000000E+00 -0.18900787851E+03  0.18900787851E+03  0.00000000000E+00 0. -1.
         25    2    1    2    0    0  0.73722565449E+02 -0.55019131380E+02 -0.97476432210E+02  0.18333145678E+03  0.12508655697E+03 0.  0.
         23    2    1    2    0    0 -0.73722565449E+02  0.55019131380E+02  0.40030125734E+02  0.13723799376E+03  0.93646860550E+02 0.  0.
          5    1    3    3  502    0 -0.21390821894E+02 -0.15633399113E+02  0.15054644531E+02  0.30758497217E+02  0.41800000000E+01 0.  1.
         -5    1    3    3    0  502  0.95113387342E+02 -0.39385732267E+02 -0.11253107674E+03  0.15257295956E+03  0.41800000000E+01 0.  1.
        -11    1    4    4    0    0 -0.19610155420E+02  0.62043670218E+02  0.49626978745E+02  0.81834052991E+02  0.00000000000E+00 0.  1.
         11    1    4    4    0    0 -0.54112410029E+02 -0.70245388373E+01 -0.95968530104E+01  0.55403940769E+02  0.00000000000E+00 0. -1.
</event>
<event>
 8    1  0.3528896E-009  0.8714989E+02  0.7561462E-02  0.1309904E+00
          1   -1    0    0  501    0  0.00000000000E+00  0.00000000000E+00  0.49234269085E+02  0.49234269085E+02  0.00000000000E+00 0. -1.
         -1   -1    0    0    0  501 -0.00000000000E+00 -0.00000000000E+00 -0.30920187766E+03  0.30920187766E+03  0.00000000000E+00 0.  1.
         25    2    1    2    0    0  0.17305710958E+02  0.33966329150E+02 -0.80637006910E+02  0.15363243124E+03  0.12508955950E+03 0.  0.
         23    2    1    2    0    0 -0.17305710958E+02 -0.33966329150E+02 -0.17933060167E+03  0.20480371551E+03  0.91279231182E+02 0.  0.
          5    1    3    3  502    0  0.25986087990E+02 -0.25685133135E+02  0.15640836911E+02  0.39963871340E+02  0.41800000000E+01 0.  1.
         -5    1    3    3    0  502 -0.86803770319E+01  0.59651462286E+02 -0.96277843820E+02  0.11366855990E+03  0.41800000000E+01 0.  1.
        -11    1    4    4    0    0  0.13687609350E+01 -0.51479431182E+02 -0.16987910376E+03  0.17751314102E+03  0.00000000000E+00 0.  1.
         11    1    4    4    0    0 -0.18674471893E+02  0.17513102032E+02 -0.94514979078E+01  0.27290574489E+02  0.00000000000E+00 0. -1.
</event>
<event>
 8    1  0.3528896E-009  0.1307195E+03  0.7561462E-02  0.1226392E+00
          2   -1    0    0  501    0  0.00000000000E+00  0.00000000000E+00  0.51967221183E+03  0.51967221183E+03  0.00000000000E+00 0. -1.
         -2   -1    0    0    0  501 -0.00000000000E+00 -0.00000000000E+00 -0.38877499810E+02  0.38877499810E+02  0.00000000000E+00 0.  1.
         25    2    1    2    0    0 -0.83730092603E+02  0.41311900606E+00  0.33506274427E+03  0.36732076653E+03  0.12508638554E+03 0.  0.
         23    2    1    2    0    0  0.83730092603E+02 -0.41311900606E+00  0.14573196775E+03  0.19122894512E+03  0.91212959343E+02 0.  0.
          5    1    3    3  502    0 -0.11264350011E+03 -0.13454345022E+02  0.21688298630E+03  0.24479640452E+03  0.41800000000E+01 0. -1.
         -5    1    3    3    0  502  0.28913407504E+02  0.13867464028E+02  0.11817975797E+03  0.12252436201E+03  0.41800000000E+01 0. -1.
        -11    1    4    4    0    0 -0.14508276453E+02 -0.88254235576E+01  0.22426024067E+01  0.17129140439E+02  0.00000000000E+00 0. -1.
         11    1    4    4    0    0  0.98238369056E+02  0.84123045515E+01  0.14348936534E+03  0.17409980468E+03  0.00000000000E+00 0.  1.
</event>
<event>
 8    1  0.3528896E-009  0.1027896E+03  0.7561462E-02  0.1274537E+00
          1   -1    0    0  501    0  0.00000000000E+00  0.00000000000E+00  0.92593374195E+03  0.92593374195E+03  0.00000000000E+00 0. -1.
         -1   -1    0    0    0  501 -0.00000000000E+00 -0.00000000000E+00 -0.24020375854E+02  0.24020375854E+02  0.00000000000E+00 0.  1.
         25    2    1    2    0    0 -0.16147212636E+02  0.75752746524E+02  0.28843900169E+03  0.32379527689E+03  0.12508841896E+03 0.  0.
         23    2    1    2    0    0  0.16147212636E+02 -0.75752746524E+02  0.61347436440E+03  0.62615884092E+03  0.98614842667E+02 0.  0.
          5    1    3    3  502    0 -0.51864762676E+01  0.61991985941E+02  0.38658560486E+02  0.73361178806E+02  0.41800000000E+01 0. -1.
         -5    1    3    3    0  502 -0.10960736369E+02  0.13760760583E+02  0.24978044121E+03  0.25043409809E+03  0.41800000000E+01 0. -1.
        -11    1    4    4    0    0  0.41179373180E+02  0.41766478173E+01  0.18479636445E+03  0.18937497585E+03  0.00000000000E+00 0.  1.
         11    1    4    4    0    0 -0.25032160544E+02 -0.79929394341E+02  0.42867799995E+03  0.43678386507E+03  0.00000000000E+00 0. -1.
</event>
<event>
 8    1  0.3528896E-009  0.1917586E+03  0.7561462E-02  0.1156885E+00
          2   -1    0    0  501    0  0.00000000000E+00  0.00000000000E+00  0.34926054875E+03  0.34926054875E+03  0.00000000000E+00 0.  1.
         -2   -1    0    0    0  501 -0.00000000000E+00 -0.00000000000E+00 -0.16443340261E+03  0.16443340261E+03  0.00000000000E+00 0. -1.
         25    2    1    2    0    0 -0.91664846521E+02  0.14782428432E+03 -0.37213532484E+02  0.21745539521E+03  0.12509012265E+03 0.  0.
         23    2    1    2    0    0  0.91664846521E+02 -0.14782428432E+03  0.22204067863E+03  0.29623855616E+03  0.90558025958E+02 0.  0.
          5    1    3    3  502    0 -0.21775977185E+02 -0.11158917009E+02  0.22759289788E+02  0.33677474413E+02  0.41800000000E+01 0.  1.
         -5    1    3    3    0  502 -0.69888869337E+02  0.15898320133E+03 -0.59972822272E+02  0.18377792080E+03  0.41800000000E+01 0.  1.
        -11    1    4    4    0    0  0.40123505627E+02 -0.11973411944E+03  0.10094614203E+03  0.16166718484E+03  0.00000000000E+00 0.  1.
         11    1    4    4    0    0  0.51541340895E+02 -0.28090164873E+02  0.12109453660E+03  0.13457137132E+03  0.00000000000E+00 0. -1.
</event>
<event>
 8    1  0.3528896E-009  0.1037374E+03  0.7561462E-02  0.1272627E+00
         -1   -1    0    0    0  501 -0.00000000000E+00  0.00000000000E+00  0.15915889582E+03  0.15915889582E+03  0.00000000000E+00 0.  1.
          1   -1    0    0  501    0  0.00000000000E+00 -0.00000000000E+00 -0.88303002455E+02  0.88303002455E+02  0.00000000000E+00 0. -1.
         25    2    1    2    0    0  0.15051999107E+02 -0.43990979274E+02  0.53366054267E+01  0.13355880143E+03  0.12509078762E+03 0.  0.
         23    2    1    2    0    0 -0.15051999107E+02  0.43990979274E+02  0.65519287939E+02  0.11390309685E+03  0.80742612321E+02 0.  0.
          5    1    3    3  502    0  0.52826003818E+02  0.72569959341E+01  0.34248909892E+02  0.63511502094E+02  0.41800000000E+01 0.  1.
         -5    1    3    3    0  502 -0.37774004711E+02 -0.51247975208E+02 -0.28912304465E+02  0.70047299337E+02  0.41800000000E+01 0.  1.
        -11    1    4    4    0    0  0.17075990794E+02  0.53920366931E+02  0.26702675134E+02  0.62546209245E+02  0.00000000000E+00 0. -1.
         11    1    4    4    0    0 -0.32127989901E+02 -0.99293876573E+01  0.38816612806E+02  0.51356887601E+02  0.00000000000E+00 0.  1.
</event>
<event>
 8    1  0.3528896E-009  0.1172332E+03  0.7561462E-02  0.1247733E+00
          2   -1    0    0  501    0  0.00000000000E+00  0.00000000000E+00  0.27444718434E+03  0.27444718434E+03  0.00000000000E+00 0. -1.
         -2   -1    0    0    0  501 -0.00000000000E+00 -0.00000000000E+00 -0.59065344283E+02  0.59065344283E+02  0.00000000000E+00 0.  1.
         25    2    1    2    0    0  0.85359167841E+02 -0.78328774435E+01  0.12786662157E+03  0.19835613347E+03  0.12509093201E+03 0.  0.
         23    2    1    2    0    0 -0.85359167841E+02  0.78328774435E+01  0.87515218478E+02  0.13515639515E+03  0.57103381511E+02 0.  0.
          5    1    3    3  502    0  0.11134961744E+03 -0.52438045559E+01  0.62560718775E+02  0.12789664079E+03  0.41800000000E+01 0.  1.
         -5    1    3    3    0  502 -0.25990449603E+02 -0.25890728875E+01  0.65305902800E+02  0.70459492686E+02  0.41800000000E+01 0.  1.
        -11    1    4    4    0    0  0.24189183982E+00  0.10808064310E+02 -0.22937455134E+01  0.11051426798E+02  0.00000000000E+00 0.  1.
         11    1    4    4    0    0 -0.85601059681E+02 -0.29751868667E+01  0.89808963991E+02  0.12410496835E+03  0.00000000000E+00 0. -1.
</event>
<event>
 8    1  0.3528896E-009  0.1024467E+03  0.7561462E-02  0.1275234E+00
          2   -1    0    0  501    0  0.00000000000E+00  0.00000000000E+00  0.76490365715E+02  0.76490365715E+02  0.00000000000E+00 0. -1.
         -2   -1    0    0    0  501 -0.00000000000E+00 -0.00000000000E+00 -0.19070519083E+03  0.19070519083E+03  0.00000000000E+00 0.  1.
         25    2    1    2    0    0  0.43250956991E+02  0.15735026450E+02 -0.92773793923E+02  0.16238230877E+03  0.12507118383E+03 0.  0.
         23    2    1    2    0    0 -0.43250956991E+02 -0.15735026450E+02 -0.21441031194E+02  0.10481324777E+03  0.91694398696E+02 0.  0.
          5    1    3    3  502    0  0.79500771192E+02 -0.20005126172E+02 -0.53996972049E+02  0.98253361692E+02  0.41800000000E+01 0.  1.
         -5    1    3    3    0  502 -0.36249814201E+02  0.35740152622E+02 -0.38776821874E+02  0.64128947081E+02  0.41800000000E+01 0.  1.
        -11    1    4    4    0    0  0.12914753660E+02  0.14466215134E+01 -0.40918806104E+02  0.42932880976E+02  0.00000000000E+00 0.  1.
         11    1    4    4    0    0 -0.56165710651E+02 -0.17181647964E+02  0.19477774910E+02  0.61880366798E+02  0.00000000000E+00 0. -1.
</event>
<event>
 8    1  0.3528896E-009  0.1412932E+03  0.7561462E-02  0.1211599E+00
          2   -1    0    0  501    0  0.00000000000E+00  0.00000000000E+00  0.37358633001E+03  0.37358633001E+03  0.00000000000E+00 0. -1.
         -2   -1    0    0    0  501 -0.00000000000E+00 -0.00000000000E+00 -0.75163670209E+02  0.75163670209E+02  0.00000000000E+00 0.  1.
         25    2    1    2    0    0  0.10354977392E+03 -0.61030279906E+02  0.99008591541E+02  0.19974295378E+03  0.12508915078E+03 0.  0.
         23    2    1    2    0    0 -0.10354977392E+03  0.61030279906E+02  0.19941406826E+03  0.24900704644E+03  0.88268271824E+02 0.  0.
          5    1    3    3  502    0  0.89829242928E+02  0.63806180011E+01  0.15513438850E+02  0.91477562036E+02  0.41800000000E+01 0. -1.
         -5    1    3    3    0  502  0.13720530990E+02 -0.67410897907E+02  0.83495152691E+02  0.10826539175E+03  0.41800000000E+01 0. -1.
        -11    1    4    4    0    0 -0.75482475820E+02  0.58180085210E+02  0.19916728352E+03  0.22079432351E+03  0.00000000000E+00 0. -1.
         11    1    4    4    0    0 -0.28067298098E+02  0.28501946959E+01  0.24678474699E+00  0.28212722929E+02  0.00000000000E+00 0.  1.
</event>
<event>
 8    1  0.3528896E-009  0.1244727E+03  0.7561462E-02  0.1235896E+00
          1   -1    0    0  501    0  0.00000000000E+00  0.00000000000E+00  0.47588607496E+03  0.47588607496E+03  0.00000000000E+00 0. -1.
         -1   -1    0    0    0  501 -0.00000000000E+00 -0.00000000000E+00 -0.40000977279E+02  0.40000977279E+02  0.00000000000E+00 0.  1.
         25    2    1    2    0    0  0.18588315264E+02  0.80579328063E+02  0.20715806363E+03  0.25574006661E+03  0.12509981920E+03 0.  0.
         23    2    1    2    0    0 -0.18588315264E+02 -0.80579328063E+02  0.22872703405E+03  0.26014698563E+03  0.92313836738E+02 0.  0.
          5    1    3    3  502    0  0.61894911153E+02  0.45642831983E+02  0.17533447366E+03  0.19150430332E+03  0.41800000000E+01 0.  1.
         -5    1    3    3    0  502 -0.43306595889E+02  0.34936496080E+02  0.31823589975E+02  0.64235763285E+02  0.41800000000E+01 0.  1.
        -11    1    4    4    0    0 -0.51191526330E+01  0.16933562187E+02  0.10076195744E+02  0.20358805777E+02  0.00000000000E+00 0.  1.
         11    1    4    4    0    0 -0.13469162631E+02 -0.97512890249E+02  0.21865083830E+03  0.23978817985E+03  0.00000000000E+00 0. -1.
</event>
<event>
 8    1  0.3528896E-009  0.1281401E+03  0.7561462E-02  0.1230242E+00
         -2   -1    0    0    0  501 -0.00000000000E+00  0.00000000000E+00  0.34236064534E+02  0.34236064534E+02  0.00000000000E+00 0.  1.
          2   -1    0    0  501    0  0.00000000000E+00 -0.00000000000E+00 -0.76617356039E+03  0.76617356039E+03  0.00000000000E+00 0. -1.
         25    2    1    2    0    0 -0.82270738087E+02  0.30762740053E+01 -0.60656929347E+03  0.62478093710E+03  0.12508786421E+03 0.  0.
         23    2    1    2    0    0  0.82270738087E+02 -0.30762740053E+01 -0.12536820238E+03  0.17562868782E+03  0.91380041641E+02 0.  0.
          5    1    3    3  502    0 -0.89201683835E+02  0.49736722561E+02 -0.42834919934E+03  0.44037619252E+03  0.41800000000E+01 0.  1.
         -5    1    3    3    0  502  0.69309457482E+01 -0.46660448556E+02 -0.17822009413E+03  0.18440474457E+03  0.41800000000E+01 0.  1.
        -11    1    4    4    0    0  0.23423845004E+02  0.30885301503E+02 -0.73555937355E+01  0.39454823823E+02  0.00000000000E+00 0. -1.
         11    1    4    4    0    0  0.58846893084E+02 -0.33961575509E+02 -0.11801260865E+03  0.13617386400E+03  0.00000000000E+00 0.  1.
</event>
<event>
 8    1  0.3528896E-009  0.1058289E+03  0.7561462E-02  0.1268495E+00
         -2   -1    0    0    0  501 -0.00000000000E+00  0.00000000000E+00  0.64318675991E+02  0.64318675991E+02  0.00000000000E+00 0.  1.
          2   -1    0    0  501    0  0.00000000000E+00 -0.00000000000E+00 -0.25530555151E+03  0.25530555151E+03  0.00000000000E+00 0. -1.
         25    2    1    2    0    0 -0.33472272063E+02 -0.36844341836E+02 -0.45435243510E+02  0.14209105758E+03  0.12509040238E+03 0.  0.
         23    2    1    2    0    0  0.33472272063E+02  0.36844341836E+02 -0.14555163201E+03  0.17753316992E+03  0.88627593443E+02 0.  0.
          5    1    3    3  502    0 -0.31212816939E+02  0.43118671660E+02 -0.92343723664E+01  0.54186767942E+02  0.41800000000E+01 0. -1.
         -5    1    3    3    0  502 -0.22594551235E+01 -0.79963013496E+02 -0.36200871143E+02  0.87904289636E+02  0.41800000000E+01 0. -1.
        -11    1    4    4    0    0 -0.10816453230E+02  0.31794443086E+02 -0.12314582814E+03  0.12764316378E+03  0.00000000000E+00 0. -1.
         11    1    4    4    0    0  0.44288725293E+02  0.50498987500E+01 -0.22405803864E+02  0.49890006136E+02  0.00000000000E+00 0.  1.
</event>
<event>
 8    1  0.3528896E-009  0.9874312E+02  0.7561462E-02  0.1282961E+00
          2   -1    0    0  501    0  0.00000000000E+00  0.00000000000E+00  0.57722526844E+03  0.57722526844E+03  0.00000000000E+00 0. -1.
         -2   -1    0    0    0  501 -0.00000000000E+00 -0.00000000000E+00 -0.31173380761E+02  0.31173380761E+02  0.00000000000E+00 0.  1.
         25    2    1    2    0    0 -0.38664222755E+02 -0.51523388367E+02  0.40870697562E+03  0.43224906224E+03  0.12509307824E+03 0.  0.
         23    2    1    2    0    0  0.38664222755E+02  0.51523388367E+02  0.13734491206E+03  0.17614958695E+03  0.89529159747E+02 0.  0.
          5    1    3    3  502    0  0.80194764411E+01 -0.44155448894E+02  0.36489701483E+03  0.36767012321E+03  0.41800000000E+01 0. -1.
         -5    1    3    3    0  502 -0.46683699196E+02 -0.73679394733E+01  0.43809960789E+02  0.64578939036E+02  0.41800000000E+01 0. -1.
        -11    1    4    4    0    0 -0.26366591574E+02  0.16535591591E+02  0.68287204314E+02  0.75045087871E+02  0.00000000000E+00 0. -1.
         11    1    4    4    0    0  0.65030814330E+02  0.34987796776E+02  0.69057707746E+02  0.10110449908E+03  0.00000000000E+00 0.  1.
</event>
<event>
 8    1  0.3528896E-009  0.8676980E+02  0.7561462E-02  0.1310868E+00
         -1   -1    0    0    0  501 -0.00000000000E+00  0.00000000000E+00  0.88078422372E+02  0.88078422372E+02  0.00000000000E+00 0.  1.
          1   -1    0    0  501    0  0.00000000000E+00 -0.00000000000E+00 -0.18473076854E+03  0.18473076854E+03  0.00000000000E+00 0. -1.
         25    2    1    2    0    0 -0.66409175718E+02 -0.90687446027E+01 -0.43286208854E+02  0.14835707192E+03  0.12507479427E+03 0.  0.
         23    2    1    2    0    0  0.66409175718E+02  0.90687446027E+01 -0.53366137315E+02  0.12445211900E+03  0.90266076481E+02 0.  0.
          5    1    3    3  502    0  0.13388737275E+02 -0.21372527772E+02 -0.60514688350E+02  0.65692793632E+02  0.41800000000E+01 0. -1.
         -5    1    3    3    0  502 -0.79797912993E+02  0.12303783169E+02  0.17228479495E+02  0.82664278283E+02  0.41800000000E+01 0. -1.
        -11    1    4    4    0    0  0.27021001025E+02  0.55187502735E+01  0.24647005705E+02  0.36987376106E+02  0.00000000000E+00 0.  1.
         11    1    4    4    0    0  0.39388174693E+02  0.35499943291E+01 -0.78013143021E+02  0.87464742893E+02  0.00000000000E+00 0. -1.
</event>
<event>
 8    1  0.3528896E-009  0.1065801E+03  0.7561462E-02  0.1267037E+00
          1   -1    0    0  501    0  0.00000000000E+00  0.00000000000E+00  0.39103918519E+02  0.39103918519E+02  0.00000000000E+00 0. -1.
         -1   -1    0    0    0  501 -0.00000000000E+00 -0.00000000000E+00 -0.46405821309E+03  0.46405821309E+03  0.00000000000E+00 0.  1.
         25    2    1    2    0    0  0.21329626712E+02  0.73203291797E+02 -0.18618093663E+03  0.23690530353E+03  0.12508839582E+03 0.  0.
         23    2    1    2    0    0 -0.21329626712E+02 -0.73203291797E+02 -0.23877335794E+03  0.26625682809E+03  0.89812622356E+02 0.  0.
          5    1    3    3  502    0 -0.13213550994E+02 -0.20743635084E+01 -0.14247577659E+03  0.14316326424E+03  0.41800000000E+01 0.  1.
         -5    1    3    3    0  502  0.34543177707E+02  0.75277655306E+02 -0.43705160041E+02  0.93742039281E+02  0.41800000000E+01 0.  1.
        -11    1    4    4    0    0 -0.27210475620E+01  0.20501824762E+02 -0.61430169892E+02  0.64818166369E+02  0.00000000000E+00 0.  1.
         11    1    4    4    0    0 -0.18608579150E+02 -0.93705116559E+02 -0.17734318805E+03  0.20143866172E+03  0.00000000000E+00 0. -1.
</event>
<event>
 8    1  0.3528896E-009  0.2621459E+03  0.7561462E-02  0.1105861E+00
          2   -1    0    0  501    0  0.00000000000E+00  0.00000000000E+00  0.15691213249E+04  0.15691213249E+04  0.00000000000E+00 0. -1.
         -2   -1    0    0    0  501 -0.00000000000E+00 -0.00000000000E+00 -0.53673367918E+02  0.53673367918E+02  0.00000000000E+00 0.  1.
         25    2    1    2    0    0  0.90056881391E+02  0.23048984012E+03  0.47661773558E+03  0.55140224823E+03  0.12507663730E+03 0.  0.
         23    2    1    2    0    0 -0.90056881391E+02 -0.23048984012E+03  0.10388302214E+04  0.10713924446E+04  0.86473887034E+02 0.  0.
          5    1    3    3  502    0  0.10267421899E+03  0.92753286206E+02  0.25434534399E+03  0.28957588601E+03  0.41800000000E+01 0.  1.
         -5    1    3    3    0  502 -0.12617337596E+02  0.13773655391E+03  0.22227239159E+03  0.26182636223E+03  0.41800000000E+01 0.  1.
        -11    1    4    4    0    0 -0.25088618412E+02 -0.68831995949E+02  0.16759922037E+03  0.18291194906E+03  0.00000000000E+00 0.  1.
         11    1    4    4    0    0 -0.64968262979E+02 -0.16165784417E+03  0.87123100102E+03  0.88848049551E+03  0.00000000000E+00 0. -1.
</event>
<event>
 8    1  0.3528896E-009  0.7490920E+02  0.7561462E-02  0.1344152E+00
          2   -1    0    0  501    0  0.00000000000E+00  0.00000000000E+00  0.46480724930E+03  0.46480724930E+03  0.00000000000E+00 0. -1.
         -2   -1    0    0    0  501 -0.00000000000E+00 -0.00000000000E+00 -0.32632342484E+02  0.32632342484E+02  0.00000000000E+00 0.  1.
         25    2    1    2    0    0 -0.26836107625E+02  0.18848151913E+02  0.33542145781E+03  0.35948642272E+03  0.12508998464E+03 0.  0.
         23    2    1    2    0    0  0.26836107625E+02 -0.18848151913E+02  0.96753449002E+02  0.13795316906E+03  0.92706081016E+02 0.  0.
          5    1    3    3  502    0  0.33731035181E+01  0.52498545612E+02  0.29174013764E+03  0.29647471297E+03  0.41800000000E+01 0.  1.
         -5    1    3    3    0  502 -0.30209211143E+02 -0.33650393699E+02  0.43681320169E+02  0.63011709751E+02  0.41800000000E+01 0.  1.
        -11    1    4    4    0    0  0.69426221186E+01 -0.28632725070E+02 -0.82814069827E+01  0.30604160639E+02  0.00000000000E+00 0.  1.
         11    1    4    4    0    0  0.19893485507E+02  0.97845731573E+01  0.10503485598E+03  0.10734900842E+03  0.00000000000E+00 0. -1.
</event>
<event>
 8    1  0.3528896E-009  0.8965104E+02  0.7561462E-02  0.1303699E+00
          2   -1    0    0  501    0  0.00000000000E+00  0.00000000000E+00  0.58052726546E+02  0.58052726546E+02  0.00000000000E+00 0. -1.
         -2   -1    0    0    0  501 -0.00000000000E+00 -0.00000000000E+00 -0.25189687201E+03  0.25189687201E+03  0.00000000000E+00 0.  1.
         25    2    1    2    0    0  0.87841185660E+01 -0.16656016267E+02 -0.17154412589E+03  0.21314466732E+03  0.12509467799E+03 0.  0.
         23    2    1    2    0    0 -0.87841185660E+01  0.16656016267E+02 -0.22300019570E+02  0.96804931233E+02  0.92300163713E+02 0.  0.
          5    1    3    3  502    0  0.30568879457E+02 -0.63275413462E+02 -0.70249345905E+02  0.99451884548E+02  0.41800000000E+01 0.  1.
         -5    1    3    3    0  502 -0.21784760891E+02  0.46619397196E+02 -0.10129477999E+03  0.11369278277E+03  0.41800000000E+01 0.  1.
        -11    1    4    4    0    0 -0.28663789062E+02 -0.36085797193E+01  0.27240540276E+02  0.39707451259E+02  0.00000000000E+00 0. -1.
         11    1    4    4    0    0  0.19879670496E+02  0.20264595986E+02 -0.49540559846E+02  0.57097479974E+02  0.00000000000E+00 0.  1.
</event>
<event>
 8    1  0.3528896E-009  0.9864404E+02  0.7561462E-02  0.1283173E+00
          1   -1    0    0  501    0  0.00000000000E+00  0.00000000000E+00  0.82031884411E+02  0.82031884411E+02  0.00000000000E+00 0. -1.
         -1   -1    0    0    0  501 -0.00000000000E+00 -0.00000000000E+00 -0.17725489125E+03  0.17725489125E+03  0.00000000000E+00 0.  1.
         25    2    1    2    0    0  0.49700062065E+02 -0.17359489630E+02 -0.52137083724E+02  0.14538885472E+03  0.12509274770E+03 0.  0.
         23    2    1    2    0    0 -0.49700062065E+02  0.17359489630E+02 -0.43085923116E+02  0.11389792094E+03  0.91350378075E+02 0.  0.
          5    1    3    3  502    0 -0.20824382143E+02  0.87033572225E+01  0.27477598303E+02  0.35803549085E+02  0.41800000000E+01 0.  1.
         -5    1    3    3    0  502  0.70524444208E+02 -0.26062846853E+02 -0.79614682026E+02  0.10958530564E+03  0.41800000000E+01 0.  1.
        -11    1    4    4    0    0 -0.98668776196E+00 -0.30632894874E+02 -0.32548845022E+02  0.44707662803E+02  0.00000000000E+00 0.  1.
         11    1    4    4    0    0 -0.48713374303E+02  0.47992384504E+02 -0.10537078094E+02  0.69190258137E+02  0.00000000000E+00 0. -1.
</event>
<event>
 8    1  0.3528896E-009  0.1277223E+03  0.7561462E-02  0.1230875E+00
         -2   -1    0    0    0  501 -0.00000000000E+00  0.00000000000E+00  0.24141365343E+02  0.24141365343E+02  0.00000000000E+00 0. -1.
          2   -1    0    0  501    0  0.00000000000E+00 -0.00000000000E+00 -0.72305351143E+03  0.72305351143E+03  0.00000000000E+00 0.  1.
         25    2    1    2    0    0  0.67339867377E+02 -0.93990067344E+01 -0.47627359229E+03  0.49709828849E+03  0.12508866714E+03 0.  0.
         23    2    1    2    0    0 -0.67339867377E+02  0.93990067344E+01 -0.22263855380E+03  0.25009658828E+03  0.91418700306E+02 0.  0.
          5    1    3    3  502    0 -0.34381603453E+02  0.14897572932E+02 -0.12446679762E+03  0.13005186829E+03  0.41800000000E+01 0.  1.
         -5    1    3    3    0  502  0.10172147083E+03 -0.24296579666E+02 -0.35180679466E+03  0.36704642020E+03  0.41800000000E+01 0.  1.
        -11    1    4    4    0    0 -0.14301017822E+02 -0.38834701965E+02 -0.96680003155E+02  0.10516499511E+03  0.00000000000E+00 0.  1.
         11    1    4    4    0    0 -0.53038849555E+02  0.48233708700E+02 -0.12595855065E+03  0.14493159317E+03  0.00000000000E+00 0. -1.
</event>
<event>
 8    1  0.3528896E-009  0.1228037E+03  0.7561462E-02  0.1238542E+00
          2   -1    0    0  501    0  0.00000000000E+00  0.00000000000E+00  0.58600934867E+03  0.58600934867E+03  0.00000000000E+00 0.  1.
         -2   -1    0    0    0  501 -0.00000000000E+00 -0.00000000000E+00 -0.32369821228E+02  0.32369821228E+02  0.00000000000E+00 0. -1.
         25    2    1    2    0    0  0.80525630273E+02  0.29014546595E+02  0.36895251203E+03  0.39887400103E+03  0.12509313139E+03 0.  0.
         23    2    1    2    0    0 -0.80525630273E+02 -0.29014546595E+02  0.18468701542E+03  0.21950516887E+03  0.82140151278E+02 0.  0.
          5    1    3    3  502    0  0.52562402785E+02  0.64282541681E+02  0.32629787967E+03  0.33672367014E+03  0.41800000000E+01 0. -1.
         -5    1    3    3    0  502  0.27963227489E+02 -0.35267995086E+02  0.42654632355E+02  0.62150330895E+02  0.41800000000E+01 0. -1.
        -11    1    4    4    0    0 -0.15160643844E+02 -0.47069496466E+02  0.94629056236E+02  0.10677097407E+03  0.00000000000E+00 0.  1.
         11    1    4    4    0    0 -0.65364986429E+02  0.18054949871E+02  0.90057959181E+02  0.11273419480E+03  0.00000000000E+00 0. -1.
</event>
<event>
 8    1  0.3528896E-009  0.1101914E+03  0.7561462E-02  0.1260216E+00
          2   -1    0    0  501    0  0.00000000000E+00  0.00000000000E+00  0.75386490300E+03  0.75386490300E+03  0.00000000000E+00 0. -1.
         -2   -1    0    0    0  501 -0.00000000000E+00 -0.00000000000E+00 -0.18654664217E+02  0.18654664217E+02  0.00000000000E+00 0.  1.
         25    2    1    2    0    0 -0.45323229276E+02  0.11296832618E+02  0.45946219224E+03  0.47847191453E+03  0.12509217947E+03 0.  0.
         23    2    1    2    0    0  0.45323229276E+02 -0.11296832618E+02  0.27574804655E+03  0.29404765269E+03  0.90803212140E+02 0.  0.
          5    1    3    3  502    0 -0.59301910123E+02 -0.45402571641E+02  0.26993229222E+03  0.28010538166E+03  0.41800000000E+01 0.  1.
         -5    1    3    3    0  502  0.13978680847E+02  0.56699404259E+02  0.18952990002E+03  0.19836653287E+03  0.41800000000E+01 0.  1.
        -11    1    4    4    0    0  0.63694351016E+02  0.29833654392E+01  0.25506834576E+03  0.26291772825E+03  0.00000000000E+00 0. -1.
         11    1    4    4    0    0 -0.18371121740E+02 -0.14280198057E+02  0.20679700793E+02  0.31129924436E+02  0.00000000000E+00 0.  1.
</event>
<event>
 8    1  0.3528896E-009  0.2098734E+03  0.7561462E-02  0.1141666E+00
         -2   -1    0    0    0  501 -0.00000000000E+00  0.00000000000E+00  0.59501083979E+02  0.59501083979E+02  0.00000000000E+00 0.  1.
          2   -1    0    0  501    0  0.00000000000E+00 -0.00000000000E+00 -0.93064376590E+03  0.93064376590E+03  0.00000000000E+00 0. -1.
         25    2    1    2    0    0 -0.18177694597E+03  0.67148001584E+02 -0.61688780558E+03  0.65859743310E+03  0.12509317331E+03 0.  0.
         23    2    1    2    0    0  0.18177694597E+03 -0.67148001584E+02 -0.25425487634E+03  0.33154741678E+03  0.87900143504E+02 0.  0.
          5    1    3    3  502    0 -0.11543059221E+03  0.78446718501E+02 -0.53290790948E+03  0.55089601709E+03  0.41800000000E+01 0.  1.
         -5    1    3    3    0  502 -0.66346353757E+02 -0.11298716918E+02 -0.83979896103E+02  0.10770141601E+03  0.41800000000E+01 0.  1.
        -11    1    4    4    0    0  0.14238345169E+03 -0.88733094570E+02 -0.19639051493E+03  0.25829410318E+03  0.00000000000E+00 0. -1.
         11    1    4    4    0    0  0.39393494282E+02  0.21585092987E+02 -0.57864361416E+02  0.73253313598E+02  0.00000000000E+00 0.  1.
</event>
<event>
 8    1  0.3528896E-009  0.1365045E+03  0.7561462E-02  0.1218111E+00
         -2   -1    0    0    0  501 -0.00000000000E+00  0.00000000000E+00  0.37997479157E+03  0.37997479157E+03  0.00000000000E+00 0.  1.
          2   -1    0    0  501    0  0.00000000000E+00 -0.00000000000E+00 -0.61868957382E+02  0.61868957382E+02  0.00000000000E+00 0. -1.
         25    2    1    2    0    0  0.92512778160E+02 -0.22824936141E+02  0.95995954355E+02  0.18423649141E+03  0.12509304410E+03 0.  0.
         23    2    1    2    0    0 -0.92512778160E+02  0.22824936141E+02  0.22210987984E+03  0.25760725754E+03  0.89157773550E+02 0.  0.
          5    1    3    3  502    0  0.34984755264E+02 -0.67764700430E+02  0.77506555277E+02  0.10881510114E+03  0.41800000000E+01 0.  1.
         -5    1    3    3    0  502  0.57528022896E+02  0.44939764288E+02  0.18489399078E+02  0.75421390274E+02  0.41800000000E+01 0.  1.
        -11    1    4    4    0    0 -0.35273647013E+02  0.49159546837E+02  0.15060009879E+03  0.16229997219E+03  0.00000000000E+00 0.  1.
         11    1    4    4    0    0 -0.57239131147E+02 -0.26334610695E+02  0.71509781046E+02  0.95307285347E+02  0.00000000000E+00 0. -1.
</event>
<event>
 8    1  0.3528896E-009  0.1129946E+03  0.7561462E-02  0.1255123E+00
         -2   -1    0    0    0  501 -0.00000000000E+00  0.00000000000E+00  0.22649364242E+03  0.22649364242E+03  0.00000000000E+00 0.  1.
          2   -1    0    0  501    0  0.00000000000E+00 -0.00000000000E+00 -0.10265569914E+03  0.10265569914E+03  0.00000000000E+00 0. -1.
         25    2    1    2    0    0 -0.41091990184E+02  0.92010479200E+02  0.19868175475E+02  0.16185440537E+03  0.12509046406E+03 0.  0.
         23    2    1    2    0    0  0.41091990184E+02 -0.92010479200E+02  0.10396976781E+03  0.16729493619E+03  0.83805746329E+02 0.  0.
          5    1    3    3  502    0 -0.46206946151E+02  0.49693697457E+02 -0.46855312778E+02  0.82567779279E+02  0.41800000000E+01 0.  1.
         -5    1    3    3    0  502  0.51149559668E+01  0.42316781742E+02  0.66723488253E+02  0.79286626087E+02  0.41800000000E+01 0.  1.
        -11    1    4    4    0    0  0.61099302410E+01 -0.76776558943E+02  0.10365701826E+03  0.12913848646E+03  0.00000000000E+00 0.  1.
         11    1    4    4    0    0  0.34982059943E+02 -0.15233920257E+02  0.31274955436E+00  0.38156449737E+02  0.00000000000E+00 0. -1.
</event>
<event>
 8    1  0.3528896E-009  0.1266425E+03  0.7561462E-02  0.1232524E+00
          2   -1    0    0  501    0  0.00000000000E+00  0.00000000000E+00  0.25416100052E+03  0.25416100052E+03  0.00000000000E+00 0.  1.
         -2   -1    0    0    0  501 -0.00000000000E+00 -0.00000000000E+00 -0.13608391379E+03  0.13608391379E+03  0.00000000000E+00 0. -1.
         25    2    1    2    0    0 -0.47701232116E+02  0.67457544154E+02  0.18751215433E+03  0.24006927495E+03  0.12508605416E+03 0.  0.
         23    2    1    2    0    0  0.47701232116E+02 -0.67457544154E+02 -0.69435067588E+02  0.15017563936E+03  0.10442971913E+03 0.  0.
          5    1    3    3  502    0 -0.83006300695E+02  0.49020659777E+02  0.17181340544E+03  0.19705428117E+03  0.41800000000E+01 0. -1.
         -5    1    3    3    0  502  0.35305068579E+02  0.18436884377E+02  0.15698748884E+02  0.43014993775E+02  0.41800000000E+01 0. -1.
        -11    1    4    4    0    0  0.67448853272E+02 -0.28807311426E+02 -0.76751679011E+02  0.10616039389E+03  0.00000000000E+00 0. -1.
         11    1    4    4    0    0 -0.19747621156E+02 -0.38650232729E+02  0.73166114223E+01  0.44015245473E+02  0.00000000000E+00 0.  1.
</event>
<event>
 8    1  0.3528896E-009  0.1293020E+03  0.7561462E-02  0.1228495E+00
         -2   -1    0    0    0  501 -0.00000000000E+00  0.00000000000E+00  0.50415503511E+02  0.50415503511E+02  0.00000000000E+00 0.  1.
          2   -1    0    0  501    0  0.00000000000E+00 -0.00000000000E+00 -0.55403649945E+03  0.55403649945E+03  0.00000000000E+00 0. -1.
         25    2    1    2    0    0 -0.76121786183E+02 -0.48471735825E+02 -0.42845663730E+03  0.45537487281E+03  0.12508856556E+03 0.  0.
         23    2    1    2    0    0  0.76121786183E+02  0.48471735825E+02 -0.75164358641E+02  0.14907713015E+03  0.91816525852E+02 0.  0.
          5    1    3    3  502    0 -0.11903662019E+02 -0.62913753300E+02 -0.89881038669E+02  0.11043509875E+03  0.41800000000E+01 0.  1.
         -5    1    3    3    0  502 -0.64218124164E+02  0.14442017475E+02 -0.33857559863E+03  0.34493977406E+03  0.41800000000E+01 0.  1.
        -11    1    4    4    0    0 -0.49632107089E+01 -0.21079192413E+02 -0.92306442670E+01  0.23540828509E+02  0.00000000000E+00 0.  1.
         11    1    4    4    0    0  0.81084996892E+02  0.69550928238E+02 -0.65933714374E+02  0.12553630165E+03  0.00000000000E+00 0. -1.
</event>
<event>
 8    1  0.3528896E-009  0.1033205E+03  0.7561462E-02  0.1273464E+00
         -2   -1    0    0    0  501 -0.00000000000E+00  0.00000000000E+00  0.12378062143E+03  0.12378062143E+03  0.00000000000E+00 0.  1.
          2   -1    0    0  501    0  0.00000000000E+00 -0.00000000000E+00 -0.12708307563E+03  0.12708307563E+03  0.00000000000E+00 0. -1.
         25    2    1    2    0    0 -0.27728806696E+02 -0.51096154662E+02 -0.12956670456E+01  0.13794460912E+03  0.12508929887E+03 0.  0.
         23    2    1    2    0    0  0.27728806696E+02  0.51096154662E+02 -0.20067871583E+01  0.11291908794E+03  0.96783208686E+02 0.  0.
          5    1    3    3  502    0 -0.65108157921E+02 -0.31804161933E+02 -0.38030971250E+02  0.81941467635E+02  0.41800000000E+01 0.  1.
         -5    1    3    3    0  502  0.37379351225E+02 -0.19291992730E+02  0.36735304204E+02  0.56003141487E+02  0.41800000000E+01 0.  1.
        -11    1    4    4    0    0 -0.16031870901E+02  0.44793448587E+02  0.31832407791E+02  0.57243131524E+02  0.00000000000E+00 0.  1.
         11    1    4    4    0    0  0.43760677596E+02  0.63027060755E+01 -0.33839194950E+02  0.55675956412E+02  0.00000000000E+00 0. -1.
</event>
<event>
 7    1  0.3528896E-009  0.9286880E+02  0.7561462E-02  0.1296050E+00
         -3   -1    0    0    0  501 -0.00000000000E+00  0.00000000000E+00  0.18879899014E+03  0.18879899014E+03  0.00000000000E+00 0.  1.
          3   -1    0    0  501    0  0.00000000000E+00 -0.00000000000E+00 -0.83582110423E+02  0.83582110423E+02  0.00000000000E+00 0. -1.
         23    2    1    2    0    0 -0.29949779258E+02 -0.38076110334E+01 -0.16901515496E+02  0.94932947434E+02  0.88403145323E+02 0.  0.
          5    1    1    2  502    0 -0.28734143792E+02  0.39029793330E+02  0.88709234334E+02  0.10117201413E+03  0.41800000000E+01 0. -1.
         -5    1    1    2    0  502  0.58683923051E+02 -0.35222182297E+02  0.33409160884E+02  0.76276139004E+02  0.41800000000E+01 0. -1.
        -11    1    3    3    0    0 -0.33583804032E+02 -0.28203861343E+02  0.21850040978E+02  0.48997489513E+02  0.00000000000E+00 0.  1.
         11    1    3    3    0    0  0.36340247733E+01  0.24396250309E+02 -0.38751556474E+02  0.45935457920E+02  0.00000000000E+00 0. -1.
</event>
<event>
 8    1  0.3528896E-009  0.7647662E+02  0.7561462E-02  0.1339358E+00
          2   -1    0    0  501    0  0.00000000000E+00  0.00000000000E+00  0.29674672096E+03  0.29674672096E+03  0.00000000000E+00 0.  1.
         -2   -1    0    0    0  501 -0.00000000000E+00 -0.00000000000E+00 -0.99132215344E+02  0.99132215344E+02  0.00000000000E+00 0. -1.
         25    2    1    2    0    0 -0.13830615874E+01  0.55652390447E+02 -0.34924591450E+02  0.14129975647E+03  0.12508714031E+03 0.  0.
         23    2    1    2    0    0  0.13830615874E+01 -0.55652390447E+02  0.23253909707E+03  0.25457917983E+03  0.87390077911E+02 0.  0.
          5    1    3    3  502    0  0.52242589650E+01  0.44564601832E+02 -0.81314430020E+02  0.92966690527E+02  0.41800000000E+01 0. -1.
         -5    1    3    3    0  502 -0.66073205524E+01  0.11087788616E+02  0.46389838570E+02  0.48333065946E+02  0.41800000000E+01 0. -1.
        -11    1    4    4    0    0  0.38722803389E+02 -0.26018790529E+02  0.16791627983E+03  0.17427653312E+03  0.00000000000E+00 0.  1.
         11    1    4    4    0    0 -0.37339741802E+02 -0.29633599918E+02  0.64622817237E+02  0.80302646716E+02  0.00000000000E+00 0. -1.
</event>
<event>
 8    1  0.3528896E-009  0.2677166E+03  0.7561462E-02  0.1102594E+00
         -3   -1    0    0    0  501 -0.00000000000E+00  0.00000000000E+00  0.30570333363E+03  0.30570333363E+03  0.00000000000E+00 0.  1.
          3   -1    0    0  501    0  0.00000000000E+00 -0.00000000000E+00 -0.24858424550E+03  0.24858424550E+03  0.00000000000E+00 0. -1.
         25    2    1    2    0    0  0.65868398589E+02  0.24468860681E+03  0.29287102247E+02  0.28411821069E+03  0.12511699745E+03 0.  0.
         23    2    1    2    0    0 -0.65868398589E+02 -0.24468860681E+03  0.27831985881E+02  0.27016936844E+03  0.89474621925E+02 0.  0.
          5    1    3    3  502    0 -0.18072911419E+01  0.15125720596E+03  0.62906659493E+02  0.16388022719E+03  0.41800000000E+01 0. -1.
         -5    1    3    3    0  502  0.67675689731E+02  0.93431400851E+02 -0.33619557246E+02  0.12023798350E+03  0.41800000000E+01 0. -1.
        -11    1    4    4    0    0 -0.79226611417E+02 -0.12340359090E+03  0.12194793019E+02  0.14715303320E+03  0.00000000000E+00 0. -1.
         11    1    4    4    0    0  0.13358212828E+02 -0.12128501591E+03  0.15637192862E+02  0.12301633524E+03  0.00000000000E+00 0.  1.
</event>
<event>
 8    1  0.3528896E-009  0.1060254E+03  0.7561462E-02  0.1268112E+00
          1   -1    0    0  501    0  0.00000000000E+00  0.00000000000E+00  0.43633093792E+03  0.43633093792E+03  0.00000000000E+00 0. -1.
         -1   -1    0    0    0  501 -0.00000000000E+00 -0.00000000000E+00 -0.30678224783E+02  0.30678224783E+02  0.00000000000E+00 0.  1.
         25    2    1    2    0    0 -0.30108631649E+02  0.27082182679E+02  0.22558494126E+03  0.26110412830E+03  0.12508727265E+03 0.  0.
         23    2    1    2    0    0  0.30108631649E+02 -0.27082182679E+02  0.18006777188E+03  0.20590503440E+03  0.91282563513E+02 0.  0.
          5    1    3    3  502    0 -0.53548966659E+02 -0.28851632111E+02  0.63676138162E+02  0.88159125886E+02  0.41800000000E+01 0.  1.
         -5    1    3    3    0  502  0.23440335011E+02  0.55933814790E+02  0.16190880309E+03  0.17294500242E+03  0.41800000000E+01 0.  1.
        -11    1    4    4    0    0  0.57426351667E+02 -0.25761927223E+02  0.77949507727E+02  0.10018776629E+03  0.00000000000E+00 0.  1.
         11    1    4    4    0    0 -0.27317720018E+02 -0.13202554562E+01  0.10211826416E+03  0.10571726810E+03  0.00000000000E+00 0. -1.
</event>
<event>
 8    1  0.3528896E-009  0.1286639E+03  0.7561462E-02  0.1229452E+00
          3   -1    0    0  501    0  0.00000000000E+00  0.00000000000E+00  0.34448177272E+03  0.34448177272E+03  0.00000000000E+00 0. -1.
         -3   -1    0    0    0  501 -0.00000000000E+00 -0.00000000000E+00 -0.62053627864E+02  0.62053627864E+02  0.00000000000E+00 0.  1.
         25    2    1    2    0    0 -0.24571353202E+02  0.67100856503E+02  0.24096637509E+03  0.28074738646E+03  0.12509206505E+03 0.  0.
         23    2    1    2    0    0  0.24571353202E+02 -0.67100856503E+02  0.41461769763E+02  0.12578801412E+03  0.94853939311E+02 0.  0.
          5    1    3    3  502    0 -0.69950258619E+02  0.63224400266E+02  0.12933691557E+03  0.16011206575E+03  0.41800000000E+01 0.  1.
         -5    1    3    3    0  502  0.45378905417E+02  0.38764562370E+01  0.11162945952E+03  0.12063532071E+03  0.41800000000E+01 0.  1.
        -11    1    4    4    0    0 -0.32686564671E+02 -0.45478779226E+02  0.29945453990E+02  0.63509535383E+02  0.00000000000E+00 0.  1.
         11    1    4    4    0    0  0.57257917873E+02 -0.21622077278E+02  0.11516315772E+02  0.62278478738E+02  0.00000000000E+00 0. -1.
</event>
<event>
 8    1  0.3528896E-009  0.9856981E+02  0.7561462E-02  0.1283333E+00
         -2   -1    0    0    0  501 -0.00000000000E+00  0.00000000000E+00  0.47703985787E+02  0.47703985787E+02  0.00000000000E+00 0. -1.
          2   -1    0    0  501    0  0.00000000000E+00 -0.00000000000E+00 -0.29825532567E+03  0.29825532567E+03  0.00000000000E+00 0.  1.
         25    2    1    2    0    0 -0.40462806135E+02 -0.27567636157E+02 -0.12816527545E+03  0.18566421200E+03  0.12509056137E+03 0.  0.
         23    2    1    2    0    0  0.40462806135E+02  0.27567636157E+02 -0.12238606443E+03  0.16029509945E+03  0.91208315951E+02 0.  0.
          5    1    3    3  502    0 -0.84084979200E+02 -0.25116371579E+02 -0.67526037892E+02  0.11080773458E+03  0.41800000000E+01 0.  1.
         -5    1    3    3    0  502  0.43622173065E+02 -0.24512645784E+01 -0.60639237563E+02  0.74856477429E+02  0.41800000000E+01 0.  1.
        -11    1    4    4    0    0  0.45127225595E+02  0.87002837350E+01 -0.11040156934E+02  0.47265701012E+02  0.00000000000E+00 0. -1.
         11    1    4    4    0    0 -0.46644194600E+01  0.18867352422E+02 -0.11134590749E+03  0.11302939844E+03  0.00000000000E+00 0.  1.
</event>
<event>
 8    1  0.3528896E-009  0.2488145E+03  0.7561462E-02  0.1114056E+00
          1   -1    0    0  501    0  0.00000000000E+00  0.00000000000E+00  0.24382197127E+03  0.24382197127E+03  0.00000000000E+00 0. -1.
         -1   -1    0    0    0  501 -0.00000000000E+00 -0.00000000000E+00 -0.31047034283E+03  0.31047034283E+03  0.00000000000E+00 0.  1.
         25    2    1    2    0    0 -0.20009601473E+03  0.11658976262E+03  0.67107095252E+02  0.27163285891E+03  0.12509780154E+03 0.  0.
         23    2    1    2    0    0  0.20009601473E+03 -0.11658976262E+03 -0.13375546681E+03  0.28265945519E+03  0.91510954780E+02 0.  0.
          5    1    3    3  502    0 -0.19755012041E+03  0.13333899272E+03  0.78295495335E+02  0.25090435238E+03  0.41800000000E+01 0.  1.
         -5    1    3    3    0  502 -0.25458943191E+01 -0.16749230095E+02 -0.11188400084E+02  0.20728506533E+02  0.41800000000E+01 0.  1.
        -11    1    4    4    0    0  0.13761006425E+03 -0.40706451986E+02 -0.45474840677E+02  0.15053739120E+03  0.00000000000E+00 0. -1.
         11    1    4    4    0    0  0.62485950485E+02 -0.75883310637E+02 -0.88280626130E+02  0.13212206398E+03  0.00000000000E+00 0.  1.
</event>
<event>
 8    1  0.3528896E-009  0.1171727E+03  0.7561462E-02  0.1247835E+00
          1   -1    0    0  501    0  0.00000000000E+00  0.00000000000E+00  0.64584639808E+03  0.64584639808E+03  0.00000000000E+00 0. -1.
         -1   -1    0    0    0  501 -0.00000000000E+00 -0.00000000000E+00 -0.22174419813E+02  0.22174419813E+02  0.00000000000E+00 0.  1.
         25    2    1    2    0    0  0.28458952308E+02 -0.40472166790E+02  0.32691201922E+03  0.35350613420E+03  0.12508880986E+03 0.  0.
         23    2    1    2    0    0 -0.28458952308E+02  0.40472166790E+02  0.29675995905E+03  0.31451468370E+03  0.91679358180E+02 0.  0.
          5    1    3    3  502    0  0.14347437720E+02  0.44595005566E+02  0.13821635188E+03  0.14599930075E+03  0.41800000000E+01 0. -1.
         -5    1    3    3    0  502  0.14111514588E+02 -0.85067172357E+02  0.18869566734E+03  0.20750683345E+03  0.41800000000E+01 0. -1.
        -11    1    4    4    0    0 -0.59259149681E+02  0.37295374587E+02  0.16646688771E+03  0.18059295803E+03  0.00000000000E+00 0.  1.
         11    1    4    4    0    0  0.30800197373E+02  0.31767922035E+01  0.13029307134E+03  0.13392172567E+03  0.00000000000E+00 0. -1.
</event>
<event>
 8    1  0.3528896E-009  0.1864842E+03  0.7561462E-02  0.1161671E+00
         -2   -1    0    0    0  501 -0.00000000000E+00  0.00000000000E+00  0.13663032410E+03  0.13663032410E+03  0.00000000000E+00 0.  1.
          2   -1    0    0  501    0  0.00000000000E+00 -0.00000000000E+00 -0.30572678908E+03  0.30572678908E+03  0.00000000000E+00 0. -1.
         25    2    1    2    0    0 -0.46940589362E+02  0.16397136421E+03 -0.11797705995E+03  0.24219045897E+03  0.12509038545E+03 0.  0.
         23    2    1    2    0    0  0.46940589362E+02 -0.16397136421E+03 -0.51119405030E+02  0.20016665421E+03  0.91452002042E+02 0.  0.
          5    1    3    3  502    0 -0.31883274204E+02  0.16836450401E+03 -0.59403871373E+02  0.18140959655E+03  0.41800000000E+01 0.  1.
         -5    1    3    3    0  502 -0.15057315158E+02 -0.43931398013E+01 -0.58573188578E+02  0.60780862426E+02  0.41800000000E+01 0.  1.
        -11    1    4    4    0    0  0.43500506177E+02 -0.33741016071E+02  0.10513706086E+02  0.56047196351E+02  0.00000000000E+00 0.  1.
         11    1    4    4    0    0  0.34400831858E+01 -0.13023034814E+03 -0.61633111116E+02  0.14411945786E+03  0.00000000000E+00 0. -1.
</event>
<event>
 8    1  0.3528896E-009  0.9305931E+02  0.7561462E-02  0.1295608E+00
          1   -1    0    0  501    0  0.00000000000E+00  0.00000000000E+00  0.43845748505E+03  0.43845748505E+03  0.00000000000E+00 0. -1.
         -1   -1    0    0    0  501 -0.00000000000E+00 -0.00000000000E+00 -0.39358422598E+02  0.39358422598E+02  0.00000000000E+00 0.  1.
         25    2    1    2    0    0 -0.10401499290E+02 -0.70162430884E+02  0.26088394605E+03  0.29789216513E+03  0.12509336850E+03 0.  0.
         23    2    1    2    0    0  0.10401499290E+02  0.70162430884E+02  0.13821511640E+03  0.17992374252E+03  0.90764402852E+02 0.  0.
          5    1    3    3  502    0 -0.29336532191E+01 -0.87841372170E+02  0.89937588594E+02  0.12582112393E+03  0.41800000000E+01 0. -1.
         -5    1    3    3    0  502 -0.74678460712E+01  0.17678941287E+02  0.17094635746E+03  0.17207104120E+03  0.41800000000E+01 0. -1.
        -11    1    4    4    0    0  0.22774624745E+02  0.47009975515E+02  0.14387940817E+03  0.15306830313E+03  0.00000000000E+00 0. -1.
         11    1    4    4    0    0 -0.12373125455E+02  0.23152455368E+02 -0.56642917684E+01  0.26855439381E+02  0.00000000000E+00 0.  1.
</event>
<event>
 8    1  0.3528896E-009  0.1547561E+03  0.7561462E-02  0.1194748E+00
          1   -1    0    0  501    0  0.00000000000E+00  0.00000000000E+00  0.66521892075E+03  0.66521892075E+03  0.00000000000E+00 0. -1.
         -1   -1    0    0    0  501 -0.00000000000E+00 -0.00000000000E+00 -0.56310688951E+02  0.56310688951E+02  0.00000000000E+00 0.  1.
         25    2    1    2    0    0  0.10321862876E+03  0.42171604419E+02  0.53028298134E+03  0.55612993009E+03  0.12509168360E+03 0.  0.
         23    2    1    2    0    0 -0.10321862876E+03 -0.42171604419E+02  0.78625250457E+02  0.16539967960E+03  0.93501842015E+02 0.  0.
          5    1    3    3  502    0  0.95277040502E+02 -0.24731131910E+02  0.27672561548E+03  0.29374118199E+03  0.41800000000E+01 0.  1.
         -5    1    3    3    0  502  0.79415882626E+01  0.66902736329E+02  0.25355736586E+03  0.26238874811E+03  0.41800000000E+01 0.  1.
        -11    1    4    4    0    0  0.50519569129E+00  0.21679600592E+02  0.26535736101E+01  0.21847236838E+02  0.00000000000E+00 0.  1.
         11    1    4    4    0    0 -0.10372382446E+03 -0.63851205012E+02  0.75971676847E+02  0.14355244277E+03  0.00000000000E+00 0. -1.
</event>
<event>
 8    1  0.3528896E-009  0.1215462E+03  0.7561462E-02  0.1240568E+00
         -3   -1    0    0    0  501 -0.00000000000E+00  0.00000000000E+00  0.48631297883E+03  0.48631297883E+03  0.00000000000E+00 0.  1.
          3   -1    0    0  501    0  0.00000000000E+00 -0.00000000000E+00 -0.45376827976E+02  0.45376827976E+02  0.00000000000E+00 0. -1.
         25    2    1    2    0    0 -0.84535058904E+02 -0.13917524457E+02  0.32300200405E+03  0.35682069396E+03  0.12510331470E+03 0.  0.
         23    2    1    2    0    0  0.84535058904E+02  0.13917524457E+02  0.11793414681E+03  0.17486911285E+03  0.96596428365E+02 0.  0.
          5    1    3    3  502    0 -0.83203544536E+02  0.42950477476E+02  0.21878538175E+03  0.23801699311E+03  0.41800000000E+01 0. -1.
         -5    1    3    3    0  502 -0.13315143682E+01 -0.56868001933E+02  0.10421662229E+03  0.11880370085E+03  0.41800000000E+01 0. -1.
        -11    1    4    4    0    0  0.34864202968E+02  0.23089004133E+02  0.11711011820E+03  0.12435189804E+03  0.00000000000E+00 0.  1.
         11    1    4    4    0    0  0.49670855936E+02 -0.91714796768E+01  0.82402860853E+00  0.50517214809E+02  0.00000000000E+00 0. -1.
</event>
<event>
 8    1  0.3528896E-009  0.4028648E+02  0.7561462E-02  0.1506114E+00
         -2   -1    0    0    0  501 -0.00000000000E+00  0.00000000000E+00  0.32173033475E+03  0.32173033475E+03  0.00000000000E+00 0.  1.
          2   -1    0    0  501    0  0.00000000000E+00 -0.00000000000E+00 -0.38790213093E+02  0.38790213093E+02  0.00000000000E+00 0. -1.
         25    2    1    2    0    0  0.15796349732E+02  0.13474523770E+02  0.19116749896E+03  0.22939795818E+03  0.12508926054E+03 0.  0.
         23    2    1    2    0    0 -0.15796349732E+02 -0.13474523770E+02  0.91772622694E+02  0.13112258966E+03  0.91322679482E+02 0.  0.
          5    1    3    3  502    0  0.22816430776E+02  0.21538214647E+02  0.20724194430E+03  0.20964536742E+03  0.41800000000E+01 0.  1.
         -5    1    3    3    0  502 -0.70200810439E+01 -0.80636908776E+01 -0.16074445343E+02  0.19752590755E+02  0.41800000000E+01 0.  1.
        -11    1    4    4    0    0  0.22453154200E+01 -0.18559855909E+02 -0.14217838559E+02  0.23487371628E+02  0.00000000000E+00 0. -1.
         11    1    4    4    0    0 -0.18041665152E+02  0.50853321398E+01  0.10599046125E+03  0.10763521803E+03  0.00000000000E+00 0.  1.
</event>
<event>
 8    1  0.3528896E-009  0.1024233E+03  0.7561462E-02  0.1275281E+00
          2   -1    0    0  501    0  0.00000000000E+00  0.00000000000E+00  0.37894882806E+03  0.37894882806E+03  0.00000000000E+00 0. -1.
         -2   -1    0    0    0  501 -0.00000000000E+00 -0.00000000000E+00 -0.33274570849E+02  0.33274570849E+02  0.00000000000E+00 0.  1.
         25    2    1    2    0    0  0.19508116798E+01 -0.18678333517E+02  0.16855422929E+03  0.21073885655E+03  0.12509057374E+03 0.  0.
         23    2    1    2    0    0 -0.19508116798E+01  0.18678333517E+02  0.17712002792E+03  0.20148454236E+03  0.94190396067E+02 0.  0.
          5    1    3    3  502    0 -0.51730314750E+02 -0.39313880131E+02  0.63764071321E+02  0.91131420633E+02  0.41800000000E+01 0.  1.
         -5    1    3    3    0  502  0.53681126430E+02  0.20635546614E+02  0.10479015797E+03  0.11960743592E+03  0.41800000000E+01 0.  1.
        -11    1    4    4    0    0  0.30640030674E+01  0.50131761527E+02  0.15439244677E+03  0.16235642657E+03  0.00000000000E+00 0.  1.
         11    1    4    4    0    0 -0.50148147472E+01 -0.31453428010E+02  0.22727581147E+02  0.39128115791E+02  0.00000000000E+00 0. -1.
</event>
<event>
 8    1  0.3528896E-009  0.1087922E+03  0.7561462E-02  0.1262823E+00
         -1   -1    0    0    0  501 -0.00000000000E+00  0.00000000000E+00  0.11512861273E+02  0.11512861273E+02  0.00000000000E+00 0.  1.
          1   -1    0    0  501    0  0.00000000000E+00 -0.00000000000E+00 -0.14464693693E+04  0.14464693693E+04  0.00000000000E+00 0. -1.
         25    2    1    2    0    0 -0.43677749220E+02  0.22420882713E+02 -0.10672958570E+04  0.10757225076E+04  0.12509206781E+03 0.  0.
         23    2    1    2    0    0  0.43677749220E+02 -0.22420882713E+02 -0.36766065106E+03  0.38225972292E+03  0.92399673510E+02 0.  0.
          5    1    3    3  502    0 -0.35755731444E+02  0.71912238771E+02 -0.77162405832E+03  0.77580345590E+03  0.41800000000E+01 0.  1.
         -5    1    3    3    0  502 -0.79220177767E+01 -0.49491356058E+02 -0.29567179864E+03  0.29991905174E+03  0.41800000000E+01 0.  1.
        -11    1    4    4    0    0 -0.98836981653E+01 -0.31078997621E+02 -0.48023600881E+02  0.58050476519E+02  0.00000000000E+00 0.  1.
         11    1    4    4    0    0  0.53561447385E+02  0.86581149075E+01 -0.31963705018E+03  0.32420924640E+03  0.00000000000E+00 0. -1.
</event>
<event>
 8    1  0.3528896E-009  0.8359589E+02  0.7561462E-02  0.1319146E+00
          1   -1    0    0  501    0  0.00000000000E+00  0.00000000000E+00  0.10832645314E+03  0.10832645314E+03  0.00000000000E+00 0. -1.
         -1   -1    0    0    0  501 -0.00000000000E+00 -0.00000000000E+00 -0.14069961014E+03  0.14069961014E+03  0.00000000000E+00 0.  1.
         25    2    1    2    0    0 -0.16500483334E+02  0.53958027125E+02 -0.23085438608E+00  0.13723710632E+03  0.12510090094E+03 0.  0.
         23    2    1    2    0    0  0.16500483334E+02 -0.53958027125E+02 -0.32142302610E+02  0.11178895695E+03  0.90994003309E+02 0.  0.
          5    1    3    3  502    0 -0.18469901638E+02  0.27251712149E+02  0.61464515876E+02  0.69850928365E+02  0.41800000000E+01 0.  1.
         -5    1    3    3    0  502  0.19694183043E+01  0.26706314976E+02 -0.61695370262E+02  0.67386177958E+02  0.41800000000E+01 0.  1.
        -11    1    4    4    0    0 -0.28265530284E+02 -0.55313303101E+02 -0.21729831681E+02  0.65807957627E+02  0.00000000000E+00 0.  1.
         11    1    4    4    0    0  0.44766013618E+02  0.13552759759E+01 -0.10412470928E+02  0.45980999326E+02  0.00000000000E+00 0. -1.
</event>
<event>
 8    1  0.3528896E-009  0.3421830E+03  0.7561462E-02  0.1065870E+00
          1   -1    0    0  501    0  0.00000000000E+00  0.00000000000E+00  0.56684299232E+03  0.56684299232E+03  0.00000000000E+00 0. -1.
         -1   -1    0    0    0  501 -0.00000000000E+00 -0.00000000000E+00 -0.22493500112E+03  0.22493500112E+03  0.00000000000E+00 0.  1.
         25    2    1    2    0    0  0.28199499517E+03 -0.18435805106E+03  0.12233625840E+03  0.37963458939E+03  0.12508874070E+03 0.  0.
         23    2    1    2    0    0 -0.28199499517E+03  0.18435805106E+03  0.21957173280E+03  0.41214340404E+03  0.90229548165E+02 0.  0.
          5    1    3    3  502    0  0.56869876492E+02 -0.75609890130E+02  0.84146397526E+02  0.12668514891E+03  0.41800000000E+01 0.  1.
         -5    1    3    3    0  502  0.22512511868E+03 -0.10874816093E+03  0.38189860876E+02  0.25294944048E+03  0.41800000000E+01 0.  1.
        -11    1    4    4    0    0 -0.24043123681E+03  0.13747514145E+03  0.21250553849E+03  0.34909196216E+03  0.00000000000E+00 0. -1.
         11    1    4    4    0    0 -0.41563758357E+02  0.46882909609E+02  0.70661943052E+01  0.63051441888E+02  0.00000000000E+00 0.  1.
</event>
<event>
 8    1  0.3528896E-009  0.1631138E+03  0.7561462E-02  0.1185226E+00
         -4   -1    0    0    0  501 -0.00000000000E+00  0.00000000000E+00  0.20855386364E+03  0.20855386364E+03  0.00000000000E+00 0.  1.
          4   -1    0    0  501    0  0.00000000000E+00 -0.00000000000E+00 -0.18246432042E+03  0.18246432042E+03  0.00000000000E+00 0. -1.
         25    2    1    2    0    0  0.10423449906E+03  0.10508185806E+03 -0.50340672781E+02  0.20022154749E+03  0.12508979597E+03 0.  0.
         23    2    1    2    0    0 -0.10423449906E+03 -0.10508185806E+03  0.76430215995E+02  0.19079663657E+03  0.93030913808E+02 0.  0.
          5    1    3    3  502    0  0.97708201945E+02  0.83536956666E+02  0.16402306669E+02  0.12966041771E+03  0.41800000000E+01 0.  1.
         -5    1    3    3    0  502  0.65262971102E+01  0.21544901394E+02 -0.66742979449E+02  0.70561129780E+02  0.41800000000E+01 0.  1.
        -11    1    4    4    0    0 -0.12020582121E+03 -0.78073416091E+02  0.60110794218E+02  0.15542910067E+03  0.00000000000E+00 0.  1.
         11    1    4    4    0    0  0.15971322154E+02 -0.27008441969E+02  0.16319421778E+02  0.35367535907E+02  0.00000000000E+00 0. -1.
</event>
<event>
 8    1  0.3528896E-009  0.1128949E+03  0.7561462E-02  0.1255301E+00
          1   -1    0    0  501    0  0.00000000000E+00  0.00000000000E+00  0.48423124082E+03  0.48423124082E+03  0.00000000000E+00 0. -1.
         -1   -1    0    0    0  501 -0.00000000000E+00 -0.00000000000E+00 -0.37780833837E+02  0.37780833837E+02  0.00000000000E+00 0.  1.
         25    2    1    2    0    0  0.29606360561E+02  0.73821581836E+02  0.21625741378E+03  0.26218501873E+03  0.12509017748E+03 0.  0.
         23    2    1    2    0    0 -0.29606360561E+02 -0.73821581836E+02  0.23019299321E+03  0.25982705593E+03  0.90526915010E+02 0.  0.
          5    1    3    3  502    0  0.75793488817E+02  0.39339075452E+02  0.16065925946E+03  0.18199199393E+03  0.41800000000E+01 0. -1.
         -5    1    3    3    0  502 -0.46187128255E+02  0.34482506384E+02  0.55598154322E+02  0.80193024803E+02  0.41800000000E+01 0. -1.
        -11    1    4    4    0    0 -0.40672330560E+01 -0.39564861730E+02  0.18501009067E+02  0.43865795387E+02  0.00000000000E+00 0.  1.
         11    1    4    4    0    0 -0.25539127505E+02 -0.34256720106E+02  0.21169198414E+03  0.21596126054E+03  0.00000000000E+00 0. -1.
</event>
<event>
 8    1  0.3528896E-009  0.9279169E+02  0.7561462E-02  0.1296229E+00
          4   -1    0    0  501    0  0.00000000000E+00  0.00000000000E+00  0.48580574955E+02  0.48580574955E+02  0.00000000000E+00 0. -1.
         -4   -1    0    0    0  501 -0.00000000000E+00 -0.00000000000E+00 -0.26865640204E+03  0.26865640204E+03  0.00000000000E+00 0.  1.
         25    2    1    2    0    0  0.28754326690E+02 -0.65420439502E+01 -0.16559681066E+03  0.20963364852E+03  0.12511735791E+03 0.  0.
         23    2    1    2    0    0 -0.28754326690E+02  0.65420439502E+01 -0.54479016430E+02  0.10760332848E+03  0.87982404070E+02 0.  0.
          5    1    3    3  502    0  0.59331794615E+02  0.14250355730E+02 -0.16089166684E+03  0.17212476681E+03  0.41800000000E+01 0. -1.
         -5    1    3    3    0  502 -0.30577467924E+02 -0.20792399680E+02 -0.47051438229E+01  0.37508881715E+02  0.41800000000E+01 0. -1.
        -11    1    4    4    0    0 -0.17811789465E+02 -0.37666683808E+02 -0.78036343288E+01  0.42390277444E+02  0.00000000000E+00 0. -1.
         11    1    4    4    0    0 -0.10942537226E+02  0.44208727758E+02 -0.46675382101E+02  0.65213051034E+02  0.00000000000E+00 0.  1.
</event>
<event>
 8    1  0.3528896E-009  0.1055946E+03  0.7561462E-02  0.1268953E+00
         -4   -1    0    0    0  501 -0.00000000000E+00  0.00000000000E+00  0.37336049192E+03  0.37336049192E+03  0.00000000000E+00 0.  1.
          4   -1    0    0  501    0  0.00000000000E+00 -0.00000000000E+00 -0.38982306457E+02  0.38982306457E+02  0.00000000000E+00 0. -1.
         25    2    1    2    0    0 -0.37510790159E+02 -0.32305725851E+02  0.15571424135E+03  0.20577961048E+03  0.12509038263E+03 0.  0.
         23    2    1    2    0    0  0.37510790159E+02  0.32305725851E+02  0.17866394411E+03  0.20656318790E+03  0.91086916564E+02 0.  0.
          5    1    3    3  502    0 -0.60703177848E+02 -0.49435739854E+02  0.43113249908E+02  0.89470625869E+02  0.41800000000E+01 0. -1.
         -5    1    3    3    0  502  0.23192387689E+02  0.17130014003E+02  0.11260099145E+03  0.11630898461E+03  0.41800000000E+01 0. -1.
        -11    1    4    4    0    0  0.65253162245E+02  0.37749425078E+02  0.12845025399E+03  0.14893777904E+03  0.00000000000E+00 0.  1.
         11    1    4    4    0    0 -0.27742372086E+02 -0.54436992264E+01  0.50213690122E+02  0.57625408856E+02  0.00000000000E+00 0. -1.
</event>
<event>
 8    1  0.3528896E-009  0.9533481E+02  0.7561462E-02  0.1290424E+00
         -3   -1    0    0    0  501 -0.00000000000E+00  0.00000000000E+00  0.81904988993E+02  0.81904988993E+02  0.00000000000E+00 0.  1.
          3   -1    0    0  501    0  0.00000000000E+00 -0.00000000000E+00 -0.16972763725E+03  0.16972763725E+03  0.00000000000E+00 0. -1.
         25    2    1    2    0    0  0.29839457046E+02  0.17076944952E+02 -0.79868036838E+02  0.15234370345E+03  0.12509070879E+03 0.  0.
         23    2    1    2    0    0 -0.29839457046E+02 -0.17076944952E+02 -0.79546114143E+01  0.99288922792E+02  0.92806244945E+02 0.  0.
          5    1    3    3  502    0  0.53574702288E+02  0.56931000819E+02 -0.29286509256E+02  0.83585642331E+02  0.41800000000E+01 0. -1.
         -5    1    3    3    0  502 -0.23735245242E+02 -0.39854055868E+02 -0.50581527582E+02  0.68758061115E+02  0.41800000000E+01 0. -1.
        -11    1    4    4    0    0 -0.46639866282E+02 -0.10804405140E+02 -0.40119441644E+02  0.62462643997E+02  0.00000000000E+00 0. -1.
         11    1    4    4    0    0  0.16800409236E+02 -0.62725398115E+01  0.32164830230E+02  0.36826278795E+02  0.00000000000E+00 0.  1.
</event>
<event>
 8    1  0.3528896E-009  0.8451163E+02  0.7561462E-02  0.1316715E+00
          3   -1    0    0  501    0  0.00000000000E+00  0.00000000000E+00  0.41967273743E+03  0.41967273743E+03  0.00000000000E+00 0. -1.
         -3   -1    0    0    0  501 -0.00000000000E+00 -0.00000000000E+00 -0.38871698711E+02  0.38871698711E+02  0.00000000000E+00 0.  1.
         25    2    1    2    0    0  0.22720487998E+02  0.60980272034E+02  0.24748437477E+03  0.28483527174E+03  0.12509117524E+03 0.  0.
         23    2    1    2    0    0 -0.22720487998E+02 -0.60980272034E+02  0.13331666395E+03  0.17370916440E+03  0.90369943879E+02 0.  0.
          5    1    3    3  502    0  0.50816235983E+02  0.22043304891E+02  0.32168277286E+02  0.64190868459E+02  0.41800000000E+01 0. -1.
         -5    1    3    3    0  502 -0.28095747985E+02  0.38936967143E+02  0.21531609748E+03  0.22064440328E+03  0.41800000000E+01 0. -1.
        -11    1    4    4    0    0 -0.73716235417E+01 -0.27063788574E+02 -0.66908585964E+01  0.28836731340E+02  0.00000000000E+00 0.  1.
         11    1    4    4    0    0 -0.15348864456E+02 -0.33916483460E+02  0.14000752255E+03  0.14487243306E+03  0.00000000000E+00 0. -1.
</event>
<event>
 8    1  0.3528896E-009  0.1885088E+03  0.7561462E-02  0.1159813E+00
          1   -1    0    0  501    0  0.00000000000E+00  0.00000000000E+00  0.27362969880E+03  0.27362969880E+03  0.00000000000E+00 0. -1.
         -1   -1    0    0    0  501 -0.00000000000E+00 -0.00000000000E+00 -0.15428113420E+03  0.15428113420E+03  0.00000000000E+00 0.  1.
         25    2    1    2    0    0 -0.16889723898E+03  0.42262152399E+02  0.59150790276E+02  0.22239533928E+03  0.12509398099E+03 0.  0.
         23    2    1    2    0    0  0.16889723898E+03 -0.42262152399E+02  0.60197774319E+02  0.20551549372E+03  0.91106966068E+02 0.  0.
          5    1    3    3  502    0 -0.44741331991E+02  0.60036538982E+02  0.61343436454E+02  0.96884789298E+02  0.41800000000E+01 0. -1.
         -5    1    3    3    0  502 -0.12415590699E+03 -0.17774386583E+02 -0.21926461780E+01  0.12551054998E+03  0.41800000000E+01 0. -1.
        -11    1    4    4    0    0  0.85330348640E+02 -0.36378682579E+02 -0.13747993763E+02  0.93774646242E+02  0.00000000000E+00 0. -1.
         11    1    4    4    0    0  0.83566890339E+02 -0.58834698199E+01  0.73945768082E+02  0.11174084748E+03  0.00000000000E+00 0.  1.
</event>
<event>
 8    1  0.3528896E-009  0.1107780E+03  0.7561462E-02  0.1259136E+00
         -1   -1    0    0    0  501 -0.00000000000E+00  0.00000000000E+00  0.14277648337E+03  0.14277648337E+03  0.00000000000E+00 0.  1.
          1   -1    0    0  501    0  0.00000000000E+00 -0.00000000000E+00 -0.12292715439E+03  0.12292715439E+03  0.00000000000E+00 0. -1.
         25    2    1    2    0    0 -0.41948291657E+02 -0.41278986453E+02  0.52239165900E+02  0.14778498396E+03  0.12509139512E+03 0.  0.
         23    2    1    2    0    0  0.41948291657E+02  0.41278986453E+02 -0.32389836921E+02  0.11791865380E+03  0.96912813826E+02 0.  0.
          5    1    3    3  502    0 -0.45987628677E+02 -0.68713122743E+02  0.74968322336E+02  0.11168740745E+03  0.41800000000E+01 0. -1.
         -5    1    3    3    0  502  0.40393370205E+01  0.27434136290E+02 -0.22729156437E+02  0.36097576509E+02  0.41800000000E+01 0. -1.
        -11    1    4    4    0    0 -0.17889596353E+02  0.47314461774E+02 -0.22155593671E+01  0.50632051647E+02  0.00000000000E+00 0.  1.
         11    1    4    4    0    0  0.59837888010E+02 -0.60354753212E+01 -0.30174277554E+02  0.67286602157E+02  0.00000000000E+00 0. -1.
</event>
<event>
 8    1  0.3528896E-009  0.1646660E+03  0.7561462E-02  0.1183527E+00
          1   -1    0    0  501    0  0.00000000000E+00  0.00000000000E+00  0.79592691208E+02  0.79592691208E+02  0.00000000000E+00 0. -1.
         -1   -1    0    0    0  501 -0.00000000000E+00 -0.00000000000E+00 -0.44558902722E+03  0.44558902722E+03  0.00000000000E+00 0.  1.
         25    2    1    2    0    0  0.13015557551E+03  0.81931540699E+01 -0.79229120075E+02  0.19733106571E+03  0.12511872129E+03 0.  0.
         23    2    1    2    0    0 -0.13015557551E+03 -0.81931540699E+01 -0.28676721594E+03  0.32785065271E+03  0.90791038863E+02 0.  0.
          5    1    3    3  502    0  0.91833879767E+02  0.63277480853E+02 -0.35434419266E+02  0.11709214972E+03  0.41800000000E+01 0.  1.
         -5    1    3    3    0  502  0.38321695743E+02 -0.55084326784E+02 -0.43794700809E+02  0.80238915999E+02  0.41800000000E+01 0.  1.
        -11    1    4    4    0    0 -0.10548800057E+03 -0.37713502949E+02 -0.25288223151E+03  0.27658533870E+03  0.00000000000E+00 0.  1.
         11    1    4    4    0    0 -0.24667574944E+02  0.29520348879E+02 -0.33884984426E+02  0.51265314016E+02  0.00000000000E+00 0. -1.
</event>
<event>
 8    1  0.3528896E-009  0.1046992E+03  0.7561462E-02  0.1270713E+00
         -3   -1    0    0    0  501 -0.00000000000E+00  0.00000000000E+00  0.64811501315E+03  0.64811501315E+03  0.00000000000E+00 0.  1.
          3   -1    0    0  501    0  0.00000000000E+00 -0.00000000000E+00 -0.22942052929E+02  0.22942052929E+02  0.00000000000E+00 0. -1.
         25    2    1    2    0    0  0.46177777050E+02  0.31241644347E+02  0.35715380632E+03  0.38250277968E+03  0.12506441405E+03 0.  0.
         23    2    1    2    0    0 -0.46177777050E+02 -0.31241644347E+02  0.26801915390E+03  0.28855428640E+03  0.91218868143E+02 0.  0.
          5    1    3    3  502    0  0.38400470032E+02 -0.45242742704E+02  0.14050501825E+03  0.15257992797E+03  0.41800000000E+01 0.  1.
         -5    1    3    3    0  502  0.77773070178E+01  0.76484387052E+02  0.21664878807E+03  0.22992285171E+03  0.41800000000E+01 0.  1.
        -11    1    4    4    0    0 -0.56003654412E+02 -0.25494962687E+02  0.27006712338E+03  0.27698854409E+03  0.00000000000E+00 0.  1.
         11    1    4    4    0    0  0.98258773615E+01 -0.57466816603E+01 -0.20479694770E+01  0.11565742303E+02  0.00000000000E+00 0. -1.
</event>
<event>
 8    1  0.3528896E-009  0.2350875E+03  0.7561462E-02  0.1123109E+00
         -2   -1    0    0    0  501 -0.00000000000E+00  0.00000000000E+00  0.20898195092E+03  0.20898195092E+03  0.00000000000E+00 0.  1.
          2   -1    0    0  501    0  0.00000000000E+00 -0.00000000000E+00 -0.26470752240E+03  0.26470752240E+03  0.00000000000E+00 0. -1.
         25    2    1    2    0    0  0.20014918337E+03 -0.57679888611E+02 -0.28004356065E+02  0.24457811468E+03  0.12509014776E+03 0.  0.
         23    2    1    2    0    0 -0.20014918337E+03  0.57679888611E+02 -0.27721215414E+02  0.22911135864E+03  0.91306537108E+02 0.  0.
          5    1    3    3  502    0 -0.90063407120E+01  0.17945556380E+02 -0.16562075123E+01  0.20576019784E+02  0.41800000000E+01 0.  1.
         -5    1    3    3    0  502  0.20915552408E+03 -0.75625444991E+02 -0.26348148553E+02  0.22400209489E+03  0.41800000000E+01 0.  1.
        -11    1    4    4    0    0 -0.20304507978E+03  0.37063787180E+02 -0.22319155914E+02  0.20760340427E+03  0.00000000000E+00 0.  1.
         11    1    4    4    0    0  0.28958964116E+01  0.20616101431E+02 -0.54020595007E+01  0.21507954368E+02  0.00000000000E+00 0. -1.
</event>
<event>
 8    1  0.3528896E-009  0.1203136E+03  0.7561462E-02  0.1242581E+00
         -1   -1    0    0    0  501 -0.00000000000E+00  0.00000000000E+00  0.17634759246E+03  0.17634759246E+03  0.00000000000E+00 0.  1.
          1   -1    0    0  501    0  0.00000000000E+00 -0.00000000000E+00 -0.12417547608E+03  0.12417547608E+03  0.00000000000E+00 0. -1.
         25    2    1    2    0    0  0.83307102301E+01  0.80001208622E+02 -0.32195164240E+02  0.15216705445E+03  0.12509472310E+03 0.  0.
         23    2    1    2    0    0 -0.83307102301E+01 -0.80001208622E+02  0.84367280613E+02  0.14835601409E+03  0.91771862590E+02 0.  0.
          5    1    3    3  502    0 -0.44984991242E+02  0.63681512943E+02 -0.50902200739E+02  0.93206710959E+02  0.41800000000E+01 0. -1.
         -5    1    3    3    0  502  0.53315701472E+02  0.16319695679E+02  0.18707036499E+02  0.58960343495E+02  0.41800000000E+01 0. -1.
        -11    1    4    4    0    0  0.15053427106E+02 -0.81806278208E+02  0.91678255429E+02  0.12378923758E+03  0.00000000000E+00 0.  1.
         11    1    4    4    0    0 -0.23384137336E+02  0.18050695862E+01 -0.73109748157E+01  0.24566776506E+02  0.00000000000E+00 0. -1.
</event>
<event>
 8    1  0.3528896E-009  0.9921209E+02  0.7561462E-02  0.1281962E+00
         -2   -1    0    0    0  501 -0.00000000000E+00  0.00000000000E+00  0.20600404764E+03  0.20600404764E+03  0.00000000000E+00 0.  1.
          2   -1    0    0  501    0  0.00000000000E+00 -0.00000000000E+00 -0.82884441264E+02  0.82884441264E+02  0.00000000000E+00 0. -1.
         25    2    1    2    0    0  0.92991984799E+00 -0.55324725470E+02  0.15760686626E+02  0.13768939274E+03  0.12509308387E+03 0.  0.
         23    2    1    2    0    0 -0.92991984799E+00  0.55324725470E+02  0.10735891975E+03  0.15119909616E+03  0.90958996427E+02 0.  0.
          5    1    3    3  502    0 -0.22696067361E+02 -0.64350626847E+02  0.57082685385E+02  0.89061888707E+02  0.41800000000E+01 0.  1.
         -5    1    3    3    0  502  0.23625987209E+02  0.90259013773E+01 -0.41321998759E+02  0.48627504035E+02  0.41800000000E+01 0.  1.
        -11    1    4    4    0    0 -0.44012375870E+02  0.18470539658E+02  0.63925920693E+02  0.79779529965E+02  0.00000000000E+00 0.  1.
         11    1    4    4    0    0  0.43082456022E+02  0.36854185811E+02  0.43432999058E+02  0.71419566198E+02  0.00000000000E+00 0. -1.
</event>
<event>
 8    1  0.3528896E-009  0.2126108E+03  0.7561462E-02  0.1139515E+00
         -1   -1    0    0    0  501 -0.00000000000E+00  0.00000000000E+00  0.82494843822E+02  0.82494843822E+02  0.00000000000E+00 0.  1.
          1   -1    0    0  501    0  0.00000000000E+00 -0.00000000000E+00 -0.71951489673E+03  0.71951489673E+03  0.00000000000E+00 0. -1.
         25    2    1    2    0    0 -0.15989829275E+02  0.19709560583E+03 -0.47662762536E+03  0.53096490816E+03  0.12508991951E+03 0.  0.
         23    2    1    2    0    0  0.15989829275E+02 -0.19709560583E+03 -0.16039242756E+03  0.27104483240E+03  0.92936633664E+02 0.  0.
          5    1    3    3  502    0  0.27441432303E+02  0.15385322508E+02 -0.19835919388E+02  0.37425612266E+02  0.41800000000E+01 0.  1.
         -5    1    3    3    0  502 -0.43431261578E+02  0.18171028332E+03 -0.45679170597E+03  0.49353929589E+03  0.41800000000E+01 0.  1.
        -11    1    4    4    0    0 -0.15880416958E+02 -0.14258137246E+03 -0.67072569621E+02  0.15836781558E+03  0.00000000000E+00 0. -1.
         11    1    4    4    0    0  0.31870246234E+02 -0.54514233365E+02 -0.93319857936E+02  0.11267701682E+03  0.00000000000E+00 0.  1.
</event>
<event>
 8    1  0.3528896E-009  0.8399730E+02  0.7561462E-02  0.1318076E+00
          1   -1    0    0  501    0  0.00000000000E+00  0.00000000000E+00  0.25610176740E+03  0.25610176740E+03  0.00000000000E+00 0. -1.
         -1   -1    0    0    0  501 -0.00000000000E+00 -0.00000000000E+00 -0.53521869355E+02  0.53521869355E+02  0.00000000000E+00 0.  1.
         25    2    1    2    0    0  0.22822831624E+02  0.19582854930E+02  0.19031482714E+03  0.22971629935E+03  0.12508187282E+03 0.  0.
         23    2    1    2    0    0 -0.22822831624E+02 -0.19582854930E+02  0.12265070903E+02  0.79907337402E+02  0.73009456619E+02 0.  0.
          5    1    3    3  502    0 -0.31570744210E+02  0.24104965987E+02  0.16434262783E+03  0.16912638173E+03  0.41800000000E+01 0. -1.
         -5    1    3    3    0  502  0.54393575834E+02 -0.45221110575E+01  0.25972199314E+02  0.60589917624E+02  0.41800000000E+01 0. -1.
        -11    1    4    4    0    0 -0.39848818352E+01 -0.43042310588E+02 -0.75511889178E+01  0.43880978089E+02  0.00000000000E+00 0.  1.
         11    1    4    4    0    0 -0.18837949789E+02  0.23459455658E+02  0.19816259821E+02  0.36026359313E+02  0.00000000000E+00 0. -1.
</event>
<event>
 8    1  0.3528896E-009  0.1211460E+03  0.7561462E-02  0.1241218E+00
          1   -1    0    0  501    0  0.00000000000E+00  0.00000000000E+00  0.41792717558E+03  0.41792717558E+03  0.00000000000E+00 0. -1.
         -1   -1    0    0    0  501 -0.00000000000E+00 -0.00000000000E+00 -0.59549713701E+02  0.59549713701E+02  0.00000000000E+00 0.  1.
         25    2    1    2    0    0 -0.35876700670E+02  0.50922567590E+02  0.46999255744E+02  0.14743176561E+03  0.12508776890E+03 0.  0.
         23    2    1    2    0    0  0.35876700670E+02 -0.50922567590E+02  0.31137820613E+03  0.33004512367E+03  0.89961941192E+02 0.  0.
          5    1    3    3  502    0 -0.58661521494E+02 -0.20361852375E+02  0.35360991504E+02  0.71579684661E+02  0.41800000000E+01 0. -1.
         -5    1    3    3    0  502  0.22784820824E+02  0.71284419964E+02  0.11638264241E+02  0.75852080948E+02  0.41800000000E+01 0. -1.
        -11    1    4    4    0    0  0.11235717957E+02 -0.71881079799E+02  0.25357690189E+03  0.26380746040E+03  0.00000000000E+00 0.  1.
         11    1    4    4    0    0  0.24640982714E+02  0.20958512210E+02  0.57801304238E+02  0.66237663264E+02  0.00000000000E+00 0. -1.
</event>
<event>
 8    1  0.3528896E-009  0.2313377E+03  0.7561462E-02  0.1125702E+00
          1   -1    0    0  501    0  0.00000000000E+00  0.00000000000E+00  0.51337367813E+03  0.51337367813E+03  0.00000000000E+00 0. -1.
         -1   -1    0    0    0  501 -0.00000000000E+00 -0.00000000000E+00 -0.11100550204E+03  0.11100550204E+03  0.00000000000E+00 0.  1.
         25    2    1    2    0    0 -0.20174271732E+03  0.65275886425E+02  0.18462252916E+03  0.30772259651E+03  0.12508658117E+03 0.  0.
         23    2    1    2    0    0  0.20174271732E+03 -0.65275886425E+02  0.21774564693E+03  0.31665658366E+03  0.88865965804E+02 0.  0.
          5    1    3    3  502    0 -0.79685875075E+02 -0.21867014779E+02  0.20259465365E+02  0.85181707887E+02  0.41800000000E+01 0. -1.
         -5    1    3    3    0  502 -0.12205684225E+03  0.87142901204E+02  0.16436306379E+03  0.22254088862E+03  0.41800000000E+01 0. -1.
        -11    1    4    4    0    0  0.40029990209E+02 -0.54789566981E+02  0.64843112431E+02  0.93855878856E+02  0.00000000000E+00 0.  1.
         11    1    4    4    0    0  0.16171272711E+03 -0.10486319444E+02  0.15290253450E+03  0.22280070480E+03  0.00000000000E+00 0. -1.
</event>
<event>
 8    1  0.3528896E-009  0.3094402E+03  0.7561462E-02  0.1080614E+00
         -1   -1    0    0    0  501 -0.00000000000E+00  0.00000000000E+00  0.38714975507E+02  0.38714975507E+02  0.00000000000E+00 0.  1.
          1   -1    0    0  501    0  0.00000000000E+00 -0.00000000000E+00 -0.28699172126E+04  0.28699172126E+04  0.00000000000E+00 0. -1.
         25    2    1    2    0    0 -0.28230989069E+03 -0.94800597937E+02 -0.18874208109E+04  0.19148604639E+04  0.12508897359E+03 0.  0.
         23    2    1    2    0    0  0.28230989069E+03  0.94800597937E+02 -0.94378142627E+03  0.99377172421E+03  0.90403714107E+02 0.  0.
          5    1    3    3  502    0 -0.58830112108E+02  0.26974244434E+02 -0.28011992092E+03  0.28752953666E+03  0.41800000000E+01 0.  1.
         -5    1    3    3    0  502 -0.22347977858E+03 -0.12177484237E+03 -0.16073008899E+04  0.16273309273E+04  0.41800000000E+01 0.  1.
        -11    1    4    4    0    0  0.17557883738E+03  0.75043622128E+02 -0.46179007303E+03  0.49970946049E+03  0.00000000000E+00 0.  1.
         11    1    4    4    0    0  0.10673105330E+03  0.19756975809E+02 -0.48199135324E+03  0.49406226372E+03  0.00000000000E+00 0. -1.
</event>
<event>
 8    1  0.3528896E-009  0.1139869E+03  0.7561462E-02  0.1253360E+00
         -1   -1    0    0    0  501 -0.00000000000E+00  0.00000000000E+00  0.15118465402E+03  0.15118465402E+03  0.00000000000E+00 0.  1.
          1   -1    0    0  501    0  0.00000000000E+00 -0.00000000000E+00 -0.10329452961E+03  0.10329452961E+03  0.00000000000E+00 0. -1.
         25    2    1    2    0    0  0.51365087672E+02 -0.18488830778E+02 -0.33201889041E+01  0.13656262519E+03  0.12513240127E+03 0.  0.
         23    2    1    2    0    0 -0.51365087672E+02  0.18488830778E+02  0.51210313314E+02  0.11791655844E+03  0.91113168473E+02 0.  0.
          5    1    3    3  502    0  0.85041860479E+02 -0.35275275880E+02 -0.21388879884E+02  0.94611942718E+02  0.41800000000E+01 0.  1.
         -5    1    3    3    0  502 -0.33676772807E+02  0.16786445102E+02  0.18068690979E+02  0.41950682469E+02  0.41800000000E+01 0.  1.
        -11    1    4    4    0    0 -0.12029089512E+02 -0.31861676269E+02 -0.29112970170E+01  0.34181004366E+02  0.00000000000E+00 0. -1.
         11    1    4    4    0    0 -0.39335998160E+02  0.50350507047E+02  0.54121610331E+02  0.83735554073E+02  0.00000000000E+00 0.  1.
</event>
<event>
 8    1  0.3528896E-009  0.1030686E+03  0.7561462E-02  0.1273972E+00
          1   -1    0    0  501    0  0.00000000000E+00  0.00000000000E+00  0.40576013838E+02  0.40576013838E+02  0.00000000000E+00 0. -1.
         -1   -1    0    0    0  501 -0.00000000000E+00 -0.00000000000E+00 -0.33312595348E+03  0.33312595348E+03  0.00000000000E+00 0.  1.
         25    2    1    2    0    0  0.41202455697E+02  0.84499912271E+01 -0.18048477212E+03  0.22358692811E+03  0.12508923515E+03 0.  0.
         23    2    1    2    0    0 -0.41202455697E+02 -0.84499912271E+01 -0.11206516752E+03  0.15011503920E+03  0.90591823670E+02 0.  0.
          5    1    3    3  502    0  0.74848376683E+02 -0.16223421672E+02 -0.15886027466E+03  0.17640730758E+03  0.41800000000E+01 0.  1.
         -5    1    3    3    0  502 -0.33645920986E+02  0.24673412899E+02 -0.21624497453E+02  0.47179620528E+02  0.41800000000E+01 0.  1.
        -11    1    4    4    0    0 -0.28946500074E+02  0.33224433119E+02 -0.92526829832E+02  0.10248403320E+03  0.00000000000E+00 0.  1.
         11    1    4    4    0    0 -0.12255955622E+02 -0.41674424346E+02 -0.19538337688E+02  0.47631005998E+02  0.00000000000E+00 0. -1.
</event>
<event>
 8    1  0.3528896E-009  0.1220606E+03  0.7561462E-02  0.1239736E+00
         -1   -1    0    0    0  501 -0.00000000000E+00  0.00000000000E+00  0.13697162028E+03  0.13697162028E+03  0.00000000000E+00 0.  1.
          1   -1    0    0  501    0  0.00000000000E+00 -0.00000000000E+00 -0.17984284613E+03  0.17984284613E+03  0.00000000000E+00 0. -1.
         25    2    1    2    0    0  0.91225437908E+02  0.60870400904E+02  0.90601451771E+01  0.16660408078E+03  0.12509015659E+03 0.  0.
         23    2    1    2    0    0 -0.91225437908E+02 -0.60870400904E+02 -0.51931371031E+02  0.15021038563E+03  0.88538163669E+02 0.  0.
          5    1    3    3  502    0  0.72935438472E+01 -0.17356109304E+02  0.42795539883E+02  0.46939971728E+02  0.41800000000E+01 0.  1.
         -5    1    3    3    0  502  0.83931894060E+02  0.78226510207E+02 -0.33735394706E+02  0.11966410905E+03  0.41800000000E+01 0.  1.
        -11    1    4    4    0    0 -0.46065595887E+02 -0.25419110421E+02  0.21638910880E+02  0.56889478492E+02  0.00000000000E+00 0.  1.
         11    1    4    4    0    0 -0.45159842021E+02 -0.35451290483E+02 -0.73570281911E+02  0.93320907136E+02  0.00000000000E+00 0. -1.
</event>
<event>
 8    1  0.3528896E-009  0.2577058E+03  0.7561462E-02  0.1108529E+00
         -1   -1    0    0    0  501 -0.00000000000E+00  0.00000000000E+00  0.30633281622E+03  0.30633281622E+03  0.00000000000E+00 0.  1.
          1   -1    0    0  501    0  0.00000000000E+00 -0.00000000000E+00 -0.24238981759E+03  0.24238981759E+03  0.00000000000E+00 0. -1.
         25    2    1    2    0    0  0.23916740812E+03  0.65786961176E+02  0.60988878765E+02  0.28442246366E+03  0.12509005211E+03 0.  0.
         23    2    1    2    0    0 -0.23916740812E+03 -0.65786961176E+02  0.29541198692E+01  0.26430017015E+03  0.91196928402E+02 0.  0.
          5    1    3    3  502    0  0.14247903537E+03 -0.11858417171E+02 -0.64976999588E+01  0.14318027127E+03  0.41800000000E+01 0.  1.
         -5    1    3    3    0  502  0.96688372747E+02  0.77645378347E+02  0.67486578723E+02  0.14124219239E+03  0.41800000000E+01 0.  1.
        -11    1    4    4    0    0 -0.16473565204E+03 -0.50660602206E+02 -0.40155567193E+02  0.17696553689E+03  0.00000000000E+00 0.  1.
         11    1    4    4    0    0 -0.74431756076E+02 -0.15126358970E+02  0.43109687062E+02  0.87334633261E+02  0.00000000000E+00 0. -1.
</event>
<event>
 8    1  0.3528896E-009  0.1134203E+03  0.7561462E-02  0.1254364E+00
          1   -1    0    0  501    0  0.00000000000E+00  0.00000000000E+00  0.13514252789E+03  0.13514252789E+03  0.00000000000E+00 0. -1.
         -1   -1    0    0    0  501 -0.00000000000E+00 -0.00000000000E+00 -0.15445897223E+03  0.15445897223E+03  0.00000000000E+00 0.  1.
         25    2    1    2    0    0 -0.36436143405E+02  0.62323237943E+02 -0.73144672472E+02  0.16189362583E+03  0.12509046502E+03 0.  0.
         23    2    1    2    0    0  0.36436143405E+02 -0.62323237943E+02  0.53828228127E+02  0.12770787429E+03  0.90554096979E+02 0.  0.
          5    1    3    3  502    0  0.46211903881E+02  0.20086778311E+02 -0.17025749174E+02  0.53351356666E+02  0.41800000000E+01 0.  1.
         -5    1    3    3    0  502 -0.82648047286E+02  0.42236459632E+02 -0.56118923299E+02  0.10854226916E+03  0.41800000000E+01 0.  1.
        -11    1    4    4    0    0 -0.27317162056E+01 -0.36169845374E+02 -0.19023177824E+02  0.40958531252E+02  0.00000000000E+00 0.  1.
         11    1    4    4    0    0  0.39167859611E+02 -0.26153392569E+02  0.72851405951E+02  0.86749343043E+02  0.00000000000E+00 0. -1.
</event>
<event>
 8    1  0.3528896E-009  0.9460031E+02  0.7561462E-02  0.1292079E+00
         -2   -1    0    0    0  501 -0.00000000000E+00  0.00000000000E+00  0.10935962041E+03  0.10935962041E+03  0.00000000000E+00 0.  1.
          2   -1    0    0  501    0  0.00000000000E+00 -0.00000000000E+00 -0.11819087413E+03  0.11819087413E+03  0.00000000000E+00 0. -1.
         25    2    1    2    0    0 -0.27074813618E+02  0.18419262825E+02 -0.11178284317E+02  0.12978299072E+03  0.12508539428E+03 0.  0.
         23    2    1    2    0    0  0.27074813618E+02 -0.18419262825E+02  0.23470305966E+01  0.97767503834E+02  0.92090506991E+02 0.  0.
          5    1    3    3  502    0  0.25408391672E+02  0.37495054597E+02 -0.45310057685E+02  0.64202330285E+02  0.41800000000E+01 0.  1.
         -5    1    3    3    0  502 -0.52483205290E+02 -0.19075791772E+02  0.34131773368E+02  0.65580660430E+02  0.41800000000E+01 0.  1.
        -11    1    4    4    0    0  0.45634351011E+02  0.16209462369E+02 -0.20196686551E+02  0.52470437487E+02  0.00000000000E+00 0. -1.
         11    1    4    4    0    0 -0.18559537393E+02 -0.34628725194E+02  0.22543717148E+02  0.45297066347E+02  0.00000000000E+00 0.  1.
</event>
<event>
 8    1  0.3528896E-009  0.9278214E+02  0.7561462E-02  0.1296251E+00
         -3   -1    0    0    0  501 -0.00000000000E+00  0.00000000000E+00  0.37297650072E+03  0.37297650072E+03  0.00000000000E+00 0.  1.
          3   -1    0    0  501    0  0.00000000000E+00 -0.00000000000E+00 -0.34977664155E+02  0.34977664155E+02  0.00000000000E+00 0. -1.
         25    2    1    2    0    0  0.28178860717E+02  0.69830287211E+01  0.12242533456E+03  0.17742208568E+03  0.12509125894E+03 0.  0.
         23    2    1    2    0    0 -0.28178860717E+02 -0.69830287211E+01  0.21557350200E+03  0.23053207920E+03  0.76356361164E+02 0.  0.
          5    1    3    3  502    0  0.67399775538E+02  0.31242475585E+02  0.10333308894E+03  0.12733429111E+03  0.41800000000E+01 0.  1.
         -5    1    3    3    0  502 -0.39220914821E+02 -0.24259446864E+02  0.19092245619E+02  0.50087794564E+02  0.41800000000E+01 0.  1.
        -11    1    4    4    0    0 -0.13614305235E+02  0.25692777007E+02  0.17062431248E+03  0.17308415325E+03  0.00000000000E+00 0.  1.
         11    1    4    4    0    0 -0.14564555482E+02 -0.32675805728E+02  0.44949189523E+02  0.57447925942E+02  0.00000000000E+00 0. -1.
</event>
<event>
 8    1  0.3528896E-009  0.2818313E+03  0.7561462E-02  0.1094693E+00
          2   -1    0    0  501    0  0.00000000000E+00  0.00000000000E+00  0.10669940435E+04  0.10669940435E+04  0.00000000000E+00 0. -1.
         -2   -1    0    0    0  501 -0.00000000000E+00 -0.00000000000E+00 -0.95886178206E+02  0.95886178206E+02  0.00000000000E+00 0.  1.
         25    2    1    2    0    0  0.26087120150E+03  0.96151128792E+02  0.71197922253E+03  0.77450728218E+03  0.12509313929E+03 0.  0.
         23    2    1    2    0    0 -0.26087120150E+03 -0.96151128792E+02  0.25912864281E+03  0.38837293957E+03  0.79919104892E+02 0.  0.
          5    1    3    3  502    0  0.16279120829E+03  0.25980944237E+02  0.27021518489E+03  0.31655916588E+03  0.41800000000E+01 0. -1.
         -5    1    3    3    0  502  0.98079993212E+02  0.70170184555E+02  0.44176403764E+03  0.45794811630E+03  0.41800000000E+01 0. -1.
        -11    1    4    4    0    0 -0.22442809216E+03 -0.80523735571E+02  0.17628082096E+03  0.29652481916E+03  0.00000000000E+00 0.  1.
         11    1    4    4    0    0 -0.36443109341E+02 -0.15627393221E+02  0.82847821854E+02  0.91848120412E+02  0.00000000000E+00 0. -1.
</event>
<event>
 8    1  0.3528896E-009  0.1087471E+03  0.7561462E-02  0.1262908E+00
          2   -1    0    0  501    0  0.00000000000E+00  0.00000000000E+00  0.18221943798E+02  0.18221943798E+02  0.00000000000E+00 0. -1.
         -2   -1    0    0    0  501 -0.00000000000E+00 -0.00000000000E+00 -0.11646872894E+04  0.11646872894E+04  0.00000000000E+00 0.  1.
         25    2    1    2    0    0  0.90140879030E+01 -0.90415086231E+02 -0.67830092005E+03  0.69569794394E+03  0.12508936593E+03 0.  0.
         23    2    1    2    0    0 -0.90140879030E+01  0.90415086231E+02 -0.46816442557E+03  0.48721128927E+03  0.99703407289E+02 0.  0.
          5    1    3    3  502    0  0.15352160233E+02 -0.82433541612E+02 -0.67945466018E+03  0.68462185566E+03  0.41800000000E+01 0.  1.
         -5    1    3    3    0  502 -0.63380723303E+01 -0.79815446195E+01  0.11537401314E+01  0.11076088284E+02  0.41800000000E+01 0.  1.
        -11    1    4    4    0    0 -0.45570153019E+02  0.43024678484E+02 -0.13663440458E+03  0.15032206199E+03  0.00000000000E+00 0. -1.
         11    1    4    4    0    0  0.36556065116E+02  0.47390407747E+02 -0.33153002099E+03  0.33688922729E+03  0.00000000000E+00 0.  1.
</event>
<event>
 8    1  0.3528896E-009  0.5264779E+02  0.7561462E-02  0.1431562E+00
         -4   -1    0    0    0  501 -0.00000000000E+00  0.00000000000E+00  0.64143118728E+02  0.64143118728E+02  0.00000000000E+00 0.  1.
          4   -1    0    0  501    0  0.00000000000E+00 -0.00000000000E+00 -0.21095875236E+03  0.21095875236E+03  0.00000000000E+00 0. -1.
         25    2    1    2    0    0  0.22187800297E+02 -0.35405527854E+02 -0.86471337849E+02  0.15770692428E+03  0.12509329244E+03 0.  0.
         23    2    1    2    0    0 -0.22187800297E+02  0.35405527854E+02 -0.60344295783E+02  0.11739494680E+03  0.91620355911E+02 0.  0.
          5    1    3    3  502    0  0.21883255392E+02 -0.41145713287E+02  0.20081405700E+02  0.50917402166E+02  0.41800000000E+01 0. -1.
         -5    1    3    3    0  502  0.30454490447E+00  0.57401854330E+01 -0.10655274355E+03  0.10678952212E+03  0.41800000000E+01 0. -1.
        -11    1    4    4    0    0 -0.59807816946E+01  0.34661772826E+02 -0.82644010974E+02  0.89817820030E+02  0.00000000000E+00 0. -1.
         11    1    4    4    0    0 -0.16207018602E+02  0.74375502781E+00  0.22299715192E+02  0.27577126775E+02  0.00000000000E+00 0.  1.
</event>
<event>
 8    1  0.3528896E-009  0.9208368E+02  0.7561462E-02  0.1297883E+00
          2   -1    0    0  501    0  0.00000000000E+00  0.00000000000E+00  0.42653641393E+03  0.42653641393E+03  0.00000000000E+00 0. -1.
         -2   -1    0    0    0  501 -0.00000000000E+00 -0.00000000000E+00 -0.46071881738E+02  0.46071881738E+02  0.00000000000E+00 0.  1.
         25    2    1    2    0    0 -0.49960855068E+02 -0.11471659113E+02  0.96833602217E+02  0.16628929074E+03  0.12509074984E+03 0.  0.
         23    2    1    2    0    0  0.49960855068E+02  0.11471659113E+02  0.28363092998E+03  0.30631900493E+03  0.10371664446E+03 0.  0.
          5    1    3    3  502    0 -0.28923040929E+02  0.17732929664E+02 -0.22931879304E+02  0.41162392781E+02  0.41800000000E+01 0. -1.
         -5    1    3    3    0  502 -0.21037814139E+02 -0.29204588776E+02  0.11976548152E+03  0.12512689796E+03  0.41800000000E+01 0. -1.
        -11    1    4    4    0    0  0.60453846582E+02 -0.32435739465E+02  0.14271867723E+03  0.15835203059E+03  0.00000000000E+00 0. -1.
         11    1    4    4    0    0 -0.10492991514E+02  0.43907398578E+02  0.14091225275E+03  0.14796697434E+03  0.00000000000E+00 0.  1.
</event>
<event>
 8    1  0.3528896E-009  0.1892039E+03  0.7561462E-02  0.1159181E+00
         -1   -1    0    0    0  501 -0.00000000000E+00  0.00000000000E+00  0.47969391832E+03  0.47969391832E+03  0.00000000000E+00 0.  1.
          1   -1    0    0  501    0  0.00000000000E+00 -0.00000000000E+00 -0.97622668206E+02  0.97622668206E+02  0.00000000000E+00 0. -1.
         25    2    1    2    0    0  0.16301625686E+03 -0.94829655324E+02  0.20505862284E+03  0.30538910628E+03  0.12508598604E+03 0.  0.
         23    2    1    2    0    0 -0.16301625686E+03  0.94829655324E+02  0.17701262727E+03  0.27192748024E+03  0.83929260506E+02 0.  0.
          5    1    3    3  502    0  0.96325854540E+02 -0.48753742726E+02  0.29533639900E+02  0.11200583006E+03  0.41800000000E+01 0.  1.
         -5    1    3    3    0  502  0.66690402319E+02 -0.46075912598E+02  0.17552498294E+03  0.19338327622E+03  0.41800000000E+01 0.  1.
        -11    1    4    4    0    0 -0.13486898615E+03  0.71556211764E+02  0.17910133970E+03  0.23534490593E+03  0.00000000000E+00 0.  1.
         11    1    4    4    0    0 -0.28147270704E+02  0.23273443560E+02 -0.20887124301E+01  0.36582574306E+02  0.00000000000E+00 0. -1.
</event>
<event>
 8    1  0.3528896E-009  0.2297709E+03  0.7561462E-02  0.1126801E+00
         -1   -1    0    0    0  501 -0.00000000000E+00  0.00000000000E+00  0.15738134734E+03  0.15738134734E+03  0.00000000000E+00 0.  1.
          1   -1    0    0  501    0  0.00000000000E+00 -0.00000000000E+00 -0.42405271028E+03  0.42405271028E+03  0.00000000000E+00 0. -1.
         25    2    1    2    0    0 -0.86747712122E+02  0.19111419305E+03 -0.18915337327E+02  0.24506134999E+03  0.12508986742E+03 0.  0.
         23    2    1    2    0    0  0.86747712122E+02 -0.19111419305E+03 -0.24775602561E+03  0.33637270763E+03  0.87827956076E+02 0.  0.
          5    1    3    3  502    0 -0.23026351097E+01 -0.17708459758E+02 -0.63988765008E+01  0.19424461277E+02  0.41800000000E+01 0. -1.
         -5    1    3    3    0  502 -0.84445077013E+02  0.20882265281E+03 -0.12516460826E+02  0.22563688872E+03  0.41800000000E+01 0. -1.
        -11    1    4    4    0    0  0.29804555483E+02 -0.12570084114E+03 -0.93722582664E+02  0.15960242947E+03  0.00000000000E+00 0. -1.
         11    1    4    4    0    0  0.56943156639E+02 -0.65413351913E+02 -0.15403344294E+03  0.17677027816E+03  0.00000000000E+00 0.  1.
</event>
<event>
 8    1  0.3528896E-009  0.8930385E+02  0.7561462E-02  0.1304546E+00
          3   -1    0    0  501    0  0.00000000000E+00  0.00000000000E+00  0.69719540545E+03  0.69719540545E+03  0.00000000000E+00 0.  1.
         -3   -1    0    0    0  501 -0.00000000000E+00 -0.00000000000E+00 -0.23230973939E+02  0.23230973939E+02  0.00000000000E+00 0. -1.
         25    2    1    2    0    0 -0.54569002889E+02 -0.37350942402E+02  0.34363216855E+03  0.37161857081E+03  0.12507767961E+03 0.  0.
         23    2    1    2    0    0  0.54569002889E+02  0.37350942402E+02  0.33033226296E+03  0.34880780858E+03  0.90413574181E+02 0.  0.
          5    1    3    3  502    0 -0.34134915512E+02 -0.27254899117E+02  0.21879776159E+02  0.49032835811E+02  0.41800000000E+01 0.  1.
         -5    1    3    3    0  502 -0.20434087377E+02 -0.10096043285E+02  0.32175239239E+03  0.32258573500E+03  0.41800000000E+01 0.  1.
        -11    1    4    4    0    0  0.28997239629E+02 -0.28656012932E+02  0.13630610884E+03  0.14227214166E+03  0.00000000000E+00 0. -1.
         11    1    4    4    0    0  0.25571763260E+02  0.66006955334E+02  0.19402615412E+03  0.20653566692E+03  0.00000000000E+00 0.  1.
</event>
<event>
 8    1  0.3528896E-009  0.1576912E+03  0.7561462E-02  0.1191328E+00
         -2   -1    0    0    0  501 -0.00000000000E+00  0.00000000000E+00  0.71926993833E+02  0.71926993833E+02  0.00000000000E+00 0.  1.
          2   -1    0    0  501    0  0.00000000000E+00 -0.00000000000E+00 -0.47706802371E+03  0.47706802371E+03  0.00000000000E+00 0. -1.
         25    2    1    2    0    0 -0.64325882755E+02 -0.11625183254E+03 -0.32048512019E+03  0.36879617553E+03  0.12509036359E+03 0.  0.
         23    2    1    2    0    0  0.64325882755E+02  0.11625183254E+03 -0.84655909687E+02  0.18019884201E+03  0.87479665392E+02 0.  0.
          5    1    3    3  502    0 -0.99642190573E+02 -0.76505620856E+02 -0.25536331500E+03  0.28462180382E+03  0.41800000000E+01 0. -1.
         -5    1    3    3    0  502  0.35316307819E+02 -0.39746211681E+02 -0.65121805196E+02  0.84174371711E+02  0.41800000000E+01 0. -1.
        -11    1    4    4    0    0  0.54115870390E+02  0.11356031356E+03 -0.36621451832E+02  0.13101756744E+03  0.00000000000E+00 0.  1.
         11    1    4    4    0    0  0.10210012365E+02  0.26915189760E+01 -0.48034457855E+02  0.49181274570E+02  0.00000000000E+00 0. -1.
</event>
<event>
 8    1  0.3528896E-009  0.1667588E+03  0.7561462E-02  0.1181271E+00
         -2   -1    0    0    0  501 -0.00000000000E+00  0.00000000000E+00  0.24723862164E+03  0.24723862164E+03  0.00000000000E+00 0. -1.
          2   -1    0    0  501    0  0.00000000000E+00 -0.00000000000E+00 -0.13381800649E+03  0.13381800649E+03  0.00000000000E+00 0.  1.
         25    2    1    2    0    0  0.13259308253E+03  0.19693297287E+02 -0.59151232923E+00  0.18335045498E+03  0.12509311717E+03 0.  0.
         23    2    1    2    0    0 -0.13259308253E+03 -0.19693297287E+02  0.11401212748E+03  0.19770617314E+03  0.90112231099E+02 0.  0.
          5    1    3    3  502    0  0.38700844299E+02 -0.51700450979E+02 -0.73404581395E+01  0.65130996512E+02  0.41800000000E+01 0.  1.
         -5    1    3    3    0  502  0.93892238230E+02  0.71393748266E+02  0.67489458103E+01  0.11821945847E+03  0.41800000000E+01 0.  1.
        -11    1    4    4    0    0 -0.33187927566E+02  0.25230929098E+02  0.67022679640E+02  0.78930842548E+02  0.00000000000E+00 0. -1.
         11    1    4    4    0    0 -0.99405154964E+02 -0.44924226384E+02  0.46989447840E+02  0.11877533060E+03  0.00000000000E+00 0.  1.
</event>
<event>
 8    1  0.3528896E-009  0.1744538E+03  0.7561462E-02  0.1173281E+00
          2   -1    0    0  501    0  0.00000000000E+00  0.00000000000E+00  0.88882221354E+03  0.88882221354E+03  0.00000000000E+00 0.  1.
         -2   -1    0    0    0  501 -0.00000000000E+00 -0.00000000000E+00 -0.66099837991E+02  0.66099837991E+02  0.00000000000E+00 0. -1.
         25    2    1    2    0    0 -0.32825941696E+02  0.14638697966E+03  0.73203990614E+03  0.75765465985E+03  0.12510583181E+03 0.  0.
         23    2    1    2    0    0  0.32825941696E+02 -0.14638697966E+03  0.90682469410E+02  0.19726739168E+03  0.90467802562E+02 0.  0.
          5    1    3    3  502    0  0.35462344198E+02  0.76064493954E+01  0.21065386234E+03  0.21379419554E+03  0.41800000000E+01 0.  1.
         -5    1    3    3    0  502 -0.68288285894E+02  0.13878053026E+03  0.52138604380E+03  0.54386046431E+03  0.41800000000E+01 0.  1.
        -11    1    4    4    0    0  0.21916675077E+02 -0.16773472578E+02 -0.13398847790E+02  0.30679295149E+02  0.00000000000E+00 0. -1.
         11    1    4    4    0    0  0.10909266619E+02 -0.12961350708E+03  0.10408131720E+03  0.16658809653E+03  0.00000000000E+00 0.  1.
</event>
<event>
 8    1  0.3528896E-009  0.1356329E+03  0.7561462E-02  0.1219329E+00
         -2   -1    0    0    0  501 -0.00000000000E+00  0.00000000000E+00  0.21764204866E+03  0.21764204866E+03  0.00000000000E+00 0. -1.
          2   -1    0    0  501    0  0.00000000000E+00 -0.00000000000E+00 -0.10107845607E+03  0.10107845607E+03  0.00000000000E+00 0.  1.
         25    2    1    2    0    0  0.77298552920E+02  0.49206316034E+02  0.98816102997E+02  0.18387043469E+03  0.12508951483E+03 0.  0.
         23    2    1    2    0    0 -0.77298552920E+02 -0.49206316034E+02  0.17747489594E+02  0.13485007004E+03  0.97330571675E+02 0.  0.
          5    1    3    3  502    0  0.96005373154E+02  0.71577825415E+02  0.97329683357E+02  0.15437278396E+03  0.41800000000E+01 0. -1.
         -5    1    3    3    0  502 -0.18706820235E+02 -0.22371509381E+02  0.14864196392E+01  0.29497650730E+02  0.41800000000E+01 0. -1.
        -11    1    4    4    0    0 -0.40303679065E+02 -0.69086268499E+02  0.37618845154E+02  0.88388215007E+02  0.00000000000E+00 0. -1.
         11    1    4    4    0    0 -0.36994873854E+02  0.19879952466E+02 -0.19871355560E+02  0.46461855036E+02  0.00000000000E+00 0.  1.
</event>
<event>
 8    1  0.3528896E-009  0.1349248E+03  0.7561462E-02  0.1220326E+00
         -1   -1    0    0    0  501 -0.00000000000E+00  0.00000000000E+00  0.10263273177E+03  0.10263273177E+03  0.00000000000E+00 0. -1.
          1   -1    0    0  501    0  0.00000000000E+00 -0.00000000000E+00 -0.23186057813E+03  0.23186057813E+03  0.00000000000E+00 0.  1.
         25    2    1    2    0    0  0.10537995996E+03  0.24302014684E+02 -0.51125869263E+02  0.17308082518E+03  0.12509034198E+03 0.  0.
         23    2    1    2    0    0 -0.10537995996E+03 -0.24302014684E+02 -0.78101977104E+02  0.16141248472E+03  0.90876550982E+02 0.  0.
          5    1    3    3  502    0  0.37174219656E+02 -0.48219343382E+02  0.12655015962E+00  0.61028813671E+02  0.41800000000E+01 0. -1.
         -5    1    3    3    0  502  0.68205740304E+02  0.72521358066E+02 -0.51252419422E+02  0.11205201151E+03  0.41800000000E+01 0. -1.
        -11    1    4    4    0    0 -0.23087645998E+02  0.92157409667E+00 -0.71440148590E+02  0.75083843316E+02  0.00000000000E+00 0.  1.
         11    1    4    4    0    0 -0.82292313962E+02 -0.25223588781E+02 -0.66618285136E+01  0.86328641408E+02  0.00000000000E+00 0. -1.
</event>
<event>
 8    1  0.3528896E-009  0.2404893E+03  0.7561462E-02  0.1119467E+00
          2   -1    0    0  501    0  0.00000000000E+00  0.00000000000E+00  0.66237670049E+03  0.66237670049E+03  0.00000000000E+00 0. -1.
         -2   -1    0    0    0  501 -0.00000000000E+00 -0.00000000000E+00 -0.91771727344E+02  0.91771727344E+02  0.00000000000E+00 0.  1.
         25    2    1    2    0    0  0.21819684526E+03  0.22734226412E+02  0.25948304146E+03  0.36208184087E+03  0.12508038356E+03 0.  0.
         23    2    1    2    0    0 -0.21819684526E+03 -0.22734226412E+02  0.31112193169E+03  0.39206658696E+03  0.93769098861E+02 0.  0.
          5    1    3    3  502    0  0.13034267519E+03  0.65446675498E+02  0.20022652007E+03  0.24775110908E+03  0.41800000000E+01 0.  1.
         -5    1    3    3    0  502  0.87854170073E+02 -0.42712449086E+02  0.59256521393E+02  0.11433073180E+03  0.41800000000E+01 0.  1.
        -11    1    4    4    0    0 -0.92324338312E+02 -0.54847444815E+02  0.12072135670E+03  0.16157249645E+03  0.00000000000E+00 0.  1.
         11    1    4    4    0    0 -0.12587250695E+03  0.32113218402E+02  0.19040057499E+03  0.23049409051E+03  0.00000000000E+00 0. -1.
</event>
<event>
 8    1  0.3528896E-009  0.1403309E+03  0.7561462E-02  0.1212884E+00
         -3   -1    0    0    0  501 -0.00000000000E+00  0.00000000000E+00  0.39624860319E+02  0.39624860319E+02  0.00000000000E+00 0.  1.
          3   -1    0    0  501    0  0.00000000000E+00 -0.00000000000E+00 -0.66149768321E+03  0.66149768321E+03  0.00000000000E+00 0. -1.
         25    2    1    2    0    0  0.93706466073E+02  0.53428936412E+02 -0.22401058553E+03  0.27832414615E+03  0.12509210554E+03 0.  0.
         23    2    1    2    0    0 -0.93706466073E+02 -0.53428936412E+02 -0.39786223736E+03  0.42279839738E+03  0.93960480419E+02 0.  0.
          5    1    3    3  502    0  0.11572641548E+03  0.42220077395E+02 -0.12254554463E+03  0.17381030201E+03  0.41800000000E+01 0.  1.
         -5    1    3    3    0  502 -0.22019949408E+02  0.11208859017E+02 -0.10146504090E+03  0.10451384414E+03  0.41800000000E+01 0.  1.
        -11    1    4    4    0    0 -0.69733194152E+02 -0.73325382313E+02 -0.21905475987E+03  0.24129715680E+03  0.00000000000E+00 0.  1.
         11    1    4    4    0    0 -0.23973271921E+02  0.19896445901E+02 -0.17880747749E+03  0.18150124058E+03  0.00000000000E+00 0. -1.
</event>
<event>
 8    1  0.3528896E-009  0.9931497E+02  0.7561462E-02  0.1281743E+00
          3   -1    0    0  501    0  0.00000000000E+00  0.00000000000E+00  0.31507044265E+02  0.31507044265E+02  0.00000000000E+00 0. -1.
         -3   -1    0    0    0  501 -0.00000000000E+00 -0.00000000000E+00 -0.50144366551E+03  0.50144366551E+03  0.00000000000E+00 0.  1.
         25    2    1    2    0    0 -0.12058295344E+02  0.31038555589E+01 -0.39431194371E+03  0.41386324095E+03  0.12508331965E+03 0.  0.
         23    2    1    2    0    0  0.12058295344E+02 -0.31038555589E+01 -0.75624677535E+02  0.11908746882E+03  0.91146568624E+02 0.  0.
          5    1    3    3  502    0 -0.62406999132E+02 -0.12425466153E+02 -0.13611997008E+03  0.15031681345E+03  0.41800000000E+01 0.  1.
         -5    1    3    3    0  502  0.50348703787E+02  0.15529321712E+02 -0.25819197363E+03  0.26354642750E+03  0.41800000000E+01 0.  1.
        -11    1    4    4    0    0 -0.28061164703E+02  0.21137623400E+02 -0.67484414577E+01  0.35773866853E+02  0.00000000000E+00 0. -1.
         11    1    4    4    0    0  0.40119460047E+02 -0.24241478959E+02 -0.68876236077E+02  0.83313601968E+02  0.00000000000E+00 0.  1.
</event>
<event>
 8    1  0.3528896E-009  0.3155000E+03  0.7561462E-02  0.1077739E+00
          2   -1    0    0  501    0  0.00000000000E+00  0.00000000000E+00  0.58865455940E+03  0.58865455940E+03  0.00000000000E+00 0.  1.
         -2   -1    0    0    0  501 -0.00000000000E+00 -0.00000000000E+00 -0.19886843202E+03  0.19886843202E+03  0.00000000000E+00 0. -1.
         25    2    1    2    0    0 -0.30932164038E+03 -0.17514165599E+01  0.85891683112E+02  0.34454101911E+03  0.12509271744E+03 0.  0.
         23    2    1    2    0    0  0.30932164038E+03  0.17514165599E+01  0.30389444427E+03  0.44298197230E+03  0.90544187349E+02 0.  0.
          5    1    3    3  502    0 -0.61102086484E+02 -0.32037817649E+02 -0.21468540305E+02  0.72375806422E+02  0.41800000000E+01 0.  1.
         -5    1    3    3    0  502 -0.24821955389E+03  0.30286401089E+02  0.10736022342E+03  0.27216521269E+03  0.41800000000E+01 0.  1.
        -11    1    4    4    0    0  0.17707295606E+03  0.20340734880E+02  0.22791196178E+03  0.28933102078E+03  0.00000000000E+00 0.  1.
         11    1    4    4    0    0  0.13224868432E+03 -0.18589318320E+02  0.75982482492E+02  0.15365095152E+03  0.00000000000E+00 0. -1.
</event>
<event>
 8    1  0.3528896E-009  0.8855386E+02  0.7561462E-02  0.1306392E+00
         -2   -1    0    0    0  501 -0.00000000000E+00  0.00000000000E+00  0.49337837823E+02  0.49337837823E+02  0.00000000000E+00 0.  1.
          2   -1    0    0  501    0  0.00000000000E+00 -0.00000000000E+00 -0.31674371707E+03  0.31674371707E+03  0.00000000000E+00 0. -1.
         25    2    1    2    0    0 -0.76053393548E+01  0.59443043427E+02 -0.17125865671E+03  0.22038268659E+03  0.12509070489E+03 0.  0.
         23    2    1    2    0    0  0.76053393548E+01 -0.59443043427E+02 -0.96147222540E+02  0.14569886831E+03  0.91610890324E+02 0.  0.
          5    1    3    3  502    0  0.22791227939E+02  0.74393481693E+02 -0.16909397065E+03  0.18618290335E+03  0.41800000000E+01 0.  1.
         -5    1    3    3    0  502 -0.30396567293E+02 -0.14950438266E+02 -0.21646860572E+01  0.34199783235E+02  0.41800000000E+01 0.  1.
        -11    1    4    4    0    0 -0.70539841803E+01 -0.40476652379E+02 -0.11040889201E+03  0.11780594856E+03  0.00000000000E+00 0. -1.
         11    1    4    4    0    0  0.14659323535E+02 -0.18966391048E+02  0.14261669474E+02  0.27892919748E+02  0.00000000000E+00 0.  1.
</event>
<event>
 8    1  0.3528896E-009  0.9609618E+02  0.7561462E-02  0.1288726E+00
         -3   -1    0    0    0  501 -0.00000000000E+00  0.00000000000E+00  0.25951592422E+03  0.25951592422E+03  0.00000000000E+00 0.  1.
          3   -1    0    0  501    0  0.00000000000E+00 -0.00000000000E+00 -0.72120366204E+02  0.72120366204E+02  0.00000000000E+00 0. -1.
         25    2    1    2    0    0  0.18509571103E+02  0.39277235795E+02  0.18839045118E+03  0.23026925991E+03  0.12509062511E+03 0.  0.
         23    2    1    2    0    0 -0.18509571103E+02 -0.39277235795E+02 -0.99489316147E+00  0.10136703052E+03  0.91591372897E+02 0.  0.
          5    1    3    3  502    0  0.12623061527E+02  0.77807154640E+02  0.16902093455E+03  0.18654448186E+03  0.41800000000E+01 0. -1.
         -5    1    3    3    0  502  0.58865095762E+01 -0.38529918845E+02  0.19369516629E+02  0.43724778052E+02  0.41800000000E+01 0. -1.
        -11    1    4    4    0    0  0.59422218982E+01 -0.47795591444E+02 -0.34337895271E+02  0.59150820909E+02  0.00000000000E+00 0. -1.
         11    1    4    4    0    0 -0.24451793001E+02  0.85183556489E+01  0.33343002109E+02  0.42216209607E+02  0.00000000000E+00 0.  1.
</event>
<event>
 8    1  0.3528896E-009  0.9475808E+02  0.7561462E-02  0.1291722E+00
          4   -1    0    0  501    0  0.00000000000E+00  0.00000000000E+00  0.54628946620E+02  0.54628946620E+02  0.00000000000E+00 0. -1.
         -4   -1    0    0    0  501 -0.00000000000E+00 -0.00000000000E+00 -0.31597310913E+03  0.31597310913E+03  0.00000000000E+00 0.  1.
         25    2    1    2    0    0  0.53749163184E+02  0.15614426288E+01 -0.23972802092E+03  0.27569634005E+03  0.12509011654E+03 0.  0.
         23    2    1    2    0    0 -0.53749163184E+02 -0.15614426288E+01 -0.21616141590E+02  0.94905715702E+02  0.75156015393E+02 0.  0.
          5    1    3    3  502    0  0.93954346165E+02  0.41403204846E+01 -0.14770385682E+03  0.17515268521E+03  0.41800000000E+01 0. -1.
         -5    1    3    3    0  502 -0.40205182981E+02 -0.25788778558E+01 -0.92024164099E+02  0.10054365484E+03  0.41800000000E+01 0. -1.
        -11    1    4    4    0    0 -0.25376878665E+02  0.47257716383E+01 -0.48740167548E+02  0.55153629264E+02  0.00000000000E+00 0.  1.
         11    1    4    4    0    0 -0.28372284519E+02 -0.62872142671E+01  0.27124025958E+02  0.39752086439E+02  0.00000000000E+00 0. -1.
</event>
<event>
 8    1  0.3528896E-009  0.2153406E+03  0.7561462E-02  0.1137405E+00
         -1   -1    0    0    0  501 -0.00000000000E+00  0.00000000000E+00  0.21441275603E+03  0.21441275603E+03  0.00000000000E+00 0.  1.
          1   -1    0    0  501    0  0.00000000000E+00 -0.00000000000E+00 -0.25029899003E+03  0.25029899003E+03  0.00000000000E+00 0. -1.
         25    2    1    2    0    0  0.16609645046E+03  0.11858144660E+03 -0.15059099561E+02  0.23984176465E+03  0.12509078806E+03 0.  0.
         23    2    1    2    0    0 -0.16609645046E+03 -0.11858144660E+03 -0.20827134442E+02  0.22486998141E+03  0.92104010094E+02 0.  0.
          5    1    3    3  502    0  0.27134869334E+02  0.71855642174E+02  0.35482044132E+02  0.84711169876E+02  0.41800000000E+01 0.  1.
         -5    1    3    3    0  502  0.13896158113E+03  0.46725804426E+02 -0.50541143693E+02  0.15513059477E+03  0.41800000000E+01 0.  1.
        -11    1    4    4    0    0 -0.37624227372E+02 -0.46379703911E+02 -0.45975750826E+02  0.75368621350E+02  0.00000000000E+00 0. -1.
         11    1    4    4    0    0 -0.12847222309E+03 -0.72201742689E+02  0.25148616384E+02  0.14950136006E+03  0.00000000000E+00 0.  1.
</event>
<event>
 8    1  0.3528896E-009  0.9749838E+02  0.7561462E-02  0.1285646E+00
          2   -1    0    0  501    0  0.00000000000E+00  0.00000000000E+00  0.23849105179E+03  0.23849105179E+03  0.00000000000E+00 0.  1.
         -2   -1    0    0    0  501 -0.00000000000E+00 -0.00000000000E+00 -0.68012078836E+02  0.68012078836E+02  0.00000000000E+00 0. -1.
         25    2    1    2    0    0 -0.48348668513E+02 -0.50445183296E+01  0.37211282577E+02  0.13926998981E+03  0.12509360335E+03 0.  0.
         23    2    1    2    0    0  0.48348668513E+02  0.50445183296E+01  0.13326769038E+03  0.16723314081E+03  0.88564130303E+02 0.  0.
          5    1    3    3  502    0  0.18754058213E+02 -0.46923529301E+02  0.31852379093E+02  0.59879702366E+02  0.41800000000E+01 0.  1.
         -5    1    3    3    0  502 -0.67102726727E+02  0.41879010971E+02  0.53589034837E+01  0.79390287445E+02  0.41800000000E+01 0.  1.
        -11    1    4    4    0    0 -0.34429747276E+01 -0.10466300755E+02 -0.95147310714E+01  0.14557734502E+02  0.00000000000E+00 0. -1.
         11    1    4    4    0    0  0.51791643241E+02  0.15510819085E+02  0.14278242145E+03  0.15267540631E+03  0.00000000000E+00 0.  1.
</event>
<event>
 8    1  0.3528896E-009  0.1138077E+03  0.7561462E-02  0.1253677E+00
         -2   -1    0    0    0  501 -0.00000000000E+00  0.00000000000E+00  0.49602630911E+03  0.49602630911E+03  0.00000000000E+00 0.  1.
          2   -1    0    0  501    0  0.00000000000E+00 -0.00000000000E+00 -0.33488645461E+02  0.33488645461E+02  0.00000000000E+00 0. -1.
         25    2    1    2    0    0 -0.15933493150E+02  0.66370891057E+02  0.23311545952E+03  0.27321876720E+03  0.12508679347E+03 0.  0.
         23    2    1    2    0    0  0.15933493150E+02 -0.66370891057E+02  0.22942220413E+03  0.25629618737E+03  0.91619957038E+02 0.  0.
          5    1    3    3  502    0 -0.41044785580E+02 -0.67106166879E+01  0.16471139570E+03  0.16993240736E+03  0.41800000000E+01 0.  1.
         -5    1    3    3    0  502  0.25111292431E+02  0.73081507745E+02  0.68404063823E+02  0.10328635984E+03  0.41800000000E+01 0.  1.
        -11    1    4    4    0    0 -0.34150646069E+02 -0.17186329018E+02  0.45477369930E+02  0.59412353158E+02  0.00000000000E+00 0. -1.
         11    1    4    4    0    0  0.50084139218E+02 -0.49184562039E+02  0.18394483420E+03  0.19688383421E+03  0.00000000000E+00 0.  1.
</event>
<event>
 8    1  0.3528896E-009  0.1359279E+03  0.7561462E-02  0.1218916E+00
          1   -1    0    0  501    0  0.00000000000E+00  0.00000000000E+00  0.61758792873E+03  0.61758792873E+03  0.00000000000E+00 0. -1.
         -1   -1    0    0    0  501 -0.00000000000E+00 -0.00000000000E+00 -0.44211198699E+02  0.44211198699E+02  0.00000000000E+00 0.  1.
         25    2    1    2    0    0 -0.18437867793E+01 -0.12155796234E+03  0.25753579458E+03  0.31104795841E+03  0.12508560741E+03 0.  0.
         23    2    1    2    0    0  0.18437867793E+01  0.12155796234E+03  0.31584093545E+03  0.35075116902E+03  0.92147427016E+02 0.  0.
          5    1    3    3  502    0 -0.21168329813E+02 -0.86547165437E+00 -0.43353488848E+01  0.22025323566E+02  0.41800000000E+01 0.  1.
         -5    1    3    3    0  502  0.19324543033E+02 -0.12069249068E+03  0.26187114347E+03  0.28902263484E+03  0.41800000000E+01 0.  1.
        -11    1    4    4    0    0 -0.13027876259E+02  0.10458638707E+03  0.31002241703E+03  0.32744760952E+03  0.00000000000E+00 0. -1.
         11    1    4    4    0    0  0.14871663039E+02  0.16971575272E+02  0.58185184191E+01  0.23303559499E+02  0.00000000000E+00 0.  1.
</event>
<event>
 8    1  0.3528896E-009  0.1230103E+03  0.7561462E-02  0.1238212E+00
          2   -1    0    0  501    0  0.00000000000E+00  0.00000000000E+00  0.18641543664E+03  0.18641543664E+03  0.00000000000E+00 0.  1.
         -2   -1    0    0    0  501 -0.00000000000E+00 -0.00000000000E+00 -0.86711835739E+02  0.86711835739E+02  0.00000000000E+00 0. -1.
         25    2    1    2    0    0 -0.39426096835E+02  0.52033404248E+02  0.41568581100E+02  0.14709790047E+03  0.12509177879E+03 0.  0.
         23    2    1    2    0    0  0.39426096835E+02 -0.52033404248E+02  0.58135019798E+02  0.12602937190E+03  0.90784523935E+02 0.  0.
          5    1    3    3  502    0  0.15312068782E+02  0.78068957598E+02  0.16421333660E+02  0.81340974852E+02  0.41800000000E+01 0. -1.
         -5    1    3    3    0  502 -0.54738165617E+02 -0.26035553350E+02  0.25147247440E+02  0.65756925621E+02  0.41800000000E+01 0. -1.
        -11    1    4    4    0    0  0.54690629745E+02 -0.35943140178E+01  0.93377168501E+01  0.55598354572E+02  0.00000000000E+00 0. -1.
         11    1    4    4    0    0 -0.15264532910E+02 -0.48439090230E+02  0.48797302948E+02  0.70431017331E+02  0.00000000000E+00 0.  1.
</event>
<event>
 8    1  0.3528896E-009  0.7521336E+02  0.7561462E-02  0.1343212E+00
          2   -1    0    0  501    0  0.00000000000E+00  0.00000000000E+00  0.38112158624E+03  0.38112158624E+03  0.00000000000E+00 0. -1.
         -2   -1    0    0    0  501 -0.00000000000E+00 -0.00000000000E+00 -0.33403934352E+02  0.33403934352E+02  0.00000000000E+00 0.  1.
         25    2    1    2    0    0  0.25230863521E+02 -0.83529754548E+00  0.17234240579E+03  0.21444510512E+03  0.12508998393E+03 0.  0.
         23    2    1    2    0    0 -0.25230863521E+02  0.83529754548E+00  0.17537524610E+03  0.20008041547E+03  0.92943001436E+02 0.  0.
          5    1    3    3  502    0  0.41101301290E+02  0.36077648906E+02  0.16435577206E+03  0.17326628618E+03  0.41800000000E+01 0.  1.
         -5    1    3    3    0  502 -0.15870437769E+02 -0.36912946452E+02  0.79866337323E+01  0.41178818938E+02  0.41800000000E+01 0.  1.
        -11    1    4    4    0    0  0.23194899460E+01 -0.20315896680E+02 -0.84938025789E+00  0.20465510948E+02  0.00000000000E+00 0.  1.
         11    1    4    4    0    0 -0.27550353467E+02  0.21151194226E+02  0.17622462636E+03  0.17961490453E+03  0.00000000000E+00 0. -1.
</event>
<event>
 8    1  0.3528896E-009  0.2339198E+03  0.7561462E-02  0.1123911E+00
          2   -1    0    0  501    0  0.00000000000E+00  0.00000000000E+00  0.21170613852E+04  0.21170613852E+04  0.00000000000E+00 0.  1.
         -2   -1    0    0    0  501 -0.00000000000E+00 -0.00000000000E+00 -0.10447132312E+03  0.10447132312E+03  0.00000000000E+00 0. -1.
         25    2    1    2    0    0 -0.21179770189E+03 -0.51017939993E+02  0.19646392728E+04  0.19806348153E+04  0.12508278272E+03 0.  0.
         23    2    1    2    0    0  0.21179770189E+03  0.51017939993E+02  0.47950789246E+02  0.24089789301E+03  0.90947347068E+02 0.  0.
          5    1    3    3  502    0 -0.22697246834E+03 -0.43951196915E+02  0.17336388066E+04  0.17489909072E+04  0.41800000000E+01 0. -1.
         -5    1    3    3    0  502  0.15174766450E+02 -0.70667430771E+01  0.23100046617E+03  0.23164390811E+03  0.41800000000E+01 0. -1.
        -11    1    4    4    0    0  0.18054260607E+03  0.33812132247E+02  0.32574936340E+01  0.18371038119E+03  0.00000000000E+00 0.  1.
         11    1    4    4    0    0  0.31255095825E+02  0.17205807745E+02  0.44693295612E+02  0.57187511818E+02  0.00000000000E+00 0. -1.
</event>
<event>
 8    1  0.3528896E-009  0.1105118E+03  0.7561462E-02  0.1259625E+00
         -1   -1    0    0    0  501 -0.00000000000E+00  0.00000000000E+00  0.63865964656E+03  0.63865964656E+03  0.00000000000E+00 0.  1.
          1   -1    0    0  501    0  0.00000000000E+00 -0.00000000000E+00 -0.30557178762E+02  0.30557178762E+02  0.00000000000E+00 0. -1.
         25    2    1    2    0    0 -0.71893235124E+02 -0.37861201701E+01  0.45008908041E+03  0.47266369125E+03  0.12509121775E+03 0.  0.
         23    2    1    2    0    0  0.71893235124E+02  0.37861201701E+01  0.15801338739E+03  0.19655313407E+03  0.92097404728E+02 0.  0.
          5    1    3    3  502    0  0.25170756274E+02  0.81134428439E+01  0.23294676302E+03  0.23448040798E+03  0.41800000000E+01 0.  1.
         -5    1    3    3    0  502 -0.97063991398E+02 -0.11899563014E+02  0.21714231739E+03  0.23818328327E+03  0.41800000000E+01 0.  1.
        -11    1    4    4    0    0  0.36863280056E+02  0.33970408111E+02  0.13676832963E+03  0.14566559660E+03  0.00000000000E+00 0.  1.
         11    1    4    4    0    0  0.35029955068E+02 -0.30184287941E+02  0.21245057755E+02  0.50887537469E+02  0.00000000000E+00 0. -1.
</event>
<event>
 8    1  0.3528896E-009  0.1612980E+03  0.7561462E-02  0.1187239E+00
          2   -1    0    0  501    0  0.00000000000E+00  0.00000000000E+00  0.13265589473E+03  0.13265589473E+03  0.00000000000E+00 0. -1.
         -2   -1    0    0    0  501 -0.00000000000E+00 -0.00000000000E+00 -0.20831232225E+03  0.20831232225E+03  0.00000000000E+00 0.  1.
         25    2    1    2    0    0  0.68013372869E+02 -0.10295072275E+03 -0.22651916133E+02  0.17715899966E+03  0.12509009414E+03 0.  0.
         23    2    1    2    0    0 -0.68013372869E+02  0.10295072275E+03 -0.53004511387E+02  0.16380921732E+03  0.93804644070E+02 0.  0.
          5    1    3    3  502    0 -0.36471466479E+02 -0.24339298690E+02  0.17513812216E+01  0.44080710794E+02  0.41800000000E+01 0.  1.
         -5    1    3    3    0  502  0.10448483935E+03 -0.78611424061E+02 -0.24403297354E+02  0.13307828887E+03  0.41800000000E+01 0.  1.
        -11    1    4    4    0    0 -0.95252644096E+01 -0.14020208163E+02 -0.24775306290E+02  0.30018539284E+02  0.00000000000E+00 0.  1.
         11    1    4    4    0    0 -0.58488108460E+02  0.11697093091E+03 -0.28229205098E+02  0.13379067804E+03  0.00000000000E+00 0. -1.
</event>
<event>
 8    1  0.3528896E-009  0.1525541E+03  0.7561462E-02  0.1197369E+00
         -4   -1    0    0    0  501 -0.00000000000E+00  0.00000000000E+00  0.18400190861E+02  0.18400190861E+02  0.00000000000E+00 0.  1.
          4   -1    0    0  501    0  0.00000000000E+00 -0.00000000000E+00 -0.14365897865E+04  0.14365897865E+04  0.00000000000E+00 0. -1.
         25    2    1    2    0    0  0.86093199123E+02 -0.83706079234E+02 -0.82493562955E+03  0.84296194100E+03  0.12508914593E+03 0.  0.
         23    2    1    2    0    0 -0.86093199123E+02  0.83706079234E+02 -0.59325396605E+03  0.61202803633E+03  0.90605200621E+02 0.  0.
          5    1    3    3  502    0  0.69265024960E+02 -0.11016725849E+03 -0.50680367016E+03  0.52326083459E+03  0.41800000000E+01 0. -1.
         -5    1    3    3    0  502  0.16828174163E+02  0.26461179253E+02 -0.31813195939E+03  0.31970110641E+03  0.41800000000E+01 0. -1.
        -11    1    4    4    0    0  0.79460212443E+01 -0.84544932467E+01 -0.14950462892E+02  0.18924429988E+02  0.00000000000E+00 0.  1.
         11    1    4    4    0    0 -0.94039220367E+02  0.92160572481E+02 -0.57830350316E+03  0.59310360634E+03  0.00000000000E+00 0. -1.
</event>
<event>
 8    1  0.3528896E-009  0.1103119E+03  0.7561462E-02  0.1259993E+00
          3   -1    0    0  501    0  0.00000000000E+00  0.00000000000E+00  0.21722325800E+03  0.21722325800E+03  0.00000000000E+00 0. -1.
         -3   -1    0    0    0  501 -0.00000000000E+00 -0.00000000000E+00 -0.78427390063E+02  0.78427390063E+02  0.00000000000E+00 0.  1.
         25    2    1    2    0    0 -0.15375897097E+02 -0.52547497583E+02  0.13211214091E+03  0.18999147390E+03  0.12508191182E+03 0.  0.
         23    2    1    2    0    0  0.15375897097E+02  0.52547497583E+02  0.66837270262E+01  0.10565917416E+03  0.90119538191E+02 0.  0.
          5    1    3    3  502    0  0.43959649370E+02 -0.40206399381E+02  0.11032849185E+03  0.12545458874E+03  0.41800000000E+01 0.  1.
         -5    1    3    3    0  502 -0.59335546468E+02 -0.12341098202E+02  0.21783649068E+02  0.64536885160E+02  0.41800000000E+01 0.  1.
        -11    1    4    4    0    0  0.49680945094E+02  0.39431938025E+02 -0.11843361342E+02  0.64523943228E+02  0.00000000000E+00 0.  1.
         11    1    4    4    0    0 -0.34305047996E+02  0.13115559558E+02  0.18527088369E+02  0.41135230934E+02  0.00000000000E+00 0. -1.
</event>
<event>
 8    1  0.3528896E-009  0.1485299E+03  0.7561462E-02  0.1202291E+00
         -3   -1    0    0    0  501 -0.00000000000E+00  0.00000000000E+00  0.11372337202E+03  0.11372337202E+03  0.00000000000E+00 0.  1.
          3   -1    0    0  501    0  0.00000000000E+00 -0.00000000000E+00 -0.25850266508E+03  0.25850266508E+03  0.00000000000E+00 0. -1.
         25    2    1    2    0    0 -0.21914161732E+02  0.13355823163E+03 -0.66475446532E+02  0.19592249545E+03  0.12509439440E+03 0.  0.
         23    2    1    2    0    0  0.21914161732E+02 -0.13355823163E+03 -0.78303846534E+02  0.17630354165E+03  0.81445777640E+02 0.  0.
          5    1    3    3  502    0  0.52593337671E+01  0.13402399374E+03 -0.11785119273E+02  0.13470877078E+03  0.41800000000E+01 0.  1.
         -5    1    3    3    0  502 -0.27173495499E+02 -0.46576211001E+00 -0.54690327258E+02  0.61213724667E+02  0.41800000000E+01 0.  1.
        -11    1    4    4    0    0  0.90644938391E+01 -0.47353714902E+02 -0.74905074958E+02  0.89080354838E+02  0.00000000000E+00 0. -1.
         11    1    4    4    0    0  0.12849667893E+02 -0.86204516728E+02 -0.33987715761E+01  0.87223186811E+02  0.00000000000E+00 0.  1.
</event>
<event>
 8    1  0.3528896E-009  0.1440973E+03  0.7561462E-02  0.1207920E+00
          4   -1    0    0  501    0  0.00000000000E+00  0.00000000000E+00  0.52526405968E+02  0.52526405968E+02  0.00000000000E+00 0.  1.
         -4   -1    0    0    0  501 -0.00000000000E+00 -0.00000000000E+00 -0.52561137562E+03  0.52561137562E+03  0.00000000000E+00 0. -1.
         25    2    1    2    0    0 -0.59068249874E+02  0.10578843295E+03 -0.29116233408E+03  0.33925864224E+03  0.12506266773E+03 0.  0.
         23    2    1    2    0    0  0.59068249874E+02 -0.10578843295E+03 -0.18192263558E+03  0.23887913935E+03  0.96369845865E+02 0.  0.
          5    1    3    3  502    0 -0.86281784326E+02  0.55635016735E+02 -0.24524022581E+03  0.26589479526E+03  0.41800000000E+01 0.  1.
         -5    1    3    3    0  502  0.27213534453E+02  0.50153416213E+02 -0.45922108267E+02  0.73363846975E+02  0.41800000000E+01 0.  1.
        -11    1    4    4    0    0  0.45847387252E+02 -0.10547403136E+03 -0.19092016244E+03  0.22288396675E+03  0.00000000000E+00 0. -1.
         11    1    4    4    0    0  0.13220862622E+02 -0.31440159130E+00  0.89975268622E+01  0.15995172599E+02  0.00000000000E+00 0.  1.
</event>
<event>
 8    1  0.3528896E-009  0.1695395E+03  0.7561462E-02  0.1178329E+00
          2   -1    0    0  501    0  0.00000000000E+00  0.00000000000E+00  0.94980569317E+02  0.94980569317E+02  0.00000000000E+00 0. -1.
         -2   -1    0    0    0  501 -0.00000000000E+00 -0.00000000000E+00 -0.46318364288E+03  0.46318364288E+03  0.00000000000E+00 0.  1.
         25    2    1    2    0    0  0.10242830403E+02 -0.16763499636E+03 -0.10877314683E+03  0.23597764092E+03  0.12508973565E+03 0.  0.
         23    2    1    2    0    0 -0.10242830403E+02  0.16763499636E+03 -0.25942992673E+03  0.32218657127E+03  0.91070808955E+02 0.  0.
          5    1    3    3  502    0 -0.11002512354E+02 -0.41575449062E+02  0.25793099930E+02  0.50322257966E+02  0.41800000000E+01 0.  1.
         -5    1    3    3    0  502  0.21245342757E+02 -0.12605954730E+03 -0.13456624676E+03  0.18565538296E+03  0.41800000000E+01 0.  1.
        -11    1    4    4    0    0 -0.86739839537E+01  0.12524355336E+03 -0.11021352569E+03  0.16705749579E+03  0.00000000000E+00 0. -1.
         11    1    4    4    0    0 -0.15688464495E+01  0.42391443006E+02 -0.14921640105E+03  0.15512907548E+03  0.00000000000E+00 0.  1.
</event>
<event>
 8    1  0.3528896E-009  0.1500599E+03  0.7561462E-02  0.1200399E+00
          2   -1    0    0  501    0  0.00000000000E+00  0.00000000000E+00  0.65311011353E+03  0.65311011353E+03  0.00000000000E+00 0. -1.
         -2   -1    0    0    0  501 -0.00000000000E+00 -0.00000000000E+00 -0.45884878123E+02  0.45884878123E+02  0.00000000000E+00 0.  1.
         25    2    1    2    0    0  0.10026813698E+03 -0.73701818961E+02  0.22011679270E+03  0.28210672030E+03  0.12508853584E+03 0.  0.
         23    2    1    2    0    0 -0.10026813698E+03  0.73701818961E+02  0.38710844270E+03  0.41688827135E+03  0.91963182665E+02 0.  0.
          5    1    3    3  502    0  0.58933821107E+02  0.75829955794E+01  0.21170637828E+02  0.63216812623E+02  0.41800000000E+01 0.  1.
         -5    1    3    3    0  502  0.41334315875E+02 -0.81284814541E+02  0.19894615488E+03  0.21888990768E+03  0.41800000000E+01 0.  1.
        -11    1    4    4    0    0 -0.68559482794E+01  0.53188815703E+02  0.19572336995E+03  0.20293765468E+03  0.00000000000E+00 0. -1.
         11    1    4    4    0    0 -0.93412188703E+02  0.20513003259E+02  0.19138507275E+03  0.21395061667E+03  0.00000000000E+00 0.  1.
</event>
<event>
 8    1  0.3528896E-009  0.1712120E+03  0.7561462E-02  0.1176590E+00
         -2   -1    0    0    0  501 -0.00000000000E+00  0.00000000000E+00  0.17103056492E+03  0.17103056492E+03  0.00000000000E+00 0.  1.
          2   -1    0    0  501    0  0.00000000000E+00 -0.00000000000E+00 -0.24687065740E+03  0.24687065740E+03  0.00000000000E+00 0. -1.
         25    2    1    2    0    0 -0.15398892221E+03  0.13487717321E+02 -0.12239307690E+03  0.23350079949E+03  0.12509217164E+03 0.  0.
         23    2    1    2    0    0  0.15398892221E+03 -0.13487717321E+02  0.46552984417E+02  0.18440042283E+03  0.89116939455E+02 0.  0.
          5    1    3    3  502    0 -0.60004710020E+02  0.57985839622E+02 -0.93717647443E+02  0.12555235029E+03  0.41800000000E+01 0. -1.
         -5    1    3    3    0  502 -0.93984212192E+02 -0.44498122302E+02 -0.28675429453E+02  0.10794844920E+03  0.41800000000E+01 0. -1.
        -11    1    4    4    0    0  0.79337325219E+02 -0.27477989886E+01 -0.22109842918E+02  0.82406351248E+02  0.00000000000E+00 0. -1.
         11    1    4    4    0    0  0.74651596993E+02 -0.10739918332E+02  0.68662827335E+02  0.10199407158E+03  0.00000000000E+00 0.  1.
</event>
<event>
 7    1  0.3528896E-009  0.1696079E+03  0.7561462E-02  0.1178257E+00
          2   -1    0    0  501    0  0.00000000000E+00  0.00000000000E+00  0.21845283152E+02  0.21845283152E+02  0.00000000000E+00 0. -1.
         -2   -1    0    0    0  501 -0.00000000000E+00 -0.00000000000E+00 -0.18111033133E+04  0.18111033133E+04  0.00000000000E+00 0.  1.
         25    2    1    2    0    0 -0.87646546500E+02  0.10291470436E+03 -0.11808125541E+04  0.11950893797E+04  0.12508790554E+03 0.  0.
          5    1    3    3  502    0 -0.22760704279E+02 -0.73345345382E+01 -0.37741938467E+02  0.44875064072E+02  0.41800000000E+01 0.  1.
         -5    1    3    3    0  502 -0.64885842221E+02  0.11024923890E+03 -0.11430706156E+04  0.11502143156E+04  0.41800000000E+01 0.  1.
        -11    1    1    2    0    0  0.50601761029E+02 -0.13101603279E+03 -0.50999671919E+03  0.52898241242E+03  0.00000000000E+00 0. -1.
         11    1    1    2    0    0  0.37044785471E+02  0.28101328430E+02 -0.98448756880E+02  0.10887680433E+03  0.00000000000E+00 0.  1.
</event>
<event>
 8    1  0.3528896E-009  0.1140142E+03  0.7561462E-02  0.1253312E+00
          2   -1    0    0  501    0  0.00000000000E+00  0.00000000000E+00  0.23091843987E+03  0.23091843987E+03  0.00000000000E+00 0. -1.
         -2   -1    0    0    0  501 -0.00000000000E+00 -0.00000000000E+00 -0.74598408316E+02  0.74598408316E+02  0.00000000000E+00 0.  1.
         25    2    1    2    0    0 -0.67895253764E+02 -0.25578092767E+02  0.90833285267E+02  0.17076840029E+03  0.12508859465E+03 0.  0.
         23    2    1    2    0    0  0.67895253764E+02  0.25578092767E+02  0.65486746282E+02  0.13474844789E+03  0.92761123095E+02 0.  0.
          5    1    3    3  502    0  0.30410848592E+02  0.15192131478E+02  0.40278458600E+02  0.52871988785E+02  0.41800000000E+01 0. -1.
         -5    1    3    3    0  502 -0.98306102356E+02 -0.40770224245E+02  0.50554826667E+02  0.11789641150E+03  0.41800000000E+01 0. -1.
        -11    1    4    4    0    0  0.36931047076E+02  0.38831912853E+02 -0.77414437682E+01  0.54145633670E+02  0.00000000000E+00 0. -1.
         11    1    4    4    0    0  0.30964206689E+02 -0.13253820086E+02  0.73228190050E+02  0.80602814224E+02  0.00000000000E+00 0.  1.
</event>
<event>
 8    1  0.3528896E-009  0.1086116E+03  0.7561462E-02  0.1263163E+00
          1   -1    0    0  501    0  0.00000000000E+00  0.00000000000E+00  0.57179745181E+03  0.57179745181E+03  0.00000000000E+00 0. -1.
         -1   -1    0    0    0  501 -0.00000000000E+00 -0.00000000000E+00 -0.40611602660E+02  0.40611602660E+02  0.00000000000E+00 0.  1.
         25    2    1    2    0    0 -0.89969560912E+02 -0.13624302952E+02  0.17205899979E+03  0.23137028251E+03  0.12509102565E+03 0.  0.
         23    2    1    2    0    0  0.89969560912E+02  0.13624302952E+02  0.35912684936E+03  0.38103877196E+03  0.89097184494E+02 0.  0.
          5    1    3    3  502    0 -0.10714325267E+03 -0.14901766454E+02  0.72601658023E+02  0.13034650891E+03  0.41800000000E+01 0. -1.
         -5    1    3    3    0  502  0.17173691759E+02  0.12774635027E+01  0.99457341769E+02  0.10102377360E+03  0.41800000000E+01 0. -1.
        -11    1    4    4    0    0  0.12582727964E+02  0.43145964604E+01 -0.25212960591E+00  0.13304298364E+02  0.00000000000E+00 0.  1.
         11    1    4    4    0    0  0.77386832948E+02  0.93097064913E+01  0.35937897897E+03  0.36773447360E+03  0.00000000000E+00 0. -1.
</event>
<event>
 8    1  0.3528896E-009  0.1088767E+03  0.7561462E-02  0.1262664E+00
          1   -1    0    0  501    0  0.00000000000E+00  0.00000000000E+00  0.58831382885E+03  0.58831382885E+03  0.00000000000E+00 0. -1.
         -1   -1    0    0    0  501 -0.00000000000E+00 -0.00000000000E+00 -0.30173090004E+02  0.30173090004E+02  0.00000000000E+00 0.  1.
         25    2    1    2    0    0 -0.76322200971E+02  0.75823253875E+01  0.28651252999E+03  0.32190306551E+03  0.12509829625E+03 0.  0.
         23    2    1    2    0    0  0.76322200971E+02 -0.75823253875E+01  0.27162820886E+03  0.29658385335E+03  0.91090769008E+02 0.  0.
          5    1    3    3  502    0 -0.41466808193E+02  0.36655027023E+02  0.26633371817E+03  0.27205552563E+03  0.41800000000E+01 0.  1.
         -5    1    3    3    0  502 -0.34855392778E+02 -0.29072701636E+02  0.20178811815E+02  0.49847539883E+02  0.41800000000E+01 0.  1.
        -11    1    4    4    0    0  0.85676136337E+02 -0.31268524398E+02  0.23402325868E+03  0.25116728799E+03  0.00000000000E+00 0. -1.
         11    1    4    4    0    0 -0.93539353659E+01  0.23686199010E+02  0.37604950184E+02  0.45416565356E+02  0.00000000000E+00 0.  1.
</event>
<event>
 8    1  0.3528896E-009  0.1707505E+03  0.7561462E-02  0.1177067E+00
         -2   -1    0    0    0  501 -0.00000000000E+00  0.00000000000E+00  0.10383170238E+03  0.10383170238E+03  0.00000000000E+00 0.  1.
          2   -1    0    0  501    0  0.00000000000E+00 -0.00000000000E+00 -0.32673034645E+03  0.32673034645E+03  0.00000000000E+00 0. -1.
         25    2    1    2    0    0  0.35448699489E+02 -0.13039427167E+03 -0.61624316390E+02  0.19417174407E+03  0.12508330602E+03 0.  0.
         23    2    1    2    0    0 -0.35448699489E+02  0.13039427167E+03 -0.16127432768E+03  0.23639030476E+03  0.10775755674E+03 0.  0.
          5    1    3    3  502    0  0.63846431206E+02 -0.13454508634E+03 -0.31348923646E+02  0.15224642672E+03  0.41800000000E+01 0. -1.
         -5    1    3    3    0  502 -0.28397731717E+02  0.41508146644E+01 -0.30275392744E+02  0.41925317350E+02  0.41800000000E+01 0. -1.
        -11    1    4    4    0    0  0.99617509741E+01  0.11519980491E+03 -0.75320004804E+02  0.13799758931E+03  0.00000000000E+00 0.  1.
         11    1    4    4    0    0 -0.45410450463E+02  0.15194466767E+02 -0.85954322878E+02  0.98392715447E+02  0.00000000000E+00 0. -1.
</event>
<event>
 8    1  0.3528896E-009  0.9361156E+02  0.7561462E-02  0.1294334E+00
         -1   -1    0    0    0  501 -0.00000000000E+00  0.00000000000E+00  0.47564632119E+02  0.47564632119E+02  0.00000000000E+00 0.  1.
          1   -1    0    0  501    0  0.00000000000E+00 -0.00000000000E+00 -0.27863529925E+03  0.27863529925E+03  0.00000000000E+00 0. -1.
         25    2    1    2    0    0 -0.89342557312E+01  0.36298027893E+02 -0.13899219776E+03  0.19069289134E+03  0.12509028745E+03 0.  0.
         23    2    1    2    0    0  0.89342557312E+01 -0.36298027893E+02 -0.92078469378E+02  0.13550704004E+03  0.92121363549E+02 0.  0.
          5    1    3    3  502    0  0.38935246272E+02  0.89210228868E+01 -0.12820336335E+03  0.13434698667E+03  0.41800000000E+01 0.  1.
         -5    1    3    3    0  502 -0.47869502003E+02  0.27377005007E+02 -0.10788834405E+02  0.56345904669E+02  0.41800000000E+01 0.  1.
        -11    1    4    4    0    0  0.28080001633E+02  0.18556625021E+02 -0.10314122803E+02  0.35202499245E+02  0.00000000000E+00 0.  1.
         11    1    4    4    0    0 -0.19145745902E+02 -0.54854652915E+02 -0.81764346576E+02  0.10030454079E+03  0.00000000000E+00 0. -1.
</event>
<event>
 8    1  0.3528896E-009  0.1036979E+03  0.7561462E-02  0.1272706E+00
         -1   -1    0    0    0  501 -0.00000000000E+00  0.00000000000E+00  0.34147968475E+02  0.34147968475E+02  0.00000000000E+00 0.  1.
          1   -1    0    0  501    0  0.00000000000E+00 -0.00000000000E+00 -0.48533587809E+03  0.48533587809E+03  0.00000000000E+00 0. -1.
         25    2    1    2    0    0  0.20040979059E+01 -0.66624385235E+02 -0.28291229987E+03  0.31643298541E+03  0.12509052609E+03 0.  0.
         23    2    1    2    0    0 -0.20040979059E+01  0.66624385235E+02 -0.16827560975E+03  0.20305086116E+03  0.92033397559E+02 0.  0.
          5    1    3    3  502    0  0.47632641651E+02  0.63949382019E+01 -0.15379107424E+03  0.16117980860E+03  0.41800000000E+01 0.  1.
         -5    1    3    3    0  502 -0.45628543745E+02 -0.73019323436E+02 -0.12912122563E+03  0.15525317681E+03  0.41800000000E+01 0.  1.
        -11    1    4    4    0    0  0.13659773650E+02  0.36963876948E+02 -0.91859106128E+01  0.40463546174E+02  0.00000000000E+00 0.  1.
         11    1    4    4    0    0 -0.15663871556E+02  0.29660508286E+02 -0.15908969914E+03  0.16258731499E+03  0.00000000000E+00 0. -1.
</event>
<event>
 8    1  0.3528896E-009  0.1072343E+03  0.7561462E-02  0.1265779E+00
         -3   -1    0    0    0  501 -0.00000000000E+00  0.00000000000E+00  0.34785130792E+03  0.34785130792E+03  0.00000000000E+00 0.  1.
          3   -1    0    0  501    0  0.00000000000E+00 -0.00000000000E+00 -0.44499272495E+02  0.44499272495E+02  0.00000000000E+00 0. -1.
         25    2    1    2    0    0 -0.11980117498E+02  0.37887634495E+02  0.25291272988E+03  0.28494195034E+03  0.12509224622E+03 0.  0.
         23    2    1    2    0    0  0.11980117498E+02 -0.37887634495E+02  0.50439305550E+02  0.10740863008E+03  0.86101650440E+02 0.  0.
          5    1    3    3  502    0  0.18691785352E+02 -0.41455643940E+02  0.77691929761E+02  0.90119152260E+02  0.41800000000E+01 0.  1.
         -5    1    3    3    0  502 -0.30671902850E+02  0.79343278435E+02  0.17522080012E+03  0.19482279808E+03  0.41800000000E+01 0.  1.
        -11    1    4    4    0    0 -0.18147583090E+02  0.14481322809E+02 -0.67899395047E+01  0.24189806961E+02  0.00000000000E+00 0. -1.
         11    1    4    4    0    0  0.30127700588E+02 -0.52368957305E+02  0.57229245055E+02  0.83218823120E+02  0.00000000000E+00 0.  1.
</event>
<event>
 8    1  0.3528896E-009  0.1079509E+03  0.7561462E-02  0.1264412E+00
          1   -1    0    0  501    0  0.00000000000E+00  0.00000000000E+00  0.27968582637E+03  0.27968582637E+03  0.00000000000E+00 0.  1.
         -1   -1    0    0    0  501 -0.00000000000E+00 -0.00000000000E+00 -0.64074852706E+02  0.64074852706E+02  0.00000000000E+00 0. -1.
         25    2    1    2    0    0  0.62055801166E+02 -0.44114046037E+02  0.12981071376E+03  0.19569217348E+03  0.12509050259E+03 0.  0.
         23    2    1    2    0    0 -0.62055801166E+02  0.44114046037E+02  0.85800259901E+02  0.14806850560E+03  0.93624923147E+02 0.  0.
          5    1    3    3  502    0 -0.18820256553E+01 -0.58303206979E+02  0.11409425876E+03  0.12820989918E+03  0.41800000000E+01 0.  1.
         -5    1    3    3    0  502  0.63937826822E+02  0.14189160942E+02  0.15716454997E+02  0.67482274299E+02  0.41800000000E+01 0.  1.
        -11    1    4    4    0    0 -0.37928839455E+02  0.53772848888E+02  0.82977180109E+01  0.66324718350E+02  0.00000000000E+00 0. -1.
         11    1    4    4    0    0 -0.24126961712E+02 -0.96588028512E+01  0.77502541890E+02  0.81743787247E+02  0.00000000000E+00 0.  1.
</event>
<event>
 7    1  0.3528896E-009  0.3464429E+03  0.7561462E-02  0.1064085E+00
          2   -1    0    0  501    0  0.00000000000E+00  0.00000000000E+00  0.35378257936E+03  0.35378257936E+03  0.00000000000E+00 0. -1.
         -2   -1    0    0    0  501 -0.00000000000E+00 -0.00000000000E+00 -0.43271986073E+03  0.43271986073E+03  0.00000000000E+00 0.  1.
         23    2    1    2    0    0  0.12020498488E+03 -0.31541002820E+03 -0.20456681292E+03  0.40517404333E+03  0.91573468653E+02 0.  0.
          5    1    1    2  502    0  0.95931032795E+01  0.55626741643E+02  0.62102501094E+02  0.84027109069E+02  0.41800000000E+01 0.  1.
         -5    1    1    2    0  502 -0.12979808816E+03  0.25978328656E+03  0.63527030455E+02  0.29730128769E+03  0.41800000000E+01 0.  1.
        -11    1    3    3    0    0 -0.57527365173E+01 -0.67792235775E+02 -0.65730981896E+02  0.94601496763E+02  0.00000000000E+00 0.  1.
         11    1    3    3    0    0  0.12595772139E+03 -0.24761779243E+03 -0.13883583102E+03  0.31057254657E+03  0.00000000000E+00 0. -1.
</event>
<event>
 8    1  0.3528896E-009  0.1370521E+03  0.7561462E-02  0.1217351E+00
         -2   -1    0    0    0  501 -0.00000000000E+00  0.00000000000E+00  0.29126657720E+02  0.29126657720E+02  0.00000000000E+00 0.  1.
          2   -1    0    0  501    0  0.00000000000E+00 -0.00000000000E+00 -0.72061768672E+03  0.72061768672E+03  0.00000000000E+00 0. -1.
         25    2    1    2    0    0  0.40209479376E+02 -0.85908462536E+02 -0.32876938938E+03  0.36432730016E+03  0.12509198250E+03 0.  0.
         23    2    1    2    0    0 -0.40209479376E+02  0.85908462536E+02 -0.36272163962E+03  0.38541704428E+03  0.89343404915E+02 0.  0.
          5    1    3    3  502    0  0.59357177892E+01 -0.10442774620E+03 -0.16096423333E+03  0.19200870745E+03  0.41800000000E+01 0.  1.
         -5    1    3    3    0  502  0.34273761587E+02  0.18519283668E+02 -0.16780515604E+03  0.17231859272E+03  0.41800000000E+01 0.  1.
        -11    1    4    4    0    0 -0.32244013812E+01  0.92601811625E+02 -0.26331409253E+03  0.27914118937E+03  0.00000000000E+00 0.  1.
         11    1    4    4    0    0 -0.36985077995E+02 -0.66933490891E+01 -0.99407547096E+02  0.10627585491E+03  0.00000000000E+00 0. -1.
</event>
<event>
 8    1  0.3528896E-009  0.2234950E+03  0.7561462E-02  0.1131304E+00
         -3   -1    0    0    0  501 -0.00000000000E+00  0.00000000000E+00  0.40925425508E+03  0.40925425508E+03  0.00000000000E+00 0.  1.
          3   -1    0    0  501    0  0.00000000000E+00 -0.00000000000E+00 -0.17391263822E+03  0.17391263822E+03  0.00000000000E+00 0. -1.
         25    2    1    2    0    0  0.65027896717E+02 -0.19309649645E+03  0.26620817204E+03  0.35781089481E+03  0.12508781432E+03 0.  0.
         23    2    1    2    0    0 -0.65027896717E+02  0.19309649645E+03 -0.30866555177E+02  0.22535599849E+03  0.91201411912E+02 0.  0.
          5    1    3    3  502    0  0.98156561629E+02 -0.10523747011E+03  0.17775654750E+03  0.22874548801E+03  0.41800000000E+01 0.  1.
         -5    1    3    3    0  502 -0.33128664912E+02 -0.87859026341E+02  0.88451624540E+02  0.12906540680E+03  0.41800000000E+01 0.  1.
        -11    1    4    4    0    0 -0.54041215849E+02  0.87354875139E+02  0.24342150038E+02  0.10556451814E+03  0.00000000000E+00 0.  1.
         11    1    4    4    0    0 -0.10986680868E+02  0.10574162131E+03 -0.55208705215E+02  0.11979148035E+03  0.00000000000E+00 0. -1.
</event>
<event>
 8    1  0.3528896E-009  0.4936286E+03  0.7561462E-02  0.1015455E+00
         -2   -1    0    0    0  501 -0.00000000000E+00  0.00000000000E+00  0.28334071282E+03  0.28334071282E+03  0.00000000000E+00 0.  1.
          2   -1    0    0  501    0  0.00000000000E+00 -0.00000000000E+00 -0.93433565773E+03  0.93433565773E+03  0.00000000000E+00 0. -1.
         25    2    1    2    0    0  0.28587592138E+03  0.39611338297E+03 -0.46836997388E+03  0.68822112643E+03  0.12508809631E+03 0.  0.
         23    2    1    2    0    0 -0.28587592138E+03 -0.39611338297E+03 -0.18262497104E+03  0.52945524412E+03  0.91324262286E+02 0.  0.
          5    1    3    3  502    0  0.22453430724E+03  0.36357597530E+03 -0.35665054850E+03  0.55661497562E+03  0.41800000000E+01 0. -1.
         -5    1    3    3    0  502  0.61341614136E+02  0.32537407673E+02 -0.11171942538E+03  0.13160615081E+03  0.41800000000E+01 0. -1.
        -11    1    4    4    0    0 -0.98131677372E+02 -0.10295926036E+03 -0.14823831811E+02  0.14300413067E+03  0.00000000000E+00 0. -1.
         11    1    4    4    0    0 -0.18774424401E+03 -0.29315412261E+03 -0.16780113922E+03  0.38645111345E+03  0.00000000000E+00 0.  1.
</event>
<event>
 8    1  0.3528896E-009  0.1461351E+03  0.7561462E-02  0.1205304E+00
         -1   -1    0    0    0  501 -0.00000000000E+00  0.00000000000E+00  0.10230103859E+03  0.10230103859E+03  0.00000000000E+00 0.  1.
          1   -1    0    0  501    0  0.00000000000E+00 -0.00000000000E+00 -0.26237523978E+03  0.26237523978E+03  0.00000000000E+00 0. -1.
         25    2    1    2    0    0 -0.25781056957E+02 -0.11655893162E+03 -0.11737723185E+03  0.20898985294E+03  0.12509475064E+03 0.  0.
         23    2    1    2    0    0  0.25781056957E+02  0.11655893162E+03 -0.42696969338E+02  0.15568642543E+03  0.90358090030E+02 0.  0.
          5    1    3    3  502    0 -0.75235757804E+02 -0.56622006570E+02 -0.74489365446E+02  0.12013579335E+03  0.41800000000E+01 0.  1.
         -5    1    3    3    0  502  0.49454700847E+02 -0.59936925052E+02 -0.42887866404E+02  0.88854059588E+02  0.41800000000E+01 0.  1.
        -11    1    4    4    0    0  0.15771456541E+02  0.40167022934E+02  0.27737449899E+02  0.51298096453E+02  0.00000000000E+00 0.  1.
         11    1    4    4    0    0  0.10009600416E+02  0.76391908688E+02 -0.70434419237E+02  0.10438832898E+03  0.00000000000E+00 0. -1.
</event>
<event>
 8    1  0.3528896E-009  0.1041054E+03  0.7561462E-02  0.1271892E+00
         -2   -1    0    0    0  501 -0.00000000000E+00  0.00000000000E+00  0.52348613848E+02  0.52348613848E+02  0.00000000000E+00 0.  1.
          2   -1    0    0  501    0  0.00000000000E+00 -0.00000000000E+00 -0.30170382695E+03  0.30170382695E+03  0.00000000000E+00 0. -1.
         25    2    1    2    0    0 -0.16085451586E+02  0.13493745089E+02 -0.91496584372E+02  0.15639812905E+03  0.12509167402E+03 0.  0.
         23    2    1    2    0    0  0.16085451586E+02 -0.13493745089E+02 -0.15785862873E+03  0.19765431175E+03  0.11707714285E+03 0.  0.
          5    1    3    3  502    0 -0.72303556351E+01 -0.40697027387E+02  0.83466984398E+01  0.42375297705E+02  0.41800000000E+01 0.  1.
         -5    1    3    3    0  502 -0.88550959509E+01  0.54190772476E+02 -0.99843282811E+02  0.11402283135E+03  0.41800000000E+01 0.  1.
        -11    1    4    4    0    0  0.60718680939E+02 -0.24745605997E+02 -0.57361464658E+02  0.87117396993E+02  0.00000000000E+00 0. -1.
         11    1    4    4    0    0 -0.44633229353E+02  0.11251860908E+02 -0.10049716408E+03  0.11053691475E+03  0.00000000000E+00 0.  1.
</event>
<event>
 8    1  0.3528896E-009  0.1378268E+03  0.7561462E-02  0.1216283E+00
          1   -1    0    0  501    0  0.00000000000E+00  0.00000000000E+00  0.14003742784E+03  0.14003742784E+03  0.00000000000E+00 0. -1.
         -1   -1    0    0    0  501 -0.00000000000E+00 -0.00000000000E+00 -0.23907843465E+03  0.23907843465E+03  0.00000000000E+00 0.  1.
         25    2    1    2    0    0  0.10199184557E+03 -0.17435314139E+02 -0.17321650139E+03  0.23739821800E+03  0.12509049050E+03 0.  0.
         23    2    1    2    0    0 -0.10199184557E+03  0.17435314139E+02  0.74175494583E+02  0.14171764450E+03  0.62253996042E+02 0.  0.
          5    1    3    3  502    0  0.12478750882E+03  0.60371421556E+01 -0.11189923505E+03  0.16777151322E+03  0.41800000000E+01 0. -1.
         -5    1    3    3    0  502 -0.22795663248E+02 -0.23472456294E+02 -0.61317266342E+02  0.69626704784E+02  0.41800000000E+01 0. -1.
        -11    1    4    4    0    0 -0.78394381320E+02  0.37302897091E+02  0.39722091501E+02  0.95472664712E+02  0.00000000000E+00 0. -1.
         11    1    4    4    0    0 -0.23597464250E+02 -0.19867582952E+02  0.34453403082E+02  0.46244979785E+02  0.00000000000E+00 0.  1.
</event>
<event>
 8    1  0.3528896E-009  0.2316633E+03  0.7561462E-02  0.1125475E+00
          2   -1    0    0  501    0  0.00000000000E+00  0.00000000000E+00  0.64314220103E+03  0.64314220103E+03  0.00000000000E+00 0. -1.
         -2   -1    0    0    0  501 -0.00000000000E+00 -0.00000000000E+00 -0.13855051925E+03  0.13855051925E+03  0.00000000000E+00 0.  1.
         25    2    1    2    0    0 -0.12933360208E+01 -0.23123590401E+03  0.45907547315E+03  0.52903021672E+03  0.12510381341E+03 0.  0.
         23    2    1    2    0    0  0.12933360208E+01  0.23123590401E+03  0.45516208639E+02  0.25266250357E+03  0.91076338510E+02 0.  0.
          5    1    3    3  502    0  0.62159254589E+01 -0.15723880703E+03  0.17514930228E+03  0.23549401406E+03  0.41800000000E+01 0. -1.
         -5    1    3    3    0  502 -0.75092614798E+01 -0.73997096982E+02  0.28392617087E+03  0.29353620266E+03  0.41800000000E+01 0. -1.
        -11    1    4    4    0    0 -0.34034209644E+01  0.15318691301E+03  0.73074761031E+02  0.16975786960E+03  0.00000000000E+00 0. -1.
         11    1    4    4    0    0  0.46967569852E+01  0.78048991009E+02 -0.27558552392E+02  0.82904633970E+02  0.00000000000E+00 0.  1.
</event>
<event>
 8    1  0.3528896E-009  0.9222750E+02  0.7561462E-02  0.1297545E+00
          1   -1    0    0  501    0  0.00000000000E+00  0.00000000000E+00  0.46246706177E+03  0.46246706177E+03  0.00000000000E+00 0. -1.
         -1   -1    0    0    0  501 -0.00000000000E+00 -0.00000000000E+00 -0.26480395898E+02  0.26480395898E+02  0.00000000000E+00 0.  1.
         25    2    1    2    0    0  0.53870724309E+01  0.28917016032E+01  0.19476867011E+03  0.23155738681E+03  0.12508639432E+03 0.  0.
         23    2    1    2    0    0 -0.53870724309E+01 -0.28917016032E+01  0.24121799577E+03  0.25739007086E+03  0.89588752689E+02 0.  0.
          5    1    3    3  502    0 -0.42338417781E+01 -0.50809080612E+02  0.33224673846E+02  0.60998683928E+02  0.41800000000E+01 0.  1.
         -5    1    3    3    0  502  0.96209142090E+01  0.53700782215E+02  0.16154399626E+03  0.17055870288E+03  0.41800000000E+01 0.  1.
        -11    1    4    4    0    0  0.22027894553E+02 -0.31837649072E+02  0.18152584717E+03  0.18560845139E+03  0.00000000000E+00 0. -1.
         11    1    4    4    0    0 -0.27414966984E+02  0.28945947469E+02  0.59692148597E+02  0.71781619470E+02  0.00000000000E+00 0.  1.
</event>
<event>
 8    1  0.3528896E-009  0.1677540E+03  0.7561462E-02  0.1180211E+00
         -2   -1    0    0    0  501 -0.00000000000E+00  0.00000000000E+00  0.35812946750E+02  0.35812946750E+02  0.00000000000E+00 0.  1.
          2   -1    0    0  501    0  0.00000000000E+00 -0.00000000000E+00 -0.15207102089E+04  0.15207102089E+04  0.00000000000E+00 0. -1.
         25    2    1    2    0    0 -0.14367734824E+03  0.67083853573E+02 -0.12190680499E+04  0.12356851856E+04  0.12509014314E+03 0.  0.
         23    2    1    2    0    0  0.14367734824E+03 -0.67083853573E+02 -0.26582921229E+03  0.32083797006E+03  0.84429906508E+02 0.  0.
          5    1    3    3  502    0 -0.64409498853E+02  0.47976699797E+02 -0.97524942826E+03  0.97855979223E+03  0.41800000000E+01 0.  1.
         -5    1    3    3    0  502 -0.79267849389E+02  0.19107153776E+02 -0.24381862164E+03  0.25712539340E+03  0.41800000000E+01 0.  1.
        -11    1    4    4    0    0  0.65292798979E+02  0.68974059332E+01 -0.14344934206E+03  0.15776069709E+03  0.00000000000E+00 0.  1.
         11    1    4    4    0    0  0.78384549263E+02 -0.73981259506E+02 -0.12237987023E+03  0.16307727297E+03  0.00000000000E+00 0. -1.
</event>
<event>
 8    1  0.3528896E-009  0.9249399E+02  0.7561462E-02  0.1296922E+00
          2   -1    0    0  501    0  0.00000000000E+00  0.00000000000E+00  0.40670832892E+03  0.40670832892E+03  0.00000000000E+00 0. -1.
         -2   -1    0    0    0  501 -0.00000000000E+00 -0.00000000000E+00 -0.54119320168E+02  0.54119320168E+02  0.00000000000E+00 0.  1.
         25    2    1    2    0    0 -0.47321249498E+02 -0.48198294292E+02  0.29788026367E+03  0.33006565387E+03  0.12509319787E+03 0.  0.
         23    2    1    2    0    0  0.47321249498E+02  0.48198294292E+02  0.54708745080E+02  0.13076199522E+03  0.97689694329E+02 0.  0.
          5    1    3    3  502    0 -0.54765758831E+02 -0.48273879638E+02  0.30815167078E+03  0.31670898377E+03  0.41800000000E+01 0. -1.
         -5    1    3    3    0  502  0.74445093328E+01  0.75585346648E-01 -0.10271407105E+02  0.13356670104E+02  0.41800000000E+01 0. -1.
        -11    1    4    4    0    0  0.66587271009E+02  0.50977467767E+02  0.13169573832E+02  0.84888188550E+02  0.00000000000E+00 0.  1.
         11    1    4    4    0    0 -0.19266021512E+02 -0.27791734759E+01  0.41539171248E+02  0.45873806666E+02  0.00000000000E+00 0. -1.
</event>
<event>
 8    1  0.3528896E-009  0.1292610E+03  0.7561462E-02  0.1228556E+00
          2   -1    0    0  501    0  0.00000000000E+00  0.00000000000E+00  0.11778416251E+03  0.11778416251E+03  0.00000000000E+00 0. -1.
         -2   -1    0    0    0  501 -0.00000000000E+00 -0.00000000000E+00 -0.17796377767E+03  0.17796377767E+03  0.00000000000E+00 0.  1.
         25    2    1    2    0    0 -0.95551429182E+02  0.97305953701E+01 -0.23641500847E+02  0.15947290080E+03  0.12509166808E+03 0.  0.
         23    2    1    2    0    0  0.95551429182E+02 -0.97305953701E+01 -0.36538114316E+02  0.13627503937E+03  0.89504706322E+02 0.  0.
          5    1    3    3  502    0  0.13337301558E+01  0.28807430241E+02 -0.49385230552E+02  0.57341261495E+02  0.41800000000E+01 0.  1.
         -5    1    3    3    0  502 -0.96885159338E+02 -0.19076834871E+02  0.25743729704E+02  0.10213163931E+03  0.41800000000E+01 0.  1.
        -11    1    4    4    0    0  0.19615879972E+02 -0.43290674706E+02 -0.64171035194E+01  0.47958778979E+02  0.00000000000E+00 0. -1.
         11    1    4    4    0    0  0.75935549210E+02  0.33560079336E+02 -0.30121010796E+02  0.88316260395E+02  0.00000000000E+00 0.  1.
</event>
<event>
 8    1  0.3528896E-009  0.1612477E+03  0.7561462E-02  0.1187295E+00
          1   -1    0    0  501    0  0.00000000000E+00  0.00000000000E+00  0.44835236785E+03  0.44835236785E+03  0.00000000000E+00 0. -1.
         -1   -1    0    0    0  501 -0.00000000000E+00 -0.00000000000E+00 -0.76211680383E+02  0.76211680383E+02  0.00000000000E+00 0.  1.
         25    2    1    2    0    0 -0.33259831547E+02 -0.14425795217E+03  0.22653041032E+03  0.29812784872E+03  0.12509042418E+03 0.  0.
         23    2    1    2    0    0  0.33259831547E+02  0.14425795217E+03  0.14561027715E+03  0.22643619952E+03  0.90301863109E+02 0.  0.
          5    1    3    3  502    0 -0.46381268041E+02 -0.50013347436E+02  0.20821922283E+02  0.71439357462E+02  0.41800000000E+01 0. -1.
         -5    1    3    3    0  502  0.13121436494E+02 -0.94244604737E+02  0.20570848804E+03  0.22668849126E+03  0.41800000000E+01 0. -1.
        -11    1    4    4    0    0  0.49267998604E+02  0.12130531637E+03  0.14888092449E+03  0.19826206179E+03  0.00000000000E+00 0.  1.
         11    1    4    4    0    0 -0.16008167057E+02  0.22952635805E+02 -0.32706473436E+01  0.28174137732E+02  0.00000000000E+00 0. -1.
</event>
<event>
 8    1  0.3528896E-009  0.1165051E+03  0.7561462E-02  0.1248976E+00
          2   -1    0    0  501    0  0.00000000000E+00  0.00000000000E+00  0.34637179416E+03  0.34637179416E+03  0.00000000000E+00 0. -1.
         -2   -1    0    0    0  501 -0.00000000000E+00 -0.00000000000E+00 -0.74460639529E+02  0.74460639529E+02  0.00000000000E+00 0.  1.
         25    2    1    2    0    0  0.11412343582E+03 -0.57165856328E+01  0.18903803452E+03  0.25385113449E+03  0.12509269376E+03 0.  0.
         23    2    1    2    0    0 -0.11412343582E+03  0.57165856328E+01  0.82873120108E+02  0.16698129920E+03  0.89207411629E+02 0.  0.
          5    1    3    3  502    0  0.62860079131E+02  0.59355748303E+01  0.19086672859E+03  0.20108257278E+03  0.41800000000E+01 0.  1.
         -5    1    3    3    0  502  0.51263356692E+02 -0.11652160463E+02 -0.18286940612E+01  0.52768561708E+02  0.41800000000E+01 0.  1.
        -11    1    4    4    0    0 -0.35088280334E+02 -0.98441656165E+01 -0.15700009906E+02  0.39681044902E+02  0.00000000000E+00 0.  1.
         11    1    4    4    0    0 -0.79035155489E+02  0.15560751249E+02  0.98573130014E+02  0.12730025429E+03  0.00000000000E+00 0. -1.
</event>
<event>
 8    1  0.3528896E-009  0.1262671E+03  0.7561462E-02  0.1233102E+00
          1   -1    0    0  501    0  0.00000000000E+00  0.00000000000E+00  0.63036067166E+03  0.63036067166E+03  0.00000000000E+00 0. -1.
         -1   -1    0    0    0  501 -0.00000000000E+00 -0.00000000000E+00 -0.30107689335E+02  0.30107689335E+02  0.00000000000E+00 0.  1.
         25    2    1    2    0    0  0.69912349275E+02 -0.13368977619E+02  0.39406851368E+03  0.41952910770E+03  0.12509281593E+03 0.  0.
         23    2    1    2    0    0 -0.69912349275E+02  0.13368977619E+02  0.20618446865E+03  0.24093925329E+03  0.10233876353E+03 0.  0.
          5    1    3    3  502    0  0.69883766189E+02  0.37355116131E+02  0.14479485802E+03  0.16511259427E+03  0.41800000000E+01 0.  1.
         -5    1    3    3    0  502  0.28583086668E-01 -0.50724093750E+02  0.24927365565E+03  0.25441651343E+03  0.41800000000E+01 0.  1.
        -11    1    4    4    0    0  0.48194002748E+01  0.41987196394E+02  0.94745478714E+02  0.10374419028E+03  0.00000000000E+00 0. -1.
         11    1    4    4    0    0 -0.74731749550E+02 -0.28618218775E+02  0.11143898993E+03  0.13719506301E+03  0.00000000000E+00 0.  1.
</event>
<event>
 8    1  0.3528896E-009  0.6735673E+02  0.7561462E-02  0.1369319E+00
          2   -1    0    0  501    0  0.00000000000E+00  0.00000000000E+00  0.28347507367E+03  0.28347507367E+03  0.00000000000E+00 0. -1.
         -2   -1    0    0    0  501 -0.00000000000E+00 -0.00000000000E+00 -0.73463558194E+02  0.73463558194E+02  0.00000000000E+00 0.  1.
         25    2    1    2    0    0 -0.36774575835E+02 -0.54706983383E+02  0.19556694409E+03  0.24132995261E+03  0.12509393650E+03 0.  0.
         23    2    1    2    0    0  0.36774575835E+02  0.54706983383E+02  0.14444571384E+02  0.11560867925E+03  0.93869577695E+02 0.  0.
          5    1    3    3  502    0 -0.18987267132E+02 -0.13813058551E+02  0.19508462893E+03  0.19653702385E+03  0.41800000000E+01 0.  1.
         -5    1    3    3    0  502 -0.17787308703E+02 -0.40893924832E+02  0.48231515939E+00  0.44792928761E+02  0.41800000000E+01 0.  1.
        -11    1    4    4    0    0  0.21531125505E+02  0.27979277196E+02 -0.39826587600E+02  0.53222048042E+02  0.00000000000E+00 0.  1.
         11    1    4    4    0    0  0.15243450330E+02  0.26727706187E+02  0.54271158984E+02  0.62386631208E+02  0.00000000000E+00 0. -1.
</event>
<event>
 8    1  0.3528896E-009  0.1762407E+03  0.7561462E-02  0.1171492E+00
          2   -1    0    0  501    0  0.00000000000E+00  0.00000000000E+00  0.76043343129E+03  0.76043343129E+03  0.00000000000E+00 0. -1.
         -2   -1    0    0    0  501 -0.00000000000E+00 -0.00000000000E+00 -0.44881058117E+02  0.44881058117E+02  0.00000000000E+00 0.  1.
         25    2    1    2    0    0  0.64274301191E+02  0.13397603095E+03  0.38445255155E+03  0.43072524494E+03  0.12505882446E+03 0.  0.
         23    2    1    2    0    0 -0.64274301191E+02 -0.13397603095E+03  0.33109982162E+03  0.37458924446E+03  0.92786030891E+02 0.  0.
          5    1    3    3  502    0  0.51158612708E+02  0.24082267124E+01  0.52863555003E+02  0.73722663121E+02  0.41800000000E+01 0. -1.
         -5    1    3    3    0  502  0.13115688483E+02  0.13156780423E+03  0.33158899655E+03  0.35700258182E+03  0.41800000000E+01 0. -1.
        -11    1    4    4    0    0  0.47274665126E+01 -0.82717174304E+02  0.11266051699E+03  0.13984588643E+03  0.00000000000E+00 0.  1.
         11    1    4    4    0    0 -0.69001767704E+02 -0.51258856642E+02  0.21843930463E+03  0.23474335803E+03  0.00000000000E+00 0. -1.
</event>
<event>
 8    1  0.3528896E-009  0.9304215E+02  0.7561462E-02  0.1295648E+00
          2   -1    0    0  501    0  0.00000000000E+00  0.00000000000E+00  0.38090725687E+03  0.38090725687E+03  0.00000000000E+00 0. -1.
         -2   -1    0    0    0  501 -0.00000000000E+00 -0.00000000000E+00 -0.30639828999E+02  0.30639828999E+02  0.00000000000E+00 0.  1.
         25    2    1    2    0    0  0.37207862824E+01  0.24817968833E+01  0.20416220731E+03  0.23948018532E+03  0.12509415933E+03 0.  0.
         23    2    1    2    0    0 -0.37207862824E+01 -0.24817968833E+01  0.14610522056E+03  0.17206690056E+03  0.90775983748E+02 0.  0.
          5    1    3    3  502    0 -0.56739677297E+02 -0.19898906644E+02  0.10677978789E+03  0.12261628345E+03  0.41800000000E+01 0.  1.
         -5    1    3    3    0  502  0.60460463580E+02  0.22380703527E+02  0.97382419428E+02  0.11686390187E+03  0.41800000000E+01 0.  1.
        -11    1    4    4    0    0 -0.28304881761E+02  0.14030375269E+02  0.13770729369E+03  0.14128452320E+03  0.00000000000E+00 0.  1.
         11    1    4    4    0    0  0.24584095479E+02 -0.16512172152E+02  0.83979268710E+01  0.30782377352E+02  0.00000000000E+00 0. -1.
</event>
<event>
 8    1  0.3528896E-009  0.1455448E+03  0.7561462E-02  0.1206057E+00
          1   -1    0    0  501    0  0.00000000000E+00  0.00000000000E+00  0.63818655935E+02  0.63818655935E+02  0.00000000000E+00 0. -1.
         -1   -1    0    0    0  501 -0.00000000000E+00 -0.00000000000E+00 -0.36326201772E+03  0.36326201772E+03  0.00000000000E+00 0.  1.
         25    2    1    2    0    0  0.10166813952E+03 -0.20008682507E+02 -0.19486465079E+03  0.25368494141E+03  0.12508820648E+03 0.  0.
         23    2    1    2    0    0 -0.10166813952E+03  0.20008682507E+02 -0.10457871100E+03  0.17339573225E+03  0.91611217651E+02 0.  0.
          5    1    3    3  502    0  0.25626025576E+02  0.51678392276E+02 -0.68238748535E+02  0.89450257779E+02  0.41800000000E+01 0.  1.
         -5    1    3    3    0  502  0.76042113946E+02 -0.71687074783E+02 -0.12662590226E+03  0.16423468363E+03  0.41800000000E+01 0.  1.
        -11    1    4    4    0    0 -0.88617921217E+02 -0.16280864427E+02 -0.99929901224E+02  0.13455180291E+03  0.00000000000E+00 0.  1.
         11    1    4    4    0    0 -0.13050218305E+02  0.36289546934E+02 -0.46488097729E+01  0.38843929343E+02  0.00000000000E+00 0. -1.
</event>
<event>
 8    1  0.3528896E-009  0.2107577E+03  0.7561462E-02  0.1140967E+00
          2   -1    0    0  501    0  0.00000000000E+00  0.00000000000E+00  0.18107379685E+03  0.18107379685E+03  0.00000000000E+00 0. -1.
         -2   -1    0    0    0  501 -0.00000000000E+00 -0.00000000000E+00 -0.28138820050E+03  0.28138820050E+03  0.00000000000E+00 0.  1.
         25    2    1    2    0    0  0.12510967653E+03 -0.13865398245E+03 -0.12591057941E+03  0.25764004474E+03  0.12509020999E+03 0.  0.
         23    2    1    2    0    0 -0.12510967653E+03  0.13865398245E+03  0.25596175769E+02  0.20482195262E+03  0.80121845024E+02 0.  0.
          5    1    3    3  502    0  0.14767635786E+03 -0.11818418320E+03 -0.12522389045E+03  0.22687948997E+03  0.41800000000E+01 0. -1.
         -5    1    3    3    0  502 -0.22566681333E+02 -0.20469799246E+02 -0.68668895832E+00  0.30760554763E+02  0.41800000000E+01 0. -1.
        -11    1    4    4    0    0  0.25539909892E+01  0.40387067879E+02 -0.52023666359E+01  0.40800768871E+02  0.00000000000E+00 0.  1.
         11    1    4    4    0    0 -0.12766366752E+03  0.98266914566E+02  0.30798542405E+02  0.16402118374E+03  0.00000000000E+00 0. -1.
</event>
<event>
 8    1  0.3528896E-009  0.1172375E+03  0.7561462E-02  0.1247725E+00
          2   -1    0    0  501    0  0.00000000000E+00  0.00000000000E+00  0.26263131898E+03  0.26263131898E+03  0.00000000000E+00 0. -1.
         -2   -1    0    0    0  501 -0.00000000000E+00 -0.00000000000E+00 -0.88541061417E+02  0.88541061417E+02  0.00000000000E+00 0.  1.
         25    2    1    2    0    0  0.21796503119E+02 -0.53450107421E+02  0.19797296694E+03  0.24119119218E+03  0.12509154254E+03 0.  0.
         23    2    1    2    0    0 -0.21796503119E+02  0.53450107421E+02 -0.23882709380E+02  0.10998118821E+03  0.90517823777E+02 0.  0.
          5    1    3    3  502    0  0.11213390800E+02 -0.94143870004E+02  0.12615753708E+03  0.15786704835E+03  0.41800000000E+01 0.  1.
         -5    1    3    3    0  502  0.10583112319E+02  0.40693762583E+02  0.71815429864E+02  0.83324143837E+02  0.41800000000E+01 0.  1.
        -11    1    4    4    0    0 -0.17308307826E+02  0.74147357432E+02 -0.37427080328E+02  0.84842173923E+02  0.00000000000E+00 0.  1.
         11    1    4    4    0    0 -0.44881952928E+01 -0.20697250011E+02  0.13544370948E+02  0.25139014288E+02  0.00000000000E+00 0. -1.
</event>
<event>
 8    1  0.3528896E-009  0.9168088E+02  0.7561462E-02  0.1298832E+00
          2   -1    0    0  501    0  0.00000000000E+00  0.00000000000E+00  0.67803010002E+02  0.67803010002E+02  0.00000000000E+00 0.  1.
         -2   -1    0    0    0  501 -0.00000000000E+00 -0.00000000000E+00 -0.27135554922E+03  0.27135554922E+03  0.00000000000E+00 0. -1.
         25    2    1    2    0    0  0.11653998600E+02 -0.41954020796E+02 -0.19660233025E+03  0.23705718107E+03  0.12509066829E+03 0.  0.
         23    2    1    2    0    0 -0.11653998600E+02  0.41954020796E+02 -0.69502089728E+01  0.10210137815E+03  0.92089252749E+02 0.  0.
          5    1    3    3  502    0 -0.84924993873E+01 -0.57043000167E+02 -0.24044230281E+02  0.62622869813E+02  0.41800000000E+01 0.  1.
         -5    1    3    3    0  502  0.20146497987E+02  0.15088979371E+02 -0.17255809996E+03  0.17443431126E+03  0.41800000000E+01 0.  1.
        -11    1    4    4    0    0 -0.36081337855E+02 -0.14208906949E+02  0.67016753273E+01  0.39353124784E+02  0.00000000000E+00 0.  1.
         11    1    4    4    0    0  0.24427339255E+02  0.56162927745E+02 -0.13651884300E+02  0.62748253369E+02  0.00000000000E+00 0. -1.
</event>
<event>
 8    1  0.3528896E-009  0.1142905E+03  0.7561462E-02  0.1252825E+00
          1   -1    0    0  501    0  0.00000000000E+00  0.00000000000E+00  0.24764392683E+03  0.24764392683E+03  0.00000000000E+00 0. -1.
         -1   -1    0    0    0  501 -0.00000000000E+00 -0.00000000000E+00 -0.10209997245E+03  0.10209997245E+03  0.00000000000E+00 0.  1.
         25    2    1    2    0    0 -0.41913608830E+02 -0.49161061917E+02  0.18471492717E+03  0.23224342139E+03  0.12507534468E+03 0.  0.
         23    2    1    2    0    0  0.41913608830E+02  0.49161061917E+02 -0.39170972781E+02  0.11750047789E+03  0.89991313921E+02 0.  0.
          5    1    3    3  502    0 -0.80495558447E+01  0.41383501129E+02  0.73429706766E+02  0.84774900476E+02  0.41800000000E+01 0. -1.
         -5    1    3    3    0  502 -0.33864052986E+02 -0.90544563045E+02  0.11128522040E+03  0.14746852092E+03  0.41800000000E+01 0. -1.
        -11    1    4    4    0    0  0.57397596413E+02  0.29827838703E+02 -0.57610682767E+02  0.86620868181E+02  0.00000000000E+00 0.  1.
         11    1    4    4    0    0 -0.15483987582E+02  0.19333223214E+02  0.18439709985E+02  0.30879609707E+02  0.00000000000E+00 0. -1.
</event>
<event>
 8    1  0.3528896E-009  0.1302609E+03  0.7561462E-02  0.1227069E+00
          1   -1    0    0  501    0  0.00000000000E+00  0.00000000000E+00  0.18514042632E+04  0.18514042632E+04  0.00000000000E+00 0.  1.
         -1   -1    0    0    0  501 -0.00000000000E+00 -0.00000000000E+00 -0.14165227563E+02  0.14165227563E+02  0.00000000000E+00 0. -1.
         25    2    1    2    0    0 -0.90695387004E+02 -0.31892859074E+02  0.13882484258E+04  0.13971846056E+04  0.12509325578E+03 0.  0.
         23    2    1    2    0    0  0.90695387004E+02  0.31892859074E+02  0.44899060976E+03  0.46838488511E+03  0.92460939112E+02 0.  0.
          5    1    3    3  502    0 -0.86177667956E+02  0.29102834030E+02  0.99862129055E+03  0.10027639402E+04  0.41800000000E+01 0. -1.
         -5    1    3    3    0  502 -0.45177190485E+01 -0.60995693104E+02  0.38962713528E+03  0.39442066542E+03  0.41800000000E+01 0. -1.
        -11    1    4    4    0    0  0.19004658771E+02 -0.13496848125E+02  0.18914537718E+02  0.30018356074E+02  0.00000000000E+00 0. -1.
         11    1    4    4    0    0  0.71690728233E+02  0.45389707199E+02  0.43007607204E+03  0.43836652904E+03  0.00000000000E+00 0.  1.
</event>
<event>
 8    1  0.3528896E-009  0.1080768E+03  0.7561462E-02  0.1264173E+00
          1   -1    0    0  501    0  0.00000000000E+00  0.00000000000E+00  0.51478673339E+03  0.51478673339E+03  0.00000000000E+00 0. -1.
         -1   -1    0    0    0  501 -0.00000000000E+00 -0.00000000000E+00 -0.45907471194E+02  0.45907471194E+02  0.00000000000E+00 0.  1.
         25    2    1    2    0    0 -0.25252590207E+02  0.91731404317E+02  0.15634601364E+03  0.22168298053E+03  0.12508766536E+03 0.  0.
         23    2    1    2    0    0  0.25252590207E+02 -0.91731404317E+02  0.31253324856E+03  0.33901122406E+03  0.90549625802E+02 0.  0.
          5    1    3    3  502    0 -0.36976049232E+02  0.43093214711E+02 -0.56166079520E+00  0.56938925471E+02  0.41800000000E+01 0. -1.
         -5    1    3    3    0  502  0.11723459026E+02  0.48638189606E+02  0.15690767444E+03  0.16474405506E+03  0.41800000000E+01 0. -1.
        -11    1    4    4    0    0  0.93639094379E+01  0.52516536663E+01 -0.66466706749E+00  0.10756600230E+02  0.00000000000E+00 0.  1.
         11    1    4    4    0    0  0.15888680769E+02 -0.96983057983E+02  0.31319791562E+03  0.32825462383E+03  0.00000000000E+00 0. -1.
</event>
<event>
 8    1  0.3528896E-009  0.1461503E+03  0.7561462E-02  0.1205285E+00
         -2   -1    0    0    0  501 -0.00000000000E+00  0.00000000000E+00  0.37570194217E+02  0.37570194217E+02  0.00000000000E+00 0.  1.
          2   -1    0    0  501    0  0.00000000000E+00 -0.00000000000E+00 -0.10088482236E+04  0.10088482236E+04  0.00000000000E+00 0. -1.
         25    2    1    2    0    0 -0.96805354462E+02  0.62598480310E+02 -0.81592937489E+03  0.83347309901E+03  0.12508723184E+03 0.  0.
         23    2    1    2    0    0  0.96805354462E+02 -0.62598480310E+02 -0.15534865444E+03  0.21294531876E+03  0.89009313868E+02 0.  0.
          5    1    3    3  502    0  0.27430054978E+02 -0.39715812993E+01 -0.17359335675E+03  0.17584171087E+03  0.41800000000E+01 0.  1.
         -5    1    3    3    0  502 -0.12423540944E+03  0.66570061609E+02 -0.64233601814E+03  0.65763138814E+03  0.41800000000E+01 0.  1.
        -11    1    4    4    0    0  0.66676132525E+02 -0.64898034712E+02 -0.54865311596E+02  0.10801696151E+03  0.00000000000E+00 0.  1.
         11    1    4    4    0    0  0.30129221937E+02  0.22995544019E+01 -0.10048334285E+03  0.10492835725E+03  0.00000000000E+00 0. -1.
</event>
<event>
 8    1  0.3528896E-009  0.2055358E+03  0.7561462E-02  0.1145151E+00
          2   -1    0    0  501    0  0.00000000000E+00  0.00000000000E+00  0.38765518424E+03  0.38765518424E+03  0.00000000000E+00 0. -1.
         -2   -1    0    0    0  501 -0.00000000000E+00 -0.00000000000E+00 -0.13829453327E+03  0.13829453327E+03  0.00000000000E+00 0.  1.
         25    2    1    2    0    0 -0.20445886444E+03  0.83838027915E+01  0.12579459312E+03  0.27082510606E+03  0.12509293752E+03 0.  0.
         23    2    1    2    0    0  0.20445886444E+03 -0.83838027915E+01  0.12356605785E+03  0.25512461145E+03  0.89141916743E+02 0.  0.
          5    1    3    3  502    0 -0.15550709851E+03 -0.86503572358E+00  0.23985538727E+02  0.15740388953E+03  0.41800000000E+01 0.  1.
         -5    1    3    3    0  502 -0.48951765931E+02  0.92488385151E+01  0.10180905439E+03  0.11342121652E+03  0.41800000000E+01 0.  1.
        -11    1    4    4    0    0  0.76273375452E+02 -0.12347163274E+02  0.33417851117E+00  0.77267017019E+02  0.00000000000E+00 0.  1.
         11    1    4    4    0    0  0.12818548898E+03  0.39633604824E+01  0.12323187934E+03  0.17785759443E+03  0.00000000000E+00 0. -1.
</event>
<event>
 8    1  0.3528896E-009  0.1126077E+03  0.7561462E-02  0.1255816E+00
         -1   -1    0    0    0  501 -0.00000000000E+00  0.00000000000E+00  0.11504887810E+03  0.11504887810E+03  0.00000000000E+00 0.  1.
          1   -1    0    0  501    0  0.00000000000E+00 -0.00000000000E+00 -0.11521748497E+03  0.11521748497E+03  0.00000000000E+00 0. -1.
         25    2    1    2    0    0  0.38588356112E+02  0.18780434902E+02  0.17655873723E+02  0.13342258783E+03  0.12509233031E+03 0.  0.
         23    2    1    2    0    0 -0.38588356112E+02 -0.18780434902E+02 -0.17824480590E+02  0.96843775244E+02  0.84966103434E+02 0.  0.
          5    1    3    3  502    0  0.63239418124E+01  0.70011206848E+02  0.18191072526E+02  0.72732034510E+02  0.41800000000E+01 0. -1.
         -5    1    3    3    0  502  0.32264414300E+02 -0.51230771946E+02 -0.53519880290E+00  0.60690553318E+02  0.41800000000E+01 0. -1.
        -11    1    4    4    0    0 -0.17389104037E+02  0.33471106426E+02 -0.14324330089E+02  0.40347023894E+02  0.00000000000E+00 0. -1.
         11    1    4    4    0    0 -0.21199252075E+02 -0.52251541328E+02 -0.35001505018E+01  0.56496751351E+02  0.00000000000E+00 0.  1.
</event>
<event>
 8    1  0.3528896E-009  0.1244003E+03  0.7561462E-02  0.1236010E+00
          2   -1    0    0  501    0  0.00000000000E+00  0.00000000000E+00  0.65683509362E+02  0.65683509362E+02  0.00000000000E+00 0. -1.
         -2   -1    0    0    0  501 -0.00000000000E+00 -0.00000000000E+00 -0.44674692764E+03  0.44674692764E+03  0.00000000000E+00 0.  1.
         25    2    1    2    0    0 -0.40102954818E+02 -0.93891511558E+02 -0.77067281982E+02  0.17891727655E+03  0.12509261756E+03 0.  0.
         23    2    1    2    0    0  0.40102954818E+02  0.93891511558E+02 -0.30399613629E+03  0.33351316045E+03  0.91616125134E+02 0.  0.
          5    1    3    3  502    0  0.30702927659E+02 -0.13230879807E+02 -0.61852980346E+02  0.70434292251E+02  0.41800000000E+01 0. -1.
         -5    1    3    3    0  502 -0.70805882477E+02 -0.80660631751E+02 -0.15214301637E+02  0.10848298430E+03  0.41800000000E+01 0. -1.
        -11    1    4    4    0    0  0.20285644990E+02  0.82247129916E+02 -0.29793252881E+03  0.30974164959E+03  0.00000000000E+00 0.  1.
         11    1    4    4    0    0  0.19817309828E+02  0.11644381642E+02 -0.60636074870E+01  0.23771510857E+02  0.00000000000E+00 0. -1.
</event>
<event>
 8    1  0.3528896E-009  0.2174702E+03  0.7561462E-02  0.1135783E+00
          2   -1    0    0  501    0  0.00000000000E+00  0.00000000000E+00  0.13401519803E+04  0.13401519803E+04  0.00000000000E+00 0. -1.
         -2   -1    0    0    0  501 -0.00000000000E+00 -0.00000000000E+00 -0.55265965273E+02  0.55265965273E+02  0.00000000000E+00 0.  1.
         25    2    1    2    0    0  0.13971456204E+03  0.13864427768E+03  0.10327396581E+04  0.10587431321E+04  0.12507367396E+03 0.  0.
         23    2    1    2    0    0 -0.13971456204E+03 -0.13864427768E+03  0.25214635697E+03  0.33667481346E+03  0.10502261709E+03 0.  0.
          5    1    3    3  502    0  0.32370575394E+01  0.50532043791E+02  0.47797276559E+03  0.48066558337E+03  0.41800000000E+01 0. -1.
         -5    1    3    3    0  502  0.13647750450E+03  0.88112233885E+02  0.55476689247E+03  0.57807754876E+03  0.41800000000E+01 0. -1.
        -11    1    4    4    0    0 -0.13384725409E+03 -0.66881392567E+02  0.15157901873E+03  0.21298921808E+03  0.00000000000E+00 0.  1.
         11    1    4    4    0    0 -0.58673079503E+01 -0.71762885109E+02  0.10056733824E+03  0.12368559537E+03  0.00000000000E+00 0. -1.
</event>
<event>
 8    1  0.3528896E-009  0.9917647E+02  0.7561462E-02  0.1282037E+00
         -2   -1    0    0    0  501 -0.00000000000E+00  0.00000000000E+00  0.33533417088E+02  0.33533417088E+02  0.00000000000E+00 0.  1.
          2   -1    0    0  501    0  0.00000000000E+00 -0.00000000000E+00 -0.44194769498E+03  0.44194769498E+03  0.00000000000E+00 0. -1.
         25    2    1    2    0    0  0.31650109199E+02 -0.10665648350E+02 -0.14539177091E+03  0.19468155170E+03  0.12508658625E+03 0.  0.
         23    2    1    2    0    0 -0.31650109199E+02  0.10665648350E+02 -0.26302250699E+03  0.28079956037E+03  0.92477394288E+02 0.  0.
          5    1    3    3  502    0  0.35108836341E+02 -0.62956788662E+02 -0.10898595337E+03  0.13073483873E+03  0.41800000000E+01 0. -1.
         -5    1    3    3    0  502 -0.34587271415E+01  0.52291140312E+02 -0.36405817543E+02  0.63946712970E+02  0.41800000000E+01 0. -1.
        -11    1    4    4    0    0 -0.78673978451E+01  0.37153501241E+02 -0.22700132001E+03  0.23015620324E+03  0.00000000000E+00 0. -1.
         11    1    4    4    0    0 -0.23782711354E+02 -0.26487852891E+02 -0.36021186980E+02  0.50643357132E+02  0.00000000000E+00 0.  1.
</event>
<event>
 8    1  0.3528896E-009  0.9445411E+02  0.7561462E-02  0.1292410E+00
          1   -1    0    0  501    0  0.00000000000E+00  0.00000000000E+00  0.18793115533E+03  0.18793115533E+03  0.00000000000E+00 0. -1.
         -1   -1    0    0    0  501 -0.00000000000E+00 -0.00000000000E+00 -0.79202621427E+02  0.79202621427E+02  0.00000000000E+00 0.  1.
         25    2    1    2    0    0 -0.29302569031E+02 -0.49052208423E+02  0.86106533637E+02  0.16224852763E+03  0.12508193267E+03 0.  0.
         23    2    1    2    0    0  0.29302569031E+02  0.49052208423E+02  0.22622000264E+02  0.10488524913E+03  0.84996475723E+02 0.  0.
          5    1    3    3  502    0 -0.64676528145E+02 -0.51195769455E+02  0.16784135894E+02  0.84280719745E+02  0.41800000000E+01 0.  1.
         -5    1    3    3    0  502  0.35373959114E+02  0.21435610323E+01  0.69322397743E+02  0.77967807884E+02  0.41800000000E+01 0.  1.
        -11    1    4    4    0    0  0.14666548998E+02 -0.43191823263E+01 -0.26691327707E+02  0.30760201076E+02  0.00000000000E+00 0.  1.
         11    1    4    4    0    0  0.14636020033E+02  0.53371390749E+02  0.49313327971E+02  0.74125048050E+02  0.00000000000E+00 0. -1.
</event>
<event>
 8    1  0.3528896E-009  0.1512448E+03  0.7561462E-02  0.1198952E+00
          2   -1    0    0  501    0  0.00000000000E+00  0.00000000000E+00  0.98023555647E+03  0.98023555647E+03  0.00000000000E+00 0. -1.
         -2   -1    0    0    0  501 -0.00000000000E+00 -0.00000000000E+00 -0.29124267143E+02  0.29124267143E+02  0.00000000000E+00 0.  1.
         25    2    1    2    0    0  0.82220004531E+02 -0.96947252897E+02  0.45049232438E+03  0.48451005894E+03  0.12509102244E+03 0.  0.
         23    2    1    2    0    0 -0.82220004531E+02  0.96947252897E+02  0.50061896495E+03  0.52484976468E+03  0.93214958175E+02 0.  0.
          5    1    3    3  502    0  0.13597179463E+02  0.11804080542E+02  0.21807971452E+03  0.21886172323E+03  0.41800000000E+01 0. -1.
         -5    1    3    3    0  502  0.68622825068E+02 -0.10875133344E+03  0.23241260986E+03  0.26564833571E+03  0.41800000000E+01 0. -1.
        -11    1    4    4    0    0  0.17068825129E+02  0.33263986098E+02  0.16251584220E+03  0.16676101621E+03  0.00000000000E+00 0. -1.
         11    1    4    4    0    0 -0.99288829659E+02  0.63683266798E+02  0.33810312275E+03  0.35808874846E+03  0.00000000000E+00 0.  1.
</event>
<event>
 8    1  0.3528896E-009  0.1080378E+03  0.7561462E-02  0.1264247E+00
         -4   -1    0    0    0  501 -0.00000000000E+00  0.00000000000E+00  0.77126126773E+02  0.77126126773E+02  0.00000000000E+00 0.  1.
          4   -1    0    0  501    0  0.00000000000E+00 -0.00000000000E+00 -0.19453210945E+03  0.19453210945E+03  0.00000000000E+00 0. -1.
         25    2    1    2    0    0 -0.47314573907E+02  0.32984007638E+02 -0.64258343934E+02  0.15199749813E+03  0.12508993168E+03 0.  0.
         23    2    1    2    0    0  0.47314573907E+02 -0.32984007638E+02 -0.53147638748E+02  0.11966073810E+03  0.90373707871E+02 0.  0.
          5    1    3    3  502    0 -0.54725979803E+02 -0.25408359669E+02 -0.70234048613E+02  0.92686631135E+02  0.41800000000E+01 0.  1.
         -5    1    3    3    0  502  0.74114058965E+01  0.58392367307E+02  0.59757046791E+01  0.59310866993E+02  0.41800000000E+01 0.  1.
        -11    1    4    4    0    0 -0.16504113819E+02 -0.28089249938E+02  0.52717100543E+01  0.33002767489E+02  0.00000000000E+00 0.  1.
         11    1    4    4    0    0  0.63818687726E+02 -0.48947577000E+01 -0.58419348802E+02  0.86657970612E+02  0.00000000000E+00 0. -1.
</event>
<event>
 8    1  0.3528896E-009  0.1236461E+03  0.7561462E-02  0.1237200E+00
         -2   -1    0    0    0  501 -0.00000000000E+00  0.00000000000E+00  0.61146005031E+02  0.61146005031E+02  0.00000000000E+00 0.  1.
          2   -1    0    0  501    0  0.00000000000E+00 -0.00000000000E+00 -0.42788456464E+03  0.42788456464E+03  0.00000000000E+00 0. -1.
         25    2    1    2    0    0  0.10856278879E+02 -0.11745098950E+03 -0.17163272071E+03  0.24293814758E+03  0.12509420053E+03 0.  0.
         23    2    1    2    0    0 -0.10856278879E+02  0.11745098950E+03 -0.19510583889E+03  0.24609242208E+03  0.92642312742E+02 0.  0.
          5    1    3    3  502    0 -0.83384090172E+01 -0.68571301433E+02 -0.17694039189E+03  0.18999191332E+03  0.41800000000E+01 0.  1.
         -5    1    3    3    0  502  0.19194687897E+02 -0.48879688071E+02  0.53076711762E+01  0.52946234264E+02  0.41800000000E+01 0.  1.
        -11    1    4    4    0    0 -0.22848228231E+02  0.33155487872E+02 -0.87478028890E+01  0.41204999268E+02  0.00000000000E+00 0.  1.
         11    1    4    4    0    0  0.11991949352E+02  0.84295501633E+02 -0.18635803600E+03  0.20488742281E+03  0.00000000000E+00 0. -1.
</event>
<event>
 8    1  0.3528896E-009  0.1239539E+03  0.7561462E-02  0.1236713E+00
          2   -1    0    0  501    0  0.00000000000E+00  0.00000000000E+00  0.28478420687E+03  0.28478420687E+03  0.00000000000E+00 0. -1.
         -2   -1    0    0    0  501 -0.00000000000E+00 -0.00000000000E+00 -0.73803907870E+02  0.73803907870E+02  0.00000000000E+00 0.  1.
         25    2    1    2    0    0  0.57530235209E+02  0.42146493289E+02  0.19339434567E+03  0.24111243436E+03  0.12509107965E+03 0.  0.
         23    2    1    2    0    0 -0.57530235209E+02 -0.42146493289E+02  0.17585953331E+02  0.11747568038E+03  0.91679958913E+02 0.  0.
          5    1    3    3  502    0  0.61085324629E+01  0.75145890185E+02  0.14335855145E+03  0.16202890376E+03  0.41800000000E+01 0. -1.
         -5    1    3    3    0  502  0.51421702746E+02 -0.32999396896E+02  0.50035794217E+02  0.79083530597E+02  0.41800000000E+01 0. -1.
        -11    1    4    4    0    0 -0.49277897152E+02 -0.68022325494E+02 -0.19513025314E+01  0.84018780608E+02  0.00000000000E+00 0.  1.
         11    1    4    4    0    0 -0.82523380571E+01  0.25875832204E+02  0.19537255862E+02  0.33456899771E+02  0.00000000000E+00 0. -1.
</event>
<event>
 7    1  0.3528896E-009  0.7566684E+02  0.7561462E-02  0.1341818E+00
          1   -1    0    0  501    0  0.00000000000E+00  0.00000000000E+00  0.15894495068E+03  0.15894495068E+03  0.00000000000E+00 0. -1.
         -1   -1    0    0    0  501 -0.00000000000E+00 -0.00000000000E+00 -0.10388492845E+03  0.10388492845E+03  0.00000000000E+00 0.  1.
         23    2    1    2    0    0 -0.18012587761E+02  0.43112096777E+02  0.76182648852E+02  0.12782479343E+03  0.91390785226E+02 0.  0.
          5    1    1    2  502    0  0.22130896652E+01 -0.30004364386E+02 -0.72994537265E+02  0.79062219287E+02  0.41800000000E+01 0. -1.
         -5    1    1    2    0  502  0.15799498096E+02 -0.13107732391E+02  0.51871910643E+02  0.55942866411E+02  0.41800000000E+01 0. -1.
        -11    1    3    3    0    0 -0.52201337553E+01  0.70020187246E+02  0.65928776804E+02  0.96315523304E+02  0.00000000000E+00 0.  1.
         11    1    3    3    0    0 -0.12792454006E+02 -0.26908090470E+02  0.10253872048E+02  0.31509270131E+02  0.00000000000E+00 0. -1.
</event>
<event>
 8    1  0.3528896E-009  0.1012853E+03  0.7561462E-02  0.1277616E+00
         -2   -1    0    0    0  501 -0.00000000000E+00  0.00000000000E+00  0.14026085021E+03  0.14026085021E+03  0.00000000000E+00 0.  1.
          2   -1    0    0  501    0  0.00000000000E+00 -0.00000000000E+00 -0.10887872353E+03  0.10887872353E+03  0.00000000000E+00 0. -1.
         25    2    1    2    0    0  0.53315699557E+02  0.24860250642E+01  0.41323194425E+02  0.14215616992E+03  0.12510805773E+03 0.  0.
         23    2    1    2    0    0 -0.53315699557E+02 -0.24860250642E+01 -0.99410677465E+01  0.10698340383E+03  0.92183945062E+02 0.  0.
          5    1    3    3  502    0  0.50147146821E+02 -0.56579784930E+02  0.14599578393E+02  0.77114385728E+02  0.41800000000E+01 0.  1.
         -5    1    3    3    0  502  0.31685527359E+01  0.59065809994E+02  0.26723616032E+02  0.65041784189E+02  0.41800000000E+01 0.  1.
        -11    1    4    4    0    0  0.11346471286E+01 -0.12191330610E+02  0.34132423898E+02  0.36262078364E+02  0.00000000000E+00 0.  1.
         11    1    4    4    0    0 -0.54450346686E+02  0.97053055460E+01 -0.44073491644E+02  0.70721325466E+02  0.00000000000E+00 0. -1.
</event>
<event>
 8    1  0.3528896E-009  0.1243985E+03  0.7561462E-02  0.1236012E+00
          1   -1    0    0  501    0  0.00000000000E+00  0.00000000000E+00  0.30622244439E+03  0.30622244439E+03  0.00000000000E+00 0. -1.
         -1   -1    0    0    0  501 -0.00000000000E+00 -0.00000000000E+00 -0.70774045506E+02  0.70774045506E+02  0.00000000000E+00 0.  1.
         25    2    1    2    0    0 -0.26000937345E+02 -0.88387295578E+02  0.17604473011E+03  0.23479270208E+03  0.12508998037E+03 0.  0.
         23    2    1    2    0    0  0.26000937345E+02  0.88387295578E+02  0.59403668769E+02  0.14220378781E+03  0.90580122776E+02 0.  0.
          5    1    3    3  502    0 -0.13983928472E+02 -0.11783721882E+03  0.11230604629E+03  0.16343586151E+03  0.41800000000E+01 0. -1.
         -5    1    3    3    0  502 -0.12017008873E+02  0.29449923239E+02  0.63738683826E+02  0.71356840576E+02  0.41800000000E+01 0. -1.
        -11    1    4    4    0    0  0.34113411335E+02  0.69413456215E+02  0.81233607759E+02  0.11216439616E+03  0.00000000000E+00 0. -1.
         11    1    4    4    0    0 -0.81124739894E+01  0.18973839363E+02 -0.21829938990E+02  0.30039391650E+02  0.00000000000E+00 0.  1.
</event>
<event>
 8    1  0.3528896E-009  0.7089275E+02  0.7561462E-02  0.1357083E+00
          3   -1    0    0  501    0  0.00000000000E+00  0.00000000000E+00  0.16264753325E+03  0.16264753325E+03  0.00000000000E+00 0. -1.
         -3   -1    0    0    0  501 -0.00000000000E+00 -0.00000000000E+00 -0.90042362993E+02  0.90042362993E+02  0.00000000000E+00 0.  1.
         25    2    1    2    0    0 -0.59834361724E+01  0.35075390191E+02 -0.42709540658E+01  0.13012186100E+03  0.12508946061E+03 0.  0.
         23    2    1    2    0    0  0.59834361724E+01 -0.35075390191E+02  0.76876124324E+02  0.12256803524E+03  0.88582731195E+02 0.  0.
          5    1    3    3  502    0 -0.46380505488E+02  0.12312447095E+02  0.42420642926E+02  0.64185130592E+02  0.41800000000E+01 0.  1.
         -5    1    3    3    0  502  0.40397069316E+02  0.22762943096E+02 -0.46691596992E+02  0.65936730412E+02  0.41800000000E+01 0.  1.
        -11    1    4    4    0    0 -0.91160831826E+01 -0.29642725822E+02  0.94069315226E+02  0.99049635203E+02  0.00000000000E+00 0. -1.
         11    1    4    4    0    0  0.15099519355E+02 -0.54326643694E+01 -0.17193190902E+02  0.23518400037E+02  0.00000000000E+00 0.  1.
</event>
<event>
 8    1  0.3528896E-009  0.1200374E+03  0.7561462E-02  0.1243035E+00
         -2   -1    0    0    0  501 -0.00000000000E+00  0.00000000000E+00  0.71832881147E+02  0.71832881147E+02  0.00000000000E+00 0.  1.
          2   -1    0    0  501    0  0.00000000000E+00 -0.00000000000E+00 -0.28268739969E+03  0.28268739969E+03  0.00000000000E+00 0. -1.
         25    2    1    2    0    0  0.28439907030E+00  0.89553688929E+02 -0.10852532191E+03  0.18826894345E+03  0.12508998957E+03 0.  0.
         23    2    1    2    0    0 -0.28439907030E+00 -0.89553688929E+02 -0.10232919664E+03  0.16625133739E+03  0.95646738653E+02 0.  0.
          5    1    3    3  502    0  0.55772450585E+02  0.69316215059E+02 -0.89024959336E+02  0.12592942348E+03  0.41800000000E+01 0.  1.
         -5    1    3    3    0  502 -0.55488051515E+02  0.20237473871E+02 -0.19500362573E+02  0.62339519970E+02  0.41800000000E+01 0.  1.
        -11    1    4    4    0    0  0.97406325427E+01 -0.34989736090E+02  0.12753817897E+02  0.38494433688E+02  0.00000000000E+00 0.  1.
         11    1    4    4    0    0 -0.10025031613E+02 -0.54563952839E+02 -0.11508301454E+03  0.12775690370E+03  0.00000000000E+00 0. -1.
</event>
<event>
 8    1  0.3528896E-009  0.1814906E+03  0.7561462E-02  0.1166368E+00
          3   -1    0    0  501    0  0.00000000000E+00  0.00000000000E+00  0.97718830573E+02  0.97718830573E+02  0.00000000000E+00 0. -1.
         -3   -1    0    0    0  501 -0.00000000000E+00 -0.00000000000E+00 -0.42968946941E+03  0.42968946941E+03  0.00000000000E+00 0.  1.
         25    2    1    2    0    0 -0.96315059455E+02  0.13899825542E+03 -0.21941917942E+03  0.30395739583E+03  0.12509283150E+03 0.  0.
         23    2    1    2    0    0  0.96315059455E+02 -0.13899825542E+03 -0.11255145942E+03  0.22345090415E+03  0.93087968408E+02 0.  0.
          5    1    3    3  502    0 -0.10783071681E+03  0.12697161979E+03 -0.22982895400E+03  0.28388039069E+03  0.41800000000E+01 0.  1.
         -5    1    3    3    0  502  0.11515657355E+02  0.12026635629E+02  0.10409774574E+02  0.20077005144E+02  0.41800000000E+01 0.  1.
        -11    1    4    4    0    0  0.65145166333E+02 -0.13205026984E+03 -0.12081256612E+03  0.19046480671E+03  0.00000000000E+00 0.  1.
         11    1    4    4    0    0  0.31169893123E+02 -0.69479855809E+01  0.82611067016E+01  0.32986097448E+02  0.00000000000E+00 0. -1.
</event>
<event>
 8    1  0.3528896E-009  0.1151510E+03  0.7561462E-02  0.1251318E+00
         -4   -1    0    0    0  501 -0.00000000000E+00  0.00000000000E+00  0.92060321169E+02  0.92060321169E+02  0.00000000000E+00 0.  1.
          4   -1    0    0  501    0  0.00000000000E+00 -0.00000000000E+00 -0.20109282254E+03  0.20109282254E+03  0.00000000000E+00 0. -1.
         25    2    1    2    0    0 -0.68848405904E+02  0.10312969841E+02 -0.10245055230E+03  0.17603959860E+03  0.12508942507E+03 0.  0.
         23    2    1    2    0    0  0.68848405904E+02 -0.10312969841E+02 -0.65819490694E+01  0.11711354511E+03  0.93945729293E+02 0.  0.
          5    1    3    3  502    0 -0.53849386746E+02 -0.39993493576E+02 -0.10345624892E+03  0.12336897431E+03  0.41800000000E+01 0. -1.
         -5    1    3    3    0  502 -0.14999019158E+02  0.50306463418E+02  0.10056966190E+01  0.52670624289E+02  0.41800000000E+01 0. -1.
        -11    1    4    4    0    0  0.69574102964E+01 -0.40837163788E+02  0.16142166284E+02  0.44459521327E+02  0.00000000000E+00 0.  1.
         11    1    4    4    0    0  0.61890995608E+02  0.30524193946E+02 -0.22724115354E+02  0.72654023784E+02  0.00000000000E+00 0. -1.
</event>
<event>
 8    1  0.3528896E-009  0.2653924E+03  0.7561462E-02  0.1103946E+00
         -3   -1    0    0    0  501 -0.00000000000E+00  0.00000000000E+00  0.17990096276E+04  0.17990096276E+04  0.00000000000E+00 0.  1.
          3   -1    0    0  501    0  0.00000000000E+00 -0.00000000000E+00 -0.42622675657E+02  0.42622675657E+02  0.00000000000E+00 0. -1.
         25    2    1    2    0    0  0.61885991202E+02 -0.24216993484E+03  0.73653157965E+03  0.78778374797E+03  0.12509321522E+03 0.  0.
         23    2    1    2    0    0 -0.61885991202E+02  0.24216993484E+03  0.10198553723E+04  0.10538485553E+04  0.89530128091E+02 0.  0.
          5    1    3    3  502    0 -0.21380571668E+02 -0.19711038908E+02  0.28391228844E+02  0.40855699418E+02  0.41800000000E+01 0.  1.
         -5    1    3    3    0  502  0.83266562870E+02 -0.22245889594E+03  0.70814035080E+03  0.74692804855E+03  0.41800000000E+01 0.  1.
        -11    1    4    4    0    0  0.98616533457E+01  0.13197776089E+03  0.45262822356E+03  0.47157999358E+03  0.00000000000E+00 0.  1.
         11    1    4    4    0    0 -0.71747644548E+02  0.11019217395E+03  0.56722714874E+03  0.58226856172E+03  0.00000000000E+00 0. -1.
</event>
<event>
 8    1  0.3528896E-009  0.1380208E+03  0.7561462E-02  0.1216017E+00
          2   -1    0    0  501    0  0.00000000000E+00  0.00000000000E+00  0.10712004165E+04  0.10712004165E+04  0.00000000000E+00 0. -1.
         -2   -1    0    0    0  501 -0.00000000000E+00 -0.00000000000E+00 -0.20909312884E+02  0.20909312884E+02  0.00000000000E+00 0.  1.
         25    2    1    2    0    0  0.18839933059E+02  0.93766369763E+02  0.74628721891E+03  0.76271837738E+03  0.12509050690E+03 0.  0.
         23    2    1    2    0    0 -0.18839933059E+02 -0.93766369763E+02  0.30400388471E+03  0.32939135200E+03  0.83265993535E+02 0.  0.
          5    1    3    3  502    0 -0.35210361181E+02  0.94533040303E+02  0.54409161295E+03  0.55337999686E+03  0.41800000000E+01 0.  1.
         -5    1    3    3    0  502  0.54050294240E+02 -0.76667053910E+00  0.20219560596E+03  0.20933838052E+03  0.41800000000E+01 0.  1.
        -11    1    4    4    0    0 -0.46892197107E+02 -0.47450037559E+02  0.21595623912E+03  0.22602539996E+03  0.00000000000E+00 0. -1.
         11    1    4    4    0    0  0.28052264048E+02 -0.46316332204E+02  0.88047645591E+02  0.10336595204E+03  0.00000000000E+00 0.  1.
</event>
<event>
 8    1  0.3528896E-009  0.2076669E+03  0.7561462E-02  0.1143427E+00
          3   -1    0    0  501    0  0.00000000000E+00  0.00000000000E+00  0.13856816145E+03  0.13856816145E+03  0.00000000000E+00 0. -1.
         -3   -1    0    0    0  501 -0.00000000000E+00 -0.00000000000E+00 -0.35491794079E+03  0.35491794079E+03  0.00000000000E+00 0.  1.
         25    2    1    2    0    0  0.17563141471E+03 -0.65778981121E+02 -0.61004655702E+02  0.23354327078E+03  0.12509045974E+03 0.  0.
         23    2    1    2    0    0 -0.17563141471E+03  0.65778981121E+02 -0.15534512364E+03  0.25994283146E+03  0.90911495421E+02 0.  0.
          5    1    3    3  502    0 -0.13687336750E+02 -0.29265380910E+02 -0.82942155633E+01  0.33616545315E+02  0.41800000000E+01 0.  1.
         -5    1    3    3    0  502  0.18931875146E+03 -0.36513600211E+02 -0.52710440139E+02  0.19992672546E+03  0.41800000000E+01 0.  1.
        -11    1    4    4    0    0 -0.90557845549E+02  0.49781712522E+02 -0.13674838228E+03  0.17140321569E+03  0.00000000000E+00 0.  1.
         11    1    4    4    0    0 -0.85073569160E+02  0.15997268599E+02 -0.18596741362E+02  0.88539615774E+02  0.00000000000E+00 0. -1.
</event>
<event>
 8    1  0.3528896E-009  0.1381635E+03  0.7561462E-02  0.1215822E+00
          2   -1    0    0  501    0  0.00000000000E+00  0.00000000000E+00  0.14225913827E+03  0.14225913827E+03  0.00000000000E+00 0. -1.
         -2   -1    0    0    0  501 -0.00000000000E+00 -0.00000000000E+00 -0.15174170718E+03  0.15174170718E+03  0.00000000000E+00 0.  1.
         25    2    1    2    0    0 -0.10788033621E+02 -0.97833483568E+02 -0.19185727962E+02  0.16032150477E+03  0.12508845094E+03 0.  0.
         23    2    1    2    0    0  0.10788033621E+02  0.97833483568E+02  0.97031590491E+01  0.13367934068E+03  0.89934657681E+02 0.  0.
          5    1    3    3  502    0 -0.14165456442E+02  0.27702767609E+02 -0.14505830192E+02  0.34583160627E+02  0.41800000000E+01 0.  1.
         -5    1    3    3    0  502  0.33774228211E+01 -0.12553625118E+03 -0.46798977706E+01  0.12573834414E+03  0.41800000000E+01 0.  1.
        -11    1    4    4    0    0 -0.21774598125E+02  0.71326098296E+01 -0.22459665843E+02  0.32084947191E+02  0.00000000000E+00 0.  1.
         11    1    4    4    0    0  0.32562631746E+02  0.90700873739E+02  0.32162824892E+02  0.10159439349E+03  0.00000000000E+00 0. -1.
</event>
<event>
 8    1  0.3528896E-009  0.1410638E+03  0.7561462E-02  0.1211905E+00
          3   -1    0    0  501    0  0.00000000000E+00  0.00000000000E+00  0.33912686557E+03  0.33912686557E+03  0.00000000000E+00 0. -1.
         -3   -1    0    0    0  501 -0.00000000000E+00 -0.00000000000E+00 -0.95123237660E+02  0.95123237660E+02  0.00000000000E+00 0.  1.
         25    2    1    2    0    0 -0.13947664509E+01 -0.13939768413E+03  0.89053208177E+02  0.20739300346E+03  0.12509086410E+03 0.  0.
         23    2    1    2    0    0  0.13947664509E+01  0.13939768413E+03  0.15495041974E+03  0.22685709978E+03  0.89559206276E+02 0.  0.
          5    1    3    3  502    0 -0.47751247735E+01 -0.36005517360E+02 -0.31659707258E+02  0.48363297661E+02  0.41800000000E+01 0.  1.
         -5    1    3    3    0  502  0.33803583226E+01 -0.10339216677E+03  0.12071291543E+03  0.15902970579E+03  0.41800000000E+01 0.  1.
        -11    1    4    4    0    0  0.13776808498E+02  0.53292760616E+02  0.73555777045E+01  0.55533983378E+02  0.00000000000E+00 0.  1.
         11    1    4    4    0    0 -0.12382042047E+02  0.86104923517E+02  0.14759484203E+03  0.17132311640E+03  0.00000000000E+00 0. -1.
</event>
<event>
 8    1  0.3528896E-009  0.9705173E+02  0.7561462E-02  0.1286621E+00
         -2   -1    0    0    0  501 -0.00000000000E+00  0.00000000000E+00  0.16721375611E+02  0.16721375611E+02  0.00000000000E+00 0.  1.
          2   -1    0    0  501    0  0.00000000000E+00 -0.00000000000E+00 -0.77644305995E+03  0.77644305995E+03  0.00000000000E+00 0. -1.
         25    2    1    2    0    0  0.11597308263E+02  0.32505134645E+02 -0.42796686734E+03  0.44720772620E+03  0.12509208405E+03 0.  0.
         23    2    1    2    0    0 -0.11597308263E+02 -0.32505134645E+02 -0.33175481700E+03  0.34595670936E+03  0.91835204656E+02 0.  0.
          5    1    3    3  502    0 -0.11141642706E+02 -0.28958913390E+02 -0.31491259760E+03  0.31646511877E+03  0.41800000000E+01 0.  1.
         -5    1    3    3    0  502  0.22738950969E+02  0.61464048036E+02 -0.11305426974E+03  0.13074260743E+03  0.41800000000E+01 0.  1.
        -11    1    4    4    0    0  0.14923641048E+02  0.27629967099E+02 -0.13127099958E+03  0.13497483274E+03  0.00000000000E+00 0. -1.
         11    1    4    4    0    0 -0.26520949311E+02 -0.60135101745E+02 -0.20048381742E+03  0.21098187662E+03  0.00000000000E+00 0.  1.
</event>
<event>
 8    1  0.3528896E-009  0.1114796E+03  0.7561462E-02  0.1257854E+00
          2   -1    0    0  501    0  0.00000000000E+00  0.00000000000E+00  0.58839746744E+03  0.58839746744E+03  0.00000000000E+00 0.  1.
         -2   -1    0    0    0  501 -0.00000000000E+00 -0.00000000000E+00 -0.47194809685E+02  0.47194809685E+02  0.00000000000E+00 0. -1.
         25    2    1    2    0    0 -0.27509189503E+02  0.93354048175E+02  0.44162635831E+03  0.46920530728E+03  0.12509215088E+03 0.  0.
         23    2    1    2    0    0  0.27509189503E+02 -0.93354048175E+02  0.99576299450E+02  0.16638696984E+03  0.91090342540E+02 0.  0.
          5    1    3    3  502    0 -0.10103421408E+02  0.71818935473E+02  0.86424585309E+02  0.11290137272E+03  0.41800000000E+01 0.  1.
         -5    1    3    3    0  502 -0.17405768095E+02  0.21535112703E+02  0.35520177300E+03  0.35630393456E+03  0.41800000000E+01 0.  1.
        -11    1    4    4    0    0 -0.20927502258E+02 -0.59878901850E+02  0.84409882245E+02  0.10558632231E+03  0.00000000000E+00 0.  1.
         11    1    4    4    0    0  0.48436691761E+02 -0.33475146325E+02  0.15166417205E+02  0.60800647539E+02  0.00000000000E+00 0. -1.
</event>
<event>
 8    1  0.3528896E-009  0.7597078E+02  0.7561462E-02  0.1340891E+00
         -2   -1    0    0    0  501 -0.00000000000E+00  0.00000000000E+00  0.60829962436E+02  0.60829962436E+02  0.00000000000E+00 0.  1.
          2   -1    0    0  501    0  0.00000000000E+00 -0.00000000000E+00 -0.26572492342E+03  0.26572492342E+03  0.00000000000E+00 0. -1.
         25    2    1    2    0    0  0.15252548542E+02  0.44531817381E+02 -0.17477458711E+03  0.22005334734E+03  0.12514629990E+03 0.  0.
         23    2    1    2    0    0 -0.15252548542E+02 -0.44531817381E+02 -0.30120373877E+02  0.10650153852E+03  0.90662107790E+02 0.  0.
          5    1    3    3  502    0  0.16472784986E+02  0.24244221801E+02  0.12133276420E+02  0.31997245704E+02  0.41800000000E+01 0. -1.
         -5    1    3    3    0  502 -0.12202364446E+01  0.20287595580E+02 -0.18690786353E+03  0.18805610163E+03  0.41800000000E+01 0. -1.
        -11    1    4    4    0    0 -0.72517008329E+01  0.27841357502E+02 -0.13668005195E+02  0.31851887205E+02  0.00000000000E+00 0. -1.
         11    1    4    4    0    0 -0.80008477089E+01 -0.72373174883E+02 -0.16452368682E+02  0.74649651318E+02  0.00000000000E+00 0.  1.
</event>
<event>
 8    1  0.3528896E-009  0.1318355E+03  0.7561462E-02  0.1224757E+00
         -1   -1    0    0    0  501 -0.00000000000E+00  0.00000000000E+00  0.29919594866E+02  0.29919594866E+02  0.00000000000E+00 0.  1.
          1   -1    0    0  501    0  0.00000000000E+00 -0.00000000000E+00 -0.59546130930E+03  0.59546130930E+03  0.00000000000E+00 0. -1.
         25    2    1    2    0    0  0.76759638336E+02 -0.38127739100E+01 -0.29769989996E+03  0.33193188800E+03  0.12508784319E+03 0.  0.
         23    2    1    2    0    0 -0.76759638336E+02  0.38127739100E+01 -0.26784181447E+03  0.29344901616E+03  0.92013630426E+02 0.  0.
          5    1    3    3  502    0  0.61640357837E+02 -0.61378102875E+02 -0.17201403851E+03  0.19280328595E+03  0.41800000000E+01 0.  1.
         -5    1    3    3    0  502  0.15119280499E+02  0.57565328965E+02 -0.12568586145E+03  0.13912860205E+03  0.41800000000E+01 0.  1.
        -11    1    4    4    0    0 -0.67593269854E+02  0.40706003476E+02 -0.20897026826E+03  0.22337054834E+03  0.00000000000E+00 0. -1.
         11    1    4    4    0    0 -0.91663684827E+01 -0.36893229566E+02 -0.58871546210E+02  0.70078467821E+02  0.00000000000E+00 0.  1.
</event>
<event>
 8    1  0.3528896E-009  0.1951351E+03  0.7561462E-02  0.1153910E+00
         -1   -1    0    0    0  501 -0.00000000000E+00  0.00000000000E+00  0.60632229959E+02  0.60632229959E+02  0.00000000000E+00 0.  1.
          1   -1    0    0  501    0  0.00000000000E+00 -0.00000000000E+00 -0.87492690334E+03  0.87492690334E+03  0.00000000000E+00 0. -1.
         25    2    1    2    0    0 -0.18328577743E+03 -0.48231434658E+02 -0.57050362395E+03  0.61403385638E+03  0.12507295608E+03 0.  0.
         23    2    1    2    0    0  0.18328577743E+03  0.48231434658E+02 -0.24379104942E+03  0.32152527691E+03  0.89579464275E+02 0.  0.
          5    1    3    3  502    0 -0.25228674648E+02 -0.10941447633E+02 -0.27848651381E+03  0.27987213522E+03  0.41800000000E+01 0. -1.
         -5    1    3    3    0  502 -0.15805710278E+03 -0.37289987025E+02 -0.29201711015E+03  0.33416172116E+03  0.41800000000E+01 0. -1.
        -11    1    4    4    0    0  0.11786341311E+03 -0.14247738862E+01 -0.18917016765E+03  0.22288823759E+03  0.00000000000E+00 0. -1.
         11    1    4    4    0    0  0.65422364316E+02  0.49656208544E+02 -0.54620881778E+02  0.98637039320E+02  0.00000000000E+00 0.  1.
</event>
<event>
 8    1  0.3528896E-009  0.9995787E+02  0.7561462E-02  0.1280385E+00
         -2   -1    0    0    0  501 -0.00000000000E+00  0.00000000000E+00  0.52360975392E+02  0.52360975392E+02  0.00000000000E+00 0. -1.
          2   -1    0    0  501    0  0.00000000000E+00 -0.00000000000E+00 -0.22819512276E+03  0.22819512276E+03  0.00000000000E+00 0.  1.
         25    2    1    2    0    0  0.12894821066E+02  0.10494127124E+02 -0.10657831119E+03  0.16517334123E+03  0.12508754184E+03 0.  0.
         23    2    1    2    0    0 -0.12894821066E+02 -0.10494127124E+02 -0.69255836179E+02  0.11538275692E+03  0.90776685523E+02 0.  0.
          5    1    3    3  502    0  0.53116663586E+02 -0.34823306760E+02 -0.40609097233E+02  0.75502409381E+02  0.41800000000E+01 0.  1.
         -5    1    3    3    0  502 -0.40221842521E+02  0.45317433883E+02 -0.65969213953E+02  0.89670931852E+02  0.41800000000E+01 0.  1.
        -11    1    4    4    0    0  0.10636647551E+02  0.28256244835E+02 -0.62680209114E+02  0.69572712020E+02  0.00000000000E+00 0.  1.
         11    1    4    4    0    0 -0.23531468617E+02 -0.38750371958E+02 -0.65756270653E+01  0.45810044897E+02  0.00000000000E+00 0. -1.
</event>
<event>
 8    1  0.3528896E-009  0.9239889E+02  0.7561462E-02  0.1297144E+00
          1   -1    0    0  501    0  0.00000000000E+00  0.00000000000E+00  0.25360567108E+02  0.25360567108E+02  0.00000000000E+00 0. -1.
         -1   -1    0    0    0  501 -0.00000000000E+00 -0.00000000000E+00 -0.56769604914E+03  0.56769604914E+03  0.00000000000E+00 0.  1.
         25    2    1    2    0    0 -0.20984717758E+02 -0.32200726432E+02 -0.39391754781E+03  0.41508554162E+03  0.12509087589E+03 0.  0.
         23    2    1    2    0    0  0.20984717758E+02  0.32200726432E+02 -0.14841793423E+03  0.17797107463E+03  0.90380169518E+02 0.  0.
          5    1    3    3  502    0 -0.65675727394E+02 -0.14442389117E+02 -0.12627590627E+03  0.14312568140E+03  0.41800000000E+01 0. -1.
         -5    1    3    3    0  502  0.44691009636E+02 -0.17758337315E+02 -0.26764164153E+03  0.27195986022E+03  0.41800000000E+01 0. -1.
        -11    1    4    4    0    0 -0.10203976251E+02  0.36288933650E+02 -0.14059023257E+03  0.14555624800E+03  0.00000000000E+00 0.  1.
         11    1    4    4    0    0  0.31188694009E+02 -0.40882072185E+01 -0.78277016553E+01  0.32414826630E+02  0.00000000000E+00 0. -1.
</event>
<event>
 8    1  0.3528896E-009  0.9068076E+02  0.7561462E-02  0.1301211E+00
         -3   -1    0    0    0  501 -0.00000000000E+00  0.00000000000E+00  0.20064221860E+03  0.20064221860E+03  0.00000000000E+00 0.  1.
          3   -1    0    0  501    0  0.00000000000E+00 -0.00000000000E+00 -0.67603304507E+02  0.67603304507E+02  0.00000000000E+00 0. -1.
         25    2    1    2    0    0 -0.20734724632E+02  0.26621629756E+02  0.10023150728E+03  0.16380675687E+03  0.12509060145E+03 0.  0.
         23    2    1    2    0    0  0.20734724632E+02 -0.26621629756E+02  0.32807406812E+02  0.10443876623E+03  0.93233523871E+02 0.  0.
          5    1    3    3  502    0  0.25213001966E+02 -0.29970457523E+02  0.78166918180E+02  0.87529785159E+02  0.41800000000E+01 0. -1.
         -5    1    3    3    0  502 -0.45947726598E+02  0.56592087278E+02  0.22064589098E+02  0.76276971715E+02  0.41800000000E+01 0. -1.
        -11    1    4    4    0    0  0.41227775141E+02 -0.96319068433E+01  0.55259987470E+02  0.69614433041E+02  0.00000000000E+00 0.  1.
         11    1    4    4    0    0 -0.20493050509E+02 -0.16989722912E+02 -0.22452580657E+02  0.34824333188E+02  0.00000000000E+00 0. -1.
</event>
<event>
 8    1  0.3528896E-009  0.1040280E+03  0.7561462E-02  0.1272047E+00
          2   -1    0    0  501    0  0.00000000000E+00  0.00000000000E+00  0.49601730755E+03  0.49601730755E+03  0.00000000000E+00 0. -1.
         -2   -1    0    0    0  501 -0.00000000000E+00 -0.00000000000E+00 -0.32930420921E+02  0.32930420921E+02  0.00000000000E+00 0.  1.
         25    2    1    2    0    0 -0.38300325590E+01  0.56864489007E+02  0.33107655401E+03  0.35848015316E+03  0.12509235122E+03 0.  0.
         23    2    1    2    0    0  0.38300325590E+01 -0.56864489007E+02  0.13201033261E+03  0.17046757531E+03  0.91565424998E+02 0.  0.
          5    1    3    3  502    0  0.49937439250E+02  0.29930785588E+02  0.25405105617E+03  0.26067031152E+03  0.41800000000E+01 0.  1.
         -5    1    3    3    0  502 -0.53767471809E+02  0.26933703419E+02  0.77025497841E+02  0.97809841643E+02  0.41800000000E+01 0.  1.
        -11    1    4    4    0    0 -0.10032762337E+01 -0.72772043065E+02  0.13519491458E+03  0.15353970739E+03  0.00000000000E+00 0.  1.
         11    1    4    4    0    0  0.48333087927E+01  0.15907554058E+02 -0.31845819713E+01  0.16927867920E+02  0.00000000000E+00 0. -1.
</event>
<event>
 8    1  0.3528896E-009  0.1303516E+03  0.7561462E-02  0.1226935E+00
         -1   -1    0    0    0  501 -0.00000000000E+00  0.00000000000E+00  0.38953961613E+02  0.38953961613E+02  0.00000000000E+00 0.  1.
          1   -1    0    0  501    0  0.00000000000E+00 -0.00000000000E+00 -0.52447513979E+03  0.52447513979E+03  0.00000000000E+00 0. -1.
         25    2    1    2    0    0 -0.81948927274E+01 -0.89638538714E+02 -0.21809941802E+03  0.26705139588E+03  0.12508744146E+03 0.  0.
         23    2    1    2    0    0  0.81948927274E+01  0.89638538714E+02 -0.26742176016E+03  0.29637770553E+03  0.90681434912E+02 0.  0.
          5    1    3    3  502    0 -0.29419357586E+02 -0.10332482039E+03 -0.21610970919E+03  0.24137604669E+03  0.41800000000E+01 0.  1.
         -5    1    3    3    0  502  0.21224464858E+02  0.13686281675E+02 -0.19897088263E+01  0.25675349186E+02  0.41800000000E+01 0.  1.
        -11    1    4    4    0    0 -0.41118439791E+02  0.46509757777E+02 -0.13794996825E+03  0.15127484060E+03  0.00000000000E+00 0. -1.
         11    1    4    4    0    0  0.49313332518E+02  0.43128780936E+02 -0.12947179191E+03  0.14510286493E+03  0.00000000000E+00 0.  1.
</event>
<event>
 8    1  0.3528896E-009  0.1057759E+03  0.7561462E-02  0.1268598E+00
         -1   -1    0    0    0  501 -0.00000000000E+00  0.00000000000E+00  0.28946641475E+03  0.28946641475E+03  0.00000000000E+00 0.  1.
          1   -1    0    0  501    0  0.00000000000E+00 -0.00000000000E+00 -0.61349949696E+02  0.61349949696E+02  0.00000000000E+00 0. -1.
         25    2    1    2    0    0  0.62809224807E+02  0.42876660986E+02  0.10582102051E+03  0.18063361849E+03  0.12508800490E+03 0.  0.
         23    2    1    2    0    0 -0.62809224807E+02 -0.42876660986E+02  0.12229544455E+03  0.17018274596E+03  0.90678467594E+02 0.  0.
          5    1    3    3  502    0  0.50679165617E+02  0.66677781846E+02  0.14128640582E+02  0.85037611116E+02  0.41800000000E+01 0. -1.
         -5    1    3    3    0  502  0.12130059190E+02 -0.23801120860E+02  0.91692379925E+02  0.95596007377E+02  0.41800000000E+01 0. -1.
        -11    1    4    4    0    0 -0.54596465192E+02  0.23927578851E+01  0.10957760497E+03  0.12244897228E+03  0.00000000000E+00 0.  1.
         11    1    4    4    0    0 -0.82127596155E+01 -0.45269418871E+02  0.12717839577E+02  0.47733773672E+02  0.00000000000E+00 0. -1.
</event>
<event>
 8    1  0.3528896E-009  0.8442641E+02  0.7561462E-02  0.1316939E+00
         -4   -1    0    0    0  501 -0.00000000000E+00  0.00000000000E+00  0.70635129376E+02  0.70635129376E+02  0.00000000000E+00 0.  1.
          4   -1    0    0  501    0  0.00000000000E+00 -0.00000000000E+00 -0.18575253600E+03  0.18575253600E+03  0.00000000000E+00 0. -1.
         25    2    1    2    0    0 -0.24670487801E+02 -0.25245194802E+02 -0.58652306968E+02  0.14259143704E+03  0.12508505896E+03 0.  0.
         23    2    1    2    0    0  0.24670487801E+02  0.25245194802E+02 -0.56465099653E+02  0.11379622834E+03  0.92278498448E+02 0.  0.
          5    1    3    3  502    0 -0.45639256651E+02  0.98824468348E+01  0.22205999940E+02  0.51876616471E+02  0.41800000000E+01 0.  1.
         -5    1    3    3    0  502  0.20968768851E+02 -0.35127641637E+02 -0.80858306908E+02  0.90714820565E+02  0.41800000000E+01 0.  1.
        -11    1    4    4    0    0  0.10340907040E+02 -0.25817142791E+02  0.92873520925E+01  0.29320882135E+02  0.00000000000E+00 0.  1.
         11    1    4    4    0    0  0.14329580760E+02  0.51062337593E+02 -0.65752451745E+02  0.84475346201E+02  0.00000000000E+00 0. -1.
</event>
<event>
 8    1  0.3528896E-009  0.1328546E+03  0.7561462E-02  0.1223280E+00
          3   -1    0    0  501    0  0.00000000000E+00  0.00000000000E+00  0.20659383410E+02  0.20659383410E+02  0.00000000000E+00 0. -1.
         -3   -1    0    0    0  501 -0.00000000000E+00 -0.00000000000E+00 -0.12445446019E+04  0.12445446019E+04  0.00000000000E+00 0.  1.
         25    2    1    2    0    0 -0.47515594111E+02 -0.10224783938E+03 -0.77022941473E+03  0.78842474383E+03  0.12509145862E+03 0.  0.
         23    2    1    2    0    0  0.47515594111E+02  0.10224783938E+03 -0.45365580378E+03  0.47677924151E+03  0.93821663199E+02 0.  0.
          5    1    3    3  502    0  0.12890093764E+02 -0.77805213881E+02 -0.61457715692E+03  0.61963082560E+03  0.41800000000E+01 0.  1.
         -5    1    3    3    0  502 -0.60405687875E+02 -0.24442625501E+02 -0.15565225781E+03  0.16879391823E+03  0.41800000000E+01 0.  1.
        -11    1    4    4    0    0  0.11108207184E+02 -0.17533266665E+01 -0.14462404074E+01  0.11338343466E+02  0.00000000000E+00 0. -1.
         11    1    4    4    0    0  0.36407386927E+02  0.10400116605E+03 -0.45220956338E+03  0.46544089804E+03  0.00000000000E+00 0.  1.
</event>
<event>
 8    1  0.3528896E-009  0.1672621E+03  0.7561462E-02  0.1180733E+00
         -1   -1    0    0    0  501 -0.00000000000E+00  0.00000000000E+00  0.54377415497E+02  0.54377415497E+02  0.00000000000E+00 0.  1.
          1   -1    0    0  501    0  0.00000000000E+00 -0.00000000000E+00 -0.61526179832E+03  0.61526179832E+03  0.00000000000E+00 0. -1.
         25    2    1    2    0    0 -0.16301546415E+02 -0.13617258310E+03 -0.19800753742E+03  0.27141409230E+03  0.12509960759E+03 0.  0.
         23    2    1    2    0    0  0.16301546415E+02  0.13617258310E+03 -0.36287684540E+03  0.39822512152E+03  0.89971827136E+02 0.  0.
          5    1    3    3  502    0  0.44332168836E+02 -0.78124913357E+02 -0.54623962017E+02  0.10521450901E+03  0.41800000000E+01 0.  1.
         -5    1    3    3    0  502 -0.60633715251E+02 -0.58047669741E+02 -0.14338357540E+03  0.16619958328E+03  0.41800000000E+01 0.  1.
        -11    1    4    4    0    0  0.36036223104E+02  0.13613230164E+03 -0.28507909169E+03  0.31796336494E+03  0.00000000000E+00 0. -1.
         11    1    4    4    0    0 -0.19734676689E+02  0.40281455811E-01 -0.77797753711E+02  0.80261756579E+02  0.00000000000E+00 0.  1.
</event>
<event>
 8    1  0.3528896E-009  0.1105889E+03  0.7561462E-02  0.1259483E+00
          1   -1    0    0  501    0  0.00000000000E+00  0.00000000000E+00  0.13028965688E+04  0.13028965688E+04  0.00000000000E+00 0. -1.
         -1   -1    0    0    0  501 -0.00000000000E+00 -0.00000000000E+00 -0.14876397063E+02  0.14876397063E+02  0.00000000000E+00 0.  1.
         25    2    1    2    0    0  0.40512784580E+02  0.81562523899E+01  0.10915574170E+04  0.10994784989E+04  0.12509022646E+03 0.  0.
         23    2    1    2    0    0 -0.40512784580E+02 -0.81562523899E+01  0.19646275482E+03  0.21829446705E+03  0.85714935375E+02 0.  0.
          5    1    3    3  502    0  0.19238808511E+01  0.60642865273E+02  0.68716519210E+03  0.68985123908E+03  0.41800000000E+01 0. -1.
         -5    1    3    3    0  502  0.38588903729E+02 -0.52486612884E+02  0.40439222485E+03  0.40962725977E+03  0.41800000000E+01 0. -1.
        -11    1    4    4    0    0 -0.58556546218E+02  0.19794741291E+02  0.13183532761E+03  0.14560650567E+03  0.00000000000E+00 0.  1.
         11    1    4    4    0    0  0.18043761639E+02 -0.27950993681E+02  0.64627427209E+02  0.72687961379E+02  0.00000000000E+00 0. -1.
</event>
<event>
 8    1  0.3528896E-009  0.1063958E+03  0.7561462E-02  0.1267394E+00
          2   -1    0    0  501    0  0.00000000000E+00  0.00000000000E+00  0.18702613780E+03  0.18702613780E+03  0.00000000000E+00 0. -1.
         -2   -1    0    0    0  501 -0.00000000000E+00 -0.00000000000E+00 -0.11375266442E+03  0.11375266442E+03  0.00000000000E+00 0.  1.
         25    2    1    2    0    0  0.31223668889E+01  0.38437211051E+02 -0.52447946028E+02  0.14101547937E+03  0.12508960793E+03 0.  0.
         23    2    1    2    0    0 -0.31223668889E+01 -0.38437211051E+02  0.12572141942E+03  0.15976332285E+03  0.90726377967E+02 0.  0.
          5    1    3    3  502    0 -0.48002168711E+02  0.54217493818E+02 -0.11344776037E+02  0.73416082572E+02  0.41800000000E+01 0.  1.
         -5    1    3    3    0  502  0.51124535600E+02 -0.15780282767E+02 -0.41103169991E+02  0.67599396801E+02  0.41800000000E+01 0.  1.
        -11    1    4    4    0    0  0.18043249415E+02 -0.56157909527E+02  0.44238085811E+02  0.73731118858E+02  0.00000000000E+00 0. -1.
         11    1    4    4    0    0 -0.21165616304E+02  0.17720698475E+02  0.81483333604E+02  0.86032203989E+02  0.00000000000E+00 0.  1.
</event>
<event>
 8    1  0.3528896E-009  0.1234408E+03  0.7561462E-02  0.1237526E+00
         -1   -1    0    0    0  501 -0.00000000000E+00  0.00000000000E+00  0.59643034985E+02  0.59643034985E+02  0.00000000000E+00 0.  1.
          1   -1    0    0  501    0  0.00000000000E+00 -0.00000000000E+00 -0.78777589161E+03  0.78777589161E+03  0.00000000000E+00 0. -1.
         25    2    1    2    0    0  0.32647682794E+02  0.88423286308E+02 -0.69427555189E+03  0.71172369804E+03  0.12509009412E+03 0.  0.
         23    2    1    2    0    0 -0.32647682794E+02 -0.88423286308E+02 -0.33857304736E+02  0.13569522855E+03  0.91555061112E+02 0.  0.
          5    1    3    3  502    0  0.12747134607E+02 -0.25549932641E+02 -0.28288663604E+03  0.28435472520E+03  0.41800000000E+01 0. -1.
         -5    1    3    3    0  502  0.19900548187E+02  0.11397321895E+03 -0.41138891586E+03  0.42736897284E+03  0.41800000000E+01 0. -1.
        -11    1    4    4    0    0 -0.12786037817E+02 -0.79422373033E+02  0.15328530730E+02  0.81892368116E+02  0.00000000000E+00 0.  1.
         11    1    4    4    0    0 -0.19861644977E+02 -0.90009132750E+01 -0.49185835466E+02  0.53802860439E+02  0.00000000000E+00 0. -1.
</event>
<event>
 8    1  0.3528896E-009  0.9242103E+02  0.7561462E-02  0.1297093E+00
         -1   -1    0    0    0  501 -0.00000000000E+00  0.00000000000E+00  0.13966603618E+03  0.13966603618E+03  0.00000000000E+00 0.  1.
          1   -1    0    0  501    0  0.00000000000E+00 -0.00000000000E+00 -0.93615272156E+02  0.93615272156E+02  0.00000000000E+00 0. -1.
         25    2    1    2    0    0 -0.36149442671E+02 -0.11112116822E+02  0.22931693396E+02  0.13269105127E+03  0.12510312218E+03 0.  0.
         23    2    1    2    0    0  0.36149442671E+02  0.11112116822E+02  0.23119070625E+02  0.10059025706E+03  0.90297547274E+02 0.  0.
          5    1    3    3  502    0 -0.66077300367E+02 -0.26818038547E+01 -0.28750668822E+02  0.72232091576E+02  0.41800000000E+01 0.  1.
         -5    1    3    3    0  502  0.29927857696E+02 -0.84303129671E+01  0.51682362218E+02  0.60458959695E+02  0.41800000000E+01 0.  1.
        -11    1    4    4    0    0  0.34449174212E+02 -0.30228057350E+02 -0.10802896013E+02  0.47086979276E+02  0.00000000000E+00 0. -1.
         11    1    4    4    0    0  0.17002684585E+01  0.41340174171E+02  0.33921966638E+02  0.53503277787E+02  0.00000000000E+00 0.  1.
</event>
<event>
 8    1  0.3528896E-009  0.1032420E+03  0.7561462E-02  0.1273623E+00
          2   -1    0    0  501    0  0.00000000000E+00  0.00000000000E+00  0.10832912145E+04  0.10832912145E+04  0.00000000000E+00 0. -1.
         -2   -1    0    0    0  501 -0.00000000000E+00 -0.00000000000E+00 -0.28146096255E+02  0.28146096255E+02  0.00000000000E+00 0.  1.
         25    2    1    2    0    0  0.29862066582E+02  0.74000707434E+02  0.96422515450E+03  0.97557425001E+03  0.12508845260E+03 0.  0.
         23    2    1    2    0    0 -0.29862066582E+02 -0.74000707434E+02  0.90919963722E+02  0.13586306073E+03  0.61842410581E+02 0.  0.
          5    1    3    3  502    0 -0.19237688739E+02  0.55222544865E+02  0.81857157070E+03  0.82066832940E+03  0.41800000000E+01 0.  1.
         -5    1    3    3    0  502  0.49099755322E+02  0.18778162569E+02  0.14565358381E+03  0.15490592060E+03  0.41800000000E+01 0.  1.
        -11    1    4    4    0    0 -0.44407581705E+02 -0.62018149719E+02  0.51110186796E+02  0.91817947057E+02  0.00000000000E+00 0.  1.
         11    1    4    4    0    0  0.14545515123E+02 -0.11982557716E+02  0.39809776926E+02  0.44045113673E+02  0.00000000000E+00 0. -1.
</event>
<event>
 8    1  0.3528896E-009  0.1579322E+03  0.7561462E-02  0.1191051E+00
         -2   -1    0    0    0  501 -0.00000000000E+00  0.00000000000E+00  0.13445637195E+02  0.13445637195E+02  0.00000000000E+00 0.  1.
          2   -1    0    0  501    0  0.00000000000E+00 -0.00000000000E+00 -0.24240958343E+04  0.24240958343E+04  0.00000000000E+00 0. -1.
         25    2    1    2    0    0  0.84420703376E+01  0.13085835123E+03 -0.16534868695E+04  0.16633882316E+04  0.12508559052E+03 0.  0.
         23    2    1    2    0    0 -0.84420703376E+01 -0.13085835123E+03 -0.75716332767E+03  0.77415323991E+03  0.93924211221E+02 0.  0.
          5    1    3    3  502    0  0.26920571852E+02  0.14039674425E+03 -0.10699283186E+04  0.10794443211E+04  0.41800000000E+01 0. -1.
         -5    1    3    3    0  502 -0.18478501515E+02 -0.95383930205E+01 -0.58355855084E+03  0.58394391051E+03  0.41800000000E+01 0. -1.
        -11    1    4    4    0    0  0.30778478529E+02 -0.28205809475E+02 -0.10863428749E+03  0.11637994177E+03  0.00000000000E+00 0.  1.
         11    1    4    4    0    0 -0.39220548866E+02 -0.10265254175E+03 -0.64852904018E+03  0.65777329813E+03  0.00000000000E+00 0. -1.
</event>
<event>
 8    1  0.3528896E-009  0.1414492E+03  0.7561462E-02  0.1211392E+00
          1   -1    0    0  501    0  0.00000000000E+00  0.00000000000E+00  0.15192235935E+03  0.15192235935E+03  0.00000000000E+00 0. -1.
         -1   -1    0    0    0  501 -0.00000000000E+00 -0.00000000000E+00 -0.21149315100E+03  0.21149315100E+03  0.00000000000E+00 0.  1.
         25    2    1    2    0    0 -0.60307986644E+02 -0.89566286858E+02 -0.12894714412E+03  0.20960462184E+03  0.12509020155E+03 0.  0.
         23    2    1    2    0    0  0.60307986644E+02  0.89566286858E+02  0.69376352477E+02  0.15381088852E+03  0.84767553631E+02 0.  0.
          5    1    3    3  502    0 -0.88747651515E+02 -0.99617713265E+02 -0.94039367331E+02  0.16328107500E+03  0.41800000000E+01 0.  1.
         -5    1    3    3    0  502  0.28439664871E+02  0.10051426407E+02 -0.34907776791E+02  0.46323546834E+02  0.41800000000E+01 0.  1.
        -11    1    4    4    0    0  0.43044829636E+02  0.20321191564E+02  0.67279353452E+02  0.82415530004E+02  0.00000000000E+00 0. -1.
         11    1    4    4    0    0  0.17263157008E+02  0.69245095294E+02  0.20969990254E+01  0.71395358512E+02  0.00000000000E+00 0.  1.
</event>
<event>
 8    1  0.3528896E-009  0.1159246E+03  0.7561462E-02  0.1249976E+00
         -3   -1    0    0    0  501 -0.00000000000E+00  0.00000000000E+00  0.73204986435E+02  0.73204986435E+02  0.00000000000E+00 0.  1.
          3   -1    0    0  501    0  0.00000000000E+00 -0.00000000000E+00 -0.25866941906E+03  0.25866941906E+03  0.00000000000E+00 0. -1.
         25    2    1    2    0    0 -0.15849913862E+02 -0.60429962436E+02 -0.30030348447E+02  0.14300554742E+03  0.12508303097E+03 0.  0.
         23    2    1    2    0    0  0.15849913862E+02  0.60429962436E+02 -0.15543408418E+03  0.18886885807E+03  0.87227810331E+02 0.  0.
          5    1    3    3  502    0  0.43206789104E+02  0.12243095469E+02 -0.17745311472E+02  0.48467396161E+02  0.41800000000E+01 0. -1.
         -5    1    3    3    0  502 -0.59056702966E+02 -0.72673057905E+02 -0.12285036975E+02  0.94538151262E+02  0.41800000000E+01 0. -1.
        -11    1    4    4    0    0 -0.21750123567E+02 -0.10325309887E+00 -0.48642937385E+01  0.22287662281E+02  0.00000000000E+00 0.  1.
         11    1    4    4    0    0  0.37600037429E+02  0.60533215535E+02 -0.15056979044E+03  0.16658119579E+03  0.00000000000E+00 0. -1.
</event>
<event>
 8    1  0.3528896E-009  0.9355015E+02  0.7561462E-02  0.1294475E+00
          2   -1    0    0  501    0  0.00000000000E+00  0.00000000000E+00  0.36243037588E+03  0.36243037588E+03  0.00000000000E+00 0.  1.
         -2   -1    0    0    0  501 -0.00000000000E+00 -0.00000000000E+00 -0.43937648451E+02  0.43937648451E+02  0.00000000000E+00 0. -1.
         25    2    1    2    0    0 -0.48352787737E+02 -0.21735518986E+02  0.23602829960E+03  0.27233747562E+03  0.12509163659E+03 0.  0.
         23    2    1    2    0    0  0.48352787737E+02  0.21735518986E+02  0.82464427827E+02  0.13403054871E+03  0.91396833992E+02 0.  0.
          5    1    3    3  502    0 -0.74183431227E+02 -0.62149018111E+01  0.22938310665E+03  0.24119678375E+03  0.41800000000E+01 0. -1.
         -5    1    3    3    0  502  0.25830643489E+02 -0.15520617175E+02  0.66451929448E+01  0.31140691865E+02  0.41800000000E+01 0. -1.
        -11    1    4    4    0    0  0.43523346611E+02  0.42479444750E+02  0.92327996087E+02  0.11055877979E+03  0.00000000000E+00 0.  1.
         11    1    4    4    0    0  0.48294411261E+01 -0.20743925764E+02 -0.98635682591E+01  0.23471768926E+02  0.00000000000E+00 0. -1.
</event>
<event>
 8    1  0.3528896E-009  0.9316008E+02  0.7561462E-02  0.1295375E+00
         -2   -1    0    0    0  501 -0.00000000000E+00  0.00000000000E+00  0.16004077779E+03  0.16004077779E+03  0.00000000000E+00 0.  1.
          2   -1    0    0  501    0  0.00000000000E+00 -0.00000000000E+00 -0.11302832772E+03  0.11302832772E+03  0.00000000000E+00 0. -1.
         25    2    1    2    0    0 -0.46519463287E+02  0.77571996591E+01  0.93846430388E+02  0.16333623557E+03  0.12508932306E+03 0.  0.
         23    2    1    2    0    0  0.46519463287E+02 -0.77571996591E+01 -0.46833980322E+02  0.10973286994E+03  0.87313495067E+02 0.  0.
          5    1    3    3  502    0  0.41719595404E+01 -0.38402710309E+02 -0.87908929829E+01  0.39836234824E+02  0.41800000000E+01 0. -1.
         -5    1    3    3    0  502 -0.50691422827E+02  0.46159909969E+02  0.10263732337E+03  0.12350000075E+03  0.41800000000E+01 0. -1.
        -11    1    4    4    0    0  0.44068486518E+02 -0.31969577173E+02  0.27350631257E+01  0.54512071497E+02  0.00000000000E+00 0.  1.
         11    1    4    4    0    0  0.24509767685E+01  0.24212377514E+02 -0.49569043447E+02  0.55220798439E+02  0.00000000000E+00 0. -1.
</event>
<event>
 8    1  0.3528896E-009  0.1081158E+03  0.7561462E-02  0.1264099E+00
         -2   -1    0    0    0  501 -0.00000000000E+00  0.00000000000E+00  0.44512051748E+03  0.44512051748E+03  0.00000000000E+00 0.  1.
          2   -1    0    0  501    0  0.00000000000E+00 -0.00000000000E+00 -0.39427577441E+02  0.39427577441E+02  0.00000000000E+00 0. -1.
         25    2    1    2    0    0 -0.31822130198E+02 -0.18216679579E+01  0.98132035440E+02  0.16215714831E+03  0.12509627463E+03 0.  0.
         23    2    1    2    0    0  0.31822130198E+02  0.18216679579E+01  0.30756090460E+03  0.32239094661E+03  0.91248265581E+02 0.  0.
          5    1    3    3  502    0 -0.22747494972E+02 -0.60152702487E+02  0.27657216404E+02  0.70129809377E+02  0.41800000000E+01 0. -1.
         -5    1    3    3    0  502 -0.90746352257E+01  0.58331034529E+02  0.70474819036E+02  0.92027338938E+02  0.41800000000E+01 0. -1.
        -11    1    4    4    0    0  0.62137323962E+02  0.35696547839E+01  0.15877947243E+03  0.17054240039E+03  0.00000000000E+00 0. -1.
         11    1    4    4    0    0 -0.30315193764E+02 -0.17479868260E+01  0.14878143217E+03  0.15184854622E+03  0.00000000000E+00 0.  1.
</event>
<event>
 8    1  0.3528896E-009  0.1698090E+03  0.7561462E-02  0.1178047E+00
         -2   -1    0    0    0  501 -0.00000000000E+00  0.00000000000E+00  0.28526886069E+03  0.28526886069E+03  0.00000000000E+00 0.  1.
          2   -1    0    0  501    0  0.00000000000E+00 -0.00000000000E+00 -0.11694632880E+03  0.11694632880E+03  0.00000000000E+00 0. -1.
         25    2    1    2    0    0 -0.60022942813E+00 -0.14703317096E+03  0.69585437115E+02  0.20520492356E+03  0.12509122253E+03 0.  0.
         23    2    1    2    0    0  0.60022942813E+00  0.14703317096E+03  0.98737094778E+02  0.19701026593E+03  0.86283934534E+02 0.  0.
          5    1    3    3  502    0  0.61713714295E+02 -0.74293448272E+02  0.27547304732E+02  0.10052077092E+03  0.41800000000E+01 0. -1.
         -5    1    3    3    0  502 -0.62313943723E+02 -0.72739722693E+02  0.42038132383E+02  0.10468415264E+03  0.41800000000E+01 0. -1.
        -11    1    4    4    0    0 -0.13917862324E+01  0.51216823338E+02  0.86308603089E+02  0.10037068810E+03  0.00000000000E+00 0.  1.
         11    1    4    4    0    0  0.19920156606E+01  0.95816347626E+02  0.12428491689E+02  0.96639577837E+02  0.00000000000E+00 0. -1.
</event>
<event>
 7    1  0.3528896E-009  0.1169233E+03  0.7561462E-02  0.1248261E+00
         -1   -1    0    0    0  501 -0.00000000000E+00  0.00000000000E+00  0.65329377320E+02  0.65329377320E+02  0.00000000000E+00 0.  1.
          1   -1    0    0  501    0  0.00000000000E+00 -0.00000000000E+00 -0.32854307278E+03  0.32854307278E+03  0.00000000000E+00 0. -1.
         23    2    1    2    0    0  0.25336571175E+02  0.80659333828E+02 -0.19105032803E+03  0.22658008036E+03  0.87695125305E+02 0.  0.
          5    1    1    2  502    0 -0.63567203085E+02 -0.46358135804E+02 -0.20792610387E+00  0.78786938617E+02  0.41800000000E+01 0.  1.
         -5    1    1    2    0  502  0.38230631911E+02 -0.34301198024E+02 -0.71955441328E+02  0.88505431127E+02  0.41800000000E+01 0.  1.
        -11    1    3    3    0    0  0.42241890425E+02  0.74293825331E+02 -0.90716863955E+02  0.12463345937E+03  0.00000000000E+00 0.  1.
         11    1    3    3    0    0 -0.16905319251E+02  0.63655084973E+01 -0.10033346407E+03  0.10194662099E+03  0.00000000000E+00 0. -1.
</event>
<event>
 8    1  0.3528896E-009  0.1046475E+03  0.7561462E-02  0.1270816E+00
          1   -1    0    0  501    0  0.00000000000E+00  0.00000000000E+00  0.13829743198E+02  0.13829743198E+02  0.00000000000E+00 0. -1.
         -1   -1    0    0    0  501 -0.00000000000E+00 -0.00000000000E+00 -0.95599608487E+03  0.95599608487E+03  0.00000000000E+00 0.  1.
         25    2    1    2    0    0  0.96259671104E+01  0.30035625581E+02 -0.64227759150E+03  0.65510520331E+03  0.12509006680E+03 0.  0.
         23    2    1    2    0    0 -0.96259671104E+01 -0.30035625581E+02 -0.29988875017E+03  0.31472062476E+03  0.90116652858E+02 0.  0.
          5    1    3    3  502    0  0.59825669447E+02  0.40145286109E+02 -0.46374881298E+03  0.46933057503E+03  0.41800000000E+01 0.  1.
         -5    1    3    3    0  502 -0.50199702337E+02 -0.10109660528E+02 -0.17852877853E+03  0.18577462828E+03  0.41800000000E+01 0.  1.
        -11    1    4    4    0    0  0.34986537989E+02 -0.18910876013E+02 -0.72132885686E+02  0.82370093295E+02  0.00000000000E+00 0. -1.
         11    1    4    4    0    0 -0.44612505099E+02 -0.11124749569E+02 -0.22775586448E+03  0.23235053146E+03  0.00000000000E+00 0.  1.
</event>
<event>
 8    1  0.3528896E-009  0.1719766E+03  0.7561462E-02  0.1175802E+00
          1   -1    0    0  501    0  0.00000000000E+00  0.00000000000E+00  0.21802368803E+03  0.21802368803E+03  0.00000000000E+00 0. -1.
         -1   -1    0    0    0  501 -0.00000000000E+00 -0.00000000000E+00 -0.18920285364E+03  0.18920285364E+03  0.00000000000E+00 0.  1.
         25    2    1    2    0    0  0.42748106467E+02 -0.16353206020E+03  0.44265874056E+02  0.21488878984E+03  0.12509032366E+03 0.  0.
         23    2    1    2    0    0 -0.42748106467E+02  0.16353206020E+03 -0.15445039668E+02  0.19233775184E+03  0.90471687361E+02 0.  0.
          5    1    3    3  502    0  0.14479603778E+02 -0.86423995495E+02  0.85844858695E+02  0.12274191659E+03  0.41800000000E+01 0. -1.
         -5    1    3    3    0  502  0.28268502689E+02 -0.77108064701E+02 -0.41578984638E+02  0.92146873250E+02  0.41800000000E+01 0. -1.
        -11    1    4    4    0    0  0.64539935472E+00  0.78728985516E+02 -0.47353787104E+02  0.91875191721E+02  0.00000000000E+00 0.  1.
         11    1    4    4    0    0 -0.43393505821E+02  0.84803074679E+02  0.31908747436E+02  0.10046256012E+03  0.00000000000E+00 0. -1.
</event>
<event>
 8    1  0.3528896E-009  0.9265701E+02  0.7561462E-02  0.1296542E+00
          2   -1    0    0  501    0  0.00000000000E+00  0.00000000000E+00  0.53208880946E+03  0.53208880946E+03  0.00000000000E+00 0.  1.
         -2   -1    0    0    0  501 -0.00000000000E+00 -0.00000000000E+00 -0.41730663424E+02  0.41730663424E+02  0.00000000000E+00 0. -1.
         25    2    1    2    0    0 -0.34281196348E+02  0.56812149889E+02  0.41752174598E+03  0.44087355034E+03  0.12506901384E+03 0.  0.
         23    2    1    2    0    0  0.34281196348E+02 -0.56812149889E+02  0.72836400055E+02  0.13294592255E+03  0.89256127802E+02 0.  0.
          5    1    3    3  502    0  0.92664847810E+01  0.45167140390E+02  0.41617115190E+02  0.62252670528E+02  0.41800000000E+01 0.  1.
         -5    1    3    3    0  502 -0.43547681129E+02  0.11645009500E+02  0.37590463079E+03  0.37862087981E+03  0.41800000000E+01 0.  1.
        -11    1    4    4    0    0  0.51858608737E+01 -0.63647490645E+02  0.79852130548E+02  0.10224607069E+03  0.00000000000E+00 0.  1.
         11    1    4    4    0    0  0.29095335475E+02  0.68353407553E+01 -0.70157304927E+01  0.30699851856E+02  0.00000000000E+00 0. -1.
</event>
<event>
 8    1  0.3528896E-009  0.1172358E+03  0.7561462E-02  0.1247728E+00
          2   -1    0    0  501    0  0.00000000000E+00  0.00000000000E+00  0.62498676130E+03  0.62498676130E+03  0.00000000000E+00 0. -1.
         -2   -1    0    0    0  501 -0.00000000000E+00 -0.00000000000E+00 -0.35324865706E+02  0.35324865706E+02  0.00000000000E+00 0.  1.
         25    2    1    2    0    0 -0.10524492302E+03  0.22860647749E+01  0.36098039696E+03  0.39628868500E+03  0.12512455776E+03 0.  0.
         23    2    1    2    0    0  0.10524492302E+03 -0.22860647749E+01  0.22868149863E+03  0.26402294200E+03  0.79568625571E+02 0.  0.
          5    1    3    3  502    0 -0.41375915239E+02  0.37598297844E+02  0.28648110193E+03  0.29191521462E+03  0.41800000000E+01 0.  1.
         -5    1    3    3    0  502 -0.63869007781E+02 -0.35312233069E+02  0.74499295034E+02  0.10437347038E+03  0.41800000000E+01 0.  1.
        -11    1    4    4    0    0  0.44181314343E+02  0.44192295837E+00  0.18151799985E+03  0.18681800797E+03  0.00000000000E+00 0. -1.
         11    1    4    4    0    0  0.61063608677E+02 -0.27279877333E+01  0.47163498778E+02  0.77204934031E+02  0.00000000000E+00 0.  1.
</event>
<event>
 8    1  0.3528896E-009  0.4092528E+03  0.7561462E-02  0.1040622E+00
          2   -1    0    0  501    0  0.00000000000E+00  0.00000000000E+00  0.14502631420E+04  0.14502631420E+04  0.00000000000E+00 0. -1.
         -2   -1    0    0    0  501 -0.00000000000E+00 -0.00000000000E+00 -0.16670790835E+03  0.16670790835E+03  0.00000000000E+00 0.  1.
         25    2    1    2    0    0  0.16244041775E+03 -0.37418765372E+03  0.23276028391E+03  0.48603211435E+03  0.12508627783E+03 0.  0.
         23    2    1    2    0    0 -0.16244041775E+03  0.37418765372E+03  0.10507949497E+04  0.11309389360E+04  0.91921493914E+02 0.  0.
          5    1    3    3  502    0  0.27060232110E+02 -0.82639083247E+02  0.11373826494E+03  0.14323176866E+03  0.41800000000E+01 0.  1.
         -5    1    3    3    0  502  0.13538018563E+03 -0.29154857047E+03  0.11902201897E+03  0.34280034569E+03  0.41800000000E+01 0.  1.
        -11    1    4    4    0    0 -0.35046010945E+02  0.12886717333E+03  0.24478365581E+03  0.27884405928E+03  0.00000000000E+00 0.  1.
         11    1    4    4    0    0 -0.12739440680E+03  0.24532048039E+03  0.80601129390E+03  0.85209487669E+03  0.00000000000E+00 0. -1.
</event>
<event>
 8    1  0.3528896E-009  0.1683774E+03  0.7561462E-02  0.1179551E+00
          2   -1    0    0  501    0  0.00000000000E+00  0.00000000000E+00  0.49102806560E+03  0.49102806560E+03  0.00000000000E+00 0. -1.
         -2   -1    0    0    0  501 -0.00000000000E+00 -0.00000000000E+00 -0.80272387468E+02  0.80272387468E+02  0.00000000000E+00 0.  1.
         25    2    1    2    0    0 -0.10951895478E+02  0.15358738346E+03  0.12609731693E+03  0.23506930047E+03  0.12509202337E+03 0.  0.
         23    2    1    2    0    0  0.10951895478E+02 -0.15358738346E+03  0.28465836120E+03  0.33623115260E+03  0.91170044458E+02 0.  0.
          5    1    3    3  502    0 -0.48928510937E+02  0.89870431002E+02  0.12389576191E+03  0.16074304268E+03  0.41800000000E+01 0. -1.
         -5    1    3    3    0  502  0.37976615459E+02  0.63716952457E+02  0.22015550253E+01  0.74326257787E+02  0.41800000000E+01 0. -1.
        -11    1    4    4    0    0  0.22945298348E+02 -0.42342765569E+02  0.16725183829E+03  0.17404761970E+03  0.00000000000E+00 0. -1.
         11    1    4    4    0    0 -0.11993402870E+02 -0.11124461789E+03  0.11740652290E+03  0.16218353290E+03  0.00000000000E+00 0.  1.
</event>
<event>
 8    1  0.3528896E-009  0.1037218E+03  0.7561462E-02  0.1272659E+00
          1   -1    0    0  501    0  0.00000000000E+00  0.00000000000E+00  0.50274833455E+03  0.50274833455E+03  0.00000000000E+00 0. -1.
         -1   -1    0    0    0  501 -0.00000000000E+00 -0.00000000000E+00 -0.26192385547E+02  0.26192385547E+02  0.00000000000E+00 0.  1.
         25    2    1    2    0    0  0.25407388038E+02 -0.10493322501E+02  0.33580358673E+03  0.35939910822E+03  0.12509206587E+03 0.  0.
         23    2    1    2    0    0 -0.25407388038E+02  0.10493322501E+02  0.14075236227E+03  0.16954161188E+03  0.90429450339E+02 0.  0.
          5    1    3    3  502    0  0.73287296957E+02 -0.97666223913E+01  0.25341921629E+03  0.26401739790E+03  0.41800000000E+01 0.  1.
         -5    1    3    3    0  502 -0.47879908918E+02 -0.72670010971E+00  0.82384370441E+02  0.95381710323E+02  0.41800000000E+01 0.  1.
        -11    1    4    4    0    0  0.28360765488E+02 -0.61848719602E+01  0.86963521224E+02  0.91680094262E+02  0.00000000000E+00 0. -1.
         11    1    4    4    0    0 -0.53768153526E+02  0.16678194461E+02  0.53788841050E+02  0.77861517617E+02  0.00000000000E+00 0.  1.
</event>
<event>
 8    1  0.3528896E-009  0.9707624E+02  0.7561462E-02  0.1286567E+00
          1   -1    0    0  501    0  0.00000000000E+00  0.00000000000E+00  0.15696111610E+03  0.15696111610E+03  0.00000000000E+00 0. -1.
         -1   -1    0    0    0  501 -0.00000000000E+00 -0.00000000000E+00 -0.10274411838E+03  0.10274411838E+03  0.00000000000E+00 0.  1.
         25    2    1    2    0    0 -0.23607630997E+02 -0.45236858767E+02  0.71226526761E+02  0.15272194728E+03  0.12508829456E+03 0.  0.
         23    2    1    2    0    0  0.23607630997E+02  0.45236858767E+02 -0.17009529044E+02  0.10698328720E+03  0.92479219447E+02 0.  0.
          5    1    3    3  502    0 -0.51513128605E+02 -0.71122647881E+02  0.73167607937E+02  0.11438096306E+03  0.41800000000E+01 0. -1.
         -5    1    3    3    0  502  0.27905497608E+02  0.25885789114E+02 -0.19410811760E+01  0.38340984220E+02  0.41800000000E+01 0. -1.
        -11    1    4    4    0    0  0.41673819938E+01  0.48111294925E+02 -0.49409444811E+02  0.69089485514E+02  0.00000000000E+00 0.  1.
         11    1    4    4    0    0  0.19440249003E+02 -0.28744361574E+01  0.32399915767E+02  0.37893801686E+02  0.00000000000E+00 0. -1.
</event>
<event>
 8    1  0.3528896E-009  0.1058379E+03  0.7561462E-02  0.1268477E+00
         -1   -1    0    0    0  501 -0.00000000000E+00  0.00000000000E+00  0.97182022159E+01  0.97182022159E+01  0.00000000000E+00 0.  1.
          1   -1    0    0  501    0  0.00000000000E+00 -0.00000000000E+00 -0.15995915969E+04  0.15995915969E+04  0.00000000000E+00 0. -1.
         25    2    1    2    0    0  0.29657610828E+02 -0.23267594494E+02 -0.12006626232E+04  0.12077496342E+04  0.12508992497E+03 0.  0.
         23    2    1    2    0    0 -0.29657610828E+02  0.23267594494E+02 -0.38921077144E+03  0.40156016488E+03  0.91348708657E+02 0.  0.
          5    1    3    3  502    0  0.18433727516E+01 -0.65638374442E+02 -0.93174886361E+03  0.93406916846E+03  0.41800000000E+01 0. -1.
         -5    1    3    3    0  502  0.27814238076E+02  0.42370779948E+02 -0.26891375963E+03  0.27368046578E+03  0.41800000000E+01 0. -1.
        -11    1    4    4    0    0 -0.60811307994E+02  0.18058600685E+02 -0.20272515878E+03  0.21241849787E+03  0.00000000000E+00 0.  1.
         11    1    4    4    0    0  0.31153697166E+02  0.52089938094E+01 -0.18648561267E+03  0.18914166700E+03  0.00000000000E+00 0. -1.
</event>
<event>
 8    1  0.3528896E-009  0.1235808E+03  0.7561462E-02  0.1237304E+00
         -2   -1    0    0    0  501 -0.00000000000E+00  0.00000000000E+00  0.21516474736E+02  0.21516474736E+02  0.00000000000E+00 0.  1.
          2   -1    0    0  501    0  0.00000000000E+00 -0.00000000000E+00 -0.82745312747E+03  0.82745312747E+03  0.00000000000E+00 0. -1.
         25    2    1    2    0    0  0.22541216144E+02  0.63090758486E+02 -0.46841541147E+03  0.48943731868E+03  0.12508933200E+03 0.  0.
         23    2    1    2    0    0 -0.22541216144E+02 -0.63090758486E+02 -0.33752124126E+03  0.35953228353E+03  0.10418408882E+03 0.  0.
          5    1    3    3  502    0 -0.23627257882E+02  0.85231425637E+02 -0.33404971629E+03  0.34558548666E+03  0.41800000000E+01 0. -1.
         -5    1    3    3    0  502  0.46168474026E+02 -0.22140667151E+02 -0.13436569518E+03  0.14385183202E+03  0.41800000000E+01 0. -1.
        -11    1    4    4    0    0 -0.53810984644E+02 -0.29561289519E+02 -0.97861164398E+02  0.11552618493E+03  0.00000000000E+00 0. -1.
         11    1    4    4    0    0  0.31269768500E+02 -0.33529468968E+02 -0.23966007686E+03  0.24400609860E+03  0.00000000000E+00 0.  1.
</event>
<event>
 8    1  0.3528896E-009  0.1196059E+03  0.7561462E-02  0.1243749E+00
         -2   -1    0    0    0  501 -0.00000000000E+00  0.00000000000E+00  0.54095161146E+02  0.54095161146E+02  0.00000000000E+00 0.  1.
          2   -1    0    0  501    0  0.00000000000E+00 -0.00000000000E+00 -0.28318691807E+03  0.28318691807E+03  0.00000000000E+00 0. -1.
         25    2    1    2    0    0  0.11534501890E+02  0.56979285848E+02 -0.11020524611E+03  0.17657201631E+03  0.12511113830E+03 0.  0.
         23    2    1    2    0    0 -0.11534501890E+02 -0.56979285848E+02 -0.11888651081E+03  0.16071006290E+03  0.91181347402E+02 0.  0.
          5    1    3    3  502    0  0.53297837332E+02  0.74195562638E+02 -0.62669798087E+02  0.11086305503E+03  0.41800000000E+01 0.  1.
         -5    1    3    3    0  502 -0.41763335442E+02 -0.17216276790E+02 -0.47535448022E+02  0.65708961279E+02  0.41800000000E+01 0.  1.
        -11    1    4    4    0    0  0.32767125051E+02 -0.46477156586E+02 -0.91037097786E+02  0.10733854732E+03  0.00000000000E+00 0. -1.
         11    1    4    4    0    0 -0.44301626941E+02 -0.10502129261E+02 -0.27849413024E+02  0.53371515572E+02  0.00000000000E+00 0.  1.
</event>
<event>
 8    1  0.3528896E-009  0.1258289E+03  0.7561462E-02  0.1233780E+00
          1   -1    0    0  501    0  0.00000000000E+00  0.00000000000E+00  0.63998137270E+03  0.63998137270E+03  0.00000000000E+00 0. -1.
         -1   -1    0    0    0  501 -0.00000000000E+00 -0.00000000000E+00 -0.38875776533E+02  0.38875776533E+02  0.00000000000E+00 0.  1.
         25    2    1    2    0    0  0.52591120512E+02  0.80329290697E+02  0.45036343773E+03  0.47716989481E+03  0.12508102003E+03 0.  0.
         23    2    1    2    0    0 -0.52591120512E+02 -0.80329290697E+02  0.15074215844E+03  0.20168725442E+03  0.93466193700E+02 0.  0.
          5    1    3    3  502    0  0.35996022311E+01 -0.30233962077E+02  0.47917152369E+02  0.56926052825E+02  0.41800000000E+01 0. -1.
         -5    1    3    3    0  502  0.48991518280E+02  0.11056325277E+03  0.40244628536E+03  0.42024384198E+03  0.41800000000E+01 0. -1.
        -11    1    4    4    0    0 -0.12065558724E+02 -0.27204672779E+01 -0.11781229260E+02  0.17081452292E+02  0.00000000000E+00 0.  1.
         11    1    4    4    0    0 -0.40525561787E+02 -0.77608823419E+02  0.16252338770E+03  0.18460580213E+03  0.00000000000E+00 0. -1.
</event>
<event>
 8    1  0.3528896E-009  0.1565566E+03  0.7561462E-02  0.1192640E+00
          1   -1    0    0  501    0  0.00000000000E+00  0.00000000000E+00  0.23069111932E+02  0.23069111932E+02  0.00000000000E+00 0. -1.
         -1   -1    0    0    0  501 -0.00000000000E+00 -0.00000000000E+00 -0.11538889543E+04  0.11538889543E+04  0.00000000000E+00 0.  1.
         25    2    1    2    0    0 -0.55338954260E+01  0.11982804931E+03 -0.53184271945E+03  0.55936806140E+03  0.12508622822E+03 0.  0.
         23    2    1    2    0    0  0.55338954260E+01 -0.11982804931E+03 -0.59897712290E+03  0.61759000481E+03  0.90853920549E+02 0.  0.
          5    1    3    3  502    0  0.86824371649E+01 -0.21487260370E+02 -0.15210760148E+03  0.15391972551E+03  0.41800000000E+01 0.  1.
         -5    1    3    3    0  502 -0.14216332591E+02  0.14131530968E+03 -0.37973511797E+03  0.40544833589E+03  0.41800000000E+01 0.  1.
        -11    1    4    4    0    0  0.46373010385E+01 -0.13359622522E+03 -0.57042524324E+03  0.58587918045E+03  0.00000000000E+00 0.  1.
         11    1    4    4    0    0  0.89659438747E+00  0.13768175913E+02 -0.28551879656E+02  0.31710824357E+02  0.00000000000E+00 0. -1.
</event>
<event>
 7    1  0.3528896E-009  0.9071750E+02  0.7561462E-02  0.1301123E+00
          1   -1    0    0  501    0  0.00000000000E+00  0.00000000000E+00  0.43077037182E+03  0.43077037182E+03  0.00000000000E+00 0. -1.
         -1   -1    0    0    0  501 -0.00000000000E+00 -0.00000000000E+00 -0.30189451682E+02  0.30189451682E+02  0.00000000000E+00 0.  1.
         23    2    1    2    0    0 -0.26605195154E+02  0.12982121244E+02  0.11725895950E+03  0.14967356726E+03  0.88182431767E+02 0.  0.
          5    1    1    2  502    0  0.43615450049E+02  0.22546237422E+02  0.36540493745E+02  0.61345907671E+02  0.41800000000E+01 0. -1.
         -5    1    1    2    0  502 -0.17010254895E+02 -0.35528358666E+02  0.24678146690E+03  0.24994034857E+03  0.41800000000E+01 0. -1.
        -11    1    3    3    0    0  0.26230819775E+02  0.27245256125E+02  0.55426648461E+02  0.67100471288E+02  0.00000000000E+00 0. -1.
         11    1    3    3    0    0 -0.52836014929E+02 -0.14263134881E+02  0.61832311035E+02  0.82573095970E+02  0.00000000000E+00 0.  1.
</event>
<event>
 8    1  0.3528896E-009  0.1054282E+03  0.7561462E-02  0.1269278E+00
          3   -1    0    0  501    0  0.00000000000E+00  0.00000000000E+00  0.47471656037E+03  0.47471656037E+03  0.00000000000E+00 0. -1.
         -3   -1    0    0    0  501 -0.00000000000E+00 -0.00000000000E+00 -0.50910575049E+02  0.50910575049E+02  0.00000000000E+00 0.  1.
         25    2    1    2    0    0 -0.46041786286E+02 -0.32868924429E+02  0.38681025112E+03  0.41045052098E+03  0.12508895844E+03 0.  0.
         23    2    1    2    0    0  0.46041786286E+02  0.32868924429E+02  0.36995734197E+02  0.11517661443E+03  0.93256398634E+02 0.  0.
          5    1    3    3  502    0  0.10184065235E+02  0.21143664877E+02  0.26299383494E+03  0.26407195869E+03  0.41800000000E+01 0. -1.
         -5    1    3    3    0  502 -0.56225851521E+02 -0.54012589307E+02  0.12381641618E+03  0.14637856229E+03  0.41800000000E+01 0. -1.
        -11    1    4    4    0    0 -0.49118864595E+01  0.53677457037E+02  0.15465817630E+02  0.56076622023E+02  0.00000000000E+00 0.  1.
         11    1    4    4    0    0  0.50953672746E+02 -0.20808532608E+02  0.21529916567E+02  0.59099992411E+02  0.00000000000E+00 0. -1.
</event>
<event>
 8    1  0.3528896E-009  0.9904410E+02  0.7561462E-02  0.1282319E+00
          2   -1    0    0  501    0  0.00000000000E+00  0.00000000000E+00  0.44643143280E+03  0.44643143280E+03  0.00000000000E+00 0. -1.
         -2   -1    0    0    0  501 -0.00000000000E+00 -0.00000000000E+00 -0.37825016073E+02  0.37825016073E+02  0.00000000000E+00 0.  1.
         25    2    1    2    0    0  0.31089809735E+02 -0.59178439405E+02  0.17555629575E+03  0.22570303919E+03  0.12511268906E+03 0.  0.
         23    2    1    2    0    0 -0.31089809735E+02  0.59178439405E+02  0.23305012098E+03  0.25855340968E+03  0.89826737730E+02 0.  0.
          5    1    3    3  502    0  0.55628254539E+02 -0.26345812803E+02  0.17384330320E+03  0.18446563643E+03  0.41800000000E+01 0. -1.
         -5    1    3    3    0  502 -0.24538444804E+02 -0.32832626602E+02  0.17129925482E+01  0.41237402760E+02  0.41800000000E+01 0. -1.
        -11    1    4    4    0    0  0.21674866538E+02  0.14785328119E+02  0.14165053845E+03  0.14405999031E+03  0.00000000000E+00 0. -1.
         11    1    4    4    0    0 -0.52764676273E+02  0.44393111286E+02  0.91399582528E+02  0.11449341937E+03  0.00000000000E+00 0.  1.
</event>
<event>
 8    1  0.3528896E-009  0.2440376E+03  0.7561462E-02  0.1117132E+00
         -2   -1    0    0    0  501 -0.00000000000E+00  0.00000000000E+00  0.83615573182E+02  0.83615573182E+02  0.00000000000E+00 0.  1.
          2   -1    0    0  501    0  0.00000000000E+00 -0.00000000000E+00 -0.14149567593E+04  0.14149567593E+04  0.00000000000E+00 0. -1.
         25    2    1    2    0    0  0.22712580540E+03 -0.61501368886E+02 -0.18411547747E+03  0.32390499046E+03  0.12508950375E+03 0.  0.
         23    2    1    2    0    0 -0.22712580540E+03  0.61501368886E+02 -0.11472257086E+04  0.11746673420E+04  0.91367324455E+02 0.  0.
          5    1    3    3  502    0 -0.58932887193E+01 -0.11824296358E+02 -0.46955832865E+02  0.48957813230E+02  0.41800000000E+01 0.  1.
         -5    1    3    3    0  502  0.23301909412E+03 -0.49677072528E+02 -0.13715964461E+03  0.27494717723E+03  0.41800000000E+01 0.  1.
        -11    1    4    4    0    0 -0.16782758750E+03  0.37573922027E+02 -0.99182043223E+03  0.10066209160E+04  0.00000000000E+00 0. -1.
         11    1    4    4    0    0 -0.59298217902E+02  0.23927446859E+02 -0.15540527639E+03  0.16804642599E+03  0.00000000000E+00 0.  1.
</event>
<event>
 8    1  0.3528896E-009  0.1370043E+03  0.7561462E-02  0.1217418E+00
          1   -1    0    0  501    0  0.00000000000E+00  0.00000000000E+00  0.59052657942E+03  0.59052657942E+03  0.00000000000E+00 0. -1.
         -1   -1    0    0    0  501 -0.00000000000E+00 -0.00000000000E+00 -0.33576265564E+02  0.33576265564E+02  0.00000000000E+00 0.  1.
         25    2    1    2    0    0 -0.20003116015E+02  0.83195496498E+02  0.24186584248E+03  0.28542548189E+03  0.12508798770E+03 0.  0.
         23    2    1    2    0    0  0.20003116015E+02 -0.83195496498E+02  0.31508447138E+03  0.33867736309E+03  0.90013981580E+02 0.  0.
          5    1    3    3  502    0 -0.70892330096E+02  0.65086889486E+02  0.13824974941E+03  0.16850071590E+03  0.41800000000E+01 0. -1.
         -5    1    3    3    0  502  0.50889214081E+02  0.18108607012E+02  0.10361609307E+03  0.11692476599E+03  0.41800000000E+01 0. -1.
        -11    1    4    4    0    0  0.22479981440E+02 -0.10204422376E+03  0.27832255558E+03  0.29729079722E+03  0.00000000000E+00 0. -1.
         11    1    4    4    0    0 -0.24768654247E+01  0.18848727257E+02  0.36761915796E+02  0.41386565870E+02  0.00000000000E+00 0.  1.
</event>
<event>
 8    1  0.3528896E-009  0.1037410E+03  0.7561462E-02  0.1272620E+00
         -1   -1    0    0    0  501 -0.00000000000E+00  0.00000000000E+00  0.60667845928E+02  0.60667845928E+02  0.00000000000E+00 0.  1.
          1   -1    0    0  501    0  0.00000000000E+00 -0.00000000000E+00 -0.23904794034E+03  0.23904794034E+03  0.00000000000E+00 0. -1.
         25    2    1    2    0    0  0.41960281577E+02 -0.62506625316E+01 -0.13556724532E+03  0.18927513038E+03  0.12508741329E+03 0.  0.
         23    2    1    2    0    0 -0.41960281577E+02  0.62506625316E+01 -0.42812849091E+02  0.11044065589E+03  0.92544380776E+02 0.  0.
          5    1    3    3  502    0  0.71216276050E+02  0.11847859461E+02 -0.13664805948E+03  0.15460366848E+03  0.41800000000E+01 0.  1.
         -5    1    3    3    0  502 -0.29255994473E+02 -0.18098521992E+02  0.10808141605E+01  0.34671461898E+02  0.41800000000E+01 0.  1.
        -11    1    4    4    0    0 -0.25697876406E+02  0.48694138570E+02 -0.14665894395E+02  0.56978842049E+02  0.00000000000E+00 0.  1.
         11    1    4    4    0    0 -0.16262405171E+02 -0.42443476038E+02 -0.28146954696E+02  0.53461813837E+02  0.00000000000E+00 0. -1.
</event>
<event>
 8    1  0.3528896E-009  0.1094828E+03  0.7561462E-02  0.1261531E+00
         -1   -1    0    0    0  501 -0.00000000000E+00  0.00000000000E+00  0.64307635434E+02  0.64307635434E+02  0.00000000000E+00 0.  1.
          1   -1    0    0  501    0  0.00000000000E+00 -0.00000000000E+00 -0.25067292351E+03  0.25067292351E+03  0.00000000000E+00 0. -1.
         25    2    1    2    0    0 -0.12411712943E+02 -0.52869147854E+02 -0.14941621340E+03  0.20229304877E+03  0.12509226731E+03 0.  0.
         23    2    1    2    0    0  0.12411712943E+02  0.52869147854E+02 -0.36949074677E+02  0.11268751018E+03  0.91564422225E+02 0.  0.
          5    1    3    3  502    0  0.43795270114E+02  0.16420238383E+02 -0.55107227805E+02  0.72401166215E+02  0.41800000000E+01 0. -1.
         -5    1    3    3    0  502 -0.56206983057E+02 -0.69289386237E+02 -0.94308985592E+02  0.12989188255E+03  0.41800000000E+01 0. -1.
        -11    1    4    4    0    0 -0.24926652271E+02  0.13179594454E+02 -0.49317685993E+02  0.56809100108E+02  0.00000000000E+00 0. -1.
         11    1    4    4    0    0  0.37338365213E+02  0.39689553400E+02  0.12368611316E+02  0.55878410068E+02  0.00000000000E+00 0.  1.
</event>
<event>
 8    1  0.3528896E-009  0.1840243E+03  0.7561462E-02  0.1163964E+00
          2   -1    0    0  501    0  0.00000000000E+00  0.00000000000E+00  0.11613722523E+04  0.11613722523E+04  0.00000000000E+00 0. -1.
         -2   -1    0    0    0  501 -0.00000000000E+00 -0.00000000000E+00 -0.37632610925E+02  0.37632610925E+02  0.00000000000E+00 0.  1.
         25    2    1    2    0    0 -0.13199649348E+03 -0.11319676934E+03  0.70311786595E+03  0.73502230843E+03  0.12508588084E+03 0.  0.
         23    2    1    2    0    0  0.13199649348E+03  0.11319676934E+03  0.42062177544E+03  0.46398255482E+03  0.90114096107E+02 0.  0.
          5    1    3    3  502    0 -0.38295029052E+02 -0.13316817859E+02  0.37292887532E+02  0.55245621985E+02  0.41800000000E+01 0.  1.
         -5    1    3    3    0  502 -0.93701464428E+02 -0.99879951484E+02  0.66582497842E+03  0.67977668644E+03  0.41800000000E+01 0.  1.
        -11    1    4    4    0    0  0.18832598368E+02  0.64292724742E+02  0.20423946407E+03  0.21494645821E+03  0.00000000000E+00 0.  1.
         11    1    4    4    0    0  0.11316389511E+03  0.48904044601E+02  0.21638231137E+03  0.24903609660E+03  0.00000000000E+00 0. -1.
</event>
<event>
 8    1  0.3528896E-009  0.2842786E+03  0.7561462E-02  0.1093375E+00
         -1   -1    0    0    0  501 -0.00000000000E+00  0.00000000000E+00  0.15735686489E+03  0.15735686489E+03  0.00000000000E+00 0.  1.
          1   -1    0    0  501    0  0.00000000000E+00 -0.00000000000E+00 -0.53371068931E+03  0.53371068931E+03  0.00000000000E+00 0. -1.
         25    2    1    2    0    0  0.13673143412E+03  0.22761621049E+03 -0.24060976431E+03  0.37953429452E+03  0.12509435512E+03 0.  0.
         23    2    1    2    0    0 -0.13673143412E+03 -0.22761621049E+03 -0.13574406011E+03  0.31153325967E+03  0.90121571628E+02 0.  0.
          5    1    3    3  502    0  0.90600546595E+02  0.47578743438E+02 -0.12078462662E+03  0.15836222498E+03  0.41800000000E+01 0.  1.
         -5    1    3    3    0  502  0.46130887524E+02  0.18003746705E+03 -0.11982513769E+03  0.22117206955E+03  0.41800000000E+01 0.  1.
        -11    1    4    4    0    0 -0.54996811204E+02 -0.17400505224E+03 -0.83254334210E+02  0.20058337821E+03  0.00000000000E+00 0.  1.
         11    1    4    4    0    0 -0.81734622915E+02 -0.53611158245E+02 -0.52489725902E+02  0.11094988146E+03  0.00000000000E+00 0. -1.
</event>
<event>
 8    1  0.3528896E-009  0.5757370E+02  0.7561462E-02  0.1408305E+00
          1   -1    0    0  501    0  0.00000000000E+00  0.00000000000E+00  0.28594595603E+02  0.28594595603E+02  0.00000000000E+00 0. -1.
         -1   -1    0    0    0  501 -0.00000000000E+00 -0.00000000000E+00 -0.48623442387E+03  0.48623442387E+03  0.00000000000E+00 0.  1.
         25    2    1    2    0    0  0.16728649153E+02 -0.19149652724E+02 -0.17447864802E+03  0.21618936197E+03  0.12509390358E+03 0.  0.
         23    2    1    2    0    0 -0.16728649153E+02  0.19149652724E+02 -0.28316118024E+03  0.29863965750E+03  0.91426659858E+02 0.  0.
          5    1    3    3  502    0  0.13729228311E+02 -0.12051995576E+02 -0.19394075596E+03  0.19484412111E+03  0.41800000000E+01 0. -1.
         -5    1    3    3    0  502  0.29994208426E+01 -0.70976571480E+01  0.19462107936E+02  0.21345240867E+02  0.41800000000E+01 0. -1.
        -11    1    4    4    0    0 -0.48836196915E+02 -0.25256753287E+01 -0.98646271032E+02  0.11010195254E+03  0.00000000000E+00 0. -1.
         11    1    4    4    0    0  0.32107547762E+02  0.21675328052E+02 -0.18451490921E+03  0.18853770496E+03  0.00000000000E+00 0.  1.
</event>
<event>
 7    1  0.3528896E-009  0.7952713E+02  0.7561462E-02  0.1330399E+00
         -3   -1    0    0    0  501 -0.00000000000E+00  0.00000000000E+00  0.32203081139E+02  0.32203081139E+02  0.00000000000E+00 0.  1.
          3   -1    0    0  501    0  0.00000000000E+00 -0.00000000000E+00 -0.32899220445E+03  0.32899220445E+03  0.00000000000E+00 0. -1.
         25    2    1    2    0    0  0.13050521278E+02 -0.60760948156E+02 -0.17588060903E+03  0.22459652410E+03  0.12508957223E+03 0.  0.
          5    1    3    3  502    0  0.29926481186E+02 -0.70082777138E+02 -0.37898349666E+02  0.85211191958E+02  0.41800000000E+01 0. -1.
         -5    1    3    3    0  502 -0.16875959908E+02  0.93218289822E+01 -0.13798225936E+03  0.13938533215E+03  0.41800000000E+01 0. -1.
        -11    1    1    2    0    0 -0.85749323596E+01  0.17217920165E+02 -0.45638938013E+02  0.49526749366E+02  0.00000000000E+00 0.  1.
         11    1    1    2    0    0 -0.44755889185E+01  0.43543027991E+02 -0.75269576266E+02  0.87072012117E+02  0.00000000000E+00 0. -1.
</event>
<event>
 8    1  0.3528896E-009  0.1429695E+03  0.7561462E-02  0.1209388E+00
         -2   -1    0    0    0  501 -0.00000000000E+00  0.00000000000E+00  0.22706606670E+02  0.22706606670E+02  0.00000000000E+00 0.  1.
          2   -1    0    0  501    0  0.00000000000E+00 -0.00000000000E+00 -0.11125321832E+04  0.11125321832E+04  0.00000000000E+00 0. -1.
         25    2    1    2    0    0  0.71177245681E+01 -0.11817378937E+03 -0.58203858221E+03  0.60698586163E+03  0.12508884259E+03 0.  0.
         23    2    1    2    0    0 -0.71177245681E+01  0.11817378937E+03 -0.50778699436E+03  0.52825292828E+03  0.84781000799E+02 0.  0.
          5    1    3    3  502    0  0.21652203828E+02  0.17660398470E+02 -0.18352872911E+03  0.18569053399E+03  0.41800000000E+01 0.  1.
         -5    1    3    3    0  502 -0.14534479260E+02 -0.13583418784E+03 -0.39850985311E+03  0.42129532765E+03  0.41800000000E+01 0.  1.
        -11    1    4    4    0    0  0.78843870913E+01  0.17072588089E+02 -0.12619625468E+02  0.22647113962E+02  0.00000000000E+00 0.  1.
         11    1    4    4    0    0 -0.15002111659E+02  0.10110120128E+03 -0.49516736890E+03  0.50560581432E+03  0.00000000000E+00 0. -1.
</event>
<event>
 8    1  0.3528896E-009  0.1008720E+03  0.7561462E-02  0.1278473E+00
          2   -1    0    0  501    0  0.00000000000E+00  0.00000000000E+00  0.10910638737E+03  0.10910638737E+03  0.00000000000E+00 0.  1.
         -2   -1    0    0    0  501 -0.00000000000E+00 -0.00000000000E+00 -0.20811385690E+03  0.20811385690E+03  0.00000000000E+00 0. -1.
         25    2    1    2    0    0 -0.17885955302E+02 -0.28690676951E+02 -0.15792806999E+03  0.20429892764E+03  0.12511480410E+03 0.  0.
         23    2    1    2    0    0  0.17885955302E+02  0.28690676951E+02  0.58920600463E+02  0.11292131663E+03  0.90202684272E+02 0.  0.
          5    1    3    3  502    0  0.43189611055E+02 -0.21624865771E+01 -0.13977706653E+02  0.45638443604E+02  0.41800000000E+01 0.  1.
         -5    1    3    3    0  502 -0.61075566357E+02 -0.26528190374E+02 -0.14395036334E+03  0.15866048404E+03  0.41800000000E+01 0.  1.
        -11    1    4    4    0    0  0.38901001893E+02  0.48858007770E+02  0.22718646839E+02  0.66456976953E+02  0.00000000000E+00 0. -1.
         11    1    4    4    0    0 -0.21015046591E+02 -0.20167330819E+02  0.36201953624E+02  0.46464339679E+02  0.00000000000E+00 0.  1.
</event>
<event>
 8    1  0.3528896E-009  0.1868368E+03  0.7561462E-02  0.1161346E+00
          2   -1    0    0  501    0  0.00000000000E+00  0.00000000000E+00  0.11024110664E+03  0.11024110664E+03  0.00000000000E+00 0. -1.
         -2   -1    0    0    0  501 -0.00000000000E+00 -0.00000000000E+00 -0.38072941054E+03  0.38072941054E+03  0.00000000000E+00 0.  1.
         25    2    1    2    0    0  0.13626298986E+03 -0.10026734694E+03 -0.18682948052E+03  0.28137704374E+03  0.12508654078E+03 0.  0.
         23    2    1    2    0    0 -0.13626298986E+03  0.10026734694E+03 -0.83658823377E+02  0.20959347345E+03  0.91156360798E+02 0.  0.
          5    1    3    3  502    0  0.14497742773E+03 -0.57169507926E+02 -0.10368610782E+03  0.18723004177E+03  0.41800000000E+01 0.  1.
         -5    1    3    3    0  502 -0.87144378680E+01 -0.43097839012E+02 -0.83143372698E+02  0.94147001962E+02  0.41800000000E+01 0.  1.
        -11    1    4    4    0    0 -0.27089135591E+02  0.27611601821E+01  0.16858876237E+02  0.32026035980E+02  0.00000000000E+00 0. -1.
         11    1    4    4    0    0 -0.10917385427E+03  0.97506186755E+02 -0.10051769961E+03  0.17756743747E+03  0.00000000000E+00 0.  1.
</event>
<event>
 8    1  0.3528896E-009  0.9645128E+02  0.7561462E-02  0.1287940E+00
          2   -1    0    0  501    0  0.00000000000E+00  0.00000000000E+00  0.48236611916E+03  0.48236611916E+03  0.00000000000E+00 0. -1.
         -2   -1    0    0    0  501 -0.00000000000E+00 -0.00000000000E+00 -0.30385060341E+02  0.30385060341E+02  0.00000000000E+00 0.  1.
         25    2    1    2    0    0 -0.44230130456E+02 -0.18815150469E+02  0.20524134012E+03  0.24511552541E+03  0.12508916330E+03 0.  0.
         23    2    1    2    0    0  0.44230130456E+02  0.18815150469E+02  0.24673971870E+03  0.26763565409E+03  0.91858805943E+02 0.  0.
          5    1    3    3  502    0 -0.68265709043E+02 -0.12679872641E+02  0.44852666531E+02  0.82766057634E+02  0.41800000000E+01 0. -1.
         -5    1    3    3    0  502  0.24035578586E+02 -0.61352778278E+01  0.16038867358E+03  0.16234946777E+03  0.41800000000E+01 0. -1.
        -11    1    4    4    0    0 -0.23663322513E+02  0.18914944663E+02  0.12102696516E+03  0.12476078815E+03  0.00000000000E+00 0. -1.
         11    1    4    4    0    0  0.67893452970E+02 -0.99794193502E-01  0.12571275353E+03  0.14287486594E+03  0.00000000000E+00 0.  1.
</event>
<event>
 8    1  0.3528896E-009  0.1064351E+03  0.7561462E-02  0.1267318E+00
          1   -1    0    0  501    0  0.00000000000E+00  0.00000000000E+00  0.13703544365E+04  0.13703544365E+04  0.00000000000E+00 0. -1.
         -1   -1    0    0    0  501 -0.00000000000E+00 -0.00000000000E+00 -0.10879819927E+02  0.10879819927E+02  0.00000000000E+00 0.  1.
         25    2    1    2    0    0  0.21862203870E+02  0.87407950731E+01  0.10395723233E+04  0.10473358136E+04  0.12508930214E+03 0.  0.
         23    2    1    2    0    0 -0.21862203870E+02 -0.87407950731E+01  0.31990229331E+03  0.33389844292E+03  0.92716424979E+02 0.  0.
          5    1    3    3  502    0  0.54907455684E+02  0.45338075537E+02  0.76685336461E+03  0.77016357028E+03  0.41800000000E+01 0. -1.
         -5    1    3    3    0  502 -0.33045251813E+02 -0.36597280464E+02  0.27271895871E+03  0.27717224328E+03  0.41800000000E+01 0. -1.
        -11    1    4    4    0    0  0.15749075644E+02 -0.40102686524E+02  0.10517214932E+03  0.11365491561E+03  0.00000000000E+00 0. -1.
         11    1    4    4    0    0 -0.37611279514E+02  0.31361891451E+02  0.21473014399E+03  0.22024352731E+03  0.00000000000E+00 0.  1.
</event>
<event>
 8    1  0.3528896E-009  0.1549261E+03  0.7561462E-02  0.1194547E+00
          1   -1    0    0  501    0  0.00000000000E+00  0.00000000000E+00  0.41439927498E+03  0.41439927498E+03  0.00000000000E+00 0. -1.
         -1   -1    0    0    0  501 -0.00000000000E+00 -0.00000000000E+00 -0.76940657195E+02  0.76940657195E+02  0.00000000000E+00 0.  1.
         25    2    1    2    0    0 -0.31929276795E+02  0.11323843818E+03  0.28614852210E+03  0.33372334129E+03  0.12509144344E+03 0.  0.
         23    2    1    2    0    0  0.31929276795E+02 -0.11323843818E+03  0.51310095686E+02  0.15761659089E+03  0.91475905057E+02 0.  0.
          5    1    3    3  502    0  0.16878586787E+02  0.11175232725E+03  0.24456682980E+03  0.26945106416E+03  0.41800000000E+01 0. -1.
         -5    1    3    3    0  502 -0.48807863582E+02  0.14861109284E+01  0.41581692306E+02  0.64272277135E+02  0.41800000000E+01 0. -1.
        -11    1    4    4    0    0  0.54078380064E+02 -0.30483478766E+02  0.11432591990E+02  0.63122245109E+02  0.00000000000E+00 0.  1.
         11    1    4    4    0    0 -0.22149103269E+02 -0.82754959413E+02  0.39877503696E+02  0.94494345778E+02  0.00000000000E+00 0. -1.
</event>
<event>
 8    1  0.3528896E-009  0.1524707E+03  0.7561462E-02  0.1197469E+00
          2   -1    0    0  501    0  0.00000000000E+00  0.00000000000E+00  0.90153602816E+03  0.90153602816E+03  0.00000000000E+00 0. -1.
         -2   -1    0    0    0  501 -0.00000000000E+00 -0.00000000000E+00 -0.36988168349E+02  0.36988168349E+02  0.00000000000E+00 0.  1.
         25    2    1    2    0    0  0.13657345021E+03 -0.43463126935E+02  0.52774398196E+03  0.56098523366E+03  0.12509744676E+03 0.  0.
         23    2    1    2    0    0 -0.13657345021E+03  0.43463126935E+02  0.33680387785E+03  0.37753896285E+03  0.92506570725E+02 0.  0.
          5    1    3    3  502    0  0.41969559336E+02 -0.49879662122E+02  0.79945037651E+02  0.10323810367E+03  0.41800000000E+01 0. -1.
         -5    1    3    3    0  502  0.94603890875E+02  0.64165351867E+01  0.44779894431E+03  0.45774712999E+03  0.41800000000E+01 0. -1.
        -11    1    4    4    0    0 -0.14104567783E+02 -0.16329665863E+01 -0.21200716995E+01  0.14356187385E+02  0.00000000000E+00 0.  1.
         11    1    4    4    0    0 -0.12246888243E+03  0.45096093521E+02  0.33892394955E+03  0.36318277546E+03  0.00000000000E+00 0. -1.
</event>
<event>
 8    1  0.3528896E-009  0.1006521E+03  0.7561462E-02  0.1278931E+00
          3   -1    0    0  501    0  0.00000000000E+00  0.00000000000E+00  0.37513545572E+02  0.37513545572E+02  0.00000000000E+00 0. -1.
         -3   -1    0    0    0  501 -0.00000000000E+00 -0.00000000000E+00 -0.46743147589E+03  0.46743147589E+03  0.00000000000E+00 0.  1.
         25    2    1    2    0    0 -0.30550543394E+02 -0.73150433379E+02 -0.25424345924E+03  0.29423072778E+03  0.12509061915E+03 0.  0.
         23    2    1    2    0    0  0.30550543394E+02  0.73150433379E+02 -0.17567447107E+03  0.21071429368E+03  0.85174363322E+02 0.  0.
          5    1    3    3  502    0 -0.52151119296E+02 -0.27846397456E+02 -0.34052810829E+02  0.68353693540E+02  0.41800000000E+01 0. -1.
         -5    1    3    3    0  502  0.21600575902E+02 -0.45304035923E+02 -0.22019064841E+03  0.22587703424E+03  0.41800000000E+01 0. -1.
        -11    1    4    4    0    0  0.64481372082E+01  0.66304168150E+02 -0.17316039663E+03  0.18553259592E+03  0.00000000000E+00 0.  1.
         11    1    4    4    0    0  0.24102406186E+02  0.68462652295E+01 -0.25140744420E+01  0.25181697755E+02  0.00000000000E+00 0. -1.
</event>
<event>
 8    1  0.3528896E-009  0.1712041E+03  0.7561462E-02  0.1176598E+00
         -2   -1    0    0    0  501 -0.00000000000E+00  0.00000000000E+00  0.75308179195E+02  0.75308179195E+02  0.00000000000E+00 0.  1.
          2   -1    0    0  501    0  0.00000000000E+00 -0.00000000000E+00 -0.44881627413E+03  0.44881627413E+03  0.00000000000E+00 0. -1.
         25    2    1    2    0    0 -0.17941905353E+02 -0.14597539833E+03 -0.19765302396E+03  0.27630393400E+03  0.12508563937E+03 0.  0.
         23    2    1    2    0    0  0.17941905353E+02  0.14597539833E+03 -0.17585507097E+03  0.24782051933E+03  0.94123721384E+02 0.  0.
          5    1    3    3  502    0 -0.60912400316E+02 -0.51775518134E+02 -0.45091462528E+02  0.91878926763E+02  0.41800000000E+01 0. -1.
         -5    1    3    3    0  502  0.42970494963E+02 -0.94199880197E+02 -0.15256156143E+03  0.18442500724E+03  0.41800000000E+01 0. -1.
        -11    1    4    4    0    0  0.38512353221E+02  0.68615003528E+02 -0.35673026093E+02  0.86393199098E+02  0.00000000000E+00 0.  1.
         11    1    4    4    0    0 -0.20570447868E+02  0.77360394802E+02 -0.14018204488E+03  0.16142732023E+03  0.00000000000E+00 0. -1.
</event>
<event>
 8    1  0.3528896E-009  0.2799186E+03  0.7561462E-02  0.1095733E+00
          1   -1    0    0  501    0  0.00000000000E+00  0.00000000000E+00  0.55822829717E+03  0.55822829717E+03  0.00000000000E+00 0. -1.
         -1   -1    0    0    0  501 -0.00000000000E+00 -0.00000000000E+00 -0.29920907476E+03  0.29920907476E+03  0.00000000000E+00 0.  1.
         25    2    1    2    0    0 -0.19180472849E+03 -0.17336591648E+03  0.44264932377E+03  0.52766309738E+03  0.12508047661E+03 0.  0.
         23    2    1    2    0    0  0.19180472849E+03  0.17336591648E+03 -0.18363010137E+03  0.32977427456E+03  0.90477970583E+02 0.  0.
          5    1    3    3  502    0 -0.78796669843E+01  0.18325615508E+02  0.20831419166E+02  0.29143399939E+02  0.41800000000E+01 0.  1.
         -5    1    3    3    0  502 -0.18392506150E+03 -0.19169153199E+03  0.42181790461E+03  0.49851969744E+03  0.41800000000E+01 0.  1.
        -11    1    4    4    0    0  0.13915893908E+03  0.17180956225E+03 -0.15257797489E+03  0.26863315958E+03  0.00000000000E+00 0.  1.
         11    1    4    4    0    0  0.52645789408E+02  0.15563542314E+01 -0.31052126482E+02  0.61141114971E+02  0.00000000000E+00 0. -1.
</event>
<event>
 8    1  0.3528896E-009  0.9146460E+02  0.7561462E-02  0.1299343E+00
          2   -1    0    0  501    0  0.00000000000E+00  0.00000000000E+00  0.91292548819E+03  0.91292548819E+03  0.00000000000E+00 0.  1.
         -2   -1    0    0    0  501 -0.00000000000E+00 -0.00000000000E+00 -0.27760515597E+02  0.27760515597E+02  0.00000000000E+00 0. -1.
         25    2    1    2    0    0  0.25195912218E+02  0.52094197980E+01  0.80726784874E+03  0.81730655329E+03  0.12508657158E+03 0.  0.
         23    2    1    2    0    0 -0.25195912218E+02 -0.52094197980E+01  0.77897123857E+02  0.12337945050E+03  0.92155058757E+02 0.  0.
          5    1    3    3  502    0  0.44253413853E+02 -0.34262687856E+02  0.18120265802E+03  0.18969494482E+03  0.41800000000E+01 0. -1.
         -5    1    3    3    0  502 -0.19057501636E+02  0.39472107654E+02  0.62606519072E+03  0.62761160847E+03  0.41800000000E+01 0. -1.
        -11    1    4    4    0    0  0.16284828949E+02 -0.30226989580E+02  0.64582212222E+02  0.73141839520E+02  0.00000000000E+00 0.  1.
         11    1    4    4    0    0 -0.41480741167E+02  0.25017569782E+02  0.13314911635E+02  0.50237610984E+02  0.00000000000E+00 0. -1.
</event>
<event>
 8    1  0.3528896E-009  0.1141574E+03  0.7561462E-02  0.1253059E+00
         -1   -1    0    0    0  501 -0.00000000000E+00  0.00000000000E+00  0.41225763425E+03  0.41225763425E+03  0.00000000000E+00 0.  1.
          1   -1    0    0  501    0  0.00000000000E+00 -0.00000000000E+00 -0.35253571647E+02  0.35253571647E+02  0.00000000000E+00 0. -1.
         25    2    1    2    0    0  0.70633326752E+01  0.41885477106E+02  0.27276984350E+03  0.30307682614E+03  0.12509153112E+03 0.  0.
         23    2    1    2    0    0 -0.70633326752E+01 -0.41885477106E+02  0.10423421910E+03  0.14443437976E+03  0.90510959354E+02 0.  0.
          5    1    3    3  502    0 -0.52389231856E+02  0.49007515144E+02  0.15735890947E+03  0.17299036662E+03  0.41800000000E+01 0. -1.
         -5    1    3    3    0  502  0.59452564531E+02 -0.71220380381E+01  0.11541093403E+03  0.13008645952E+03  0.41800000000E+01 0. -1.
        -11    1    4    4    0    0 -0.44878082769E+02 -0.78578014830E+01  0.30398904953E+02  0.54771167411E+02  0.00000000000E+00 0. -1.
         11    1    4    4    0    0  0.37814750094E+02 -0.34027675623E+02  0.73835314148E+02  0.89663212347E+02  0.00000000000E+00 0.  1.
</event>
<event>
 8    1  0.3528896E-009  0.8925896E+02  0.7561462E-02  0.1304656E+00
         -1   -1    0    0    0  501 -0.00000000000E+00  0.00000000000E+00  0.83943516191E+02  0.83943516191E+02  0.00000000000E+00 0.  1.
          1   -1    0    0  501    0  0.00000000000E+00 -0.00000000000E+00 -0.18131133498E+03  0.18131133498E+03  0.00000000000E+00 0. -1.
         25    2    1    2    0    0 -0.20464447581E+02  0.59092661994E+02 -0.61436167479E+02  0.15275350855E+03  0.12509394623E+03 0.  0.
         23    2    1    2    0    0  0.20464447581E+02 -0.59092661994E+02 -0.35931651314E+02  0.11250134262E+03  0.86340791108E+02 0.  0.
          5    1    3    3  502    0 -0.21782160306E+02  0.10673530470E+02  0.36146070736E+02  0.43730968317E+02  0.41800000000E+01 0. -1.
         -5    1    3    3    0  502  0.13177127252E+01  0.48419131524E+02 -0.97582238216E+02  0.10902254024E+03  0.41800000000E+01 0. -1.
        -11    1    4    4    0    0  0.25080975503E+02  0.16196526144E+02 -0.18365213793E+02  0.35052301906E+02  0.00000000000E+00 0.  1.
         11    1    4    4    0    0 -0.46165279220E+01 -0.75289188138E+02 -0.17566437521E+02  0.77449040715E+02  0.00000000000E+00 0. -1.
</event>
<event>
 8    1  0.3528896E-009  0.1058782E+03  0.7561462E-02  0.1268399E+00
         -2   -1    0    0    0  501 -0.00000000000E+00  0.00000000000E+00  0.49571144877E+02  0.49571144877E+02  0.00000000000E+00 0.  1.
          2   -1    0    0  501    0  0.00000000000E+00 -0.00000000000E+00 -0.43348922622E+03  0.43348922622E+03  0.00000000000E+00 0. -1.
         25    2    1    2    0    0  0.54525768963E+02  0.50361528600E+02 -0.10798712971E+03  0.18115886780E+03  0.12509185487E+03 0.  0.
         23    2    1    2    0    0 -0.54525768963E+02 -0.50361528600E+02 -0.27593095163E+03  0.30190150330E+03  0.97454012640E+02 0.  0.
          5    1    3    3  502    0  0.23766646005E+02  0.64149396063E+02 -0.61339821397E+00  0.68540842824E+02  0.41800000000E+01 0. -1.
         -5    1    3    3    0  502  0.30759122958E+02 -0.13787867464E+02 -0.10737373149E+03  0.11261802498E+03  0.41800000000E+01 0. -1.
        -11    1    4    4    0    0  0.10931121655E+02 -0.41838273058E+02 -0.48005771658E+02  0.64610251706E+02  0.00000000000E+00 0.  1.
         11    1    4    4    0    0 -0.65456890617E+02 -0.85232555415E+01 -0.22792517998E+03  0.23729125159E+03  0.00000000000E+00 0. -1.
</event>
<event>
 8    1  0.3528896E-009  0.8332848E+02  0.7561462E-02  0.1319863E+00
         -1   -1    0    0    0  501 -0.00000000000E+00  0.00000000000E+00  0.97605381166E+03  0.97605381166E+03  0.00000000000E+00 0.  1.
          1   -1    0    0  501    0  0.00000000000E+00 -0.00000000000E+00 -0.12601667888E+02  0.12601667888E+02  0.00000000000E+00 0. -1.
         25    2    1    2    0    0 -0.22751192503E+02 -0.85562557026E+01  0.58809733502E+03  0.60174455163E+03  0.12508878324E+03 0.  0.
         23    2    1    2    0    0  0.22751192503E+02  0.85562557026E+01  0.37535480875E+03  0.38691092792E+03  0.90653226166E+02 0.  0.
          5    1    3    3  502    0  0.14559154589E+02  0.20734107511E+02  0.22483801422E+02  0.34130132185E+02  0.41800000000E+01 0.  1.
         -5    1    3    3    0  502 -0.37310347092E+02 -0.29290363213E+02  0.56561353360E+03  0.56761441945E+03  0.41800000000E+01 0.  1.
        -11    1    4    4    0    0 -0.31375438749E+02 -0.14456525949E+02  0.12025374636E+03  0.12511743609E+03  0.00000000000E+00 0. -1.
         11    1    4    4    0    0  0.54126631252E+02  0.23012781652E+02  0.25510106239E+03  0.26179349183E+03  0.00000000000E+00 0.  1.
</event>
<event>
 8    1  0.3528896E-009  0.7602839E+02  0.7561462E-02  0.1340716E+00
          4   -1    0    0  501    0  0.00000000000E+00  0.00000000000E+00  0.11653232044E+03  0.11653232044E+03  0.00000000000E+00 0. -1.
         -4   -1    0    0    0  501 -0.00000000000E+00 -0.00000000000E+00 -0.12243026977E+03  0.12243026977E+03  0.00000000000E+00 0.  1.
         25    2    1    2    0    0  0.23563830705E+02  0.23415962332E+02 -0.29364892213E+02  0.13271630508E+03  0.12509100420E+03 0.  0.
         23    2    1    2    0    0 -0.23563830705E+02 -0.23415962332E+02  0.23466942884E+02  0.10624628512E+03  0.98153014648E+02 0.  0.
          5    1    3    3  502    0 -0.43719974400E+02  0.10859580478E+02  0.18722379207E+02  0.48962909767E+02  0.41800000000E+01 0. -1.
         -5    1    3    3    0  502  0.67283805104E+02  0.12556381854E+02 -0.48087271420E+02  0.83753395318E+02  0.41800000000E+01 0. -1.
        -11    1    4    4    0    0 -0.41983009791E+01 -0.17494565826E+02 -0.37722349344E+02  0.41793076036E+02  0.00000000000E+00 0.  1.
         11    1    4    4    0    0 -0.19365529726E+02 -0.59213965055E+01  0.61189292228E+02  0.64453209086E+02  0.00000000000E+00 0. -1.
</event>
<event>
 8    1  0.3528896E-009  0.1474333E+03  0.7561462E-02  0.1203663E+00
          1   -1    0    0  501    0  0.00000000000E+00  0.00000000000E+00  0.99281981780E+03  0.99281981780E+03  0.00000000000E+00 0. -1.
         -1   -1    0    0    0  501 -0.00000000000E+00 -0.00000000000E+00 -0.28185159803E+02  0.28185159803E+02  0.00000000000E+00 0.  1.
         25    2    1    2    0    0  0.10319845155E+03  0.38680645787E+02  0.70169173156E+03  0.72122512964E+03  0.12509312021E+03 0.  0.
         23    2    1    2    0    0 -0.10319845155E+03 -0.38680645787E+02  0.26294292644E+03  0.29977984796E+03  0.92643736546E+02 0.  0.
          5    1    3    3  502    0  0.74128780538E+02  0.82731460932E+02  0.53101503140E+03  0.54252558162E+03  0.41800000000E+01 0.  1.
         -5    1    3    3    0  502  0.29069671008E+02 -0.44050815145E+02  0.17067670016E+03  0.17869954802E+03  0.41800000000E+01 0.  1.
        -11    1    4    4    0    0 -0.93981395636E+02 -0.31284242252E+01  0.12145143868E+03  0.15359928945E+03  0.00000000000E+00 0.  1.
         11    1    4    4    0    0 -0.92170559099E+01 -0.35552221561E+02  0.14149148776E+03  0.14618055851E+03  0.00000000000E+00 0. -1.
</event>
<event>
 8    1  0.3528896E-009  0.1857847E+03  0.7561462E-02  0.1162319E+00
          1   -1    0    0  501    0  0.00000000000E+00  0.00000000000E+00  0.67092296073E+02  0.67092296073E+02  0.00000000000E+00 0. -1.
         -1   -1    0    0    0  501 -0.00000000000E+00 -0.00000000000E+00 -0.83746136165E+03  0.83746136165E+03  0.00000000000E+00 0.  1.
         25    2    1    2    0    0  0.92024404231E+02 -0.13512370037E+03 -0.65104800385E+03  0.68281655035E+03  0.12509209705E+03 0.  0.
         23    2    1    2    0    0 -0.92024404231E+02  0.13512370037E+03 -0.11932106173E+03  0.22173710737E+03  0.90569993031E+02 0.  0.
          5    1    3    3  502    0  0.12290941280E+03 -0.10954923159E+03 -0.49689223014E+03  0.52347599627E+03  0.41800000000E+01 0.  1.
         -5    1    3    3    0  502 -0.30885008571E+02 -0.25574468782E+02 -0.15415577371E+03  0.15934055408E+03  0.41800000000E+01 0.  1.
        -11    1    4    4    0    0 -0.48470346998E+02  0.43588777129E+02 -0.98713472070E+02  0.11829499397E+03  0.00000000000E+00 0.  1.
         11    1    4    4    0    0 -0.43554057233E+02  0.91534923242E+02 -0.20607589664E+02  0.10344211341E+03  0.00000000000E+00 0. -1.
</event>
<event>
 8    1  0.3528896E-009  0.1024411E+03  0.7561462E-02  0.1275245E+00
          1   -1    0    0  501    0  0.00000000000E+00  0.00000000000E+00  0.46682882368E+03  0.46682882368E+03  0.00000000000E+00 0. -1.
         -1   -1    0    0    0  501 -0.00000000000E+00 -0.00000000000E+00 -0.57892029440E+02  0.57892029440E+02  0.00000000000E+00 0.  1.
         25    2    1    2    0    0 -0.55402461151E+02  0.45775094009E+02  0.37891033960E+03  0.40544476487E+03  0.12509044718E+03 0.  0.
         23    2    1    2    0    0  0.55402461151E+02 -0.45775094009E+02  0.30026454647E+02  0.11927608825E+03  0.90334961762E+02 0.  0.
          5    1    3    3  502    0 -0.48836507875E+02 -0.24089929246E+02  0.70802472422E+02  0.89419190857E+02  0.41800000000E+01 0. -1.
         -5    1    3    3    0  502 -0.65659532757E+01  0.69865023255E+02  0.30810786717E+03  0.31602557401E+03  0.41800000000E+01 0. -1.
        -11    1    4    4    0    0  0.33555341023E+02 -0.47385693267E+02 -0.22573227185E+02  0.62296993693E+02  0.00000000000E+00 0.  1.
         11    1    4    4    0    0  0.21847120128E+02  0.16105992581E+01  0.52599681832E+02  0.56979094558E+02  0.00000000000E+00 0. -1.
</event>
<event>
 8    1  0.3528896E-009  0.7125202E+02  0.7561462E-02  0.1355887E+00
         -1   -1    0    0    0  501 -0.00000000000E+00  0.00000000000E+00  0.21199516370E+03  0.21199516370E+03  0.00000000000E+00 0.  1.
          1   -1    0    0  501    0  0.00000000000E+00 -0.00000000000E+00 -0.11598435831E+03  0.11598435831E+03  0.00000000000E+00 0. -1.
         25    2    1    2    0    0  0.32394997152E+02 -0.24346160799E-01  0.16609480946E+03  0.21043789026E+03  0.12508870251E+03 0.  0.
         23    2    1    2    0    0 -0.32394997152E+02  0.24346160799E-01 -0.70084004073E+02  0.11754163175E+03  0.88627485208E+02 0.  0.
          5    1    3    3  502    0  0.27765457909E+02  0.26900668497E+02 -0.30927587428E+01  0.39007745066E+02  0.41800000000E+01 0. -1.
         -5    1    3    3    0  502  0.46295392428E+01 -0.26925014657E+02  0.16918756820E+03  0.17143014520E+03  0.41800000000E+01 0. -1.
        -11    1    4    4    0    0 -0.47377242886E+02  0.19649728669E+02 -0.95582382883E+01  0.52173507640E+02  0.00000000000E+00 0.  1.
         11    1    4    4    0    0  0.14982245734E+02 -0.19625382508E+02 -0.60525765784E+02  0.65368124110E+02  0.00000000000E+00 0. -1.
</event>
<event>
 8    1  0.3528896E-009  0.1367956E+03  0.7561462E-02  0.1217707E+00
         -1   -1    0    0    0  501 -0.00000000000E+00  0.00000000000E+00  0.24139811668E+03  0.24139811668E+03  0.00000000000E+00 0.  1.
          1   -1    0    0  501    0  0.00000000000E+00 -0.00000000000E+00 -0.10773272132E+03  0.10773272132E+03  0.00000000000E+00 0. -1.
         25    2    1    2    0    0 -0.10234663649E+03  0.61141576005E+02  0.66409935011E+02  0.18512355887E+03  0.12508927317E+03 0.  0.
         23    2    1    2    0    0  0.10234663649E+03 -0.61141576005E+02  0.67255460349E+02  0.16400727913E+03  0.90343590489E+02 0.  0.
          5    1    3    3  502    0 -0.28496381285E+02 -0.23580731016E+02  0.62308155489E+02  0.72580116162E+02  0.41800000000E+01 0. -1.
         -5    1    3    3    0  502 -0.73850255206E+02  0.84722307021E+02  0.41017795212E+01  0.11254344271E+03  0.41800000000E+01 0. -1.
        -11    1    4    4    0    0  0.36066494458E+02 -0.41044569621E+02  0.76630922537E+02  0.94115604481E+02  0.00000000000E+00 0.  1.
         11    1    4    4    0    0  0.66280142034E+02 -0.20097006384E+02 -0.93754621886E+01  0.69891674647E+02  0.00000000000E+00 0. -1.
</event>
<event>
 8    1  0.3528896E-009  0.1157028E+03  0.7561462E-02  0.1250359E+00
         -2   -1    0    0    0  501 -0.00000000000E+00  0.00000000000E+00  0.78548573275E+02  0.78548573275E+02  0.00000000000E+00 0.  1.
          2   -1    0    0  501    0  0.00000000000E+00 -0.00000000000E+00 -0.27326281527E+03  0.27326281527E+03  0.00000000000E+00 0. -1.
         25    2    1    2    0    0  0.53582660498E+02 -0.57420308768E+02 -0.17758605716E+03  0.23097801468E+03  0.12508334102E+03 0.  0.
         23    2    1    2    0    0 -0.53582660498E+02  0.57420308768E+02 -0.17128184828E+02  0.12083337387E+03  0.90217161113E+02 0.  0.
          5    1    3    3  502    0 -0.14433581081E+02  0.24629798531E+02 -0.68310094560E+01  0.29649457477E+02  0.41800000000E+01 0. -1.
         -5    1    3    3    0  502  0.68016241578E+02 -0.82050107299E+02 -0.17075504771E+03  0.20132855720E+03  0.41800000000E+01 0. -1.
        -11    1    4    4    0    0 -0.28493138221E+02  0.63915751396E+02 -0.44665269961E+02  0.83018483140E+02  0.00000000000E+00 0. -1.
         11    1    4    4    0    0 -0.25089522277E+02 -0.64954426284E+01  0.27537085133E+02  0.37814890726E+02  0.00000000000E+00 0.  1.
</event>
<event>
 8    1  0.3528896E-009  0.1993309E+03  0.7561462E-02  0.1150305E+00
          2   -1    0    0  501    0  0.00000000000E+00  0.00000000000E+00  0.15930142149E+04  0.15930142149E+04  0.00000000000E+00 0. -1.
         -2   -1    0    0    0  501 -0.00000000000E+00 -0.00000000000E+00 -0.27908643204E+02  0.27908643204E+02  0.00000000000E+00 0.  1.
         25    2    1    2    0    0 -0.14371506864E+03  0.97130654848E+02  0.10080678941E+04  0.10305008676E+04  0.12507107614E+03 0.  0.
         23    2    1    2    0    0  0.14371506864E+03 -0.97130654848E+02  0.55703767762E+03  0.59042199045E+03  0.90657418140E+02 0.  0.
          5    1    3    3  502    0 -0.26977104945E+01  0.69772322030E+02  0.30988216484E+03  0.31767889928E+03  0.41800000000E+01 0.  1.
         -5    1    3    3    0  502 -0.14101735814E+03  0.27358332819E+02  0.69818572921E+03  0.71282196834E+03  0.41800000000E+01 0.  1.
        -11    1    4    4    0    0  0.59446384530E+02 -0.78897511090E+02  0.19927398644E+03  0.22241585276E+03  0.00000000000E+00 0.  1.
         11    1    4    4    0    0  0.84268684107E+02 -0.18233143758E+02  0.35776369118E+03  0.36800613769E+03  0.00000000000E+00 0. -1.
</event>
<event>
 8    1  0.3528896E-009  0.7811794E+02  0.7561462E-02  0.1334479E+00
          1   -1    0    0  501    0  0.00000000000E+00  0.00000000000E+00  0.11709569766E+04  0.11709569766E+04  0.00000000000E+00 0. -1.
         -1   -1    0    0    0  501 -0.00000000000E+00 -0.00000000000E+00 -0.12563953119E+02  0.12563953119E+02  0.00000000000E+00 0.  1.
         25    2    1    2    0    0 -0.17492232449E+02  0.43596595265E+02  0.78198342112E+03  0.79331705719E+03  0.12508893235E+03 0.  0.
         23    2    1    2    0    0  0.17492232449E+02 -0.43596595265E+02  0.37640960235E+03  0.39020387252E+03  0.91478041501E+02 0.  0.
          5    1    3    3  502    0  0.72756146729E+01  0.17863463841E+01  0.68216758960E+03  0.68222153169E+03  0.41800000000E+01 0. -1.
         -5    1    3    3    0  502 -0.24767847122E+02  0.41810248881E+02  0.99815831524E+02  0.11109552550E+03  0.41800000000E+01 0. -1.
        -11    1    4    4    0    0  0.32135002550E+02  0.17129423987E+02  0.90536137462E+02  0.97585181977E+02  0.00000000000E+00 0.  1.
         11    1    4    4    0    0 -0.14642770101E+02 -0.60726019251E+02  0.28587346489E+03  0.29261869055E+03  0.00000000000E+00 0. -1.
</event>
<event>
 8    1  0.3528896E-009  0.1024501E+03  0.7561462E-02  0.1275227E+00
         -1   -1    0    0    0  501 -0.00000000000E+00  0.00000000000E+00  0.24149416168E+03  0.24149416168E+03  0.00000000000E+00 0.  1.
          1   -1    0    0  501    0  0.00000000000E+00 -0.00000000000E+00 -0.10282444570E+03  0.10282444570E+03  0.00000000000E+00 0. -1.
         25    2    1    2    0    0 -0.74059196602E+01 -0.72497751989E+02  0.17596029412E+03  0.22786037628E+03  0.12509018460E+03 0.  0.
         23    2    1    2    0    0  0.74059196602E+01  0.72497751989E+02 -0.37290578139E+02  0.11645823109E+03  0.82832123489E+02 0.  0.
          5    1    3    3  502    0  0.33083012279E+02 -0.55245843989E+01 -0.15319796324E+01  0.33835278865E+02  0.41800000000E+01 0. -1.
         -5    1    3    3    0  502 -0.40488931939E+02 -0.66973167590E+02  0.17749227375E+03  0.19402509742E+03  0.41800000000E+01 0. -1.
        -11    1    4    4    0    0  0.20265063102E+02  0.12232835827E+01 -0.39049453361E+02  0.44011691777E+02  0.00000000000E+00 0. -1.
         11    1    4    4    0    0 -0.12859143442E+02  0.71274468406E+02  0.17588752225E+01  0.72446539315E+02  0.00000000000E+00 0.  1.
</event>
<event>
 8    1  0.3528896E-009  0.1022109E+03  0.7561462E-02  0.1275714E+00
          1   -1    0    0  501    0  0.00000000000E+00  0.00000000000E+00  0.22176583346E+03  0.22176583346E+03  0.00000000000E+00 0. -1.
         -1   -1    0    0    0  501 -0.00000000000E+00 -0.00000000000E+00 -0.78241138450E+02  0.78241138450E+02  0.00000000000E+00 0.  1.
         25    2    1    2    0    0 -0.72925389325E+01 -0.15363228169E+02 -0.42222513565E+01  0.12630623589E+03  0.12508488284E+03 0.  0.
         23    2    1    2    0    0  0.72925389325E+01  0.15363228169E+02  0.14774694637E+03  0.17370073602E+03  0.89741716220E+02 0.  0.
          5    1    3    3  502    0  0.35898083661E+02 -0.48798781304E+02  0.23250367023E+02  0.65023422196E+02  0.41800000000E+01 0.  1.
         -5    1    3    3    0  502 -0.43190622593E+02  0.33435553135E+02 -0.27472618380E+02  0.61282813693E+02  0.41800000000E+01 0.  1.
        -11    1    4    4    0    0  0.30544570485E+02 -0.26886329186E+02  0.48144452747E+02  0.63037558753E+02  0.00000000000E+00 0.  1.
         11    1    4    4    0    0 -0.23252031552E+02  0.42249557356E+02  0.99602493618E+02  0.11066317727E+03  0.00000000000E+00 0. -1.
</event>
<event>
 8    1  0.3528896E-009  0.1115637E+03  0.7561462E-02  0.1257701E+00
         -1   -1    0    0    0  501 -0.00000000000E+00  0.00000000000E+00  0.18929529863E+03  0.18929529863E+03  0.00000000000E+00 0.  1.
          1   -1    0    0  501    0  0.00000000000E+00 -0.00000000000E+00 -0.11505334950E+03  0.11505334950E+03  0.00000000000E+00 0. -1.
         25    2    1    2    0    0  0.54935137379E+02 -0.19102036327E+02  0.11700161826E+03  0.18088733913E+03  0.12509234058E+03 0.  0.
         23    2    1    2    0    0 -0.54935137379E+02  0.19102036327E+02 -0.42759669133E+02  0.12346130900E+03  0.10015761780E+03 0.  0.
          5    1    3    3  502    0  0.20499197293E+02 -0.70481786163E+02  0.46434755194E+02  0.86957220288E+02  0.41800000000E+01 0.  1.
         -5    1    3    3    0  502  0.34435940086E+02  0.51379749835E+02  0.70566863066E+02  0.93930118842E+02  0.41800000000E+01 0.  1.
        -11    1    4    4    0    0 -0.32285093195E+02 -0.23112655516E+02 -0.60507881734E+02  0.72372134413E+02  0.00000000000E+00 0. -1.
         11    1    4    4    0    0 -0.22650044184E+02  0.42214691843E+02  0.17748212601E+02  0.51089174582E+02  0.00000000000E+00 0.  1.
</event>
<event>
 8    1  0.3528896E-009  0.1330315E+03  0.7561462E-02  0.1223026E+00
         -2   -1    0    0    0  501 -0.00000000000E+00  0.00000000000E+00  0.19726860582E+02  0.19726860582E+02  0.00000000000E+00 0.  1.
          2   -1    0    0  501    0  0.00000000000E+00 -0.00000000000E+00 -0.10869045342E+04  0.10869045342E+04  0.00000000000E+00 0. -1.
         25    2    1    2    0    0 -0.45235398577E+02  0.63652441986E+02 -0.80995722073E+03  0.82327023292E+03  0.12508118304E+03 0.  0.
         23    2    1    2    0    0  0.45235398577E+02 -0.63652441986E+02 -0.25722045290E+03  0.28336116187E+03  0.89628745454E+02 0.  0.
          5    1    3    3  502    0 -0.56673145769E+02  0.96704461425E+02 -0.62672791519E+03  0.63668591188E+03  0.41800000000E+01 0. -1.
         -5    1    3    3    0  502  0.11437747192E+02 -0.33052019440E+02 -0.18322930554E+03  0.18658432104E+03  0.41800000000E+01 0. -1.
        -11    1    4    4    0    0  0.26480067248E+02 -0.85717488675E+02 -0.18714899367E+03  0.20754138782E+03  0.00000000000E+00 0.  1.
         11    1    4    4    0    0  0.18755331329E+02  0.22065046689E+02 -0.70071459230E+02  0.75819774052E+02  0.00000000000E+00 0. -1.
</event>
<event>
 8    1  0.3528896E-009  0.1239955E+03  0.7561462E-02  0.1236648E+00
          2   -1    0    0  501    0  0.00000000000E+00  0.00000000000E+00  0.81244333288E+03  0.81244333288E+03  0.00000000000E+00 0. -1.
         -2   -1    0    0    0  501 -0.00000000000E+00 -0.00000000000E+00 -0.22776876471E+02  0.22776876471E+02  0.00000000000E+00 0.  1.
         25    2    1    2    0    0 -0.25248909793E+02  0.69167364635E+02  0.53069407630E+03  0.55018636420E+03  0.12508877227E+03 0.  0.
         23    2    1    2    0    0  0.25248909793E+02 -0.69167364635E+02  0.25897238011E+03  0.28503384516E+03  0.93573326597E+02 0.  0.
          5    1    3    3  502    0 -0.27630846789E+01 -0.31385441209E+02  0.55723000993E+02  0.64149869809E+02  0.41800000000E+01 0. -1.
         -5    1    3    3    0  502 -0.22485825114E+02  0.10055280584E+03  0.47497107531E+03  0.48603649439E+03  0.41800000000E+01 0. -1.
        -11    1    4    4    0    0  0.86371237406E+00 -0.84354703937E+02  0.14750534430E+03  0.16992436162E+03  0.00000000000E+00 0. -1.
         11    1    4    4    0    0  0.24385197419E+02  0.15187339303E+02  0.11146703580E+03  0.11510948353E+03  0.00000000000E+00 0.  1.
</event>
<event>
 8    1  0.3528896E-009  0.9078442E+02  0.7561462E-02  0.1300963E+00
          2   -1    0    0  501    0  0.00000000000E+00  0.00000000000E+00  0.19885537436E+03  0.19885537436E+03  0.00000000000E+00 0. -1.
         -2   -1    0    0    0  501 -0.00000000000E+00 -0.00000000000E+00 -0.63459294223E+02  0.63459294223E+02  0.00000000000E+00 0.  1.
         25    2    1    2    0    0 -0.29200697456E+02  0.59764658886E+01  0.99651283763E+02  0.16267960608E+03  0.12508348014E+03 0.  0.
         23    2    1    2    0    0  0.29200697456E+02 -0.59764658886E+01  0.35744796373E+02  0.99635062499E+02  0.88096857691E+02 0.  0.
          5    1    3    3  502    0 -0.73168653533E+02  0.20689663274E+02  0.84435117503E+02  0.11370345419E+03  0.41800000000E+01 0. -1.
         -5    1    3    3    0  502  0.43967956077E+02 -0.14713197385E+02  0.15216166260E+02  0.48976151896E+02  0.41800000000E+01 0. -1.
        -11    1    4    4    0    0 -0.83123687509E+01 -0.17705822211E+02  0.53160935167E+02  0.56645181986E+02  0.00000000000E+00 0. -1.
         11    1    4    4    0    0  0.37513066207E+02  0.11729356322E+02 -0.17416138795E+02  0.42989880513E+02  0.00000000000E+00 0.  1.
</event>
<event>
 8    1  0.3528896E-009  0.1664419E+03  0.7561462E-02  0.1181610E+00
          1   -1    0    0  501    0  0.00000000000E+00  0.00000000000E+00  0.86411777215E+03  0.86411777215E+03  0.00000000000E+00 0. -1.
         -1   -1    0    0    0  501 -0.00000000000E+00 -0.00000000000E+00 -0.51769165240E+02  0.51769165240E+02  0.00000000000E+00 0.  1.
         25    2    1    2    0    0 -0.13772191103E+02  0.15748797620E+03  0.61625993286E+03  0.64839486773E+03  0.12508982271E+03 0.  0.
         23    2    1    2    0    0  0.13772191103E+02 -0.15748797620E+03  0.19608867404E+03  0.26749206966E+03  0.90050559950E+02 0.  0.
          5    1    3    3  502    0 -0.38337691365E+02  0.51865943210E+02  0.88472420236E+02  0.10956594447E+03  0.41800000000E+01 0.  1.
         -5    1    3    3    0  502  0.24565500262E+02  0.10562203299E+03  0.52778751263E+03  0.53882892326E+03  0.41800000000E+01 0.  1.
        -11    1    4    4    0    0 -0.56359785573E+01 -0.64059377045E+02  0.14641326238E+03  0.15991313718E+03  0.00000000000E+00 0.  1.
         11    1    4    4    0    0  0.19408169661E+02 -0.93428599157E+02  0.49675411664E+02  0.10757893248E+03  0.00000000000E+00 0. -1.
</event>
<event>
 8    1  0.3528896E-009  0.2564129E+03  0.7561462E-02  0.1109318E+00
         -2   -1    0    0    0  501 -0.00000000000E+00  0.00000000000E+00  0.68557965031E+02  0.68557965031E+02  0.00000000000E+00 0.  1.
          2   -1    0    0  501    0  0.00000000000E+00 -0.00000000000E+00 -0.11097350453E+04  0.11097350453E+04  0.00000000000E+00 0. -1.
         25    2    1    2    0    0  0.99980008850E+02  0.23225362360E+03 -0.59824702525E+03  0.66142600060E+03  0.12508838159E+03 0.  0.
         23    2    1    2    0    0 -0.99980008850E+02 -0.23225362360E+03 -0.44293005504E+03  0.51686700975E+03  0.83825558526E+02 0.  0.
          5    1    3    3  502    0 -0.36746314300E+01  0.44376513517E+02 -0.23743672919E+03  0.24161219058E+03  0.41800000000E+01 0. -1.
         -5    1    3    3    0  502  0.10365464028E+03  0.18787711008E+03 -0.36081029606E+03  0.41981381002E+03  0.41800000000E+01 0. -1.
        -11    1    4    4    0    0 -0.36169005318E+02 -0.63603702392E+02 -0.63951060129E+02  0.97176982847E+02  0.00000000000E+00 0.  1.
         11    1    4    4    0    0 -0.63811003532E+02 -0.16864992121E+03 -0.37897899492E+03  0.41969002690E+03  0.00000000000E+00 0. -1.
</event>
<event>
 7    1  0.3528896E-009  0.1101963E+03  0.7561462E-02  0.1260207E+00
          1   -1    0    0  501    0  0.00000000000E+00  0.00000000000E+00  0.14653347635E+03  0.14653347635E+03  0.00000000000E+00 0. -1.
         -1   -1    0    0    0  501 -0.00000000000E+00 -0.00000000000E+00 -0.10439767249E+03  0.10439767249E+03  0.00000000000E+00 0.  1.
         23    2    1    2    0    0 -0.50089631528E+02  0.13826310212E+02  0.34132814501E+02  0.11531958673E+03  0.97125794808E+02 0.  0.
          5    1    1    2  502    0  0.27866065385E+02 -0.63187070336E+02 -0.23222589228E+02  0.72978657895E+02  0.41800000000E+01 0. -1.
         -5    1    1    2    0  502  0.22223566143E+02  0.49360760124E+02  0.31225578586E+02  0.62632904213E+02  0.41800000000E+01 0. -1.
        -11    1    3    3    0    0 -0.34011929482E+02  0.48184645660E+02 -0.69669391596E+01  0.59389474368E+02  0.00000000000E+00 0.  1.
         11    1    3    3    0    0 -0.16077702046E+02 -0.34358335448E+02  0.41099753660E+02  0.55930112362E+02  0.00000000000E+00 0. -1.
</event>
<event>
 8    1  0.3528896E-009  0.9494072E+02  0.7561462E-02  0.1291310E+00
          2   -1    0    0  501    0  0.00000000000E+00  0.00000000000E+00  0.11518979333E+03  0.11518979333E+03  0.00000000000E+00 0.  1.
         -2   -1    0    0    0  501 -0.00000000000E+00 -0.00000000000E+00 -0.12451412298E+03  0.12451412298E+03  0.00000000000E+00 0. -1.
         25    2    1    2    0    0 -0.36190282443E+02 -0.29927779325E+02 -0.25777502151E+02  0.13607622688E+03  0.12508737501E+03 0.  0.
         23    2    1    2    0    0  0.36190282443E+02  0.29927779325E+02  0.16453172494E+02  0.10362768943E+03  0.90898749239E+02 0.  0.
          5    1    3    3  502    0 -0.56316610726E+02 -0.59315228359E+02  0.13372715148E+02  0.82982882990E+02  0.41800000000E+01 0.  1.
         -5    1    3    3    0  502  0.20126328282E+02  0.29387449034E+02 -0.39150217299E+02  0.53093343890E+02  0.41800000000E+01 0.  1.
        -11    1    4    4    0    0  0.42456267038E+02  0.94409523811E+00 -0.27509994569E+02  0.50598673182E+02  0.00000000000E+00 0. -1.
         11    1    4    4    0    0 -0.62659845948E+01  0.28983684087E+02  0.43963167063E+02  0.53029016250E+02  0.00000000000E+00 0.  1.
</event>
<event>
 8    1  0.3528896E-009  0.1588776E+03  0.7561462E-02  0.1189970E+00
          1   -1    0    0  501    0  0.00000000000E+00  0.00000000000E+00  0.74204029850E+03  0.74204029850E+03  0.00000000000E+00 0. -1.
         -1   -1    0    0    0  501 -0.00000000000E+00 -0.00000000000E+00 -0.38685216856E+02  0.38685216856E+02  0.00000000000E+00 0.  1.
         25    2    1    2    0    0  0.48237963867E+02  0.10455014358E+03  0.50330301395E+03  0.53124286672E+03  0.12508967148E+03 0.  0.
         23    2    1    2    0    0 -0.48237963867E+02 -0.10455014358E+03  0.20005206770E+03  0.24948264864E+03  0.94673800490E+02 0.  0.
          5    1    3    3  502    0 -0.22876018338E+02  0.94009740787E+02  0.25752026543E+03  0.27512779409E+03  0.41800000000E+01 0.  1.
         -5    1    3    3    0  502  0.71113982204E+02  0.10540402797E+02  0.24578274852E+03  0.25611507263E+03  0.41800000000E+01 0.  1.
        -11    1    4    4    0    0  0.27466052091E+02 -0.13860262049E+02  0.36686191532E+02  0.47878675114E+02  0.00000000000E+00 0. -1.
         11    1    4    4    0    0 -0.75704015957E+02 -0.90689881535E+02  0.16336587616E+03  0.20160397352E+03  0.00000000000E+00 0.  1.
</event>
<event>
 8    1  0.3528896E-009  0.1069459E+03  0.7561462E-02  0.1266332E+00
          3   -1    0    0  501    0  0.00000000000E+00  0.00000000000E+00  0.16222025025E+03  0.16222025025E+03  0.00000000000E+00 0. -1.
         -3   -1    0    0    0  501 -0.00000000000E+00 -0.00000000000E+00 -0.87341602522E+02  0.87341602522E+02  0.00000000000E+00 0.  1.
         25    2    1    2    0    0  0.42768163572E+02 -0.15814233846E+02  0.60892676059E+02  0.14640606709E+03  0.12509041800E+03 0.  0.
         23    2    1    2    0    0 -0.42768163572E+02  0.15814233846E+02  0.13985971667E+02  0.10315578568E+03  0.91467496460E+02 0.  0.
          5    1    3    3  502    0 -0.29580056301E+02 -0.43840774121E+02  0.11339159535E+02  0.54249812398E+02  0.41800000000E+01 0. -1.
         -5    1    3    3    0  502  0.72348219873E+02  0.28026540274E+02  0.49553516524E+02  0.92156254690E+02  0.41800000000E+01 0. -1.
        -11    1    4    4    0    0 -0.87641814224E+00  0.36437307288E+02  0.36268660136E+02  0.51418490635E+02  0.00000000000E+00 0. -1.
         11    1    4    4    0    0 -0.41891745429E+02 -0.20623073441E+02 -0.22282688469E+02  0.51737295046E+02  0.00000000000E+00 0.  1.
</event>
<event>
 8    1  0.3528896E-009  0.1080411E+03  0.7561462E-02  0.1264241E+00
         -2   -1    0    0    0  501 -0.00000000000E+00  0.00000000000E+00  0.24101468012E+02  0.24101468012E+02  0.00000000000E+00 0.  1.
          2   -1    0    0  501    0  0.00000000000E+00 -0.00000000000E+00 -0.91288174959E+03  0.91288174959E+03  0.00000000000E+00 0. -1.
         25    2    1    2    0    0  0.92157945512E+02  0.37872981152E+02 -0.53385906008E+03  0.55729747566E+03  0.12509009043E+03 0.  0.
         23    2    1    2    0    0 -0.92157945512E+02 -0.37872981152E+02 -0.35492122149E+03  0.37968574194E+03  0.90910612929E+02 0.  0.
          5    1    3    3  502    0  0.70490020098E+02  0.52436570695E+02 -0.16063417433E+03  0.18313723609E+03  0.41800000000E+01 0. -1.
         -5    1    3    3    0  502  0.21667925414E+02 -0.14563589543E+02 -0.37322488575E+03  0.37416023957E+03  0.41800000000E+01 0. -1.
        -11    1    4    4    0    0 -0.43856721229E+02 -0.29003162922E+02 -0.30558103909E+03  0.31007155127E+03  0.00000000000E+00 0. -1.
         11    1    4    4    0    0 -0.48301224283E+02 -0.88698182294E+01 -0.49340182401E+02  0.69614190665E+02  0.00000000000E+00 0.  1.
</event>
<event>
 8    1  0.3528896E-009  0.1215322E+03  0.7561462E-02  0.1240591E+00
         -2   -1    0    0    0  501 -0.00000000000E+00  0.00000000000E+00  0.14743649356E+02  0.14743649356E+02  0.00000000000E+00 0.  1.
          2   -1    0    0  501    0  0.00000000000E+00 -0.00000000000E+00 -0.28636460065E+04  0.28636460065E+04  0.00000000000E+00 0. -1.
         25    2    1    2    0    0  0.11700020916E+03  0.82897494236E+01 -0.23949949652E+04  0.24011259328E+04  0.12508834000E+03 0.  0.
         23    2    1    2    0    0 -0.11700020916E+03 -0.82897494236E+01 -0.45390739189E+03  0.47726372303E+03  0.89392236903E+02 0.  0.
          5    1    3    3  502    0  0.11959394645E+02 -0.13339245786E+02 -0.14402486580E+04  0.14403661451E+04  0.41800000000E+01 0. -1.
         -5    1    3    3    0  502  0.10504081452E+03  0.21628995209E+02 -0.95474630720E+03  0.96075978770E+03  0.41800000000E+01 0. -1.
        -11    1    4    4    0    0 -0.28291860154E+02 -0.34508681275E+01 -0.21176627524E+02  0.35507568138E+02  0.00000000000E+00 0.  1.
         11    1    4    4    0    0 -0.88708349009E+02 -0.48388812961E+01 -0.43273076437E+03  0.44175615490E+03  0.00000000000E+00 0. -1.
</event>
<event>
 8    1  0.3528896E-009  0.1245526E+03  0.7561462E-02  0.1235770E+00
         -4   -1    0    0    0  501 -0.00000000000E+00  0.00000000000E+00  0.21678818455E+03  0.21678818455E+03  0.00000000000E+00 0. -1.
          4   -1    0    0  501    0  0.00000000000E+00 -0.00000000000E+00 -0.99073197976E+02  0.99073197976E+02  0.00000000000E+00 0.  1.
         25    2    1    2    0    0  0.78265085740E+02 -0.40800917149E+02  0.16140130232E+02  0.15393366909E+03  0.12507970335E+03 0.  0.
         23    2    1    2    0    0 -0.78265085740E+02  0.40800917149E+02  0.10157485635E+03  0.16192771344E+03  0.90072162470E+02 0.  0.
          5    1    3    3  502    0  0.89481942082E+02 -0.68230350125E+02 -0.11505561748E+02  0.11319120544E+03  0.41800000000E+01 0.  1.
         -5    1    3    3    0  502 -0.11216856342E+02  0.27429432976E+02  0.27645691981E+02  0.40742463655E+02  0.41800000000E+01 0.  1.
        -11    1    4    4    0    0 -0.43836754507E+02  0.54129852967E+02  0.20127741796E+02  0.72503986220E+02  0.00000000000E+00 0.  1.
         11    1    4    4    0    0 -0.34428331233E+02 -0.13328935818E+02  0.81447114549E+02  0.89423727220E+02  0.00000000000E+00 0. -1.
</event>
<event>
 8    1  0.3528896E-009  0.9697810E+02  0.7561462E-02  0.1286782E+00
          1   -1    0    0  501    0  0.00000000000E+00  0.00000000000E+00  0.16162379922E+03  0.16162379922E+03  0.00000000000E+00 0. -1.
         -1   -1    0    0    0  501 -0.00000000000E+00 -0.00000000000E+00 -0.75179541523E+02  0.75179541523E+02  0.00000000000E+00 0.  1.
         25    2    1    2    0    0 -0.63883083279E+01  0.13121526244E+02  0.44172926995E+02  0.13346215355E+03  0.12509162248E+03 0.  0.
         23    2    1    2    0    0  0.63883083279E+01 -0.13121526244E+02  0.42271330699E+02  0.10334118719E+03  0.93164105948E+02 0.  0.
          5    1    3    3  502    0 -0.24927490840E+02  0.64266304616E+02  0.37248088127E+02  0.78462922312E+02  0.41800000000E+01 0.  1.
         -5    1    3    3    0  502  0.18539182512E+02 -0.51144778373E+02  0.69248388682E+01  0.54999231234E+02  0.41800000000E+01 0.  1.
        -11    1    4    4    0    0  0.30851482316E+02  0.13941927115E+02 -0.13706731758E+02  0.36524865342E+02  0.00000000000E+00 0.  1.
         11    1    4    4    0    0 -0.24463173988E+02 -0.27063453358E+02  0.55978062457E+02  0.66816321851E+02  0.00000000000E+00 0. -1.
</event>
<event>
 8    1  0.3528896E-009  0.1183176E+03  0.7561462E-02  0.1245899E+00
          4   -1    0    0  501    0  0.00000000000E+00  0.00000000000E+00  0.27996685025E+03  0.27996685025E+03  0.00000000000E+00 0. -1.
         -4   -1    0    0    0  501 -0.00000000000E+00 -0.00000000000E+00 -0.53259840591E+02  0.53259840591E+02  0.00000000000E+00 0.  1.
         25    2    1    2    0    0 -0.50041331733E+02 -0.34019456977E+02  0.13775513180E+03  0.19566455321E+03  0.12508670078E+03 0.  0.
         23    2    1    2    0    0  0.50041331733E+02  0.34019456977E+02  0.88951877861E+02  0.13756213763E+03  0.85728914603E+02 0.  0.
          5    1    3    3  502    0 -0.61846321005E+02 -0.74303350602E+02  0.96556936589E+02  0.13669919435E+03  0.41800000000E+01 0. -1.
         -5    1    3    3    0  502  0.11804989271E+02  0.40283893625E+02  0.41198195207E+02  0.58965358861E+02  0.41800000000E+01 0. -1.
        -11    1    4    4    0    0  0.63868990403E+02  0.32505657057E+01  0.32344334814E+02  0.71665682911E+02  0.00000000000E+00 0.  1.
         11    1    4    4    0    0 -0.13827658670E+02  0.30768891271E+02  0.56607543047E+02  0.65896454717E+02  0.00000000000E+00 0. -1.
</event>
<event>
 8    1  0.3528896E-009  0.2758499E+03  0.7561462E-02  0.1097977E+00
          2   -1    0    0  501    0  0.00000000000E+00  0.00000000000E+00  0.20670044462E+04  0.20670044462E+04  0.00000000000E+00 0.  1.
         -2   -1    0    0    0  501 -0.00000000000E+00 -0.00000000000E+00 -0.56735240356E+02  0.56735240356E+02  0.00000000000E+00 0. -1.
         25    2    1    2    0    0 -0.18116243881E+03 -0.19127783397E+03  0.16108766523E+04  0.16370635281E+04  0.12508543901E+03 0.  0.
         23    2    1    2    0    0  0.18116243881E+03  0.19127783397E+03  0.39939255357E+03  0.48667615850E+03  0.89063081022E+02 0.  0.
          5    1    3    3  502    0 -0.10379240397E+03 -0.16005716052E+03  0.82593969238E+03  0.84769393392E+03  0.41800000000E+01 0. -1.
         -5    1    3    3    0  502 -0.77370034833E+02 -0.31220673449E+02  0.78493695990E+03  0.78936959414E+03  0.41800000000E+01 0. -1.
        -11    1    4    4    0    0  0.71042270253E+01  0.57205337698E+02  0.98113403767E+02  0.11379437904E+03  0.00000000000E+00 0. -1.
         11    1    4    4    0    0  0.17405821178E+03  0.13407249628E+03  0.30127914981E+03  0.37288177946E+03  0.00000000000E+00 0.  1.
</event>
<event>
 8    1  0.3528896E-009  0.1473428E+03  0.7561462E-02  0.1203777E+00
         -2   -1    0    0    0  501 -0.00000000000E+00  0.00000000000E+00  0.25687218399E+02  0.25687218399E+02  0.00000000000E+00 0.  1.
          2   -1    0    0  501    0  0.00000000000E+00 -0.00000000000E+00 -0.91452563568E+03  0.91452563568E+03  0.00000000000E+00 0. -1.
         25    2    1    2    0    0 -0.98906924625E+02 -0.35885234784E+02 -0.51884188857E+03  0.54397940190E+03  0.12508538900E+03 0.  0.
         23    2    1    2    0    0  0.98906924625E+02  0.35885234784E+02 -0.36999652872E+03  0.39623345218E+03  0.95043082616E+02 0.  0.
          5    1    3    3  502    0 -0.11143340745E+03  0.56890813302E+01 -0.28477238736E+03  0.30587996820E+03  0.41800000000E+01 0.  1.
         -5    1    3    3    0  502  0.12526482824E+02 -0.41574316114E+02 -0.23406950121E+03  0.23809943370E+03  0.41800000000E+01 0.  1.
        -11    1    4    4    0    0  0.11678733938E+03  0.32294791313E+02 -0.29219202274E+03  0.31632011371E+03  0.00000000000E+00 0.  1.
         11    1    4    4    0    0 -0.17880414750E+02  0.35904434712E+01 -0.77804505971E+02  0.79913338470E+02  0.00000000000E+00 0. -1.
</event>
<event>
 8    1  0.3528896E-009  0.1776143E+03  0.7561462E-02  0.1170132E+00
          1   -1    0    0  501    0  0.00000000000E+00  0.00000000000E+00  0.17400117787E+03  0.17400117787E+03  0.00000000000E+00 0. -1.
         -1   -1    0    0    0  501 -0.00000000000E+00 -0.00000000000E+00 -0.18922706816E+03  0.18922706816E+03  0.00000000000E+00 0.  1.
         25    2    1    2    0    0  0.12766036995E+03 -0.69254955347E+02 -0.95803370497E+01  0.19191958582E+03  0.12509166905E+03 0.  0.
         23    2    1    2    0    0 -0.12766036995E+03  0.69254955347E+02 -0.56455532370E+01  0.17130866021E+03  0.90671748062E+02 0.  0.
          5    1    3    3  502    0  0.67391235840E+02 -0.10137865440E+03 -0.17432436932E+02  0.12304703367E+03  0.41800000000E+01 0.  1.
         -5    1    3    3    0  502  0.60269134109E+02  0.32123699055E+02  0.78520998822E+01  0.68872552151E+02  0.41800000000E+01 0.  1.
        -11    1    4    4    0    0 -0.90122304981E+02  0.85380074350E+02  0.15836421102E+02  0.12515022647E+03  0.00000000000E+00 0.  1.
         11    1    4    4    0    0 -0.37538064969E+02 -0.16125119003E+02 -0.21481974339E+02  0.46158433747E+02  0.00000000000E+00 0. -1.
</event>
<event>
 8    1  0.3528896E-009  0.8640713E+02  0.7561462E-02  0.1311793E+00
         -4   -1    0    0    0  501 -0.00000000000E+00  0.00000000000E+00  0.42860369473E+03  0.42860369473E+03  0.00000000000E+00 0.  1.
          4   -1    0    0  501    0  0.00000000000E+00 -0.00000000000E+00 -0.57328890199E+02  0.57328890199E+02  0.00000000000E+00 0. -1.
         25    2    1    2    0    0  0.12018718716E+02 -0.62359810627E+02  0.55226420961E+02  0.15076824425E+03  0.12509160772E+03 0.  0.
         23    2    1    2    0    0 -0.12018718716E+02  0.62359810627E+02  0.31604838357E+03  0.33516434068E+03  0.91735265423E+02 0.  0.
          5    1    3    3  502    0  0.13079716244E+02 -0.67501915796E+02  0.91134143590E+02  0.11423875061E+03  0.41800000000E+01 0. -1.
         -5    1    3    3    0  502 -0.10609975275E+01  0.51421051695E+01 -0.35907722629E+02  0.36529493642E+02  0.41800000000E+01 0. -1.
        -11    1    4    4    0    0 -0.42882480600E+02  0.28978775310E+02  0.24788723532E+03  0.25323261637E+03  0.00000000000E+00 0.  1.
         11    1    4    4    0    0  0.30863761884E+02  0.33381035317E+02  0.68161148254E+02  0.81931724306E+02  0.00000000000E+00 0. -1.
</event>
<event>
 8    1  0.3528896E-009  0.1189526E+03  0.7561462E-02  0.1244835E+00
         -2   -1    0    0    0  501 -0.00000000000E+00  0.00000000000E+00  0.33062802153E+02  0.33062802153E+02  0.00000000000E+00 0.  1.
          2   -1    0    0  501    0  0.00000000000E+00 -0.00000000000E+00 -0.62895825040E+03  0.62895825040E+03  0.00000000000E+00 0. -1.
         25    2    1    2    0    0 -0.41640474785E+02  0.76472694358E+02 -0.40568789552E+03  0.43337334577E+03  0.12509111132E+03 0.  0.
         23    2    1    2    0    0  0.41640474785E+02 -0.76472694358E+02 -0.19020755273E+03  0.22864770678E+03  0.92297662911E+02 0.  0.
          5    1    3    3  502    0 -0.61406444154E+02 -0.97038700040E+01 -0.13756797172E+03  0.15102097775E+03  0.41800000000E+01 0.  1.
         -5    1    3    3    0  502  0.19765969369E+02  0.86176564362E+02 -0.26811992380E+03  0.28235236802E+03  0.41800000000E+01 0.  1.
        -11    1    4    4    0    0  0.21219949716E+02 -0.37688435467E+02 -0.11655816838E+02  0.44794670443E+02  0.00000000000E+00 0.  1.
         11    1    4    4    0    0  0.20420525069E+02 -0.38784258891E+02 -0.17855173589E+03  0.18385303634E+03  0.00000000000E+00 0. -1.
</event>
<event>
 8    1  0.3528896E-009  0.1680169E+03  0.7561462E-02  0.1179932E+00
          1   -1    0    0  501    0  0.00000000000E+00  0.00000000000E+00  0.97397466096E+02  0.97397466096E+02  0.00000000000E+00 0. -1.
         -1   -1    0    0    0  501 -0.00000000000E+00 -0.00000000000E+00 -0.35788637346E+03  0.35788637346E+03  0.00000000000E+00 0.  1.
         25    2    1    2    0    0  0.23256162907E+02  0.14580830467E+03 -0.93895591354E+02  0.21508966236E+03  0.12508505089E+03 0.  0.
         23    2    1    2    0    0 -0.23256162907E+02 -0.14580830467E+03 -0.16659331602E+03  0.24019417720E+03  0.90216400916E+02 0.  0.
          5    1    3    3  502    0  0.24515868437E+01  0.14269308906E+03 -0.27609908574E+02  0.14542045040E+03  0.41800000000E+01 0. -1.
         -5    1    3    3    0  502  0.20804576064E+02  0.31152156095E+01 -0.66285682779E+02  0.69669211959E+02  0.41800000000E+01 0. -1.
        -11    1    4    4    0    0 -0.53699476343E+02 -0.12155234661E+03 -0.11625072831E+03  0.17655831489E+03  0.00000000000E+00 0. -1.
         11    1    4    4    0    0  0.30443313435E+02 -0.24255958066E+02 -0.50342587703E+02  0.63635862305E+02  0.00000000000E+00 0.  1.
</event>
<event>
 8    1  0.3528896E-009  0.1370647E+03  0.7561462E-02  0.1217334E+00
          2   -1    0    0  501    0  0.00000000000E+00  0.00000000000E+00  0.55083323255E+03  0.55083323255E+03  0.00000000000E+00 0.  1.
         -2   -1    0    0    0  501 -0.00000000000E+00 -0.00000000000E+00 -0.47105669770E+02  0.47105669770E+02  0.00000000000E+00 0. -1.
         25    2    1    2    0    0  0.93726670107E+02 -0.37450004332E+02  0.15338856784E+03  0.22217465036E+03  0.12508529492E+03 0.  0.
         23    2    1    2    0    0 -0.93726670107E+02  0.37450004332E+02  0.35033899494E+03  0.37576425196E+03  0.90962465661E+02 0.  0.
          5    1    3    3  502    0  0.57194662459E+02  0.30853978483E+02  0.20445307618E+02  0.68254526631E+02  0.41800000000E+01 0. -1.
         -5    1    3    3    0  502  0.36532007648E+02 -0.68303982815E+02  0.13294326022E+03  0.15392012373E+03  0.41800000000E+01 0. -1.
        -11    1    4    4    0    0 -0.62274665851E+02 -0.20449015006E+02  0.22235765268E+03  0.23181721663E+03  0.00000000000E+00 0.  1.
         11    1    4    4    0    0 -0.31452004256E+02  0.57899019338E+02  0.12798134226E+03  0.14394703532E+03  0.00000000000E+00 0. -1.
</event>
<event>
 7    1  0.3528896E-009  0.1332258E+03  0.7561462E-02  0.1222746E+00
          1   -1    0    0  501    0  0.00000000000E+00  0.00000000000E+00  0.14773900244E+03  0.14773900244E+03  0.00000000000E+00 0. -1.
         -1   -1    0    0    0  501 -0.00000000000E+00 -0.00000000000E+00 -0.22731253940E+03  0.22731253940E+03  0.00000000000E+00 0.  1.
         23    2    1    2    0    0 -0.72640235217E+02 -0.74537497992E+02  0.78583200277E+02  0.14807521425E+03  0.70132070617E+02 0.  0.
          5    1    1    2  502    0  0.42286937667E+02  0.10061617479E+03 -0.15060119468E+03  0.18603760901E+03  0.41800000000E+01 0. -1.
         -5    1    1    2    0  502  0.30353297549E+02 -0.26078676801E+02 -0.75555425645E+01  0.40938718584E+02  0.41800000000E+01 0. -1.
        -11    1    3    3    0    0 -0.18959403086E+02 -0.57700667203E+02  0.13819659333E+02  0.62288112391E+02  0.00000000000E+00 0.  1.
         11    1    3    3    0    0 -0.53680832131E+02 -0.16836830789E+02  0.64763540943E+02  0.85787101856E+02  0.00000000000E+00 0. -1.
</event>
<event>
 8    1  0.3528896E-009  0.1143434E+03  0.7561462E-02  0.1252732E+00
         -1   -1    0    0    0  501 -0.00000000000E+00  0.00000000000E+00  0.56560836491E+02  0.56560836491E+02  0.00000000000E+00 0.  1.
          1   -1    0    0  501    0  0.00000000000E+00 -0.00000000000E+00 -0.33010532615E+03  0.33010532615E+03  0.00000000000E+00 0. -1.
         25    2    1    2    0    0  0.25858654916E+02  0.73118541785E+02 -0.19450675276E+03  0.24391615328E+03  0.12508885551E+03 0.  0.
         23    2    1    2    0    0 -0.25858654916E+02 -0.73118541785E+02 -0.79037736900E+02  0.14275000937E+03  0.90086681218E+02 0.  0.
          5    1    3    3  502    0 -0.33254915094E+02  0.72665718558E+02 -0.71222157377E+02  0.10712732673E+03  0.41800000000E+01 0. -1.
         -5    1    3    3    0  502  0.59113570011E+02  0.45282322697E+00 -0.12328459539E+03  0.13678882655E+03  0.41800000000E+01 0. -1.
        -11    1    4    4    0    0 -0.38589161360E+02 -0.57550831342E+02 -0.94641984966E+02  0.11729589456E+03  0.00000000000E+00 0. -1.
         11    1    4    4    0    0  0.12730506444E+02 -0.15567710443E+02  0.15604248066E+02  0.25454114804E+02  0.00000000000E+00 0.  1.
</event>
<event>
 7    1  0.3528896E-009  0.1007688E+03  0.7561462E-02  0.1278688E+00
         -2   -1    0    0    0  501 -0.00000000000E+00  0.00000000000E+00  0.36643349665E+02  0.36643349665E+02  0.00000000000E+00 0.  1.
          2   -1    0    0  501    0  0.00000000000E+00 -0.00000000000E+00 -0.70504654100E+03  0.70504654100E+03  0.00000000000E+00 0. -1.
         23    2    1    2    0    0  0.91936807641E+01 -0.30703831075E+01 -0.25679108989E+02  0.86768939820E+02  0.82313311564E+02 0.  0.
          5    1    1    2  502    0 -0.47148434517E+02 -0.43955502416E+02 -0.36441725872E+03  0.37009792208E+03  0.41800000000E+01 0. -1.
         -5    1    1    2    0  502  0.37954753753E+02  0.47025885524E+02 -0.27830682362E+03  0.28482302876E+03  0.41800000000E+01 0. -1.
        -11    1    3    3    0    0  0.39503842737E+02  0.13593747585E+02 -0.30663408432E+02  0.51822660884E+02  0.00000000000E+00 0. -1.
         11    1    3    3    0    0 -0.30310161973E+02 -0.16664130693E+02  0.49842994427E+01  0.34946278937E+02  0.00000000000E+00 0.  1.
</event>
<event>
 8    1  0.3528896E-009  0.1052510E+03  0.7561462E-02  0.1269626E+00
         -1   -1    0    0    0  501 -0.00000000000E+00  0.00000000000E+00  0.18537305125E+03  0.18537305125E+03  0.00000000000E+00 0.  1.
          1   -1    0    0  501    0  0.00000000000E+00 -0.00000000000E+00 -0.85133869918E+02  0.85133869918E+02  0.00000000000E+00 0. -1.
         25    2    1    2    0    0  0.33202950180E+02 -0.55716364403E+02  0.52416711579E+02  0.15033745743E+03  0.12508832995E+03 0.  0.
         23    2    1    2    0    0 -0.33202950180E+02  0.55716364403E+02  0.47822469755E+02  0.12016946374E+03  0.89145735954E+02 0.  0.
          5    1    3    3  502    0  0.81115930979E+02 -0.32895466836E+02  0.34275528712E+02  0.94096706985E+02  0.41800000000E+01 0. -1.
         -5    1    3    3    0  502 -0.47912980799E+02 -0.22820897567E+02  0.18141182867E+02  0.56240750445E+02  0.41800000000E+01 0. -1.
        -11    1    4    4    0    0 -0.13993961230E+02  0.46053776006E+02 -0.17641906936E+02  0.51264199161E+02  0.00000000000E+00 0. -1.
         11    1    4    4    0    0 -0.19208988951E+02  0.96625883975E+01  0.65464376690E+02  0.68905264578E+02  0.00000000000E+00 0.  1.
</event>
<event>
 8    1  0.3528896E-009  0.1390300E+03  0.7561462E-02  0.1214640E+00
          2   -1    0    0  501    0  0.00000000000E+00  0.00000000000E+00  0.49100466512E+03  0.49100466512E+03  0.00000000000E+00 0. -1.
         -2   -1    0    0    0  501 -0.00000000000E+00 -0.00000000000E+00 -0.79360354254E+02  0.79360354254E+02  0.00000000000E+00 0.  1.
         25    2    1    2    0    0  0.10056620359E+03  0.49483228000E+02  0.38975773901E+03  0.42440721697E+03  0.12509292363E+03 0.  0.
         23    2    1    2    0    0 -0.10056620359E+03 -0.49483228000E+02  0.21886571857E+02  0.14595780240E+03  0.90898332748E+02 0.  0.
          5    1    3    3  502    0  0.95342757120E+02  0.11008441530E+02  0.36665894059E+03  0.37903519392E+03  0.41800000000E+01 0. -1.
         -5    1    3    3    0  502  0.52234464715E+01  0.38474786470E+02  0.23098798425E+02  0.45372023050E+02  0.41800000000E+01 0. -1.
        -11    1    4    4    0    0 -0.75902233222E+01 -0.49384865089E+02 -0.18523170172E+01  0.49999074674E+02  0.00000000000E+00 0. -1.
         11    1    4    4    0    0 -0.92975980269E+02 -0.98362911094E-01  0.23738888874E+02  0.95958727729E+02  0.00000000000E+00 0.  1.
</event>
<event>
 8    1  0.3528896E-009  0.1674948E+03  0.7561462E-02  0.1180486E+00
          1   -1    0    0  501    0  0.00000000000E+00  0.00000000000E+00  0.90738843339E+03  0.90738843339E+03  0.00000000000E+00 0. -1.
         -1   -1    0    0    0  501 -0.00000000000E+00 -0.00000000000E+00 -0.34245055040E+02  0.34245055040E+02  0.00000000000E+00 0.  1.
         25    2    1    2    0    0 -0.11813177435E+03  0.64196691349E+02  0.38704214359E+03  0.42839820978E+03  0.12508826458E+03 0.  0.
         23    2    1    2    0    0  0.11813177435E+03 -0.64196691349E+02  0.48610123476E+03  0.51323527865E+03  0.95077387038E+02 0.  0.
          5    1    3    3  502    0 -0.13667142606E+03  0.35069245290E+02  0.25090171541E+03  0.28788552215E+03  0.41800000000E+01 0. -1.
         -5    1    3    3    0  502  0.18539651713E+02  0.29127446060E+02  0.13614042818E+03  0.14051268763E+03  0.41800000000E+01 0. -1.
        -11    1    4    4    0    0  0.10115471699E+03 -0.92928197270E+01  0.24189621429E+03  0.26235931803E+03  0.00000000000E+00 0. -1.
         11    1    4    4    0    0  0.16977057356E+02 -0.54903871622E+02  0.24420502047E+03  0.25087596062E+03  0.00000000000E+00 0.  1.
</event>
<event>
 8    1  0.3528896E-009  0.2375769E+03  0.7561462E-02  0.1121418E+00
         -2   -1    0    0    0  501 -0.00000000000E+00  0.00000000000E+00  0.43506499102E+03  0.43506499102E+03  0.00000000000E+00 0.  1.
          2   -1    0    0  501    0  0.00000000000E+00 -0.00000000000E+00 -0.15368480600E+03  0.15368480600E+03  0.00000000000E+00 0. -1.
         25    2    1    2    0    0 -0.18458395191E+03  0.10404935429E+03  0.25448445670E+03  0.35398661853E+03  0.12508670579E+03 0.  0.
         23    2    1    2    0    0  0.18458395191E+03 -0.10404935429E+03  0.26895728315E+02  0.23476317848E+03  0.97431341674E+02 0.  0.
          5    1    3    3  502    0 -0.97239930040E+02 -0.14766266474E+02  0.97208897213E+02  0.13834987791E+03  0.41800000000E+01 0.  1.
         -5    1    3    3    0  502 -0.87344021866E+02  0.11881562077E+03  0.15727555949E+03  0.21563674062E+03  0.41800000000E+01 0.  1.
        -11    1    4    4    0    0  0.10557327558E+03 -0.95455554464E+01  0.34148238002E+02  0.11136847087E+03  0.00000000000E+00 0.  1.
         11    1    4    4    0    0  0.79010676322E+02 -0.94503798846E+02 -0.72525096877E+01  0.12339470761E+03  0.00000000000E+00 0. -1.
</event>
<event>
 8    1  0.3528896E-009  0.1192630E+03  0.7561462E-02  0.1244318E+00
          1   -1    0    0  501    0  0.00000000000E+00  0.00000000000E+00  0.37549333885E+02  0.37549333885E+02  0.00000000000E+00 0. -1.
         -1   -1    0    0    0  501 -0.00000000000E+00 -0.00000000000E+00 -0.49657600881E+03  0.49657600881E+03  0.00000000000E+00 0.  1.
         25    2    1    2    0    0  0.41467319361E+02 -0.75214663707E+02 -0.21940200149E+03  0.26676277845E+03  0.12509339510E+03 0.  0.
         23    2    1    2    0    0 -0.41467319361E+02  0.75214663707E+02 -0.23962467344E+03  0.26736256425E+03  0.81767795794E+02 0.  0.
          5    1    3    3  502    0  0.88190423975E+01 -0.10600423421E+03 -0.16053471766E+03  0.19262279500E+03  0.41800000000E+01 0. -1.
         -5    1    3    3    0  502  0.32648276964E+02  0.30789570504E+02 -0.58867283825E+02  0.74139983446E+02  0.41800000000E+01 0. -1.
        -11    1    4    4    0    0 -0.53147963005E+01  0.22248299986E+02 -0.40686497281E+01  0.23233334298E+02  0.00000000000E+00 0. -1.
         11    1    4    4    0    0 -0.36152523060E+02  0.52966363721E+02 -0.23555602371E+03  0.24412922995E+03  0.00000000000E+00 0.  1.
</event>
<event>
 8    1  0.3528896E-009  0.1374313E+03  0.7561462E-02  0.1216828E+00
          1   -1    0    0  501    0  0.00000000000E+00  0.00000000000E+00  0.30448064427E+03  0.30448064427E+03  0.00000000000E+00 0. -1.
         -1   -1    0    0    0  501 -0.00000000000E+00 -0.00000000000E+00 -0.10672460728E+03  0.10672460728E+03  0.00000000000E+00 0.  1.
         25    2    1    2    0    0  0.95847054779E+02 -0.22992019419E+02 -0.14641942881E+02  0.15993184135E+03  0.12509403071E+03 0.  0.
         23    2    1    2    0    0 -0.95847054779E+02  0.22992019419E+02  0.21239797987E+03  0.25127341020E+03  0.91159936127E+02 0.  0.
          5    1    3    3  502    0  0.38502362967E+02 -0.60586822971E+02  0.30096243148E+02  0.77951596029E+02  0.41800000000E+01 0. -1.
         -5    1    3    3    0  502  0.57344691813E+02  0.37594803552E+02 -0.44738186029E+02  0.81980245318E+02  0.41800000000E+01 0. -1.
        -11    1    4    4    0    0 -0.74296312217E+02 -0.27608303367E+02  0.12513392035E+03  0.14812379433E+03  0.00000000000E+00 0. -1.
         11    1    4    4    0    0 -0.21550742562E+02  0.50600322786E+02  0.87264059517E+02  0.10314961587E+03  0.00000000000E+00 0.  1.
</event>
<event>
 8    1  0.3528896E-009  0.1701806E+03  0.7561462E-02  0.1177660E+00
          2   -1    0    0  501    0  0.00000000000E+00  0.00000000000E+00  0.11878781749E+04  0.11878781749E+04  0.00000000000E+00 0. -1.
         -2   -1    0    0    0  501 -0.00000000000E+00 -0.00000000000E+00 -0.26282339952E+02  0.26282339952E+02  0.00000000000E+00 0.  1.
         25    2    1    2    0    0 -0.89985376249E+02 -0.10427488589E+03  0.71959954530E+03  0.74326406203E+03  0.12508933026E+03 0.  0.
         23    2    1    2    0    0  0.89985376249E+02  0.10427488589E+03  0.44199628960E+03  0.47089645278E+03  0.86093724790E+02 0.  0.
          5    1    3    3  502    0 -0.11612132410E+03 -0.97420489355E+02  0.51540987267E+03  0.53725201061E+03  0.41800000000E+01 0. -1.
         -5    1    3    3    0  502  0.26135947854E+02 -0.68543965347E+01  0.20418967262E+03  0.20601205142E+03  0.41800000000E+01 0. -1.
        -11    1    4    4    0    0 -0.16512921863E+02  0.16963186462E+02  0.47885504740E+02  0.53417673551E+02  0.00000000000E+00 0. -1.
         11    1    4    4    0    0  0.10649829811E+03  0.87311699427E+02  0.39411078486E+03  0.41747877923E+03  0.00000000000E+00 0.  1.
</event>
<event>
 8    1  0.3528896E-009  0.1996796E+03  0.7561462E-02  0.1150010E+00
          1   -1    0    0  501    0  0.00000000000E+00  0.00000000000E+00  0.82703693882E+03  0.82703693882E+03  0.00000000000E+00 0. -1.
         -1   -1    0    0    0  501 -0.00000000000E+00 -0.00000000000E+00 -0.67242937431E+02  0.67242937431E+02  0.00000000000E+00 0.  1.
         25    2    1    2    0    0  0.99859385201E+02 -0.14869986300E+03  0.59631540710E+03  0.63507379145E+03  0.12507241811E+03 0.  0.
         23    2    1    2    0    0 -0.99859385201E+02  0.14869986300E+03  0.16347859430E+03  0.25920608481E+03  0.91536864374E+02 0.  0.
          5    1    3    3  502    0  0.11557415060E+03 -0.14115669197E+03  0.58732326833E+03  0.61501925978E+03  0.41800000000E+01 0. -1.
         -5    1    3    3    0  502 -0.15714765402E+02 -0.75431710344E+01  0.89921387679E+01  0.20054531670E+02  0.41800000000E+01 0. -1.
        -11    1    4    4    0    0 -0.26414391865E+02  0.11526560177E+03  0.78043254189E+02  0.14168496241E+03  0.00000000000E+00 0. -1.
         11    1    4    4    0    0 -0.73444993336E+02  0.33434261230E+02  0.85435340108E+02  0.11752112240E+03  0.00000000000E+00 0.  1.
</event>
<event>
 8    1  0.3528896E-009  0.1209671E+03  0.7561462E-02  0.1241510E+00
         -1   -1    0    0    0  501 -0.00000000000E+00  0.00000000000E+00  0.35022533368E+02  0.35022533368E+02  0.00000000000E+00 0.  1.
          1   -1    0    0  501    0  0.00000000000E+00 -0.00000000000E+00 -0.58969850214E+03  0.58969850214E+03  0.00000000000E+00 0. -1.
         25    2    1    2    0    0 -0.45061335170E+02  0.64469381131E+02 -0.30138402801E+03  0.33565943898E+03  0.12509237229E+03 0.  0.
         23    2    1    2    0    0  0.45061335170E+02 -0.64469381131E+02 -0.25329194076E+03  0.28906159653E+03  0.11494770247E+03 0.  0.
          5    1    3    3  502    0  0.15832569949E+02  0.75964329940E+02 -0.21973850145E+03  0.23307451837E+03  0.41800000000E+01 0.  1.
         -5    1    3    3    0  502 -0.60893905119E+02 -0.11494948809E+02 -0.81645526564E+02  0.10258492061E+03  0.41800000000E+01 0.  1.
        -11    1    4    4    0    0 -0.32801026120E+01 -0.52117074108E+02 -0.22647387568E+03  0.23241636098E+03  0.00000000000E+00 0. -1.
         11    1    4    4    0    0  0.48341437782E+02 -0.12352307022E+02 -0.26818065081E+02  0.56645235548E+02  0.00000000000E+00 0.  1.
</event>
<event>
 8    1  0.3528896E-009  0.2109452E+03  0.7561462E-02  0.1140820E+00
          2   -1    0    0  501    0  0.00000000000E+00  0.00000000000E+00  0.76621562005E+03  0.76621562005E+03  0.00000000000E+00 0. -1.
         -2   -1    0    0    0  501 -0.00000000000E+00 -0.00000000000E+00 -0.63351614645E+02  0.63351614645E+02  0.00000000000E+00 0.  1.
         25    2    1    2    0    0 -0.14417527024E+03  0.12588536768E+03  0.36687592966E+03  0.43229455534E+03  0.12508797091E+03 0.  0.
         23    2    1    2    0    0  0.14417527024E+03 -0.12588536768E+03  0.33598807575E+03  0.39727267936E+03  0.91126068574E+02 0.  0.
          5    1    3    3  502    0 -0.72806256789E+02  0.12795846691E+03  0.30080535822E+03  0.33492604589E+03  0.41800000000E+01 0.  1.
         -5    1    3    3    0  502 -0.71369013455E+02 -0.20730992296E+01  0.66070571444E+02  0.97368509452E+02  0.41800000000E+01 0.  1.
        -11    1    4    4    0    0  0.41169286740E+01 -0.36951434844E+02  0.25020463703E+02  0.44814966726E+02  0.00000000000E+00 0.  1.
         11    1    4    4    0    0  0.14005834157E+03 -0.88933932837E+02  0.31096761204E+03  0.35245771263E+03  0.00000000000E+00 0. -1.
</event>
<event>
 8    1  0.3528896E-009  0.5409034E+02  0.7561462E-02  0.1424450E+00
          2   -1    0    0  501    0  0.00000000000E+00  0.00000000000E+00  0.20840090208E+02  0.20840090208E+02  0.00000000000E+00 0. -1.
         -2   -1    0    0    0  501 -0.00000000000E+00 -0.00000000000E+00 -0.83116176930E+03  0.83116176930E+03  0.00000000000E+00 0.  1.
         25    2    1    2    0    0 -0.24771413380E+01  0.33075109102E+02 -0.66100168955E+03  0.67354955193E+03  0.12508263764E+03 0.  0.
         23    2    1    2    0    0  0.24771413380E+01 -0.33075109102E+02 -0.14931998954E+03  0.17845230758E+03  0.91916634695E+02 0.  0.
          5    1    3    3  502    0  0.12156989624E+02  0.21129620787E+02 -0.65154559539E+03  0.65201486835E+03  0.41800000000E+01 0.  1.
         -5    1    3    3    0  502 -0.14634130962E+02  0.11945488315E+02 -0.94560941606E+01  0.21534683580E+02  0.41800000000E+01 0.  1.
        -11    1    4    4    0    0  0.21104939762E+02  0.50207060228E+01  0.15370933314E+01  0.21748301709E+02  0.00000000000E+00 0. -1.
         11    1    4    4    0    0 -0.18627798424E+02 -0.38095815125E+02 -0.15085708287E+03  0.15670400587E+03  0.00000000000E+00 0.  1.
</event>
<event>
 8    1  0.3528896E-009  0.1148168E+03  0.7561462E-02  0.1251901E+00
         -1   -1    0    0    0  501 -0.00000000000E+00  0.00000000000E+00  0.45552402301E+03  0.45552402301E+03  0.00000000000E+00 0.  1.
          1   -1    0    0  501    0  0.00000000000E+00 -0.00000000000E+00 -0.48523524348E+02  0.48523524348E+02  0.00000000000E+00 0. -1.
         25    2    1    2    0    0  0.42788126380E+02 -0.63121159898E+02  0.12843423790E+03  0.19483058617E+03  0.12509396172E+03 0.  0.
         23    2    1    2    0    0 -0.42788126380E+02  0.63121159898E+02  0.27856626076E+03  0.30921696118E+03  0.11045751609E+03 0.  0.
          5    1    3    3  502    0 -0.22861634164E+01  0.26697903417E+02  0.77458996439E+02  0.82069318989E+02  0.41800000000E+01 0.  1.
         -5    1    3    3    0  502  0.45074289796E+02 -0.89819063315E+02  0.50975241458E+02  0.11276126718E+03  0.41800000000E+01 0.  1.
        -11    1    4    4    0    0 -0.12247239258E+02 -0.14227425665E+02  0.28390666550E+00  0.18774853222E+02  0.00000000000E+00 0. -1.
         11    1    4    4    0    0 -0.30540887122E+02  0.77348585562E+02  0.27828235410E+03  0.29044210796E+03  0.00000000000E+00 0.  1.
</event>
<event>
 8    1  0.3528896E-009  0.1428637E+03  0.7561462E-02  0.1209527E+00
         -4   -1    0    0    0  501 -0.00000000000E+00  0.00000000000E+00  0.96927230349E+02  0.96927230349E+02  0.00000000000E+00 0.  1.
          4   -1    0    0  501    0  0.00000000000E+00 -0.00000000000E+00 -0.37389617774E+03  0.37389617774E+03  0.00000000000E+00 0. -1.
         25    2    1    2    0    0 -0.10382196016E+03  0.85798291077E+02 -0.24321148942E+03  0.30485952161E+03  0.12508858127E+03 0.  0.
         23    2    1    2    0    0  0.10382196016E+03 -0.85798291077E+02 -0.33757457974E+02  0.16596388649E+03  0.90907092599E+02 0.  0.
          5    1    3    3  502    0 -0.61693373139E+02  0.70310640085E+02 -0.24230943399E+03  0.25977103880E+03  0.41800000000E+01 0.  1.
         -5    1    3    3    0  502 -0.42128587024E+02  0.15487650992E+02 -0.90205543094E+00  0.45088482807E+02  0.41800000000E+01 0.  1.
        -11    1    4    4    0    0  0.69730485932E+02 -0.19404467509E+02  0.18677393371E+02  0.74751047155E+02  0.00000000000E+00 0.  1.
         11    1    4    4    0    0  0.34091474231E+02 -0.66393823568E+02 -0.52434851345E+02  0.91212839331E+02  0.00000000000E+00 0. -1.
</event>
<event>
 8    1  0.3528896E-009  0.1684794E+03  0.7561462E-02  0.1179443E+00
          1   -1    0    0  501    0  0.00000000000E+00  0.00000000000E+00  0.44083384090E+03  0.44083384090E+03  0.00000000000E+00 0. -1.
         -1   -1    0    0    0  501 -0.00000000000E+00 -0.00000000000E+00 -0.10329524749E+03  0.10329524749E+03  0.00000000000E+00 0.  1.
         25    2    1    2    0    0  0.36752795045E+02  0.13456370786E+03  0.32781532365E+03  0.37758244751E+03  0.12508980306E+03 0.  0.
         23    2    1    2    0    0 -0.36752795045E+02 -0.13456370786E+03  0.97232697688E+01  0.16654664088E+03  0.90471444107E+02 0.  0.
          5    1    3    3  502    0  0.73482375504E+02  0.77355555575E+02  0.26176134598E+03  0.28270128428E+03  0.41800000000E+01 0.  1.
         -5    1    3    3    0  502 -0.36729580459E+02  0.57208152280E+02  0.66053977672E+02  0.94881163222E+02  0.41800000000E+01 0.  1.
        -11    1    4    4    0    0  0.68334713446E+01 -0.11342206703E+03 -0.10373707024E+02  0.11410028666E+03  0.00000000000E+00 0.  1.
         11    1    4    4    0    0 -0.43586266390E+02 -0.21141640829E+02  0.20096976793E+02  0.52446354220E+02  0.00000000000E+00 0. -1.
</event>
<event>
 8    1  0.3528896E-009  0.1804987E+03  0.7561462E-02  0.1167321E+00
         -2   -1    0    0    0  501 -0.00000000000E+00  0.00000000000E+00  0.26386240387E+02  0.26386240387E+02  0.00000000000E+00 0. -1.
          2   -1    0    0  501    0  0.00000000000E+00 -0.00000000000E+00 -0.15877292966E+04  0.15877292966E+04  0.00000000000E+00 0.  1.
         25    2    1    2    0    0  0.12892723357E+03  0.89399246652E+02 -0.11321392949E+04  0.11497832678E+04  0.12509085914E+03 0.  0.
         23    2    1    2    0    0 -0.12892723357E+03 -0.89399246652E+02 -0.42920376129E+03  0.46433226914E+03  0.82305106816E+02 0.  0.
          5    1    3    3  502    0 -0.96241779016E+01  0.32229310918E+02 -0.78171868241E+02  0.85203677543E+02  0.41800000000E+01 0.  1.
         -5    1    3    3    0  502  0.13855141147E+03  0.57169935734E+02 -0.10539674266E+04  0.10645795903E+04  0.41800000000E+01 0.  1.
        -11    1    4    4    0    0 -0.12524878772E+03 -0.10356854505E+03 -0.39480629602E+03  0.42694931049E+03  0.00000000000E+00 0.  1.
         11    1    4    4    0    0 -0.36784458420E+01  0.14169298399E+02 -0.34397465269E+02  0.37382958656E+02  0.00000000000E+00 0. -1.
</event>
<event>
 8    1  0.3528896E-009  0.1049484E+03  0.7561462E-02  0.1270221E+00
          2   -1    0    0  501    0  0.00000000000E+00  0.00000000000E+00  0.58037545265E+03  0.58037545265E+03  0.00000000000E+00 0. -1.
         -2   -1    0    0    0  501 -0.00000000000E+00 -0.00000000000E+00 -0.30332516039E+02  0.30332516039E+02  0.00000000000E+00 0.  1.
         25    2    1    2    0    0 -0.48621009485E+02  0.56734013248E+02  0.27127848833E+03  0.30793361343E+03  0.12509333008E+03 0.  0.
         23    2    1    2    0    0  0.48621009485E+02 -0.56734013248E+02  0.27876444829E+03  0.30277435526E+03  0.91542021781E+02 0.  0.
          5    1    3    3  502    0  0.25298892476E+02  0.31105486500E+01  0.16814042971E+03  0.17011286246E+03  0.41800000000E+01 0.  1.
         -5    1    3    3    0  502 -0.73919901960E+02  0.53623464598E+02  0.10313805862E+03  0.13782075097E+03  0.41800000000E+01 0.  1.
        -11    1    4    4    0    0  0.60790172806E+02 -0.50194203297E+02  0.27797387019E+03  0.28893662915E+03  0.00000000000E+00 0. -1.
         11    1    4    4    0    0 -0.12169163322E+02 -0.65398099516E+01  0.79057809283E+00  0.13837726109E+02  0.00000000000E+00 0.  1.
</event>
<event>
 8    1  0.3528896E-009  0.8488615E+02  0.7561462E-02  0.1315731E+00
         -1   -1    0    0    0  501 -0.00000000000E+00  0.00000000000E+00  0.16752871778E+03  0.16752871778E+03  0.00000000000E+00 0.  1.
          1   -1    0    0  501    0  0.00000000000E+00 -0.00000000000E+00 -0.79058329284E+02  0.79058329284E+02  0.00000000000E+00 0. -1.
         25    2    1    2    0    0 -0.35014911396E+02 -0.39236726150E+02  0.54835891203E+02  0.14635434675E+03  0.12508818949E+03 0.  0.
         23    2    1    2    0    0  0.35014911396E+02  0.39236726150E+02  0.33634497291E+02  0.10023270031E+03  0.78420342415E+02 0.  0.
          5    1    3    3  502    0 -0.40314288339E+02 -0.54461319561E+01  0.88928614329E+02  0.97880912562E+02  0.41800000000E+01 0.  1.
         -5    1    3    3    0  502  0.52993769428E+01 -0.33790594194E+02 -0.34092723126E+02  0.48473434189E+02  0.41800000000E+01 0.  1.
        -11    1    4    4    0    0  0.56861253879E+02  0.97018250025E+01  0.20815634735E+02  0.61323879937E+02  0.00000000000E+00 0.  1.
         11    1    4    4    0    0 -0.21846342483E+02  0.29534901147E+02  0.12818862555E+02  0.38908820373E+02  0.00000000000E+00 0. -1.
</event>
<event>
 8    1  0.3528896E-009  0.1387704E+03  0.7561462E-02  0.1214993E+00
         -2   -1    0    0    0  501 -0.00000000000E+00  0.00000000000E+00  0.61346593140E+03  0.61346593140E+03  0.00000000000E+00 0.  1.
          2   -1    0    0  501    0  0.00000000000E+00 -0.00000000000E+00 -0.34708563959E+02  0.34708563959E+02  0.00000000000E+00 0. -1.
         25    2    1    2    0    0  0.73945743625E+02 -0.55082245422E+02  0.24165544497E+03  0.28731283281E+03  0.12509709448E+03 0.  0.
         23    2    1    2    0    0 -0.73945743625E+02  0.55082245422E+02  0.33710192247E+03  0.36086166256E+03  0.89896644037E+02 0.  0.
          5    1    3    3  502    0  0.10379921167E+03 -0.62774209343E+02  0.16713064682E+03  0.20655508517E+03  0.41800000000E+01 0. -1.
         -5    1    3    3    0  502 -0.29853468048E+02  0.76919639208E+01  0.74524798150E+02  0.80757747633E+02  0.41800000000E+01 0. -1.
        -11    1    4    4    0    0 -0.93070204384E+02  0.47378629043E+02  0.30778582815E+03  0.32502140459E+03  0.00000000000E+00 0.  1.
         11    1    4    4    0    0  0.19124460760E+02  0.77036163799E+01  0.29316094321E+02  0.35840257964E+02  0.00000000000E+00 0. -1.
</event>
<event>
 8    1  0.3528896E-009  0.1152874E+03  0.7561462E-02  0.1251080E+00
          1   -1    0    0  501    0  0.00000000000E+00  0.00000000000E+00  0.46181314055E+03  0.46181314055E+03  0.00000000000E+00 0. -1.
         -1   -1    0    0    0  501 -0.00000000000E+00 -0.00000000000E+00 -0.43657684164E+02  0.43657684164E+02  0.00000000000E+00 0.  1.
         25    2    1    2    0    0 -0.85211483465E+01 -0.51446915160E+02  0.35546717065E+03  0.38042528736E+03  0.12508834799E+03 0.  0.
         23    2    1    2    0    0  0.85211483465E+01  0.51446915160E+02  0.62688285728E+02  0.12504553735E+03  0.94800686675E+02 0.  0.
          5    1    3    3  502    0 -0.64318995309E+02 -0.33969479284E+02  0.14998155432E+03  0.16674170959E+03  0.41800000000E+01 0. -1.
         -5    1    3    3    0  502  0.55797846962E+02 -0.17477435877E+02  0.20548561633E+03  0.21368357777E+03  0.41800000000E+01 0. -1.
        -11    1    4    4    0    0  0.38540558245E+01  0.74993061662E+02  0.22774551120E+02  0.78469696204E+02  0.00000000000E+00 0.  1.
         11    1    4    4    0    0  0.46670925220E+01 -0.23546146501E+02  0.39913734608E+02  0.46575841142E+02  0.00000000000E+00 0. -1.
</event>
<event>
 7    1  0.3528896E-009  0.1140370E+03  0.7561462E-02  0.1253272E+00
         -2   -1    0    0    0  501 -0.00000000000E+00  0.00000000000E+00  0.50014212688E+02  0.50014212688E+02  0.00000000000E+00 0.  1.
          2   -1    0    0  501    0  0.00000000000E+00 -0.00000000000E+00 -0.34303516867E+03  0.34303516867E+03  0.00000000000E+00 0. -1.
         23    2    1    2    0    0 -0.18601261592E+01  0.62472181959E+02 -0.73340497963E+02  0.13272442607E+03  0.91272728929E+02 0.  0.
          5    1    1    2  502    0  0.62874937533E+02 -0.39014830980E+02 -0.12043497756E+03  0.14141241468E+03  0.41800000000E+01 0. -1.
         -5    1    1    2    0  502 -0.61014811374E+02 -0.23457350979E+02 -0.99245480458E+02  0.11891254061E+03  0.41800000000E+01 0. -1.
        -11    1    3    3    0    0 -0.25776702346E+02  0.58877138886E+02 -0.10156774203E+02  0.65070084750E+02  0.00000000000E+00 0.  1.
         11    1    3    3    0    0  0.23916576186E+02  0.35950430725E+01 -0.63183723760E+02  0.67654341319E+02  0.00000000000E+00 0. -1.
</event>
<event>
 8    1  0.3528896E-009  0.1542626E+03  0.7561462E-02  0.1195331E+00
         -1   -1    0    0    0  501 -0.00000000000E+00  0.00000000000E+00  0.21898803282E+03  0.21898803282E+03  0.00000000000E+00 0.  1.
          1   -1    0    0  501    0  0.00000000000E+00 -0.00000000000E+00 -0.13981703399E+03  0.13981703399E+03  0.00000000000E+00 0. -1.
         25    2    1    2    0    0 -0.10482021268E+03  0.70468972403E+02  0.97337387854E+02  0.20266864924E+03  0.12508741444E+03 0.  0.
         23    2    1    2    0    0  0.10482021268E+03 -0.70468972403E+02 -0.18166389016E+02  0.15613641757E+03  0.89974497185E+02 0.  0.
          5    1    3    3  502    0 -0.26321245467E+02  0.73110971786E+02  0.96555869090E+02  0.12401020286E+03  0.41800000000E+01 0.  1.
         -5    1    3    3    0  502 -0.78498967216E+02 -0.26419993826E+01  0.78151876439E+00  0.78658446376E+02  0.41800000000E+01 0.  1.
        -11    1    4    4    0    0  0.91217039719E+02 -0.11976172788E+02 -0.25926729546E+02  0.95583326762E+02  0.00000000000E+00 0. -1.
         11    1    4    4    0    0  0.13603172964E+02 -0.58492799615E+02  0.77603405300E+01  0.60553090810E+02  0.00000000000E+00 0.  1.
</event>
<event>
 8    1  0.3528896E-009  0.1065419E+03  0.7561462E-02  0.1267111E+00
         -1   -1    0    0    0  501 -0.00000000000E+00  0.00000000000E+00  0.26039082528E+02  0.26039082528E+02  0.00000000000E+00 0.  1.
          1   -1    0    0  501    0  0.00000000000E+00 -0.00000000000E+00 -0.48937124674E+03  0.48937124674E+03  0.00000000000E+00 0. -1.
         25    2    1    2    0    0  0.25237731181E+01  0.21635997467E+02 -0.21720373805E+03  0.25159295371E+03  0.12508822773E+03 0.  0.
         23    2    1    2    0    0 -0.25237731181E+01 -0.21635997467E+02 -0.24612842616E+03  0.26381737556E+03  0.92444143480E+02 0.  0.
          5    1    3    3  502    0 -0.41952589912E+02  0.53149217093E+02 -0.86597615663E+02  0.11000672032E+03  0.41800000000E+01 0.  1.
         -5    1    3    3    0  502  0.44476363030E+02 -0.31513219626E+02 -0.13060612239E+03  0.14158623339E+03  0.41800000000E+01 0.  1.
        -11    1    4    4    0    0 -0.19437468257E+02 -0.52167470149E+02 -0.18745696142E+03  0.19554890053E+03  0.00000000000E+00 0. -1.
         11    1    4    4    0    0  0.16913695139E+02  0.30531472682E+02 -0.58671464737E+02  0.68268475022E+02  0.00000000000E+00 0.  1.
</event>
<event>
 8    1  0.3528896E-009  0.1052048E+03  0.7561462E-02  0.1269717E+00
          1   -1    0    0  501    0  0.00000000000E+00  0.00000000000E+00  0.56339519747E+03  0.56339519747E+03  0.00000000000E+00 0. -1.
         -1   -1    0    0    0  501 -0.00000000000E+00 -0.00000000000E+00 -0.26691371418E+02  0.26691371418E+02  0.00000000000E+00 0.  1.
         25    2    1    2    0    0  0.36443663094E+02  0.22237435662E+02  0.20615851437E+03  0.24487373566E+03  0.12505666414E+03 0.  0.
         23    2    1    2    0    0 -0.36443663094E+02 -0.22237435662E+02  0.33054531168E+03  0.34521283322E+03  0.89939162893E+02 0.  0.
          5    1    3    3  502    0 -0.13401167890E+02  0.53377167277E+02  0.38853143352E+02  0.67496314237E+02  0.41800000000E+01 0.  1.
         -5    1    3    3    0  502  0.49844830984E+02 -0.31139731615E+02  0.16730537102E+03  0.17737742143E+03  0.41800000000E+01 0.  1.
        -11    1    4    4    0    0 -0.54866964692E+02 -0.42135358932E+02  0.19309899725E+03  0.20511702763E+03  0.00000000000E+00 0.  1.
         11    1    4    4    0    0  0.18423301598E+02  0.19897923270E+02  0.13744631443E+03  0.14009580559E+03  0.00000000000E+00 0. -1.
</event>
<event>
 8    1  0.3528896E-009  0.1077916E+03  0.7561462E-02  0.1264715E+00
          2   -1    0    0  501    0  0.00000000000E+00  0.00000000000E+00  0.24258065585E+03  0.24258065585E+03  0.00000000000E+00 0. -1.
         -2   -1    0    0    0  501 -0.00000000000E+00 -0.00000000000E+00 -0.74095358583E+02  0.74095358583E+02  0.00000000000E+00 0.  1.
         25    2    1    2    0    0  0.43118773581E+02  0.43528969788E+02  0.34285883533E+02  0.14344678243E+03  0.12508979868E+03 0.  0.
         23    2    1    2    0    0 -0.43118773581E+02 -0.43528969788E+02  0.13419941373E+03  0.17322923200E+03  0.90801345407E+02 0.  0.
          5    1    3    3  502    0  0.74954296505E+02  0.66000733192E+02  0.21728677411E+02  0.10229296735E+03  0.41800000000E+01 0.  1.
         -5    1    3    3    0  502 -0.31835522925E+02 -0.22471763404E+02  0.12557206122E+02  0.41153815084E+02  0.41800000000E+01 0.  1.
        -11    1    4    4    0    0 -0.47327948443E+02 -0.18119974969E+02  0.17335746207E+02  0.53561145370E+02  0.00000000000E+00 0.  1.
         11    1    4    4    0    0  0.42091748628E+01 -0.25408994819E+02  0.11686366752E+03  0.11966808663E+03  0.00000000000E+00 0. -1.
</event>
<event>
 8    1  0.3528896E-009  0.1486077E+03  0.7561462E-02  0.1202194E+00
         -1   -1    0    0    0  501 -0.00000000000E+00  0.00000000000E+00  0.31531694559E+02  0.31531694559E+02  0.00000000000E+00 0.  1.
          1   -1    0    0  501    0  0.00000000000E+00 -0.00000000000E+00 -0.10497002082E+04  0.10497002082E+04  0.00000000000E+00 0. -1.
         25    2    1    2    0    0 -0.97238266824E+02 -0.10353579390E+03 -0.43356659550E+03  0.47307601519E+03  0.12508390086E+03 0.  0.
         23    2    1    2    0    0  0.97238266824E+02  0.10353579390E+03 -0.58460191818E+03  0.60815588761E+03  0.88990110393E+02 0.  0.
          5    1    3    3  502    0  0.32410118783E+01 -0.29295911438E+02 -0.24524198356E+03  0.24704221802E+03  0.41800000000E+01 0. -1.
         -5    1    3    3    0  502 -0.10047927870E+03 -0.74239882463E+02 -0.18832461194E+03  0.22603379716E+03  0.41800000000E+01 0. -1.
        -11    1    4    4    0    0  0.21934543901E+02  0.17134012999E+02 -0.26582845329E+02  0.38488261631E+02  0.00000000000E+00 0.  1.
         11    1    4    4    0    0  0.75303722923E+02  0.86401780902E+02 -0.55801907285E+03  0.56966762598E+03  0.00000000000E+00 0. -1.
</event>
<event>
 8    1  0.3528896E-009  0.1488692E+03  0.7561462E-02  0.1201869E+00
         -4   -1    0    0    0  501 -0.00000000000E+00  0.00000000000E+00  0.78451904966E+02  0.78451904966E+02  0.00000000000E+00 0.  1.
          4   -1    0    0  501    0  0.00000000000E+00 -0.00000000000E+00 -0.31416260259E+03  0.31416260259E+03  0.00000000000E+00 0. -1.
         25    2    1    2    0    0 -0.35219230001E+02 -0.10366242841E+03 -0.16479035696E+03  0.23407158446E+03  0.12508937475E+03 0.  0.
         23    2    1    2    0    0  0.35219230001E+02  0.10366242841E+03 -0.70920340658E+02  0.15854292310E+03  0.90110324151E+02 0.  0.
          5    1    3    3  502    0 -0.46219230464E+02  0.13190991988E+02 -0.56803477675E+02  0.74527357462E+02  0.41800000000E+01 0.  1.
         -5    1    3    3    0  502  0.11000000463E+02 -0.11685342040E+03 -0.10798687929E+03  0.15954422699E+03  0.41800000000E+01 0.  1.
        -11    1    4    4    0    0 -0.13547166715E+02  0.73432859096E+02 -0.10819109780E+02  0.75451730646E+02  0.00000000000E+00 0.  1.
         11    1    4    4    0    0  0.48766396716E+02  0.30229569315E+02 -0.60101230878E+02  0.83091192450E+02  0.00000000000E+00 0. -1.
</event>
<event>
 8    1  0.3528896E-009  0.9459873E+02  0.7561462E-02  0.1292082E+00
          2   -1    0    0  501    0  0.00000000000E+00  0.00000000000E+00  0.49499293285E+03  0.49499293285E+03  0.00000000000E+00 0. -1.
         -2   -1    0    0    0  501 -0.00000000000E+00 -0.00000000000E+00 -0.32453516736E+02  0.32453516736E+02  0.00000000000E+00 0.  1.
         25    2    1    2    0    0  0.27789736314E+02  0.57094240316E+02  0.22433953245E+03  0.26459168072E+03  0.12509400452E+03 0.  0.
         23    2    1    2    0    0 -0.27789736314E+02 -0.57094240316E+02  0.23819988366E+03  0.26285476886E+03  0.91221835189E+02 0.  0.
          5    1    3    3  502    0  0.11237470994E+01  0.84259275807E+02  0.20501595836E+03  0.22169777615E+03  0.41800000000E+01 0. -1.
         -5    1    3    3    0  502  0.26665989215E+02 -0.27165035492E+02  0.19323574094E+02  0.42893904577E+02  0.41800000000E+01 0. -1.
        -11    1    4    4    0    0 -0.29992745962E+02 -0.43974586940E+02  0.24296224253E+03  0.24872470806E+03  0.00000000000E+00 0. -1.
         11    1    4    4    0    0  0.22030096481E+01 -0.13119653376E+02 -0.47623588661E+01  0.14130060799E+02  0.00000000000E+00 0.  1.
</event>
<event>
 8    1  0.3528896E-009  0.1047777E+03  0.7561462E-02  0.1270558E+00
         -1   -1    0    0    0  501 -0.00000000000E+00  0.00000000000E+00  0.12498817517E+03  0.12498817517E+03  0.00000000000E+00 0.  1.
          1   -1    0    0  501    0  0.00000000000E+00 -0.00000000000E+00 -0.17226016091E+03  0.17226016091E+03  0.00000000000E+00 0. -1.
         25    2    1    2    0    0  0.28120502150E+02  0.36216300221E+02  0.52165924714E+02  0.14307760432E+03  0.12509010398E+03 0.  0.
         23    2    1    2    0    0 -0.28120502150E+02 -0.36216300221E+02 -0.99437910446E+02  0.15417073176E+03  0.10852803074E+03 0.  0.
          5    1    3    3  502    0  0.64799246794E+02 -0.84116358138E+01  0.52141136208E+00  0.65478563453E+02  0.41800000000E+01 0. -1.
         -5    1    3    3    0  502 -0.36678744644E+02  0.44627936035E+02  0.51644513352E+02  0.77599040862E+02  0.41800000000E+01 0. -1.
        -11    1    4    4    0    0 -0.32320702399E+02 -0.56692656035E+02 -0.11211477054E+03  0.12972434939E+03  0.00000000000E+00 0. -1.
         11    1    4    4    0    0  0.42002002492E+01  0.20476355814E+02  0.12676860089E+02  0.24446382376E+02  0.00000000000E+00 0.  1.
</event>
<event>
 8    1  0.3528896E-009  0.1870978E+03  0.7561462E-02  0.1161105E+00
         -1   -1    0    0    0  501 -0.00000000000E+00  0.00000000000E+00  0.40282128093E+02  0.40282128093E+02  0.00000000000E+00 0.  1.
          1   -1    0    0  501    0  0.00000000000E+00 -0.00000000000E+00 -0.10845373928E+04  0.10845373928E+04  0.00000000000E+00 0. -1.
         25    2    1    2    0    0 -0.48847789266E+02  0.15273188328E+03 -0.75316070969E+03  0.78013598716E+03  0.12509184292E+03 0.  0.
         23    2    1    2    0    0  0.48847789266E+02 -0.15273188328E+03 -0.29109455498E+03  0.34468353369E+03  0.91419712159E+02 0.  0.
          5    1    3    3  502    0  0.29107355085E+02  0.10933436295E+03 -0.38557083136E+03  0.40185019527E+03  0.41800000000E+01 0. -1.
         -5    1    3    3    0  502 -0.77955144351E+02  0.43397520331E+02 -0.36758987832E+03  0.37828579189E+03  0.41800000000E+01 0. -1.
        -11    1    4    4    0    0  0.48253612302E+02 -0.52059675725E+02 -0.61243384215E+02  0.93751656235E+02  0.00000000000E+00 0.  1.
         11    1    4    4    0    0  0.59417696334E+00 -0.10067220755E+03 -0.22985117077E+03  0.25093187745E+03  0.00000000000E+00 0. -1.
</event>
<event>
 8    1  0.3528896E-009  0.1889451E+03  0.7561462E-02  0.1159416E+00
          1   -1    0    0  501    0  0.00000000000E+00  0.00000000000E+00  0.50834777684E+03  0.50834777684E+03  0.00000000000E+00 0. -1.
         -1   -1    0    0    0  501 -0.00000000000E+00 -0.00000000000E+00 -0.87362185045E+02  0.87362185045E+02  0.00000000000E+00 0.  1.
         25    2    1    2    0    0  0.44685454188E+02 -0.17466349648E+03  0.21502387212E+03  0.30722320885E+03  0.12508680049E+03 0.  0.
         23    2    1    2    0    0 -0.44685454188E+02  0.17466349648E+03  0.20596171968E+03  0.28848675303E+03  0.91105707192E+02 0.  0.
          5    1    3    3  502    0  0.49825350037E+02 -0.12258993573E+03  0.63443570621E+02  0.14681082011E+03  0.41800000000E+01 0. -1.
         -5    1    3    3    0  502 -0.51398958482E+01 -0.52073560750E+02  0.15158030150E+03  0.16041238874E+03  0.41800000000E+01 0. -1.
        -11    1    4    4    0    0 -0.59319529457E+02  0.16531878611E+03  0.20652815667E+03  0.27111434325E+03  0.00000000000E+00 0. -1.
         11    1    4    4    0    0  0.14634075268E+02  0.93447103716E+01 -0.56643699303E+00  0.17372409786E+02  0.00000000000E+00 0.  1.
</event>
<event>
 8    1  0.3528896E-009  0.1646920E+03  0.7561462E-02  0.1183499E+00
         -1   -1    0    0    0  501 -0.00000000000E+00  0.00000000000E+00  0.70069786758E+02  0.70069786758E+02  0.00000000000E+00 0.  1.
          1   -1    0    0  501    0  0.00000000000E+00 -0.00000000000E+00 -0.52970939600E+03  0.52970939600E+03  0.00000000000E+00 0. -1.
         25    2    1    2    0    0 -0.32124596359E+02 -0.13939225216E+03 -0.34973822373E+03  0.39802834358E+03  0.12509015748E+03 0.  0.
         23    2    1    2    0    0  0.32124596359E+02  0.13939225216E+03 -0.10990138552E+03  0.20175083919E+03  0.90348751620E+02 0.  0.
          5    1    3    3  502    0  0.14224162549E+02  0.12053223050E+02 -0.10332158062E+03  0.10507344292E+03  0.41800000000E+01 0. -1.
         -5    1    3    3    0  502 -0.46348758908E+02 -0.15144547521E+03 -0.24641664311E+03  0.29295490065E+03  0.41800000000E+01 0. -1.
        -11    1    4    4    0    0 -0.24883152145E+01  0.97365103697E+02 -0.24434491958E+02  0.10041513595E+03  0.00000000000E+00 0.  1.
         11    1    4    4    0    0  0.34612911574E+02  0.42027148467E+02 -0.85466893559E+02  0.10133570324E+03  0.00000000000E+00 0. -1.
</event>
<event>
 8    1  0.3528896E-009  0.1351755E+03  0.7561462E-02  0.1219972E+00
         -2   -1    0    0    0  501 -0.00000000000E+00  0.00000000000E+00  0.46857587423E+02  0.46857587423E+02  0.00000000000E+00 0.  1.
          2   -1    0    0  501    0  0.00000000000E+00 -0.00000000000E+00 -0.53341769733E+03  0.53341769733E+03  0.00000000000E+00 0. -1.
         25    2    1    2    0    0  0.10006627559E+03  0.33696196790E+02 -0.34363349268E+03  0.38064834788E+03  0.12514189652E+03 0.  0.
         23    2    1    2    0    0 -0.10006627559E+03 -0.33696196790E+02 -0.14292661723E+03  0.19962693687E+03  0.90962645216E+02 0.  0.
          5    1    3    3  502    0  0.10725485762E+02  0.66173319143E+02 -0.16730793498E+03  0.18028688726E+03  0.41800000000E+01 0. -1.
         -5    1    3    3    0  502  0.89340789826E+02 -0.32477122353E+02 -0.17632555770E+03  0.20036146062E+03  0.41800000000E+01 0. -1.
        -11    1    4    4    0    0 -0.48660251685E+02 -0.28428837664E+02 -0.10301181504E+02  0.57289905266E+02  0.00000000000E+00 0.  1.
         11    1    4    4    0    0 -0.51406023902E+02 -0.52673591264E+01 -0.13262543572E+03  0.14233703161E+03  0.00000000000E+00 0. -1.
</event>
<event>
 8    1  0.3528896E-009  0.1251930E+03  0.7561462E-02  0.1234768E+00
         -1   -1    0    0    0  501 -0.00000000000E+00  0.00000000000E+00  0.15031553811E+03  0.15031553811E+03  0.00000000000E+00 0.  1.
          1   -1    0    0  501    0  0.00000000000E+00 -0.00000000000E+00 -0.15940565943E+03  0.15940565943E+03  0.00000000000E+00 0. -1.
         25    2    1    2    0    0 -0.72296133861E+02  0.73544116955E+02 -0.43828370341E+02  0.16794074425E+03  0.12509076474E+03 0.  0.
         23    2    1    2    0    0  0.72296133861E+02 -0.73544116955E+02  0.34738249022E+02  0.14178045328E+03  0.90881697160E+02 0.  0.
          5    1    3    3  502    0  0.42036064391E+01  0.35513659848E+02 -0.69810034705E+02  0.78548097930E+02  0.41800000000E+01 0.  1.
         -5    1    3    3    0  502 -0.76499740300E+02  0.38030457108E+02  0.25981664364E+02  0.89392646324E+02  0.41800000000E+01 0.  1.
        -11    1    4    4    0    0  0.19508798771E+02 -0.73515444940E+02  0.44466192540E+02  0.88104234593E+02  0.00000000000E+00 0.  1.
         11    1    4    4    0    0  0.52787335090E+02 -0.28672015628E-01 -0.97279435179E+01  0.53676218692E+02  0.00000000000E+00 0. -1.
</event>
<event>
 8    1  0.3528896E-009  0.1258658E+03  0.7561462E-02  0.1233722E+00
          2   -1    0    0  501    0  0.00000000000E+00  0.00000000000E+00  0.17760685245E+02  0.17760685245E+02  0.00000000000E+00 0.  1.
         -2   -1    0    0    0  501 -0.00000000000E+00 -0.00000000000E+00 -0.11171745730E+04  0.11171745730E+04  0.00000000000E+00 0. -1.
         25    2    1    2    0    0 -0.61547777362E+02  0.33549044450E+02 -0.82081618326E+03  0.83324638920E+03  0.12508665448E+03 0.  0.
         23    2    1    2    0    0  0.61547777362E+02 -0.33549044450E+02 -0.27859770451E+03  0.30168886906E+03  0.92118540349E+02 0.  0.
          5    1    3    3  502    0  0.11264565619E+02  0.58432756373E+02 -0.48759841033E+03  0.49123411895E+03  0.41800000000E+01 0.  1.
         -5    1    3    3    0  502 -0.72812342980E+02 -0.24883711923E+02 -0.33321777293E+03  0.34201227025E+03  0.41800000000E+01 0.  1.
        -11    1    4    4    0    0  0.22565236046E+02 -0.62506457616E+02 -0.17752248623E+03  0.18955337042E+03  0.00000000000E+00 0.  1.
         11    1    4    4    0    0  0.38982541315E+02  0.28957413166E+02 -0.10107521829E+03  0.11213549864E+03  0.00000000000E+00 0. -1.
</event>
<event>
 8    1  0.3528896E-009  0.1445486E+03  0.7561462E-02  0.1207336E+00
         -2   -1    0    0    0  501 -0.00000000000E+00  0.00000000000E+00  0.43710778263E+02  0.43710778263E+02  0.00000000000E+00 0.  1.
          2   -1    0    0  501    0  0.00000000000E+00 -0.00000000000E+00 -0.59487550036E+03  0.59487550036E+03  0.00000000000E+00 0. -1.
         25    2    1    2    0    0 -0.74567621332E+02  0.72888972460E+02 -0.18160719513E+03  0.24392965405E+03  0.12508944937E+03 0.  0.
         23    2    1    2    0    0  0.74567621332E+02 -0.72888972460E+02 -0.36955752697E+03  0.39465662458E+03  0.91147973782E+02 0.  0.
          5    1    3    3  502    0 -0.95820533313E+02  0.88214932037E+02 -0.12124203010E+03  0.17799031182E+03  0.41800000000E+01 0. -1.
         -5    1    3    3    0  502  0.21252911981E+02 -0.15325959577E+02 -0.60365165027E+02  0.65939342227E+02  0.41800000000E+01 0. -1.
        -11    1    4    4    0    0  0.86745672683E+02 -0.36915842700E+02 -0.31002250162E+03  0.32403941532E+03  0.00000000000E+00 0.  1.
         11    1    4    4    0    0 -0.12178051351E+02 -0.35973129761E+02 -0.59535025349E+02  0.70617209253E+02  0.00000000000E+00 0. -1.
</event>
<event>
 8    1  0.3528896E-009  0.1678510E+03  0.7561462E-02  0.1180108E+00
          2   -1    0    0  501    0  0.00000000000E+00  0.00000000000E+00  0.21840284841E+03  0.21840284841E+03  0.00000000000E+00 0. -1.
         -2   -1    0    0    0  501 -0.00000000000E+00 -0.00000000000E+00 -0.16865204968E+03  0.16865204968E+03  0.00000000000E+00 0.  1.
         25    2    1    2    0    0  0.15317251334E+03  0.60172119599E+02  0.82690028475E+01  0.20687978696E+03  0.12509343317E+03 0.  0.
         23    2    1    2    0    0 -0.15317251334E+03 -0.60172119599E+02  0.41481795882E+02  0.18017511114E+03  0.60496516139E+02 0.  0.
          5    1    3    3  502    0  0.56059703210E+02  0.42231603135E+02  0.62553819209E+02  0.94109783365E+02  0.41800000000E+01 0. -1.
         -5    1    3    3    0  502  0.97112810132E+02  0.17940516464E+02 -0.54284816362E+02  0.11277000359E+03  0.41800000000E+01 0. -1.
        -11    1    4    4    0    0 -0.11531025893E+03 -0.32988620698E+02  0.33972337731E+01  0.11998435776E+03  0.00000000000E+00 0.  1.
         11    1    4    4    0    0 -0.37862254415E+02 -0.27183498901E+02  0.38084562109E+02  0.60190753384E+02  0.00000000000E+00 0. -1.
</event>
<event>
 8    1  0.3528896E-009  0.2484578E+03  0.7561462E-02  0.1114283E+00
          2   -1    0    0  501    0  0.00000000000E+00  0.00000000000E+00  0.12769809419E+03  0.12769809419E+03  0.00000000000E+00 0. -1.
         -2   -1    0    0    0  501 -0.00000000000E+00 -0.00000000000E+00 -0.55817295332E+03  0.55817295332E+03  0.00000000000E+00 0.  1.
         25    2    1    2    0    0  0.16071890976E+03  0.16909724767E+03 -0.13029927541E+03  0.29504293684E+03  0.12509191133E+03 0.  0.
         23    2    1    2    0    0 -0.16071890976E+03 -0.16909724767E+03 -0.30017558372E+03  0.39082811068E+03  0.90646477658E+02 0.  0.
          5    1    3    3  502    0  0.29726699344E+02 -0.13222374223E+02  0.45629087259E+01  0.33117976539E+02  0.41800000000E+01 0. -1.
         -5    1    3    3    0  502  0.13099221042E+03  0.18231962189E+03 -0.13486218414E+03  0.26192496030E+03  0.41800000000E+01 0. -1.
        -11    1    4    4    0    0 -0.61855901594E+02 -0.29534211440E+02 -0.39673892966E+02  0.79198737304E+02  0.00000000000E+00 0. -1.
         11    1    4    4    0    0 -0.98863008168E+02 -0.13956303623E+03 -0.26050169075E+03  0.31162937338E+03  0.00000000000E+00 0.  1.
</event>
<event>
 8    1  0.3528896E-009  0.1256650E+03  0.7561462E-02  0.1234034E+00
          3   -1    0    0  501    0  0.00000000000E+00  0.00000000000E+00  0.21535433046E+03  0.21535433046E+03  0.00000000000E+00 0. -1.
         -3   -1    0    0    0  501 -0.00000000000E+00 -0.00000000000E+00 -0.13613580091E+03  0.13613580091E+03  0.00000000000E+00 0.  1.
         25    2    1    2    0    0  0.35821332017E+02  0.84924027604E+02  0.13961483014E+03  0.20889038303E+03  0.12509049938E+03 0.  0.
         23    2    1    2    0    0 -0.35821332017E+02 -0.84924027604E+02 -0.60396300595E+02  0.14259974835E+03  0.90508103571E+02 0.  0.
          5    1    3    3  502    0  0.68513919875E+02  0.91913700379E+02  0.13097248453E+03  0.17410786782E+03  0.41800000000E+01 0.  1.
         -5    1    3    3    0  502 -0.32692587858E+02 -0.69896727748E+01  0.86423456133E+01  0.34782515206E+02  0.41800000000E+01 0.  1.
        -11    1    4    4    0    0 -0.40510532340E+02 -0.37297361739E+02  0.11479467732E+02  0.56249218684E+02  0.00000000000E+00 0. -1.
         11    1    4    4    0    0  0.46892003232E+01 -0.47626665865E+02 -0.71875768326E+02  0.86350529666E+02  0.00000000000E+00 0.  1.
</event>
<event>
 8    1  0.3528896E-009  0.1286993E+03  0.7561462E-02  0.1229399E+00
          2   -1    0    0  501    0  0.00000000000E+00  0.00000000000E+00  0.14294413934E+04  0.14294413934E+04  0.00000000000E+00 0.  1.
         -2   -1    0    0    0  501 -0.00000000000E+00 -0.00000000000E+00 -0.15665295989E+02  0.15665295989E+02  0.00000000000E+00 0. -1.
         25    2    1    2    0    0 -0.72907655861E+02  0.68067024163E+02  0.87232322138E+03  0.88687285385E+03  0.12508801014E+03 0.  0.
         23    2    1    2    0    0  0.72907655861E+02 -0.68067024163E+02  0.54145287603E+03  0.55823383553E+03  0.92223381601E+02 0.  0.
          5    1    3    3  502    0 -0.65112305683E+02  0.83967478892E+02  0.39088667455E+03  0.40509260003E+03  0.41800000000E+01 0. -1.
         -5    1    3    3    0  502 -0.77953501787E+01 -0.15900454729E+02  0.48143654683E+03  0.48178025381E+03  0.41800000000E+01 0. -1.
        -11    1    4    4    0    0 -0.13067843675E+02  0.10218512067E+02  0.36923534717E+02  0.40478808569E+02  0.00000000000E+00 0. -1.
         11    1    4    4    0    0  0.85975499536E+02 -0.78285536230E+02  0.50452934131E+03  0.51775502697E+03  0.00000000000E+00 0.  1.
</event>
<event>
 8    1  0.3528896E-009  0.1182633E+03  0.7561462E-02  0.1245990E+00
         -1   -1    0    0    0  501 -0.00000000000E+00  0.00000000000E+00  0.37172670149E+02  0.37172670149E+02  0.00000000000E+00 0.  1.
          1   -1    0    0  501    0  0.00000000000E+00 -0.00000000000E+00 -0.46972279730E+03  0.46972279730E+03  0.00000000000E+00 0. -1.
         25    2    1    2    0    0 -0.67518862376E+02  0.28879266231E+02 -0.28653093759E+03  0.32115564144E+03  0.12509260185E+03 0.  0.
         23    2    1    2    0    0  0.67518862376E+02 -0.28879266231E+02 -0.14601918956E+03  0.18573982601E+03  0.88231912887E+02 0.  0.
          5    1    3    3  502    0 -0.56656627118E+02  0.68260854890E+02 -0.11795220517E+03  0.14764725806E+03  0.41800000000E+01 0.  1.
         -5    1    3    3    0  502 -0.10862235258E+02 -0.39381588659E+02 -0.16857873241E+03  0.17350838338E+03  0.41800000000E+01 0.  1.
        -11    1    4    4    0    0 -0.30752823792E+01  0.20354588203E+02 -0.62531488953E+02  0.65832770968E+02  0.00000000000E+00 0. -1.
         11    1    4    4    0    0  0.70594144755E+02 -0.49233854435E+02 -0.83487700611E+02  0.11990705504E+03  0.00000000000E+00 0.  1.
</event>
<event>
 8    1  0.3528896E-009  0.1196504E+03  0.7561462E-02  0.1243675E+00
          2   -1    0    0  501    0  0.00000000000E+00  0.00000000000E+00  0.96257654655E+02  0.96257654655E+02  0.00000000000E+00 0. -1.
         -2   -1    0    0    0  501 -0.00000000000E+00 -0.00000000000E+00 -0.16290738136E+03  0.16290738136E+03  0.00000000000E+00 0.  1.
         25    2    1    2    0    0  0.40131727496E+02  0.43482840377E+02 -0.59865471490E+02  0.15077457110E+03  0.12509110142E+03 0.  0.
         23    2    1    2    0    0 -0.40131727496E+02 -0.43482840377E+02 -0.67842552148E+01  0.10839046492E+03  0.90560221993E+02 0.  0.
          5    1    3    3  502    0  0.26575112629E+02 -0.42160924473E+02 -0.11191627735E+02  0.51249439948E+02  0.41800000000E+01 0. -1.
         -5    1    3    3    0  502  0.13556614867E+02  0.85643764849E+02 -0.48673843755E+02  0.99525131148E+02  0.41800000000E+01 0. -1.
        -11    1    4    4    0    0  0.23817489588E+02  0.21529119342E+01 -0.16751349825E+02  0.29197869118E+02  0.00000000000E+00 0.  1.
         11    1    4    4    0    0 -0.63949217084E+02 -0.45635752311E+02  0.99670946103E+01  0.79192595800E+02  0.00000000000E+00 0. -1.
</event>
<event>
 8    1  0.3528896E-009  0.1071850E+03  0.7561462E-02  0.1265873E+00
          1   -1    0    0  501    0  0.00000000000E+00  0.00000000000E+00  0.49988794089E+02  0.49988794089E+02  0.00000000000E+00 0. -1.
         -1   -1    0    0    0  501 -0.00000000000E+00 -0.00000000000E+00 -0.28777877418E+03  0.28777877418E+03  0.00000000000E+00 0.  1.
         25    2    1    2    0    0  0.44695649673E+02  0.35115805681E+02 -0.15729364306E+03  0.20885293365E+03  0.12508971516E+03 0.  0.
         23    2    1    2    0    0 -0.44695649673E+02 -0.35115805681E+02 -0.80496337034E+02  0.12891463462E+03  0.83117397911E+02 0.  0.
          5    1    3    3  502    0  0.26077115831E+02 -0.37620868573E+02 -0.11200557294E+03  0.12107050216E+03  0.41800000000E+01 0. -1.
         -5    1    3    3    0  502  0.18618533842E+02  0.72736674253E+02 -0.45288070116E+02  0.87782431493E+02  0.41800000000E+01 0. -1.
        -11    1    4    4    0    0 -0.43162733779E+02 -0.56872067577E+02 -0.37365875800E+02  0.80583263349E+02  0.00000000000E+00 0. -1.
         11    1    4    4    0    0 -0.15329158939E+01  0.21756261896E+02 -0.43130461234E+02  0.48331371272E+02  0.00000000000E+00 0.  1.
</event>
<event>
 8    1  0.3528896E-009  0.1574143E+03  0.7561462E-02  0.1191647E+00
          1   -1    0    0  501    0  0.00000000000E+00  0.00000000000E+00  0.13974223027E+03  0.13974223027E+03  0.00000000000E+00 0. -1.
         -1   -1    0    0    0  501 -0.00000000000E+00 -0.00000000000E+00 -0.23999232620E+03  0.23999232620E+03  0.00000000000E+00 0.  1.
         25    2    1    2    0    0 -0.88061728663E+02 -0.11410006416E+03 -0.23812273865E+02  0.19232408523E+03  0.12509131335E+03 0.  0.
         23    2    1    2    0    0  0.88061728663E+02  0.11410006416E+03 -0.76437822059E+02  0.18741047124E+03  0.92229341274E+02 0.  0.
          5    1    3    3  502    0 -0.48279010146E+01  0.11668221654E+02 -0.38503543133E+02  0.40736362854E+02  0.41800000000E+01 0. -1.
         -5    1    3    3    0  502 -0.83233827649E+02 -0.12576828582E+03  0.14691269268E+02  0.15158772238E+03  0.41800000000E+01 0. -1.
        -11    1    4    4    0    0  0.53422408499E+02  0.99758353959E+02 -0.92951895736E+02  0.14644363365E+03  0.00000000000E+00 0.  1.
         11    1    4    4    0    0  0.34639320164E+02  0.14341710204E+02  0.16514073677E+02  0.40966837594E+02  0.00000000000E+00 0. -1.
</event>
<event>
 7    1  0.3528896E-009  0.1481761E+03  0.7561462E-02  0.1202732E+00
          2   -1    0    0  501    0  0.00000000000E+00  0.00000000000E+00  0.28582816816E+03  0.28582816816E+03  0.00000000000E+00 0. -1.
         -2   -1    0    0    0  501 -0.00000000000E+00 -0.00000000000E+00 -0.98706776084E+02  0.98706776084E+02  0.00000000000E+00 0.  1.
         23    2    1    2    0    0  0.22768632498E+02  0.11794220144E+03  0.13784433937E+03  0.20447495021E+03  0.91543267692E+02 0.  0.
          5    1    1    2  502    0 -0.59590188398E+02 -0.11993304176E+03  0.49807558102E+02  0.14294471065E+03  0.41800000000E+01 0. -1.
         -5    1    1    2    0  502  0.36821555901E+02  0.19908403185E+01 -0.53050540367E+00  0.37115283376E+02  0.41800000000E+01 0. -1.
        -11    1    3    3    0    0 -0.94719709813E+01  0.35214411022E+02 -0.44658057304E+01  0.36738486614E+02  0.00000000000E+00 0.  1.
         11    1    3    3    0    0  0.32240603479E+02  0.82727790421E+02  0.14231014510E+03  0.16773646360E+03  0.00000000000E+00 0. -1.
</event>
<event>
 8    1  0.3528896E-009  0.8518538E+02  0.7561462E-02  0.1314948E+00
          3   -1    0    0  501    0  0.00000000000E+00  0.00000000000E+00  0.16205184182E+03  0.16205184182E+03  0.00000000000E+00 0. -1.
         -3   -1    0    0    0  501 -0.00000000000E+00 -0.00000000000E+00 -0.97617707371E+02  0.97617707371E+02  0.00000000000E+00 0.  1.
         25    2    1    2    0    0 -0.43616388056E+02 -0.33319379416E+02  0.69924008711E+02  0.15345592891E+03  0.12508710874E+03 0.  0.
         23    2    1    2    0    0  0.43616388056E+02  0.33319379416E+02 -0.54898742578E+01  0.10621362028E+03  0.90766866545E+02 0.  0.
          5    1    3    3  502    0 -0.29218213874E+02  0.44952692794E+01  0.99032834924E+02  0.10343542073E+03  0.41800000000E+01 0.  1.
         -5    1    3    3    0  502 -0.14398174182E+02 -0.37814648696E+02 -0.29108826212E+02  0.50020508186E+02  0.41800000000E+01 0.  1.
        -11    1    4    4    0    0  0.16827988840E+02 -0.28142665503E+02 -0.18888979699E+02  0.37841569524E+02  0.00000000000E+00 0. -1.
         11    1    4    4    0    0  0.26788399216E+02  0.61462044919E+02  0.13399105441E+02  0.68372050758E+02  0.00000000000E+00 0.  1.
</event>
<event>
 8    1  0.3528896E-009  0.1161973E+03  0.7561462E-02  0.1249506E+00
         -2   -1    0    0    0  501 -0.00000000000E+00  0.00000000000E+00  0.23271117214E+02  0.23271117214E+02  0.00000000000E+00 0.  1.
          2   -1    0    0  501    0  0.00000000000E+00 -0.00000000000E+00 -0.64080853105E+03  0.64080853105E+03  0.00000000000E+00 0. -1.
         25    2    1    2    0    0  0.33121773782E+01  0.52074307028E+02 -0.39682245141E+03  0.41933108567E+03  0.12509115674E+03 0.  0.
         23    2    1    2    0    0 -0.33121773782E+01 -0.52074307028E+02 -0.22071496242E+03  0.24474856259E+03  0.92000327621E+02 0.  0.
          5    1    3    3  502    0 -0.58942729204E+02  0.24667196903E+02 -0.23888139928E+03  0.24731459975E+03  0.41800000000E+01 0.  1.
         -5    1    3    3    0  502  0.62254906582E+02  0.27407110125E+02 -0.15794105214E+03  0.17201648592E+03  0.41800000000E+01 0.  1.
        -11    1    4    4    0    0 -0.62214930953E+01 -0.75927900033E+02 -0.12786665259E+03  0.14884096824E+03  0.00000000000E+00 0.  1.
         11    1    4    4    0    0  0.29093157170E+01  0.23853593005E+02 -0.92848309829E+02  0.95907594357E+02  0.00000000000E+00 0. -1.
</event>
<event>
 8    1  0.3528896E-009  0.1441042E+03  0.7561462E-02  0.1207911E+00
         -2   -1    0    0    0  501 -0.00000000000E+00  0.00000000000E+00  0.32382042768E+02  0.32382042768E+02  0.00000000000E+00 0.  1.
          2   -1    0    0  501    0  0.00000000000E+00 -0.00000000000E+00 -0.94404548538E+03  0.94404548538E+03  0.00000000000E+00 0. -1.
         25    2    1    2    0    0 -0.74618881744E+02 -0.73939902847E+02 -0.72690869470E+03  0.74503613422E+03  0.12508998407E+03 0.  0.
         23    2    1    2    0    0  0.74618881744E+02  0.73939902847E+02 -0.18475474792E+03  0.23139139394E+03  0.91501768090E+02 0.  0.
          5    1    3    3  502    0  0.12143536568E+02 -0.59713059978E+02 -0.45881837749E+03  0.46286595353E+03  0.41800000000E+01 0. -1.
         -5    1    3    3    0  502 -0.86762418312E+02 -0.14226842869E+02 -0.26809031721E+03  0.28217018069E+03  0.41800000000E+01 0. -1.
        -11    1    4    4    0    0  0.79489725529E+02  0.91314018813E+02 -0.16478298069E+03  0.20447566413E+03  0.00000000000E+00 0.  1.
         11    1    4    4    0    0 -0.48708437856E+01 -0.17374115965E+02 -0.19971767224E+02  0.26915729803E+02  0.00000000000E+00 0. -1.
</event>
<event>
 7    1  0.3528896E-009  0.1644863E+03  0.7561462E-02  0.1183723E+00
         -2   -1    0    0    0  501 -0.00000000000E+00  0.00000000000E+00  0.52148681605E+03  0.52148681605E+03  0.00000000000E+00 0.  1.
          2   -1    0    0  501    0  0.00000000000E+00 -0.00000000000E+00 -0.62333651836E+02  0.62333651836E+02  0.00000000000E+00 0. -1.
         23    2    1    2    0    0 -0.12631580817E+03  0.62940979885E+02  0.26164413809E+03  0.31078161800E+03  0.90610754051E+02 0.  0.
          5    1    1    2  502    0  0.42455447817E+02 -0.90018867538E+02  0.93112105977E+02  0.13635687823E+03  0.41800000000E+01 0.  1.
         -5    1    1    2    0  502  0.83860360350E+02  0.27077887653E+02  0.10439692015E+03  0.13668197165E+03  0.41800000000E+01 0.  1.
        -11    1    3    3    0    0 -0.36335025911E+02  0.18736587107E+02  0.13340219895E+02  0.43002968168E+02  0.00000000000E+00 0. -1.
         11    1    3    3    0    0 -0.89980782256E+02  0.44204392778E+02  0.24830391820E+03  0.26777864984E+03  0.00000000000E+00 0.  1.
</event>
<event>
 8    1  0.3528896E-009  0.2735206E+03  0.7561462E-02  0.1099281E+00
         -1   -1    0    0    0  501 -0.00000000000E+00  0.00000000000E+00  0.29297813610E+03  0.29297813610E+03  0.00000000000E+00 0.  1.
          1   -1    0    0  501    0  0.00000000000E+00 -0.00000000000E+00 -0.28978008882E+03  0.28978008882E+03  0.00000000000E+00 0. -1.
         25    2    1    2    0    0 -0.25844368385E+03 -0.44087933557E+02 -0.62858925657E+02  0.29721273427E+03  0.12508909333E+03 0.  0.
         23    2    1    2    0    0  0.25844368385E+03  0.44087933557E+02  0.66056972932E+02  0.28554549065E+03  0.91846719875E+02 0.  0.
          5    1    3    3  502    0 -0.88561481350E+02  0.37476712163E+02  0.62264418788E+01  0.96456627102E+02  0.41800000000E+01 0. -1.
         -5    1    3    3    0  502 -0.16988220250E+03 -0.81564645720E+02 -0.69085367536E+02  0.20075610717E+03  0.41800000000E+01 0. -1.
        -11    1    4    4    0    0  0.26465292820E+02  0.21518898163E+01  0.40496631285E+02  0.48425401385E+02  0.00000000000E+00 0. -1.
         11    1    4    4    0    0  0.23197839103E+03  0.41936043741E+02  0.25560341647E+02  0.23712008927E+03  0.00000000000E+00 0.  1.
</event>
<event>
 7    1  0.3528896E-009  0.1637800E+03  0.7561462E-02  0.1184494E+00
         -2   -1    0    0    0  501 -0.00000000000E+00  0.00000000000E+00  0.56797643619E+02  0.56797643619E+02  0.00000000000E+00 0. -1.
          2   -1    0    0  501    0  0.00000000000E+00 -0.00000000000E+00 -0.51202145261E+03  0.51202145261E+03  0.00000000000E+00 0.  1.
         25    2    1    2    0    0  0.29279056386E+02  0.95289978096E+02 -0.15985523166E+03  0.22613507152E+03  0.12508370164E+03 0.  0.
          5    1    3    3  502    0  0.66790632749E+02  0.96486184022E+02 -0.94800556781E+02  0.15091451321E+03  0.41800000000E+01 0.  1.
         -5    1    3    3    0  502 -0.37511576363E+02 -0.11962059260E+01 -0.65054674875E+02  0.75220558313E+02  0.41800000000E+01 0.  1.
        -11    1    1    2    0    0 -0.23016558773E+02  0.35024313869E+02 -0.91535376093E+02  0.10067367886E+03  0.00000000000E+00 0. -1.
         11    1    1    2    0    0 -0.62624976130E+01 -0.13031429197E+03 -0.20383320124E+03  0.24201034584E+03  0.00000000000E+00 0.  1.
</event>
<event>
 8    1  0.3528896E-009  0.9360256E+02  0.7561462E-02  0.1294355E+00
          1   -1    0    0  501    0  0.00000000000E+00  0.00000000000E+00  0.18309933964E+03  0.18309933964E+03  0.00000000000E+00 0. -1.
         -1   -1    0    0    0  501 -0.00000000000E+00 -0.00000000000E+00 -0.79968263403E+02  0.79968263403E+02  0.00000000000E+00 0.  1.
         25    2    1    2    0    0 -0.12742671708E+02  0.15175722230E+02 -0.25692177659E+01  0.12667294772E+03  0.12508699603E+03 0.  0.
         23    2    1    2    0    0  0.12742671708E+02 -0.15175722230E+02  0.10570029400E+03  0.13639465533E+03  0.83894407573E+02 0.  0.
          5    1    3    3  502    0 -0.44202309358E+02 -0.36413879819E+02  0.21750535988E+02  0.61403363197E+02  0.41800000000E+01 0.  1.
         -5    1    3    3    0  502  0.31459637651E+02  0.51589602049E+02 -0.24319753754E+02  0.65269584520E+02  0.41800000000E+01 0.  1.
        -11    1    4    4    0    0  0.81631577341E+01 -0.41601038142E+02  0.10050016736E+03  0.10907596966E+03  0.00000000000E+00 0. -1.
         11    1    4    4    0    0  0.45795139735E+01  0.26425315912E+02  0.52001266428E+01  0.27318685663E+02  0.00000000000E+00 0.  1.
</event>
<event>
 8    1  0.3528896E-009  0.1429239E+03  0.7561462E-02  0.1209448E+00
         -2   -1    0    0    0  501 -0.00000000000E+00  0.00000000000E+00  0.11274352741E+04  0.11274352741E+04  0.00000000000E+00 0.  1.
          2   -1    0    0  501    0  0.00000000000E+00 -0.00000000000E+00 -0.25613153538E+02  0.25613153538E+02  0.00000000000E+00 0. -1.
         25    2    1    2    0    0  0.56690466628E+01  0.10308524665E+03  0.85694083695E+03  0.87215444781E+03  0.12508827531E+03 0.  0.
         23    2    1    2    0    0 -0.56690466628E+01 -0.10308524665E+03  0.24488128357E+03  0.28089397979E+03  0.90971856493E+02 0.  0.
          5    1    3    3  502    0  0.33688891888E+02 -0.71349868195E+01  0.39024286121E+03  0.39178158788E+03  0.41800000000E+01 0. -1.
         -5    1    3    3    0  502 -0.28019845225E+02  0.11022023347E+03  0.46669797574E+03  0.48037285993E+03  0.41800000000E+01 0. -1.
        -11    1    4    4    0    0 -0.47976245146E+02 -0.47620879972E+02  0.11211089177E+03  0.13091340788E+03  0.00000000000E+00 0.  1.
         11    1    4    4    0    0  0.42307198483E+02 -0.55464366682E+02  0.13277039180E+03  0.14998057192E+03  0.00000000000E+00 0. -1.
</event>
<event>
 8    1  0.3528896E-009  0.1021850E+03  0.7561462E-02  0.1275767E+00
         -2   -1    0    0    0  501 -0.00000000000E+00  0.00000000000E+00  0.36526616045E+02  0.36526616045E+02  0.00000000000E+00 0.  1.
          2   -1    0    0  501    0  0.00000000000E+00 -0.00000000000E+00 -0.64999032172E+03  0.64999032172E+03  0.00000000000E+00 0. -1.
         25    2    1    2    0    0 -0.29571084036E+02  0.80175752861E+02 -0.44899626627E+03  0.47386404855E+03  0.12508752547E+03 0.  0.
         23    2    1    2    0    0  0.29571084036E+02 -0.80175752861E+02 -0.16446743941E+03  0.21265288922E+03  0.10425503493E+03 0.  0.
          5    1    3    3  502    0 -0.10435183879E+02  0.18081649186E+02 -0.37376097851E+03  0.37436690633E+03  0.41800000000E+01 0.  1.
         -5    1    3    3    0  502 -0.19135900157E+02  0.62094103675E+02 -0.75235287761E+02  0.99497142222E+02  0.41800000000E+01 0.  1.
        -11    1    4    4    0    0 -0.11640694729E+02 -0.75614415266E+02 -0.51258001973E+02  0.92089241153E+02  0.00000000000E+00 0.  1.
         11    1    4    4    0    0  0.41211778765E+02 -0.45613375948E+01 -0.11320943744E+03  0.12056364807E+03  0.00000000000E+00 0. -1.
</event>
<event>
 8    1  0.3528896E-009  0.1360740E+03  0.7561462E-02  0.1218711E+00
         -1   -1    0    0    0  501 -0.00000000000E+00  0.00000000000E+00  0.32789052470E+02  0.32789052470E+02  0.00000000000E+00 0.  1.
          1   -1    0    0  501    0  0.00000000000E+00 -0.00000000000E+00 -0.65027191897E+03  0.65027191897E+03  0.00000000000E+00 0. -1.
         25    2    1    2    0    0  0.13958124111E+02 -0.93130497154E+02 -0.25272219892E+03  0.29729427636E+03  0.12508900112E+03 0.  0.
         23    2    1    2    0    0 -0.13958124111E+02  0.93130497154E+02 -0.36476066758E+03  0.38576669508E+03  0.83051066758E+02 0.  0.
          5    1    3    3  502    0  0.59852287297E+02 -0.26071660103E+02 -0.16575920559E+03  0.17820105048E+03  0.41800000000E+01 0. -1.
         -5    1    3    3    0  502 -0.45894163186E+02 -0.67058837051E+02 -0.86962993325E+02  0.11909322587E+03  0.41800000000E+01 0. -1.
        -11    1    4    4    0    0  0.21904636060E+02  0.86067525465E+02 -0.24831652586E+03  0.26372055103E+03  0.00000000000E+00 0.  1.
         11    1    4    4    0    0 -0.35862760170E+02  0.70629716891E+01 -0.11644414172E+03  0.12204614405E+03  0.00000000000E+00 0. -1.
</event>
<event>
 8    1  0.3528896E-009  0.2707911E+03  0.7561462E-02  0.1100828E+00
         -1   -1    0    0    0  501 -0.00000000000E+00  0.00000000000E+00  0.22624895867E+03  0.22624895867E+03  0.00000000000E+00 0.  1.
          1   -1    0    0  501    0  0.00000000000E+00 -0.00000000000E+00 -0.46067185659E+03  0.46067185659E+03  0.00000000000E+00 0. -1.
         25    2    1    2    0    0 -0.26299761298E+03  0.11194773728E+02 -0.28090366756E+03  0.40478076396E+03  0.12509008368E+03 0.  0.
         23    2    1    2    0    0  0.26299761298E+03 -0.11194773728E+02  0.46480769651E+02  0.28214005130E+03  0.90274465980E+02 0.  0.
          5    1    3    3  502    0 -0.12898099035E+03 -0.67604659058E+01 -0.22277457685E+03  0.25754181071E+03  0.41800000000E+01 0. -1.
         -5    1    3    3    0  502 -0.13401662262E+03  0.17955239634E+02 -0.58129090715E+02  0.14723895326E+03  0.41800000000E+01 0. -1.
        -11    1    4    4    0    0  0.88288646057E+02 -0.45051181435E+02  0.29272764482E+02  0.10335080412E+03  0.00000000000E+00 0. -1.
         11    1    4    4    0    0  0.17470896692E+03  0.33856407707E+02  0.17208005170E+02  0.17878924718E+03  0.00000000000E+00 0.  1.
</event>
<event>
 8    1  0.3528896E-009  0.1024923E+03  0.7561462E-02  0.1275141E+00
         -2   -1    0    0    0  501 -0.00000000000E+00  0.00000000000E+00  0.68719308325E+02  0.68719308325E+02  0.00000000000E+00 0.  1.
          2   -1    0    0  501    0  0.00000000000E+00 -0.00000000000E+00 -0.20878500871E+03  0.20878500871E+03  0.00000000000E+00 0. -1.
         25    2    1    2    0    0  0.19328162517E+02 -0.50959620515E+02 -0.85759535799E+02  0.16116231216E+03  0.12509249414E+03 0.  0.
         23    2    1    2    0    0 -0.19328162517E+02  0.50959620515E+02 -0.54306164583E+02  0.11634200488E+03  0.87268790513E+02 0.  0.
          5    1    3    3  502    0  0.25686574202E+02 -0.90956628464E+02 -0.69179277698E+02  0.11720133625E+03  0.41800000000E+01 0.  1.
         -5    1    3    3    0  502 -0.63584116846E+01  0.39997007948E+02 -0.16580258100E+02  0.43960975907E+02  0.41800000000E+01 0.  1.
        -11    1    4    4    0    0  0.11780951323E+02  0.29790187645E+02 -0.68899279625E+02  0.75982608713E+02  0.00000000000E+00 0. -1.
         11    1    4    4    0    0 -0.31109113840E+02  0.21169432870E+02  0.14593115043E+02  0.40359396163E+02  0.00000000000E+00 0.  1.
</event>
<event>
 8    1  0.3528896E-009  0.1039661E+03  0.7561462E-02  0.1272170E+00
         -2   -1    0    0    0  501 -0.00000000000E+00  0.00000000000E+00  0.54624998237E+02  0.54624998237E+02  0.00000000000E+00 0.  1.
          2   -1    0    0  501    0  0.00000000000E+00 -0.00000000000E+00 -0.24126627817E+03  0.24126627817E+03  0.00000000000E+00 0. -1.
         25    2    1    2    0    0 -0.23661331212E+02 -0.31866086157E+02 -0.12005186216E+03  0.17786313567E+03  0.12509012503E+03 0.  0.
         23    2    1    2    0    0  0.23661331212E+02  0.31866086157E+02 -0.66589417767E+02  0.11802814073E+03  0.89001041590E+02 0.  0.
          5    1    3    3  502    0  0.16398797436E+02 -0.66659768963E+02 -0.34095068957E+02  0.76761914272E+02  0.41800000000E+01 0.  1.
         -5    1    3    3    0  502 -0.40060128648E+02  0.34793682806E+02 -0.85956793208E+02  0.10110122140E+03  0.41800000000E+01 0.  1.
        -11    1    4    4    0    0  0.16459868145E+01  0.54402784523E+02 -0.67250614234E+02  0.86515994772E+02  0.00000000000E+00 0. -1.
         11    1    4    4    0    0  0.22015344397E+02 -0.22536698366E+02  0.66119646708E+00  0.31512145959E+02  0.00000000000E+00 0.  1.
</event>
<event>
 8    1  0.3528896E-009  0.9310766E+02  0.7561462E-02  0.1295496E+00
          1   -1    0    0  501    0  0.00000000000E+00  0.00000000000E+00  0.63787783376E+02  0.63787783376E+02  0.00000000000E+00 0. -1.
         -1   -1    0    0    0  501 -0.00000000000E+00 -0.00000000000E+00 -0.18692322664E+03  0.18692322664E+03  0.00000000000E+00 0.  1.
         25    2    1    2    0    0 -0.11232573737E+02  0.21419127485E+02 -0.74367932344E+02  0.14752431734E+03  0.12509150695E+03 0.  0.
         23    2    1    2    0    0  0.11232573737E+02 -0.21419127485E+02 -0.48767510919E+02  0.10318669268E+03  0.87659989102E+02 0.  0.
          5    1    3    3  502    0  0.44173446735E+02 -0.12757172492E+01  0.85083937968E+01  0.45197190355E+02  0.41800000000E+01 0. -1.
         -5    1    3    3    0  502 -0.55406020472E+02  0.22694844735E+02 -0.82876326141E+02  0.10232712698E+03  0.41800000000E+01 0. -1.
        -11    1    4    4    0    0 -0.33839632550E+02 -0.78833333126E+01  0.90955557023E+00  0.34757660545E+02  0.00000000000E+00 0. -1.
         11    1    4    4    0    0  0.45072206287E+02 -0.13535794173E+02 -0.49677066489E+02  0.68429032131E+02  0.00000000000E+00 0.  1.
</event>
<event>
 7    1  0.3528896E-009  0.2432377E+03  0.7561462E-02  0.1117655E+00
          1   -1    0    0  501    0  0.00000000000E+00  0.00000000000E+00  0.19492130068E+03  0.19492130068E+03  0.00000000000E+00 0. -1.
         -1   -1    0    0    0  501 -0.00000000000E+00 -0.00000000000E+00 -0.38497712178E+03  0.38497712178E+03  0.00000000000E+00 0.  1.
         23    2    1    2    0    0 -0.16874301663E+03  0.14079697814E+03 -0.22148837440E+03  0.32504006818E+03  0.91082112475E+02 0.  0.
          5    1    1    2  502    0  0.68829982268E+02 -0.13624529821E+03  0.15360125944E+02  0.15347232197E+03  0.41800000000E+01 0.  1.
         -5    1    1    2    0  502  0.99913034364E+02 -0.45516799284E+01  0.16072427357E+02  0.10138603231E+03  0.41800000000E+01 0.  1.
        -11    1    3    3    0    0 -0.11588590831E+03  0.45113664338E+02 -0.14805620920E+03  0.19335311619E+03  0.00000000000E+00 0.  1.
         11    1    3    3    0    0 -0.52857108318E+02  0.95683313801E+02 -0.73432165200E+02  0.13168695199E+03  0.00000000000E+00 0. -1.
</event>
<event>
 8    1  0.3528896E-009  0.9566321E+02  0.7561462E-02  0.1289689E+00
         -2   -1    0    0    0  501 -0.00000000000E+00  0.00000000000E+00  0.75457294404E+02  0.75457294404E+02  0.00000000000E+00 0.  1.
          2   -1    0    0  501    0  0.00000000000E+00 -0.00000000000E+00 -0.26666934818E+03  0.26666934818E+03  0.00000000000E+00 0. -1.
         25    2    1    2    0    0 -0.88797426661E+00 -0.10460090235E+02 -0.21107063615E+03  0.24557761000E+03  0.12508935647E+03 0.  0.
         23    2    1    2    0    0  0.88797426661E+00  0.10460090235E+02  0.19858582378E+02  0.96549032579E+02  0.93899682704E+02 0.  0.
          5    1    3    3  502    0 -0.33740321576E+02 -0.40658535440E+02 -0.34105461333E+02  0.63025238571E+02  0.41800000000E+01 0. -1.
         -5    1    3    3    0  502  0.32852347309E+02  0.30198445205E+02 -0.17696517482E+03  0.18255237143E+03  0.41800000000E+01 0. -1.
        -11    1    4    4    0    0 -0.15593853754E+02 -0.38665301893E+02  0.19928851599E+01  0.41739015760E+02  0.00000000000E+00 0. -1.
         11    1    4    4    0    0  0.16481828021E+02  0.49125392128E+02  0.17865697218E+02  0.54810016819E+02  0.00000000000E+00 0.  1.
</event>
<event>
 8    1  0.3528896E-009  0.1094536E+03  0.7561462E-02  0.1261585E+00
         -3   -1    0    0    0  501 -0.00000000000E+00  0.00000000000E+00  0.92800239531E+02  0.92800239531E+02  0.00000000000E+00 0.  1.
          3   -1    0    0  501    0  0.00000000000E+00 -0.00000000000E+00 -0.15806940571E+03  0.15806940571E+03  0.00000000000E+00 0. -1.
         25    2    1    2    0    0  0.24485549840E+02  0.25789973454E+02  0.46342446218E+01  0.13012766779E+03  0.12508824413E+03 0.  0.
         23    2    1    2    0    0 -0.24485549840E+02 -0.25789973454E+02 -0.69903410797E+02  0.12074197745E+03  0.91801271206E+02 0.  0.
          5    1    3    3  502    0  0.65438153173E+02  0.48689993942E+02 -0.58062741471E+01  0.81878279295E+02  0.41800000000E+01 0. -1.
         -5    1    3    3    0  502 -0.40952603333E+02 -0.22900020488E+02  0.10440518769E+02  0.48249388496E+02  0.41800000000E+01 0. -1.
        -11    1    4    4    0    0  0.30937137438E+02 -0.91015014388E+01 -0.50072339025E+02  0.59558231477E+02  0.00000000000E+00 0. -1.
         11    1    4    4    0    0 -0.55422687277E+02 -0.16688472015E+02 -0.19831071773E+02  0.61183745970E+02  0.00000000000E+00 0.  1.
</event>
<event>
 8    1  0.3528896E-009  0.1127221E+03  0.7561462E-02  0.1255610E+00
          1   -1    0    0  501    0  0.00000000000E+00  0.00000000000E+00  0.14076080784E+04  0.14076080784E+04  0.00000000000E+00 0. -1.
         -1   -1    0    0    0  501 -0.00000000000E+00 -0.00000000000E+00 -0.12082943957E+02  0.12082943957E+02  0.00000000000E+00 0.  1.
         25    2    1    2    0    0  0.30118315492E+02  0.50907672712E+02  0.98449760756E+03  0.99417362840E+03  0.12508780936E+03 0.  0.
         23    2    1    2    0    0 -0.30118315492E+02 -0.50907672712E+02  0.41102752687E+03  0.42551739395E+03  0.92858605599E+02 0.  0.
          5    1    3    3  502    0  0.73061015683E+02  0.40141944469E+02  0.43885038366E+03  0.44671738198E+03  0.41800000000E+01 0. -1.
         -5    1    3    3    0  502 -0.42942700191E+02  0.10765728243E+02  0.54564722390E+03  0.54745624643E+03  0.41800000000E+01 0. -1.
        -11    1    4    4    0    0 -0.52402512726E+02 -0.53722201089E+02  0.37924477771E+03  0.38659888728E+03  0.00000000000E+00 0. -1.
         11    1    4    4    0    0  0.22284197233E+02  0.28145283775E+01  0.31782749165E+02  0.38918506662E+02  0.00000000000E+00 0.  1.
</event>
<event>
 8    1  0.3528896E-009  0.1326100E+03  0.7561462E-02  0.1223634E+00
          2   -1    0    0  501    0  0.00000000000E+00  0.00000000000E+00  0.34207975744E+02  0.34207975744E+02  0.00000000000E+00 0. -1.
         -2   -1    0    0    0  501 -0.00000000000E+00 -0.00000000000E+00 -0.57650551041E+03  0.57650551041E+03  0.00000000000E+00 0.  1.
         25    2    1    2    0    0  0.76744920501E+02 -0.43121335132E+02 -0.30589309440E+03  0.34200412559E+03  0.12508798644E+03 0.  0.
         23    2    1    2    0    0 -0.76744920501E+02  0.43121335132E+02 -0.23640444026E+03  0.26870936056E+03  0.92565807466E+02 0.  0.
          5    1    3    3  502    0  0.21000760030E+02 -0.76377662426E+02 -0.22267572094E+03  0.23638216586E+03  0.41800000000E+01 0.  1.
         -5    1    3    3    0  502  0.55744160471E+02  0.33256327294E+02 -0.83217373460E+02  0.10562195973E+03  0.41800000000E+01 0.  1.
        -11    1    4    4    0    0  0.75134715040E+01 -0.16165500425E+02 -0.76043285998E+02  0.78104782205E+02  0.00000000000E+00 0.  1.
         11    1    4    4    0    0 -0.84258392005E+02  0.59286835556E+02 -0.16036115427E+03  0.19060457836E+03  0.00000000000E+00 0. -1.
</event>
<event>
 8    1  0.3528896E-009  0.2280355E+03  0.7561462E-02  0.1128030E+00
         -2   -1    0    0    0  501 -0.00000000000E+00  0.00000000000E+00  0.53030592727E+02  0.53030592727E+02  0.00000000000E+00 0.  1.
          2   -1    0    0  501    0  0.00000000000E+00 -0.00000000000E+00 -0.10333461286E+04  0.10333461286E+04  0.00000000000E+00 0. -1.
         25    2    1    2    0    0  0.17456202937E+03 -0.97718058131E+02 -0.62894352149E+03  0.67174228573E+03  0.12508806591E+03 0.  0.
         23    2    1    2    0    0 -0.17456202937E+03  0.97718058131E+02 -0.35137201442E+03  0.41463443563E+03  0.91862406399E+02 0.  0.
          5    1    3    3  502    0  0.57886701503E+02 -0.10391252846E+03 -0.31925355135E+03  0.34071833856E+03  0.41800000000E+01 0.  1.
         -5    1    3    3    0  502  0.11667532787E+03  0.61944703288E+01 -0.30968997013E+03  0.33102394717E+03  0.41800000000E+01 0.  1.
        -11    1    4    4    0    0  0.98714376169E+01  0.15104336109E+02 -0.28690797865E+02  0.33893187104E+02  0.00000000000E+00 0. -1.
         11    1    4    4    0    0 -0.18443346699E+03  0.82613722022E+02 -0.32268121656E+03  0.38074124853E+03  0.00000000000E+00 0.  1.
</event>
<event>
 8    1  0.3528896E-009  0.1143682E+03  0.7561462E-02  0.1252688E+00
          2   -1    0    0  501    0  0.00000000000E+00  0.00000000000E+00  0.15426425334E+04  0.15426425334E+04  0.00000000000E+00 0.  1.
         -2   -1    0    0    0  501 -0.00000000000E+00 -0.00000000000E+00 -0.92345517029E+01  0.92345517029E+01  0.00000000000E+00 0. -1.
         25    2    1    2    0    0  0.52780219047E+02  0.11119664197E+02  0.10422046663E+04  0.10510710555E+04  0.12510155404E+03 0.  0.
         23    2    1    2    0    0 -0.52780219047E+02 -0.11119664197E+02  0.49120331537E+03  0.50080602956E+03  0.81342386012E+02 0.  0.
          5    1    3    3  502    0  0.59771332748E+02 -0.44866723434E+02  0.45146435938E+03  0.45762776935E+03  0.41800000000E+01 0. -1.
         -5    1    3    3    0  502 -0.69911137009E+01  0.55986387631E+02  0.59074030690E+03  0.59344328614E+03  0.41800000000E+01 0. -1.
        -11    1    4    4    0    0  0.17433130735E+02 -0.20002903461E+02  0.15194052973E+03  0.15423992598E+03  0.00000000000E+00 0.  1.
         11    1    4    4    0    0 -0.70213349781E+02  0.88832392641E+01  0.33926278564E+03  0.34656610358E+03  0.00000000000E+00 0. -1.
</event>
<event>
 8    1  0.3528896E-009  0.7980327E+02  0.7561462E-02  0.1329611E+00
          3   -1    0    0  501    0  0.00000000000E+00  0.00000000000E+00  0.10988632855E+03  0.10988632855E+03  0.00000000000E+00 0. -1.
         -3   -1    0    0    0  501 -0.00000000000E+00 -0.00000000000E+00 -0.10713583429E+03  0.10713583429E+03  0.00000000000E+00 0.  1.
         25    2    1    2    0    0  0.14916050072E+02  0.62817332017E+01 -0.14743653562E+02  0.12698456993E+03  0.12508300028E+03 0.  0.
         23    2    1    2    0    0 -0.14916050072E+02 -0.62817332017E+01  0.17494147821E+02  0.90037592916E+02  0.86826114784E+02 0.  0.
          5    1    3    3  502    0 -0.23661459622E+02  0.24726476539E+02  0.42933671924E+02  0.55063925563E+02  0.41800000000E+01 0.  1.
         -5    1    3    3    0  502  0.38577509694E+02 -0.18444743337E+02 -0.57677325487E+02  0.71920644368E+02  0.41800000000E+01 0.  1.
        -11    1    4    4    0    0  0.28723328135E+02  0.16302751533E+02  0.23500217002E+02  0.40534793521E+02  0.00000000000E+00 0. -1.
         11    1    4    4    0    0 -0.43639378206E+02 -0.22584484735E+02 -0.60060691804E+01  0.49502799395E+02  0.00000000000E+00 0.  1.
</event>
<event>
 8    1  0.3528896E-009  0.2273325E+03  0.7561462E-02  0.1128531E+00
         -2   -1    0    0    0  501 -0.00000000000E+00  0.00000000000E+00  0.22291564879E+03  0.22291564879E+03  0.00000000000E+00 0.  1.
          2   -1    0    0  501    0  0.00000000000E+00 -0.00000000000E+00 -0.40211437571E+03  0.40211437571E+03  0.00000000000E+00 0. -1.
         25    2    1    2    0    0 -0.14841797592E+03 -0.15064637481E+03 -0.28395743737E+03  0.37549797679E+03  0.12507868930E+03 0.  0.
         23    2    1    2    0    0  0.14841797592E+03  0.15064637481E+03  0.10475871045E+03  0.24953204771E+03  0.81053251615E+02 0.  0.
          5    1    3    3  502    0  0.18564081313E+02 -0.35452756935E+02 -0.69200679274E+02  0.80048294805E+02  0.41800000000E+01 0.  1.
         -5    1    3    3    0  502 -0.16698205723E+03 -0.11519361788E+03 -0.21475675809E+03  0.29544968199E+03  0.41800000000E+01 0.  1.
        -11    1    4    4    0    0  0.98384660584E+02  0.96807867161E+02  0.23582850185E+02  0.14002662392E+03  0.00000000000E+00 0. -1.
         11    1    4    4    0    0  0.50033315337E+02  0.53838507653E+02  0.81175860269E+02  0.10950542379E+03  0.00000000000E+00 0.  1.
</event>
<event>
 8    1  0.3528896E-009  0.8392946E+02  0.7561462E-02  0.1318256E+00
          1   -1    0    0  501    0  0.00000000000E+00  0.00000000000E+00  0.15780283926E+03  0.15780283926E+03  0.00000000000E+00 0. -1.
         -1   -1    0    0    0  501 -0.00000000000E+00 -0.00000000000E+00 -0.92280308371E+02  0.92280308371E+02  0.00000000000E+00 0.  1.
         25    2    1    2    0    0  0.25564433072E+02  0.42288037728E+02  0.18121802729E+02  0.13570084101E+03  0.12507797625E+03 0.  0.
         23    2    1    2    0    0 -0.25564433072E+02 -0.42288037728E+02  0.47400728163E+02  0.11438230662E+03  0.91622402637E+02 0.  0.
          5    1    3    3  502    0  0.41070572289E+02  0.37068720910E+02  0.65243366856E+02  0.85644914016E+02  0.41800000000E+01 0.  1.
         -5    1    3    3    0  502 -0.15506139217E+02  0.52193168178E+01 -0.47121564128E+02  0.50055926995E+02  0.41800000000E+01 0.  1.
        -11    1    4    4    0    0  0.29318028415E+02 -0.23184206038E+02 -0.29470190615E+01  0.37493187662E+02  0.00000000000E+00 0.  1.
         11    1    4    4    0    0 -0.54882461487E+02 -0.19103831690E+02  0.50347747224E+02  0.76889118961E+02  0.00000000000E+00 0. -1.
</event>
<event>
 8    1  0.3528896E-009  0.1423804E+03  0.7561462E-02  0.1210161E+00
          2   -1    0    0  501    0  0.00000000000E+00  0.00000000000E+00  0.35440752488E+03  0.35440752488E+03  0.00000000000E+00 0. -1.
         -2   -1    0    0    0  501 -0.00000000000E+00 -0.00000000000E+00 -0.88809969256E+02  0.88809969256E+02  0.00000000000E+00 0.  1.
         25    2    1    2    0    0 -0.37213532852E+02  0.12340434083E+03  0.20765464900E+03  0.27455731169E+03  0.12509110994E+03 0.  0.
         23    2    1    2    0    0  0.37213532852E+02 -0.12340434083E+03  0.57942906624E+02  0.16866018245E+03  0.92061926723E+02 0.  0.
          5    1    3    3  502    0 -0.39747716753E+02  0.12574626644E+03  0.22254037403E+03  0.25871547110E+03  0.41800000000E+01 0. -1.
         -5    1    3    3    0  502  0.25341839010E+01 -0.23419256076E+01 -0.14885725032E+02  0.15841840591E+02  0.41800000000E+01 0. -1.
        -11    1    4    4    0    0  0.56582077515E+02 -0.66656555252E+02  0.32384653580E+01  0.87493516970E+02  0.00000000000E+00 0.  1.
         11    1    4    4    0    0 -0.19368544663E+02 -0.56747785579E+02  0.54704441266E+02  0.81166665477E+02  0.00000000000E+00 0. -1.
</event>
<event>
 8    1  0.3528896E-009  0.1144314E+03  0.7561462E-02  0.1252577E+00
         -1   -1    0    0    0  501 -0.00000000000E+00  0.00000000000E+00  0.64036059938E+02  0.64036059938E+02  0.00000000000E+00 0.  1.
          1   -1    0    0  501    0  0.00000000000E+00 -0.00000000000E+00 -0.29377746796E+03  0.29377746796E+03  0.00000000000E+00 0. -1.
         25    2    1    2    0    0  0.16549706535E+02 -0.77506585633E+02 -0.15653561697E+03  0.21548090679E+03  0.12508980057E+03 0.  0.
         23    2    1    2    0    0 -0.16549706535E+02  0.77506585633E+02 -0.73205791052E+02  0.14233262111E+03  0.92834926546E+02 0.  0.
          5    1    3    3  502    0 -0.44442822897E+02 -0.41824961445E+02 -0.12252767399E+03  0.13694887805E+03  0.41800000000E+01 0. -1.
         -5    1    3    3    0  502  0.60992529432E+02 -0.35681624188E+02 -0.34007942986E+02  0.78532028735E+02  0.41800000000E+01 0. -1.
        -11    1    4    4    0    0 -0.37308227899E+02  0.47054451618E+02 -0.84610128029E+02  0.10375403149E+03  0.00000000000E+00 0. -1.
         11    1    4    4    0    0  0.20758521364E+02  0.30452134015E+02  0.11404336977E+02  0.38578589621E+02  0.00000000000E+00 0.  1.
</event>
<event>
 8    1  0.3528896E-009  0.1472356E+03  0.7561462E-02  0.1203912E+00
         -2   -1    0    0    0  501 -0.00000000000E+00  0.00000000000E+00  0.14307254296E+03  0.14307254296E+03  0.00000000000E+00 0.  1.
          2   -1    0    0  501    0  0.00000000000E+00 -0.00000000000E+00 -0.15830059272E+03  0.15830059272E+03  0.00000000000E+00 0. -1.
         25    2    1    2    0    0 -0.93927282577E+02 -0.44804294762E+02 -0.59774286490E+01  0.16283284442E+03  0.12509614833E+03 0.  0.
         23    2    1    2    0    0  0.93927282577E+02  0.44804294762E+02 -0.92506211042E+01  0.13854029126E+03  0.90983949518E+02 0.  0.
          5    1    3    3  502    0 -0.10924227872E+02 -0.68761125055E+02  0.19936141619E+02  0.72542078934E+02  0.41800000000E+01 0. -1.
         -5    1    3    3    0  502 -0.83003054705E+02  0.23956830293E+02 -0.25913570268E+02  0.90290765486E+02  0.41800000000E+01 0. -1.
        -11    1    4    4    0    0  0.98112437565E+02  0.64944327697E+02 -0.80685907098E+01  0.11793607701E+03  0.00000000000E+00 0.  1.
         11    1    4    4    0    0 -0.41851549885E+01 -0.20140032935E+02 -0.11820303944E+01  0.20604214247E+02  0.00000000000E+00 0. -1.
</event>
<event>
 8    1  0.3528896E-009  0.6937525E+02  0.7561462E-02  0.1362230E+00
         -1   -1    0    0    0  501 -0.00000000000E+00  0.00000000000E+00  0.41615060447E+02  0.41615060447E+02  0.00000000000E+00 0.  1.
          1   -1    0    0  501    0  0.00000000000E+00 -0.00000000000E+00 -0.34806561408E+03  0.34806561408E+03  0.00000000000E+00 0. -1.
         25    2    1    2    0    0  0.35791902273E+02  0.30594360007E+02 -0.18902069957E+03  0.23150307734E+03  0.12509106611E+03 0.  0.
         23    2    1    2    0    0 -0.35791902273E+02 -0.30594360007E+02 -0.11742985406E+03  0.15817759718E+03  0.94938435282E+02 0.  0.
          5    1    3    3  502    0  0.35004434578E+02  0.30735742651E+02 -0.20741503338E+03  0.21262282283E+03  0.41800000000E+01 0. -1.
         -5    1    3    3    0  502  0.78746769490E+00 -0.14138264391E+00  0.18394333804E+02  0.18880254514E+02  0.41800000000E+01 0. -1.
        -11    1    4    4    0    0  0.19776352246E+02 -0.24998112432E+02 -0.44982965084E+01  0.32190750299E+02  0.00000000000E+00 0.  1.
         11    1    4    4    0    0 -0.55568254518E+02 -0.55962475750E+01 -0.11293155755E+03  0.12598684688E+03  0.00000000000E+00 0. -1.
</event>
<event>
 8    1  0.3528896E-009  0.7079475E+02  0.7561462E-02  0.1357411E+00
          2   -1    0    0  501    0  0.00000000000E+00  0.00000000000E+00  0.13812991945E+03  0.13812991945E+03  0.00000000000E+00 0.  1.
         -2   -1    0    0    0  501 -0.00000000000E+00 -0.00000000000E+00 -0.10297182315E+03  0.10297182315E+03  0.00000000000E+00 0. -1.
         25    2    1    2    0    0  0.13302929406E+02  0.38504696924E+02  0.49147027838E+02  0.14043906691E+03  0.12509245203E+03 0.  0.
         23    2    1    2    0    0 -0.13302929406E+02 -0.38504696924E+02 -0.13988931542E+02  0.10066267568E+03  0.90981890804E+02 0.  0.
          5    1    3    3  502    0  0.14861279446E+02  0.20357433886E+02 -0.41036372584E+02  0.48339828466E+02  0.41800000000E+01 0.  1.
         -5    1    3    3    0  502 -0.15583500406E+01  0.18147263037E+02  0.90183400422E+02  0.92099238446E+02  0.41800000000E+01 0.  1.
        -11    1    4    4    0    0  0.22990894688E+02  0.18680023679E+02 -0.14386417329E+02  0.32931649317E+02  0.00000000000E+00 0. -1.
         11    1    4    4    0    0 -0.36293824093E+02 -0.57184720603E+02  0.39748578637E+00  0.67731026367E+02  0.00000000000E+00 0.  1.
</event>
<event>
 8    1  0.3528896E-009  0.1036512E+03  0.7561462E-02  0.1272800E+00
          1   -1    0    0  501    0  0.00000000000E+00  0.00000000000E+00  0.21688475601E+03  0.21688475601E+03  0.00000000000E+00 0. -1.
         -1   -1    0    0    0  501 -0.00000000000E+00 -0.00000000000E+00 -0.61639768696E+02  0.61639768696E+02  0.00000000000E+00 0.  1.
         25    2    1    2    0    0  0.34833479157E+02 -0.14053239437E+02  0.11556132325E+03  0.17439383398E+03  0.12509166674E+03 0.  0.
         23    2    1    2    0    0 -0.34833479157E+02  0.14053239437E+02  0.39683664065E+02  0.10413069073E+03  0.88642781712E+02 0.  0.
          5    1    3    3  502    0 -0.21474917570E+01  0.47280226787E+02  0.82936885766E+02  0.95582587256E+02  0.41800000000E+01 0. -1.
         -5    1    3    3    0  502  0.36980970914E+02 -0.61333466224E+02  0.32624437487E+02  0.78811246724E+02  0.41800000000E+01 0. -1.
        -11    1    4    4    0    0 -0.35868098760E+02 -0.28295971539E+02 -0.57632605974E+00  0.45689327701E+02  0.00000000000E+00 0.  1.
         11    1    4    4    0    0  0.10346196035E+01  0.42349210976E+02  0.40259990125E+02  0.58441363031E+02  0.00000000000E+00 0. -1.
</event>
<event>
 8    1  0.3528896E-009  0.1039998E+03  0.7561462E-02  0.1272103E+00
         -3   -1    0    0    0  501 -0.00000000000E+00  0.00000000000E+00  0.41434887405E+02  0.41434887405E+02  0.00000000000E+00 0.  1.
          3   -1    0    0  501    0  0.00000000000E+00 -0.00000000000E+00 -0.35682858293E+03  0.35682858293E+03  0.00000000000E+00 0. -1.
         25    2    1    2    0    0  0.45675106040E+02 -0.24118985535E+02 -0.15224671478E+03  0.20369961407E+03  0.12508608970E+03 0.  0.
         23    2    1    2    0    0 -0.45675106040E+02  0.24118985535E+02 -0.16314698074E+03  0.19456385626E+03  0.92575461457E+02 0.  0.
          5    1    3    3  502    0  0.62531009275E+02  0.36000001486E+02 -0.73015140105E+02  0.10273660649E+03  0.41800000000E+01 0.  1.
         -5    1    3    3    0  502 -0.16855903236E+02 -0.60118987022E+02 -0.79231574678E+02  0.10096300758E+03  0.41800000000E+01 0.  1.
        -11    1    4    4    0    0 -0.51617533862E+02  0.33863846659E+02 -0.17026577199E+03  0.18111201789E+03  0.00000000000E+00 0. -1.
         11    1    4    4    0    0  0.59424278225E+01 -0.97448611236E+01  0.71187912503E+01  0.13451838373E+02  0.00000000000E+00 0.  1.
</event>
<event>
 8    1  0.3528896E-009  0.1141398E+03  0.7561462E-02  0.1253090E+00
          1   -1    0    0  501    0  0.00000000000E+00  0.00000000000E+00  0.92095694045E+02  0.92095694045E+02  0.00000000000E+00 0. -1.
         -1   -1    0    0    0  501 -0.00000000000E+00 -0.00000000000E+00 -0.20436977507E+03  0.20436977507E+03  0.00000000000E+00 0.  1.
         25    2    1    2    0    0 -0.83202500211E+02  0.11905442881E+02 -0.60739454293E+02  0.16248470886E+03  0.12509038210E+03 0.  0.
         23    2    1    2    0    0  0.83202500211E+02 -0.11905442881E+02 -0.51534626727E+02  0.13398076025E+03  0.90722823771E+02 0.  0.
          5    1    3    3  502    0 -0.10682796245E+02  0.36787784392E+02  0.26119555972E+02  0.46552839014E+02  0.41800000000E+01 0.  1.
         -5    1    3    3    0  502 -0.72519703966E+02 -0.24882341511E+02 -0.86859010265E+02  0.11593186985E+03  0.41800000000E+01 0.  1.
        -11    1    4    4    0    0  0.81582491083E+02  0.17560224055E+02 -0.11491589668E+02  0.84238476680E+02  0.00000000000E+00 0.  1.
         11    1    4    4    0    0  0.16200091275E+01 -0.29465666936E+02 -0.40043037060E+02  0.49742283568E+02  0.00000000000E+00 0. -1.
</event>
<event>
 8    1  0.3528896E-009  0.1282601E+03  0.7561462E-02  0.1230061E+00
          3   -1    0    0  501    0  0.00000000000E+00  0.00000000000E+00  0.35781370885E+02  0.35781370885E+02  0.00000000000E+00 0. -1.
         -3   -1    0    0    0  501 -0.00000000000E+00 -0.00000000000E+00 -0.87775605892E+03  0.87775605892E+03  0.00000000000E+00 0.  1.
         25    2    1    2    0    0  0.10986033913E+03  0.25994535719E+02 -0.22906732040E+03  0.28436663425E+03  0.12509010912E+03 0.  0.
         23    2    1    2    0    0 -0.10986033913E+03 -0.25994535719E+02 -0.61290736764E+03  0.62917079555E+03  0.86344882129E+02 0.  0.
          5    1    3    3  502    0  0.26566660088E+02  0.17501094870E+02 -0.18854625631E+03  0.19125699704E+03  0.41800000000E+01 0.  1.
         -5    1    3    3    0  502  0.83293679045E+02  0.84934408497E+01 -0.40521064087E+02  0.93109637209E+02  0.41800000000E+01 0.  1.
        -11    1    4    4    0    0 -0.11372796494E+03  0.59985908211E+00 -0.45534579023E+03  0.46933378157E+03  0.00000000000E+00 0. -1.
         11    1    4    4    0    0  0.38676258091E+01 -0.26594394802E+02 -0.15756157740E+03  0.15983701398E+03  0.00000000000E+00 0.  1.
</event>
<event>
 8    1  0.3528896E-009  0.1301188E+03  0.7561462E-02  0.1227279E+00
          1   -1    0    0  501    0  0.00000000000E+00  0.00000000000E+00  0.11414653408E+03  0.11414653408E+03  0.00000000000E+00 0. -1.
         -1   -1    0    0    0  501 -0.00000000000E+00 -0.00000000000E+00 -0.15729434696E+03  0.15729434696E+03  0.00000000000E+00 0.  1.
         25    2    1    2    0    0 -0.19222145649E+02 -0.70961555475E+02  0.69854523277E+01  0.14526290280E+03  0.12508989227E+03 0.  0.
         23    2    1    2    0    0  0.19222145649E+02  0.70961555475E+02 -0.50133265209E+02  0.12617797824E+03  0.89456719554E+02 0.  0.
          5    1    3    3  502    0  0.51535209823E+02 -0.48091456779E+02  0.29114153822E+01  0.70672588789E+02  0.41800000000E+01 0.  1.
         -5    1    3    3    0  502 -0.70757355472E+02 -0.22870098696E+02  0.40740369455E+01  0.74590314015E+02  0.41800000000E+01 0.  1.
        -11    1    4    4    0    0 -0.32913329701E+02  0.47947349394E+02 -0.31966419553E+02  0.66363299835E+02  0.00000000000E+00 0.  1.
         11    1    4    4    0    0  0.52135475350E+02  0.23014206081E+02 -0.18166845656E+02  0.59814678405E+02  0.00000000000E+00 0. -1.
</event>
<event>
 8    1  0.3528896E-009  0.1169964E+03  0.7561462E-02  0.1248136E+00
         -2   -1    0    0    0  501 -0.00000000000E+00  0.00000000000E+00  0.48200465108E+02  0.48200465108E+02  0.00000000000E+00 0.  1.
          2   -1    0    0  501    0  0.00000000000E+00 -0.00000000000E+00 -0.10773745676E+04  0.10773745676E+04  0.00000000000E+00 0. -1.
         25    2    1    2    0    0  0.76848697861E+02  0.69192670177E+02 -0.96009232031E+03  0.97371320934E+03  0.12508717978E+03 0.  0.
         23    2    1    2    0    0 -0.76848697861E+02 -0.69192670177E+02 -0.69081782208E+02  0.15186182340E+03  0.87157172992E+02 0.  0.
          5    1    3    3  502    0  0.39070510697E+02  0.19167780408E+02 -0.80764410523E+03  0.80882654613E+03  0.41800000000E+01 0.  1.
         -5    1    3    3    0  502  0.37778187164E+02  0.50024889768E+02 -0.15244821508E+03  0.16488666321E+03  0.41800000000E+01 0.  1.
        -11    1    4    4    0    0  0.98093551971E+01  0.70047305530E+01  0.67179507526E+01  0.13799295700E+02  0.00000000000E+00 0.  1.
         11    1    4    4    0    0 -0.86658053058E+02 -0.76197400730E+02 -0.75799732961E+02  0.13806252770E+03  0.00000000000E+00 0. -1.
</event>
<event>
 8    1  0.3528896E-009  0.1496145E+03  0.7561462E-02  0.1200948E+00
         -1   -1    0    0    0  501 -0.00000000000E+00  0.00000000000E+00  0.40908168010E+02  0.40908168010E+02  0.00000000000E+00 0.  1.
          1   -1    0    0  501    0  0.00000000000E+00 -0.00000000000E+00 -0.83581687631E+03  0.83581687631E+03  0.00000000000E+00 0. -1.
         25    2    1    2    0    0 -0.12361352002E+03  0.26785269656E+01 -0.61325394240E+03  0.63798650820E+03  0.12513556621E+03 0.  0.
         23    2    1    2    0    0  0.12361352002E+03 -0.26785269656E+01 -0.18165476589E+03  0.23873853612E+03  0.93328226262E+02 0.  0.
          5    1    3    3  502    0 -0.10209990267E+03  0.51188216451E+02 -0.49929254241E+03  0.51220614886E+03  0.41800000000E+01 0. -1.
         -5    1    3    3    0  502 -0.21513617352E+02 -0.48509689485E+02 -0.11396140000E+03  0.12578035934E+03  0.41800000000E+01 0. -1.
        -11    1    4    4    0    0  0.92940135439E+02  0.18065350732E+02 -0.61240049255E+02  0.11275889901E+03  0.00000000000E+00 0.  1.
         11    1    4    4    0    0  0.30673384585E+02 -0.20743877698E+02 -0.12041471664E+03  0.12597963711E+03  0.00000000000E+00 0. -1.
</event>
<event>
 8    1  0.3528896E-009  0.9499369E+02  0.7561462E-02  0.1291190E+00
         -2   -1    0    0    0  501 -0.00000000000E+00  0.00000000000E+00  0.93142457058E+02  0.93142457058E+02  0.00000000000E+00 0.  1.
          2   -1    0    0  501    0  0.00000000000E+00 -0.00000000000E+00 -0.17918132953E+03  0.17918132953E+03  0.00000000000E+00 0. -1.
         25    2    1    2    0    0  0.47452858236E+01 -0.64475239061E+02 -0.17773188649E+02  0.14188243314E+03  0.12504065102E+03 0.  0.
         23    2    1    2    0    0 -0.47452858236E+01  0.64475239061E+02 -0.68265683822E+02  0.13044135345E+03  0.90416640684E+02 0.  0.
          5    1    3    3  502    0 -0.13013124300E+02 -0.91353138132E+02 -0.41889360865E+02  0.10142449509E+03  0.41800000000E+01 0.  1.
         -5    1    3    3    0  502  0.17758410124E+02  0.26877899072E+02  0.24116172216E+02  0.40457938047E+02  0.41800000000E+01 0.  1.
        -11    1    4    4    0    0  0.22137891739E+01  0.18907209228E+02 -0.80523474920E+02  0.82743056727E+02  0.00000000000E+00 0. -1.
         11    1    4    4    0    0 -0.69590749975E+01  0.45568029833E+02  0.12257791098E+02  0.47698296723E+02  0.00000000000E+00 0.  1.
</event>
<event>
 8    1  0.3528896E-009  0.7416470E+02  0.7561462E-02  0.1346477E+00
          2   -1    0    0  501    0  0.00000000000E+00  0.00000000000E+00  0.16013709081E+04  0.16013709081E+04  0.00000000000E+00 0. -1.
         -2   -1    0    0    0  501 -0.00000000000E+00 -0.00000000000E+00 -0.19571375380E+02  0.19571375380E+02  0.00000000000E+00 0.  1.
         25    2    1    2    0    0  0.43526241976E+02  0.13583279695E+02  0.14508532332E+04  0.14569492652E+04  0.12508804047E+03 0.  0.
         23    2    1    2    0    0 -0.43526241976E+02 -0.13583279695E+02  0.13094629953E+03  0.16399301829E+03  0.87565618012E+02 0.  0.
          5    1    3    3  502    0  0.70712175385E+02  0.10587990058E+01  0.13450432623E+04  0.13469076370E+04  0.41800000000E+01 0.  1.
         -5    1    3    3    0  502 -0.27185933409E+02  0.12524480689E+02  0.10580997089E+03  0.11004162818E+03  0.41800000000E+01 0.  1.
        -11    1    4    4    0    0 -0.15309008520E+02  0.12951177076E+01 -0.10749512032E+02  0.18750868798E+02  0.00000000000E+00 0.  1.
         11    1    4    4    0    0 -0.28217233456E+02 -0.14878397403E+02  0.14169581157E+03  0.14524214949E+03  0.00000000000E+00 0. -1.
</event>
<event>
 8    1  0.3528896E-009  0.8907676E+02  0.7561462E-02  0.1305103E+00
          1   -1    0    0  501    0  0.00000000000E+00  0.00000000000E+00  0.17021297470E+03  0.17021297470E+03  0.00000000000E+00 0. -1.
         -1   -1    0    0    0  501 -0.00000000000E+00 -0.00000000000E+00 -0.14601035130E+03  0.14601035130E+03  0.00000000000E+00 0.  1.
         25    2    1    2    0    0 -0.97861664799E+01 -0.96552838410E+01 -0.99684122788E+02  0.16053904658E+03  0.12508743974E+03 0.  0.
         23    2    1    2    0    0  0.97861664799E+01  0.96552838410E+01  0.12388674620E+03  0.15568427942E+03  0.93277411061E+02 0.  0.
          5    1    3    3  502    0  0.55050357487E+02  0.66696028327E+01 -0.27428227697E+02  0.62006495918E+02  0.41800000000E+01 0.  1.
         -5    1    3    3    0  502 -0.64836523967E+02 -0.16324886674E+02 -0.72255895091E+02  0.98532550664E+02  0.41800000000E+01 0.  1.
        -11    1    4    4    0    0 -0.91186482068E+01 -0.19085334960E+02 -0.54566577978E+01  0.21844332674E+02  0.00000000000E+00 0.  1.
         11    1    4    4    0    0  0.18904814687E+02  0.28740618801E+02  0.12934340399E+03  0.13383994674E+03  0.00000000000E+00 0. -1.
</event>
<event>
 8    1  0.3528896E-009  0.1028533E+03  0.7561462E-02  0.1274408E+00
          2   -1    0    0  501    0  0.00000000000E+00  0.00000000000E+00  0.21411483758E+03  0.21411483758E+03  0.00000000000E+00 0. -1.
         -2   -1    0    0    0  501 -0.00000000000E+00 -0.00000000000E+00 -0.63200126907E+02  0.63200126907E+02  0.00000000000E+00 0.  1.
         25    2    1    2    0    0  0.18789721314E+02  0.46141256809E+02  0.74425649366E+02  0.15384760304E+03  0.12509132052E+03 0.  0.
         23    2    1    2    0    0 -0.18789721314E+02 -0.46141256809E+02  0.76489061303E+02  0.12346736145E+03  0.83135694120E+02 0.  0.
          5    1    3    3  502    0 -0.34738558117E+02  0.44721091443E+02  0.81859824645E+02  0.99625532525E+02  0.41800000000E+01 0.  1.
         -5    1    3    3    0  502  0.53528279431E+02  0.14201653668E+01 -0.74341752789E+01  0.54222070512E+02  0.41800000000E+01 0.  1.
        -11    1    4    4    0    0 -0.49214997150E+02 -0.14473073458E+02  0.29607842899E+02  0.59230145711E+02  0.00000000000E+00 0.  1.
         11    1    4    4    0    0  0.30425275837E+02 -0.31668183351E+02  0.46881218404E+02  0.64237215737E+02  0.00000000000E+00 0. -1.
</event>
<event>
 8    1  0.3528896E-009  0.1014900E+03  0.7561462E-02  0.1277193E+00
         -2   -1    0    0    0  501 -0.00000000000E+00  0.00000000000E+00  0.12163114092E+03  0.12163114092E+03  0.00000000000E+00 0.  1.
          2   -1    0    0  501    0  0.00000000000E+00 -0.00000000000E+00 -0.12084780423E+03  0.12084780423E+03  0.00000000000E+00 0. -1.
         25    2    1    2    0    0  0.21925613910E+02 -0.42892087607E+02 -0.25656627489E+02  0.13647595503E+03  0.12508780933E+03 0.  0.
         23    2    1    2    0    0 -0.21925613910E+02  0.42892087607E+02  0.26439964181E+02  0.10600299012E+03  0.90648212805E+02 0.  0.
          5    1    3    3  502    0  0.51576658582E+02 -0.47990990359E+01  0.32103184664E+02  0.61084121731E+02  0.41800000000E+01 0. -1.
         -5    1    3    3    0  502 -0.29651044672E+02 -0.38092988571E+02 -0.57759812153E+02  0.75391833300E+02  0.41800000000E+01 0. -1.
        -11    1    4    4    0    0  0.32547912359E+02  0.34521768361E+02  0.14492570966E+02  0.49610016155E+02  0.00000000000E+00 0. -1.
         11    1    4    4    0    0 -0.54473526269E+02  0.83703192460E+01  0.11947393215E+02  0.56392973969E+02  0.00000000000E+00 0.  1.
</event>
<event>
 8    1  0.3528896E-009  0.1305914E+03  0.7561462E-02  0.1226581E+00
         -1   -1    0    0    0  501 -0.00000000000E+00  0.00000000000E+00  0.57570013217E+02  0.57570013217E+02  0.00000000000E+00 0.  1.
          1   -1    0    0  501    0  0.00000000000E+00 -0.00000000000E+00 -0.30835803252E+03  0.30835803252E+03  0.00000000000E+00 0. -1.
         25    2    1    2    0    0 -0.73272603869E+02 -0.22168189889E+02 -0.13523649460E+03  0.19950164509E+03  0.12510672965E+03 0.  0.
         23    2    1    2    0    0  0.73272603869E+02  0.22168189889E+02 -0.11555152471E+03  0.16642640065E+03  0.92115627605E+02 0.  0.
          5    1    3    3  502    0 -0.10639316577E+03 -0.27893490264E+02 -0.11846360057E+03  0.16170544080E+03  0.41800000000E+01 0.  1.
         -5    1    3    3    0  502  0.33120561905E+02  0.57253003748E+01 -0.16772894027E+02  0.37796204298E+02  0.41800000000E+01 0.  1.
        -11    1    4    4    0    0  0.81864699448E+02 -0.11344694171E+02 -0.64882875427E+02  0.10507292051E+03  0.00000000000E+00 0.  1.
         11    1    4    4    0    0 -0.85920955795E+01  0.33512884060E+02 -0.50668649279E+02  0.61353480131E+02  0.00000000000E+00 0. -1.
</event>
<event>
 8    1  0.3528896E-009  0.1982947E+03  0.7561462E-02  0.1151186E+00
          1   -1    0    0  501    0  0.00000000000E+00  0.00000000000E+00  0.28369185566E+02  0.28369185566E+02  0.00000000000E+00 0. -1.
         -1   -1    0    0    0  501 -0.00000000000E+00 -0.00000000000E+00 -0.16265143985E+04  0.16265143985E+04  0.00000000000E+00 0.  1.
         25    2    1    2    0    0 -0.15998990378E+03 -0.53643735840E+02 -0.11291361637E+04  0.11485078822E+04  0.12508980579E+03 0.  0.
         23    2    1    2    0    0  0.15998990378E+03  0.53643735840E+02 -0.46900904920E+03  0.50637570187E+03  0.89288540727E+02 0.  0.
          5    1    3    3  502    0 -0.77527172701E+02 -0.90754265311E+02 -0.62521550441E+03  0.63652077620E+03  0.41800000000E+01 0.  1.
         -5    1    3    3    0  502 -0.82462731077E+02  0.37110529471E+02 -0.50392065928E+03  0.51198710596E+03  0.41800000000E+01 0.  1.
        -11    1    4    4    0    0  0.11500707641E+03 -0.20690638691E+01 -0.33855337309E+03  0.35756019784E+03  0.00000000000E+00 0.  1.
         11    1    4    4    0    0  0.44982827366E+02  0.55712799709E+02 -0.13045567611E+03  0.14881550403E+03  0.00000000000E+00 0. -1.
</event>
<event>
 8    1  0.3528896E-009  0.1620184E+03  0.7561462E-02  0.1186437E+00
          2   -1    0    0  501    0  0.00000000000E+00  0.00000000000E+00  0.33879536372E+04  0.33879536372E+04  0.00000000000E+00 0. -1.
         -2   -1    0    0    0  501 -0.00000000000E+00 -0.00000000000E+00 -0.15454316641E+02  0.15454316641E+02  0.00000000000E+00 0.  1.
         25    2    1    2    0    0 -0.93004225084E+02 -0.89257825505E+02  0.28902074058E+04  0.28957838990E+04  0.12509514691E+03 0.  0.
         23    2    1    2    0    0  0.93004225084E+02  0.89257825505E+02  0.48229191478E+03  0.50762405487E+03  0.91977957851E+02 0.  0.
          5    1    3    3  502    0 -0.64529953384E+02 -0.11200484699E+03  0.26076394769E+04  0.26108447511E+04  0.41800000000E+01 0. -1.
         -5    1    3    3    0  502 -0.28474271700E+02  0.22747021489E+02  0.28256792893E+03  0.28493914788E+03  0.41800000000E+01 0. -1.
        -11    1    4    4    0    0  0.27896117731E+02  0.88623610405E+02  0.26715351212E+03  0.28284861100E+03  0.00000000000E+00 0. -1.
         11    1    4    4    0    0  0.65108107353E+02  0.63421510064E+00  0.21513840266E+03  0.22477544387E+03  0.00000000000E+00 0.  1.
</event>
<event>
 8    1  0.3528896E-009  0.1233377E+03  0.7561462E-02  0.1237690E+00
          1   -1    0    0  501    0  0.00000000000E+00  0.00000000000E+00  0.18357522840E+03  0.18357522840E+03  0.00000000000E+00 0. -1.
         -1   -1    0    0    0  501 -0.00000000000E+00 -0.00000000000E+00 -0.19564951631E+03  0.19564951631E+03  0.00000000000E+00 0.  1.
         25    2    1    2    0    0  0.12260647414E+02  0.67661001620E+02 -0.14500098382E+03  0.20347306786E+03  0.12509064481E+03 0.  0.
         23    2    1    2    0    0 -0.12260647414E+02 -0.67661001620E+02  0.13292669590E+03  0.17575167685E+03  0.92145595760E+02 0.  0.
          5    1    3    3  502    0  0.66819312394E+01 -0.35602563600E+02 -0.56761881257E+02  0.67465356323E+02  0.41800000000E+01 0.  1.
         -5    1    3    3    0  502  0.55787161741E+01  0.10326356522E+03 -0.88239102562E+02  0.13600771153E+03  0.41800000000E+01 0.  1.
        -11    1    4    4    0    0  0.30255491145E+02 -0.54275414242E+02  0.43560844145E+02  0.75886510515E+02  0.00000000000E+00 0.  1.
         11    1    4    4    0    0 -0.42516138558E+02 -0.13385587378E+02  0.89365851759E+02  0.99865166339E+02  0.00000000000E+00 0. -1.
</event>
<event>
 8    1  0.3528896E-009  0.1226376E+03  0.7561462E-02  0.1238808E+00
          2   -1    0    0  501    0  0.00000000000E+00  0.00000000000E+00  0.13870372124E+04  0.13870372124E+04  0.00000000000E+00 0.  1.
         -2   -1    0    0    0  501 -0.00000000000E+00 -0.00000000000E+00 -0.18026210597E+02  0.18026210597E+02  0.00000000000E+00 0. -1.
         25    2    1    2    0    0  0.60007684385E+02 -0.31233089354E+02  0.11485054612E+04  0.11572766521E+04  0.12509207440E+03 0.  0.
         23    2    1    2    0    0 -0.60007684385E+02  0.31233089354E+02  0.22050554061E+03  0.24778677089E+03  0.90549226004E+02 0.  0.
          5    1    3    3  502    0 -0.36116174546E+02 -0.17108248654E+02  0.21524649353E+03  0.21896482734E+03  0.41800000000E+01 0. -1.
         -5    1    3    3    0  502  0.96123858932E+02 -0.14124840700E+02  0.93325896763E+03  0.93831182474E+03  0.41800000000E+01 0. -1.
        -11    1    4    4    0    0 -0.61248603821E+02 -0.13811205522E+02  0.16337218911E+03  0.17502175020E+03  0.00000000000E+00 0.  1.
         11    1    4    4    0    0  0.12409194357E+01  0.45044294876E+02  0.57133351503E+02  0.72765020689E+02  0.00000000000E+00 0. -1.
</event>
<event>
 8    1  0.3528896E-009  0.1084987E+03  0.7561462E-02  0.1263376E+00
          1   -1    0    0  501    0  0.00000000000E+00  0.00000000000E+00  0.98922169974E+03  0.98922169974E+03  0.00000000000E+00 0. -1.
         -1   -1    0    0    0  501 -0.00000000000E+00 -0.00000000000E+00 -0.20954741381E+02  0.20954741381E+02  0.00000000000E+00 0.  1.
         25    2    1    2    0    0 -0.85872310159E+02  0.37373904287E+02  0.51505817896E+03  0.53824344807E+03  0.12510083653E+03 0.  0.
         23    2    1    2    0    0  0.85872310159E+02 -0.37373904287E+02  0.45320877940E+03  0.47193299305E+03  0.92475347178E+02 0.  0.
          5    1    3    3  502    0 -0.73805680726E+01  0.13180544978E+01  0.36461858851E+03  0.36471961496E+03  0.41800000000E+01 0.  1.
         -5    1    3    3    0  502 -0.78491742086E+02  0.36055849789E+02  0.15043959045E+03  0.17352383310E+03  0.41800000000E+01 0.  1.
        -11    1    4    4    0    0  0.33588588464E+02  0.24021544212E+02  0.24859992083E+03  0.25200624694E+03  0.00000000000E+00 0. -1.
         11    1    4    4    0    0  0.52283721695E+02 -0.61395448499E+02  0.20460885857E+03  0.21992674611E+03  0.00000000000E+00 0.  1.
</event>
<event>
 8    1  0.3528896E-009  0.6244042E+02  0.7561462E-02  0.1387867E+00
          1   -1    0    0  501    0  0.00000000000E+00  0.00000000000E+00  0.54489830226E+02  0.54489830226E+02  0.00000000000E+00 0. -1.
         -1   -1    0    0    0  501 -0.00000000000E+00 -0.00000000000E+00 -0.22730870620E+03  0.22730870620E+03  0.00000000000E+00 0.  1.
         25    2    1    2    0    0 -0.12777085400E+02 -0.22644118006E+02 -0.10550541791E+03  0.16569497721E+03  0.12508965694E+03 0.  0.
         23    2    1    2    0    0  0.12777085400E+02  0.22644118006E+02 -0.67313458058E+02  0.11610355921E+03  0.90955620133E+02 0.  0.
          5    1    3    3  502    0 -0.43432194909E+01 -0.21720585732E+02  0.25679513416E+02  0.34169536277E+02  0.41800000000E+01 0.  1.
         -5    1    3    3    0  502 -0.84338659093E+01 -0.92353227452E+00 -0.13118493133E+03  0.13152544094E+03  0.41800000000E+01 0.  1.
        -11    1    4    4    0    0  0.26372537115E+02  0.53232736693E+02 -0.53306026581E+02  0.79817087391E+02  0.00000000000E+00 0.  1.
         11    1    4    4    0    0 -0.13595451714E+02 -0.30588618686E+02 -0.14007431477E+02  0.36286471819E+02  0.00000000000E+00 0. -1.
</event>
<event>
 8    1  0.3528896E-009  0.8407774E+02  0.7561462E-02  0.1317862E+00
         -1   -1    0    0    0  501 -0.00000000000E+00  0.00000000000E+00  0.22114873776E+02  0.22114873776E+02  0.00000000000E+00 0.  1.
          1   -1    0    0  501    0  0.00000000000E+00 -0.00000000000E+00 -0.63995408910E+03  0.63995408910E+03  0.00000000000E+00 0. -1.
         25    2    1    2    0    0 -0.70973745006E+01 -0.47986128562E+02 -0.36693701317E+03  0.39069552699E+03  0.12508869619E+03 0.  0.
         23    2    1    2    0    0  0.70973745006E+01  0.47986128562E+02 -0.25090220215E+03  0.27137343589E+03  0.91315855145E+02 0.  0.
          5    1    3    3  502    0 -0.26975507844E+02 -0.65609254115E+02 -0.35361499597E+03  0.36068447433E+03  0.41800000000E+01 0. -1.
         -5    1    3    3    0  502  0.19878133343E+02  0.17623125553E+02 -0.13322017205E+02  0.30011052661E+02  0.41800000000E+01 0. -1.
        -11    1    4    4    0    0  0.20447748107E+02  0.56610712348E-01 -0.57747924979E+01  0.21247631299E+02  0.00000000000E+00 0.  1.
         11    1    4    4    0    0 -0.13350373606E+02  0.47929517850E+02 -0.24512740966E+03  0.25012580459E+03  0.00000000000E+00 0. -1.
</event>
<event>
 7    1  0.3528896E-009  0.1315710E+03  0.7561462E-02  0.1225143E+00
          2   -1    0    0  501    0  0.00000000000E+00  0.00000000000E+00  0.80065858515E+02  0.80065858515E+02  0.00000000000E+00 0. -1.
         -2   -1    0    0    0  501 -0.00000000000E+00 -0.00000000000E+00 -0.33640222162E+03  0.33640222162E+03  0.00000000000E+00 0.  1.
         23    2    1    2    0    0  0.56386508739E+02  0.69069125174E+02 -0.55177515523E+01  0.12237434560E+03  0.83636430217E+02 0.  0.
          5    1    1    2  502    0 -0.82549964373E+02 -0.19102026165E+02 -0.20306280444E+03  0.22007125885E+03  0.41800000000E+01 0.  1.
         -5    1    1    2    0  502  0.26163455634E+02 -0.49967099010E+02 -0.47755807112E+02  0.74022475689E+02  0.41800000000E+01 0.  1.
        -11    1    3    3    0    0  0.73248997783E+02  0.74060149335E+02 -0.86053788760E+01  0.10451972991E+03  0.00000000000E+00 0. -1.
         11    1    3    3    0    0 -0.16862489044E+02 -0.49910241604E+01  0.30876273237E+01  0.17854615689E+02  0.00000000000E+00 0.  1.
</event>
<event>
 8    1  0.3528896E-009  0.1082982E+03  0.7561462E-02  0.1263754E+00
         -3   -1    0    0    0  501 -0.00000000000E+00  0.00000000000E+00  0.91476784193E+02  0.91476784193E+02  0.00000000000E+00 0.  1.
          3   -1    0    0  501    0  0.00000000000E+00 -0.00000000000E+00 -0.21824475632E+03  0.21824475632E+03  0.00000000000E+00 0. -1.
         25    2    1    2    0    0  0.17875860136E+02 -0.24863591412E+02  0.23644581168E+02  0.13093895697E+03  0.12509276430E+03 0.  0.
         23    2    1    2    0    0 -0.17875860136E+02  0.24863591412E+02 -0.15041255329E+03  0.17878258354E+03  0.91659868185E+02 0.  0.
          5    1    3    3  502    0  0.71254145719E+02 -0.12698921270E+02  0.22897969056E+02  0.76027661219E+02  0.41800000000E+01 0.  1.
         -5    1    3    3    0  502 -0.53378285583E+02 -0.12164670142E+02  0.74661211232E+00  0.54911295751E+02  0.41800000000E+01 0.  1.
        -11    1    4    4    0    0 -0.21298148267E+02 -0.28578061252E+02 -0.28527801162E+02  0.45652515195E+02  0.00000000000E+00 0. -1.
         11    1    4    4    0    0  0.34222881307E+01  0.53441652664E+02 -0.12188475213E+03  0.13313006834E+03  0.00000000000E+00 0.  1.
</event>
<event>
 8    1  0.3528896E-009  0.9737327E+02  0.7561462E-02  0.1285919E+00
          1   -1    0    0  501    0  0.00000000000E+00  0.00000000000E+00  0.10682651825E+04  0.10682651825E+04  0.00000000000E+00 0. -1.
         -1   -1    0    0    0  501 -0.00000000000E+00 -0.00000000000E+00 -0.17496601288E+02  0.17496601288E+02  0.00000000000E+00 0.  1.
         25    2    1    2    0    0 -0.48261957122E+01  0.88769404168E+02  0.79156141731E+03  0.80630046707E+03  0.12509063329E+03 0.  0.
         23    2    1    2    0    0  0.48261957122E+01 -0.88769404168E+02  0.25920716390E+03  0.27946131672E+03  0.54835886465E+02 0.  0.
          5    1    3    3  502    0  0.18905738054E+02  0.19614943202E+02  0.60864767482E+03  0.60927139880E+03  0.41800000000E+01 0.  1.
         -5    1    3    3    0  502 -0.23731933766E+02  0.69154460965E+02  0.18291374249E+03  0.19702906827E+03  0.41800000000E+01 0.  1.
        -11    1    4    4    0    0  0.16735019483E+02 -0.33903978841E+02  0.49031657503E+02  0.61916428320E+02  0.00000000000E+00 0.  1.
         11    1    4    4    0    0 -0.11908823771E+02 -0.54865425327E+02  0.21017550640E+03  0.21754488840E+03  0.00000000000E+00 0. -1.
</event>
<event>
 8    1  0.3528896E-009  0.1983360E+03  0.7561462E-02  0.1151151E+00
         -1   -1    0    0    0  501 -0.00000000000E+00  0.00000000000E+00  0.56136266584E+02  0.56136266584E+02  0.00000000000E+00 0.  1.
          1   -1    0    0  501    0  0.00000000000E+00 -0.00000000000E+00 -0.77981896966E+03  0.77981896966E+03  0.00000000000E+00 0. -1.
         25    2    1    2    0    0  0.17529350048E+03 -0.68851014883E+01 -0.30872354550E+03  0.37647229756E+03  0.12508376136E+03 0.  0.
         23    2    1    2    0    0 -0.17529350048E+03  0.68851014883E+01 -0.41495915758E+03  0.45948293868E+03  0.90323045516E+02 0.  0.
          5    1    3    3  502    0  0.85033540240E+02  0.59028925844E+02 -0.14631860729E+03  0.17928113200E+03  0.41800000000E+01 0.  1.
         -5    1    3    3    0  502  0.90259960235E+02 -0.65914027333E+02 -0.16240493821E+03  0.19719116556E+03  0.41800000000E+01 0.  1.
        -11    1    4    4    0    0 -0.12698966827E+03 -0.15609575323E+02 -0.19548535382E+03  0.23363338428E+03  0.00000000000E+00 0.  1.
         11    1    4    4    0    0 -0.48303832203E+02  0.22494676811E+02 -0.21947380376E+03  0.22584955441E+03  0.00000000000E+00 0. -1.
</event>
<event>
 8    1  0.3528896E-009  0.1389937E+03  0.7561462E-02  0.1214689E+00
          1   -1    0    0  501    0  0.00000000000E+00  0.00000000000E+00  0.12876584907E+04  0.12876584907E+04  0.00000000000E+00 0. -1.
         -1   -1    0    0    0  501 -0.00000000000E+00 -0.00000000000E+00 -0.24025974360E+02  0.24025974360E+02  0.00000000000E+00 0.  1.
         25    2    1    2    0    0 -0.98612858243E+02  0.87856479388E+02  0.83688295922E+03  0.85642575749E+03  0.12509489949E+03 0.  0.
         23    2    1    2    0    0  0.98612858243E+02 -0.87856479388E+02  0.42674955715E+03  0.45525870760E+03  0.87761321415E+02 0.  0.
          5    1    3    3  502    0 -0.77747339365E+01  0.44146043150E+02  0.71994875237E+02  0.84912037274E+02  0.41800000000E+01 0. -1.
         -5    1    3    3    0  502 -0.90838124307E+02  0.43710436238E+02  0.76488808399E+03  0.77151372022E+03  0.41800000000E+01 0. -1.
        -11    1    4    4    0    0  0.40201505262E+02 -0.36041396383E+02  0.61859924300E+02  0.82108425347E+02  0.00000000000E+00 0.  1.
         11    1    4    4    0    0  0.58411352981E+02 -0.51815083005E+02  0.36488963285E+03  0.37315028225E+03  0.00000000000E+00 0. -1.
</event>
<event>
 8    1  0.3528896E-009  0.9749377E+02  0.7561462E-02  0.1285656E+00
         -2   -1    0    0    0  501 -0.00000000000E+00  0.00000000000E+00  0.36260610600E+02  0.36260610600E+02  0.00000000000E+00 0.  1.
          2   -1    0    0  501    0  0.00000000000E+00 -0.00000000000E+00 -0.37779529502E+03  0.37779529502E+03  0.00000000000E+00 0. -1.
         25    2    1    2    0    0  0.48294138908E+02 -0.15198746293E+02 -0.19964463369E+03  0.24097419028E+03  0.12508898784E+03 0.  0.
         23    2    1    2    0    0 -0.48294138908E+02  0.15198746293E+02 -0.14189005073E+03  0.17308171534E+03  0.85212487037E+02 0.  0.
          5    1    3    3  502    0  0.43142196844E+02 -0.57865314461E+02 -0.17912860352E+03  0.19316876757E+03  0.41800000000E+01 0.  1.
         -5    1    3    3    0  502  0.51519420635E+01  0.42666568168E+02 -0.20516030166E+02  0.47805422705E+02  0.41800000000E+01 0.  1.
        -11    1    4    4    0    0  0.11129997639E+02 -0.10000752124E+02  0.22671594150E+01  0.15133799995E+02  0.00000000000E+00 0.  1.
         11    1    4    4    0    0 -0.59424136546E+02  0.25199498417E+02 -0.14415721015E+03  0.15794791534E+03  0.00000000000E+00 0. -1.
</event>
<event>
 8    1  0.3528896E-009  0.1471440E+03  0.7561462E-02  0.1204027E+00
         -2   -1    0    0    0  501 -0.00000000000E+00  0.00000000000E+00  0.11345819141E+03  0.11345819141E+03  0.00000000000E+00 0.  1.
          2   -1    0    0  501    0  0.00000000000E+00 -0.00000000000E+00 -0.22529900659E+03  0.22529900659E+03  0.00000000000E+00 0. -1.
         25    2    1    2    0    0  0.50034177061E+02 -0.10099592278E+03 -0.26826785998E+02  0.17049979408E+03  0.12508760147E+03 0.  0.
         23    2    1    2    0    0 -0.50034177061E+02  0.10099592278E+03 -0.85014029185E+02  0.16825740392E+03  0.91540010503E+02 0.  0.
          5    1    3    3  502    0  0.32162030400E+02  0.12025055214E+02  0.27093194220E+02  0.43937588981E+02  0.41800000000E+01 0.  1.
         -5    1    3    3    0  502  0.17872146661E+02 -0.11302097800E+03 -0.53919980218E+02  0.12656220510E+03  0.41800000000E+01 0.  1.
        -11    1    4    4    0    0 -0.77105167996E+02  0.77980885847E+02 -0.64757882067E+02  0.12735701307E+03  0.00000000000E+00 0. -1.
         11    1    4    4    0    0  0.27070990935E+02  0.23015036936E+02 -0.20256147118E+02  0.40900390847E+02  0.00000000000E+00 0.  1.
</event>
<event>
 8    1  0.3528896E-009  0.1295021E+03  0.7561462E-02  0.1228196E+00
         -2   -1    0    0    0  501 -0.00000000000E+00  0.00000000000E+00  0.29678894768E+03  0.29678894768E+03  0.00000000000E+00 0.  1.
          2   -1    0    0  501    0  0.00000000000E+00 -0.00000000000E+00 -0.10323242475E+03  0.10323242475E+03  0.00000000000E+00 0. -1.
         25    2    1    2    0    0 -0.86462502774E+02 -0.27326039629E+02  0.19349604124E+03  0.24760969758E+03  0.12508943814E+03 0.  0.
         23    2    1    2    0    0  0.86462502774E+02  0.27326039629E+02  0.60481702572E-01  0.15241167485E+03  0.12250240057E+03 0.  0.
          5    1    3    3  502    0 -0.11695421674E+03 -0.20864071579E+02  0.12644097828E+03  0.17354651159E+03  0.41800000000E+01 0.  1.
         -5    1    3    3    0  502  0.30491713964E+02 -0.64619680502E+01  0.67055062952E+02  0.74063185991E+02  0.41800000000E+01 0.  1.
        -11    1    4    4    0    0  0.89494349536E+02  0.88183936957E+01  0.47283512371E+02  0.10160085240E+03  0.00000000000E+00 0.  1.
         11    1    4    4    0    0 -0.30318467619E+01  0.18507645934E+02 -0.47223030668E+02  0.50810822452E+02  0.00000000000E+00 0. -1.
</event>
<event>
 8    1  0.3528896E-009  0.1244451E+03  0.7561462E-02  0.1235939E+00
          1   -1    0    0  501    0  0.00000000000E+00  0.00000000000E+00  0.57450173565E+02  0.57450173565E+02  0.00000000000E+00 0. -1.
         -1   -1    0    0    0  501 -0.00000000000E+00 -0.00000000000E+00 -0.37520135943E+03  0.37520135943E+03  0.00000000000E+00 0.  1.
         25    2    1    2    0    0  0.71479653607E+02 -0.63422303096E+02 -0.13945697440E+03  0.21030164519E+03  0.12508718899E+03 0.  0.
         23    2    1    2    0    0 -0.71479653607E+02  0.63422303096E+02 -0.17829421146E+03  0.22234988780E+03  0.92297981328E+02 0.  0.
          5    1    3    3  502    0  0.10081017524E+00  0.32389771685E+02 -0.10154386648E+02  0.34200752049E+02  0.41800000000E+01 0.  1.
         -5    1    3    3    0  502  0.71378843432E+02 -0.95812074781E+02 -0.12930258775E+03  0.17610089314E+03  0.41800000000E+01 0.  1.
        -11    1    4    4    0    0 -0.37599892388E+02  0.23582928408E+02 -0.91654794626E+01  0.45320110698E+02  0.00000000000E+00 0. -1.
         11    1    4    4    0    0 -0.33879761219E+02  0.39839374688E+02 -0.16912873200E+03  0.17702977711E+03  0.00000000000E+00 0.  1.
</event>
<event>
 8    1  0.3528896E-009  0.1520757E+03  0.7561462E-02  0.1197945E+00
          2   -1    0    0  501    0  0.00000000000E+00  0.00000000000E+00  0.34310679281E+03  0.34310679281E+03  0.00000000000E+00 0.  1.
         -2   -1    0    0    0  501 -0.00000000000E+00 -0.00000000000E+00 -0.84382903174E+02  0.84382903174E+02  0.00000000000E+00 0. -1.
         25    2    1    2    0    0 -0.11190953254E+03  0.54702734358E+02  0.86881725956E+02  0.19675496484E+03  0.12509176337E+03 0.  0.
         23    2    1    2    0    0  0.11190953254E+03 -0.54702734358E+02  0.17184216368E+03  0.23073473114E+03  0.90513282547E+02 0.  0.
          5    1    3    3  502    0 -0.12036313587E+03  0.80659393088E+02  0.87158351626E+02  0.16913684645E+03  0.41800000000E+01 0. -1.
         -5    1    3    3    0  502  0.84536033213E+01 -0.25956658731E+02 -0.27662567076E+00  0.27618118389E+02  0.41800000000E+01 0. -1.
        -11    1    4    4    0    0  0.72274865305E+02 -0.11898238255E+02  0.15266422515E+03  0.16932687285E+03  0.00000000000E+00 0.  1.
         11    1    4    4    0    0  0.39634667239E+02 -0.42804496102E+02  0.19177938525E+02  0.61407858290E+02  0.00000000000E+00 0. -1.
</event>
<event>
 7    1  0.3528896E-009  0.1099094E+03  0.7561462E-02  0.1260738E+00
         -1   -1    0    0    0  501 -0.00000000000E+00  0.00000000000E+00  0.44870720374E+02  0.44870720374E+02  0.00000000000E+00 0.  1.
          1   -1    0    0  501    0  0.00000000000E+00 -0.00000000000E+00 -0.84585956737E+03  0.84585956737E+03  0.00000000000E+00 0. -1.
         25    2    1    2    0    0 -0.37993959484E+01  0.32694323335E+02 -0.66199949593E+03  0.67451768282E+03  0.12508963839E+03 0.  0.
          5    1    3    3  502    0  0.23123622664E+02  0.30788650438E+02 -0.57068811011E+02  0.68970751128E+02  0.41800000000E+01 0. -1.
         -5    1    3    3    0  502 -0.26923018613E+02  0.19056728979E+01 -0.60493068492E+03  0.60554693169E+03  0.41800000000E+01 0. -1.
        -11    1    1    2    0    0  0.27386291463E+02 -0.88792640953E+02 -0.42599248342E+02  0.10221955785E+03  0.00000000000E+00 0.  1.
         11    1    1    2    0    0 -0.23586895514E+02  0.56098317617E+02 -0.96390102718E+02  0.11399304708E+03  0.00000000000E+00 0. -1.
</event>
<event>
 8    1  0.3528896E-009  0.5144076E+03  0.7561462E-02  0.1010085E+00
          4   -1    0    0  501    0  0.00000000000E+00  0.00000000000E+00  0.29735371406E+03  0.29735371406E+03  0.00000000000E+00 0. -1.
         -4   -1    0    0    0  501 -0.00000000000E+00 -0.00000000000E+00 -0.10687298474E+04  0.10687298474E+04  0.00000000000E+00 0.  1.
         25    2    1    2    0    0 -0.27448106823E+03  0.42746332749E+03 -0.12294485010E+03  0.53742789029E+03  0.12509415626E+03 0.  0.
         23    2    1    2    0    0  0.27448106823E+03 -0.42746332749E+03 -0.64843128329E+03  0.82865567121E+03  0.90234910728E+02 0.  0.
          5    1    3    3  502    0 -0.18080656002E+03  0.18110483021E+03 -0.28974075691E+02  0.25757899979E+03  0.41800000000E+01 0. -1.
         -5    1    3    3    0  502 -0.93674508209E+02  0.24635849728E+03 -0.93970774412E+02  0.27984889050E+03  0.41800000000E+01 0. -1.
        -11    1    4    4    0    0  0.21715421315E+03 -0.36308636997E+03 -0.48281458388E+03  0.64194827421E+03  0.00000000000E+00 0. -1.
         11    1    4    4    0    0  0.57326855074E+02 -0.64376957521E+02 -0.16561669941E+03  0.18670739701E+03  0.00000000000E+00 0.  1.
</event>
<event>
 8    1  0.3528896E-009  0.1106368E+03  0.7561462E-02  0.1259395E+00
          2   -1    0    0  501    0  0.00000000000E+00  0.00000000000E+00  0.13340784110E+04  0.13340784110E+04  0.00000000000E+00 0. -1.
         -2   -1    0    0    0  501 -0.00000000000E+00 -0.00000000000E+00 -0.12933357444E+02  0.12933357444E+02  0.00000000000E+00 0.  1.
         25    2    1    2    0    0  0.19381254105E+02 -0.32987043073E+02  0.10528792553E+04  0.10609738953E+04  0.12508837779E+03 0.  0.
         23    2    1    2    0    0 -0.19381254105E+02  0.32987043073E+02  0.26826579829E+03  0.28603787318E+03  0.91582467400E+02 0.  0.
          5    1    3    3  502    0  0.62767133525E+02  0.14187936915E+02  0.62199787132E+03  0.62533177988E+03  0.41800000000E+01 0. -1.
         -5    1    3    3    0  502 -0.43385879420E+02 -0.47174979989E+02  0.43088138394E+03  0.43564211538E+03  0.41800000000E+01 0. -1.
        -11    1    4    4    0    0  0.67711465352E+01 -0.26619642907E+02  0.13449570816E+03  0.13727180821E+03  0.00000000000E+00 0. -1.
         11    1    4    4    0    0 -0.26152400641E+02  0.59606685980E+02  0.13377009013E+03  0.14876606497E+03  0.00000000000E+00 0.  1.
</event>
<event>
 8    1  0.3528896E-009  0.1172414E+03  0.7561462E-02  0.1247718E+00
          2   -1    0    0  501    0  0.00000000000E+00  0.00000000000E+00  0.19874926300E+03  0.19874926300E+03  0.00000000000E+00 0. -1.
         -2   -1    0    0    0  501 -0.00000000000E+00 -0.00000000000E+00 -0.96733495940E+02  0.96733495940E+02  0.00000000000E+00 0.  1.
         25    2    1    2    0    0  0.70261993876E+02 -0.32793652705E+02  0.21585053899E+02  0.14874623570E+03  0.12508939460E+03 0.  0.
         23    2    1    2    0    0 -0.70261993876E+02  0.32793652705E+02  0.80430713163E+02  0.14673652325E+03  0.95133254928E+02 0.  0.
          5    1    3    3  502    0  0.10556207395E+03 -0.34982392683E+02  0.12457533401E+02  0.11198116714E+03  0.41800000000E+01 0.  1.
         -5    1    3    3    0  502 -0.35300080074E+02  0.21887399787E+01  0.91275204982E+01  0.36765068562E+02  0.41800000000E+01 0.  1.
        -11    1    4    4    0    0 -0.40510956455E+01  0.19671178725E+02  0.76534040966E+02  0.79125381989E+02  0.00000000000E+00 0. -1.
         11    1    4    4    0    0 -0.66210898231E+02  0.13122473979E+02  0.38966721977E+01  0.67611141257E+02  0.00000000000E+00 0.  1.
</event>
<event>
 8    1  0.3528896E-009  0.1107081E+03  0.7561462E-02  0.1259264E+00
          1   -1    0    0  501    0  0.00000000000E+00  0.00000000000E+00  0.25315214372E+03  0.25315214372E+03  0.00000000000E+00 0. -1.
         -1   -1    0    0    0  501 -0.00000000000E+00 -0.00000000000E+00 -0.74685162301E+02  0.74685162301E+02  0.00000000000E+00 0.  1.
         25    2    1    2    0    0  0.34909947450E+02 -0.63052796482E+02  0.15212529497E+03  0.20972633496E+03  0.12509464670E+03 0.  0.
         23    2    1    2    0    0 -0.34909947450E+02  0.63052796482E+02  0.26341686445E+02  0.11811097105E+03  0.89788403833E+02 0.  0.
          5    1    3    3  502    0  0.42681623736E+02 -0.98717570821E+02  0.11358330092E+03  0.15647849194E+03  0.41800000000E+01 0.  1.
         -5    1    3    3    0  502 -0.77716762862E+01  0.35664774339E+02  0.38541994052E+02  0.53247843022E+02  0.41800000000E+01 0.  1.
        -11    1    4    4    0    0 -0.34759019855E+02  0.36178156930E+02 -0.28023170999E+02  0.57466047480E+02  0.00000000000E+00 0.  1.
         11    1    4    4    0    0 -0.15092759486E+00  0.26874639552E+02  0.54364857444E+02  0.60644923572E+02  0.00000000000E+00 0. -1.
</event>
<event>
 8    1  0.3528896E-009  0.9914181E+02  0.7561462E-02  0.1282111E+00
          2   -1    0    0  501    0  0.00000000000E+00  0.00000000000E+00  0.12018024088E+03  0.12018024088E+03  0.00000000000E+00 0. -1.
         -2   -1    0    0    0  501 -0.00000000000E+00 -0.00000000000E+00 -0.13895582061E+03  0.13895582061E+03  0.00000000000E+00 0.  1.
         25    2    1    2    0    0  0.68362335285E+02 -0.15150353254E+01  0.50990901749E+01  0.14264996180E+03  0.12508919483E+03 0.  0.
         23    2    1    2    0    0 -0.68362335285E+02  0.15150353254E+01 -0.23874669905E+02  0.11648609970E+03  0.91232161773E+02 0.  0.
          5    1    3    3  502    0  0.88037688165E+02  0.20702642828E+02  0.37962655915E+02  0.98172652005E+02  0.41800000000E+01 0. -1.
         -5    1    3    3    0  502 -0.19675352880E+02 -0.22217678154E+02 -0.32863565740E+02  0.44477309795E+02  0.41800000000E+01 0. -1.
        -11    1    4    4    0    0 -0.25564226554E+02  0.18684023906E+02  0.31337655579E+02  0.44549647426E+02  0.00000000000E+00 0. -1.
         11    1    4    4    0    0 -0.42798108731E+02 -0.17168988580E+02 -0.55212325485E+02  0.71936452270E+02  0.00000000000E+00 0.  1.
</event>
<event>
 8    1  0.3528896E-009  0.1404288E+03  0.7561462E-02  0.1212753E+00
         -2   -1    0    0    0  501 -0.00000000000E+00  0.00000000000E+00  0.17941837023E+02  0.17941837023E+02  0.00000000000E+00 0.  1.
          2   -1    0    0  501    0  0.00000000000E+00 -0.00000000000E+00 -0.11450977926E+04  0.11450977926E+04  0.00000000000E+00 0. -1.
         25    2    1    2    0    0  0.43457242465E+02 -0.81896128747E+02 -0.58461949233E+03  0.60499821185E+03  0.12508947877E+03 0.  0.
         23    2    1    2    0    0 -0.43457242465E+02  0.81896128747E+02 -0.54253646329E+03  0.55804141782E+03  0.92026638416E+02 0.  0.
          5    1    3    3  502    0  0.83786074970E+02 -0.30873422456E+02 -0.37353682788E+03  0.38408398659E+03  0.41800000000E+01 0. -1.
         -5    1    3    3    0  502 -0.40328832505E+02 -0.51022706291E+02 -0.21108266445E+03  0.22091422526E+03  0.41800000000E+01 0. -1.
        -11    1    4    4    0    0  0.10759434614E+02  0.69957971935E+02 -0.37270955614E+03  0.37937092206E+03  0.00000000000E+00 0.  1.
         11    1    4    4    0    0 -0.54216677079E+02  0.11938156812E+02 -0.16982690715E+03  0.17867049576E+03  0.00000000000E+00 0. -1.
</event>
<event>
 8    1  0.3528896E-009  0.1187879E+03  0.7561462E-02  0.1245110E+00
         -1   -1    0    0    0  501 -0.00000000000E+00  0.00000000000E+00  0.70419666882E+02  0.70419666882E+02  0.00000000000E+00 0.  1.
          1   -1    0    0  501    0  0.00000000000E+00 -0.00000000000E+00 -0.27601761566E+03  0.27601761566E+03  0.00000000000E+00 0. -1.
         25    2    1    2    0    0 -0.16975421209E+02  0.86598853672E+02 -0.12070443133E+03  0.19494748969E+03  0.12508971824E+03 0.  0.
         23    2    1    2    0    0  0.16975421209E+02 -0.86598853672E+02 -0.84893517451E+02  0.15148979286E+03  0.89189246279E+02 0.  0.
          5    1    3    3  502    0 -0.18484183180E+01  0.10585758299E+03 -0.13062618695E+03  0.16819606905E+03  0.41800000000E+01 0. -1.
         -5    1    3    3    0  502 -0.15127002891E+02 -0.19258729319E+02  0.99217556217E+01  0.26751420636E+02  0.41800000000E+01 0. -1.
        -11    1    4    4    0    0  0.39438271259E+02 -0.48076899597E+02 -0.81281396481E+01  0.62712296792E+02  0.00000000000E+00 0.  1.
         11    1    4    4    0    0 -0.22462850051E+02 -0.38521954076E+02 -0.76765377803E+02  0.88777496064E+02  0.00000000000E+00 0. -1.
</event>
<event>
 8    1  0.3528896E-009  0.1293209E+03  0.7561462E-02  0.1228467E+00
          2   -1    0    0  501    0  0.00000000000E+00  0.00000000000E+00  0.10921708122E+03  0.10921708122E+03  0.00000000000E+00 0. -1.
         -2   -1    0    0    0  501 -0.00000000000E+00 -0.00000000000E+00 -0.16783463186E+03  0.16783463186E+03  0.00000000000E+00 0.  1.
         25    2    1    2    0    0 -0.78832430447E+02 -0.14433179943E+02 -0.41355516656E+02  0.15421370298E+03  0.12509483864E+03 0.  0.
         23    2    1    2    0    0  0.78832430447E+02  0.14433179943E+02 -0.17262033989E+02  0.12283801010E+03  0.91478577465E+02 0.  0.
          5    1    3    3  502    0  0.31601253054E+02 -0.20453016398E+02 -0.11485838822E+02  0.39577291062E+02  0.41800000000E+01 0. -1.
         -5    1    3    3    0  502 -0.11043368350E+03  0.60198364548E+01 -0.29869677833E+02  0.11463641191E+03  0.41800000000E+01 0. -1.
        -11    1    4    4    0    0  0.85146151605E+02 -0.91884208333E+01 -0.35118155049E+02  0.92561217713E+02  0.00000000000E+00 0.  1.
         11    1    4    4    0    0 -0.63137211575E+01  0.23621600777E+02  0.17856121059E+02  0.30276792390E+02  0.00000000000E+00 0. -1.
</event>
<event>
 8    1  0.3528896E-009  0.1336750E+03  0.7561462E-02  0.1222102E+00
          1   -1    0    0  501    0  0.00000000000E+00  0.00000000000E+00  0.32441598673E+03  0.32441598673E+03  0.00000000000E+00 0. -1.
         -1   -1    0    0    0  501 -0.00000000000E+00 -0.00000000000E+00 -0.55354223636E+02  0.55354223636E+02  0.00000000000E+00 0.  1.
         25    2    1    2    0    0 -0.76603583754E+02  0.17145484470E+02  0.13779175160E+03  0.20198074324E+03  0.12509027599E+03 0.  0.
         23    2    1    2    0    0  0.76603583754E+02 -0.17145484470E+02  0.13127001149E+03  0.17778946713E+03  0.90637751641E+02 0.  0.
          5    1    3    3  502    0 -0.27053558280E+02  0.69922714242E+02  0.73374159058E+02  0.10498724018E+03  0.41800000000E+01 0.  1.
         -5    1    3    3    0  502 -0.49550025474E+02 -0.52777229772E+02  0.64417592543E+02  0.96993503061E+02  0.41800000000E+01 0.  1.
        -11    1    4    4    0    0  0.27130426526E+02  0.37337443371E+02  0.46187411501E+02  0.65294882664E+02  0.00000000000E+00 0.  1.
         11    1    4    4    0    0  0.49473157228E+02 -0.54482927841E+02  0.85082599990E+02  0.11249458446E+03  0.00000000000E+00 0. -1.
</event>
<event>
 8    1  0.3528896E-009  0.1015079E+03  0.7561462E-02  0.1277157E+00
          2   -1    0    0  501    0  0.00000000000E+00  0.00000000000E+00  0.23107639597E+03  0.23107639597E+03  0.00000000000E+00 0. -1.
         -2   -1    0    0    0  501 -0.00000000000E+00 -0.00000000000E+00 -0.58602299160E+02  0.58602299160E+02  0.00000000000E+00 0.  1.
         25    2    1    2    0    0  0.25614497545E+02 -0.38768840398E+02  0.10362859729E+03  0.16895384984E+03  0.12508953484E+03 0.  0.
         23    2    1    2    0    0 -0.25614497545E+02  0.38768840398E+02  0.68845499515E+02  0.12072484529E+03  0.87610844059E+02 0.  0.
          5    1    3    3  502    0  0.43403272099E+02 -0.65117316302E+02  0.11116818075E+03  0.13601450556E+03  0.41800000000E+01 0.  1.
         -5    1    3    3    0  502 -0.17788774554E+02  0.26348475904E+02 -0.75395834591E+01  0.32939344276E+02  0.41800000000E+01 0.  1.
        -11    1    4    4    0    0 -0.25565457102E+02  0.63187750739E+02  0.68013298669E+02  0.96291709073E+02  0.00000000000E+00 0. -1.
         11    1    4    4    0    0 -0.49040443663E-01 -0.24418910341E+02  0.83220084575E+00  0.24433136218E+02  0.00000000000E+00 0.  1.
</event>
<event>
 8    1  0.3528896E-009  0.1031747E+03  0.7561462E-02  0.1273758E+00
         -2   -1    0    0    0  501 -0.00000000000E+00  0.00000000000E+00  0.40600072622E+03  0.40600072622E+03  0.00000000000E+00 0.  1.
          2   -1    0    0  501    0  0.00000000000E+00 -0.00000000000E+00 -0.61197502445E+02  0.61197502445E+02  0.00000000000E+00 0. -1.
         25    2    1    2    0    0  0.51976538134E+02 -0.38365285380E+02  0.31837153096E+03  0.34811085993E+03  0.12508910200E+03 0.  0.
         23    2    1    2    0    0 -0.51976538134E+02  0.38365285380E+02  0.26431692818E+02  0.11908736873E+03  0.96486845572E+02 0.  0.
          5    1    3    3  502    0 -0.33078812693E+02 -0.38238796837E+02  0.16573021038E+03  0.17332163300E+03  0.41800000000E+01 0.  1.
         -5    1    3    3    0  502  0.85055350827E+02 -0.12648854272E+00  0.15264132058E+03  0.17478922693E+03  0.41800000000E+01 0.  1.
        -11    1    4    4    0    0 -0.57224299600E+01  0.19811270155E+02  0.57004967765E+02  0.60620120254E+02  0.00000000000E+00 0.  1.
         11    1    4    4    0    0 -0.46254108174E+02  0.18554015224E+02 -0.30573274947E+02  0.58467248481E+02  0.00000000000E+00 0. -1.
</event>
<event>
 8    1  0.3528896E-009  0.8481068E+02  0.7561462E-02  0.1315928E+00
          1   -1    0    0  501    0  0.00000000000E+00  0.00000000000E+00  0.36374938512E+02  0.36374938512E+02  0.00000000000E+00 0. -1.
         -1   -1    0    0    0  501 -0.00000000000E+00 -0.00000000000E+00 -0.58810492120E+03  0.58810492120E+03  0.00000000000E+00 0.  1.
         25    2    1    2    0    0  0.33290212456E+02  0.88664313614E+01 -0.10424981945E+03  0.16645327091E+03  0.12510721278E+03 0.  0.
         23    2    1    2    0    0 -0.33290212456E+02 -0.88664313614E+01 -0.44748016324E+03  0.45802658880E+03  0.91449481728E+02 0.  0.
          5    1    3    3  502    0  0.51940410396E+02  0.89387104934E+01  0.72169300758E+01  0.53359753159E+02  0.41800000000E+01 0.  1.
         -5    1    3    3    0  502 -0.18650197941E+02 -0.72279132017E-01 -0.11146674952E+03  0.11309351775E+03  0.41800000000E+01 0.  1.
        -11    1    4    4    0    0 -0.59224593521E+02 -0.27902213523E+02 -0.29095835969E+03  0.29823288395E+03  0.00000000000E+00 0.  1.
         11    1    4    4    0    0  0.25934381066E+02  0.19035782162E+02 -0.15652180355E+03  0.15979370485E+03  0.00000000000E+00 0. -1.
</event>
<event>
 8    1  0.3528896E-009  0.1218938E+03  0.7561462E-02  0.1240005E+00
          1   -1    0    0  501    0  0.00000000000E+00  0.00000000000E+00  0.30831064402E+03  0.30831064402E+03  0.00000000000E+00 0. -1.
         -1   -1    0    0    0  501 -0.00000000000E+00 -0.00000000000E+00 -0.62156564750E+02  0.62156564750E+02  0.00000000000E+00 0.  1.
         25    2    1    2    0    0 -0.60811323478E+02 -0.47703447931E+02  0.19086673171E+03  0.24093616556E+03  0.12508593282E+03 0.  0.
         23    2    1    2    0    0  0.60811323478E+02  0.47703447931E+02  0.55287347560E+02  0.12953104322E+03  0.88022521829E+02 0.  0.
          5    1    3    3  502    0 -0.78204821704E+02  0.13051053961E+02  0.13432744042E+03  0.15603736026E+03  0.41800000000E+01 0. -1.
         -5    1    3    3    0  502  0.17393498225E+02 -0.60754501892E+02  0.56539291295E+02  0.84898805297E+02  0.41800000000E+01 0. -1.
        -11    1    4    4    0    0  0.61516375767E+02  0.87936893242E+01  0.27121722066E+00  0.62142312624E+02  0.00000000000E+00 0.  1.
         11    1    4    4    0    0 -0.70505228880E+00  0.38909758607E+02  0.55016130339E+02  0.67388730594E+02  0.00000000000E+00 0. -1.
</event>
<event>
 8    1  0.3528896E-009  0.7912375E+02  0.7561462E-02  0.1331557E+00
         -1   -1    0    0    0  501 -0.00000000000E+00  0.00000000000E+00  0.33366847343E+02  0.33366847343E+02  0.00000000000E+00 0.  1.
          1   -1    0    0  501    0  0.00000000000E+00 -0.00000000000E+00 -0.44929698407E+03  0.44929698407E+03  0.00000000000E+00 0. -1.
         25    2    1    2    0    0  0.45813801554E+02  0.16528381621E+01 -0.29328195599E+03  0.32212326653E+03  0.12508979513E+03 0.  0.
         23    2    1    2    0    0 -0.45813801554E+02 -0.16528381621E+01 -0.12264818074E+03  0.16054056488E+03  0.92892736244E+02 0.  0.
          5    1    3    3  502    0  0.33482574663E+02  0.26707479919E+02 -0.20117282089E+02  0.47503154930E+02  0.41800000000E+01 0. -1.
         -5    1    3    3    0  502  0.12331226891E+02 -0.25054641757E+02 -0.27316467390E+03  0.27462011160E+03  0.41800000000E+01 0. -1.
        -11    1    4    4    0    0 -0.99697272432E+01  0.34593880414E+02 -0.97019726973E+02  0.10348410238E+03  0.00000000000E+00 0. -1.
         11    1    4    4    0    0 -0.35844074311E+02 -0.36246718576E+02 -0.25628453768E+02  0.57056462502E+02  0.00000000000E+00 0.  1.
</event>
<event>
 8    1  0.3528896E-009  0.1139285E+03  0.7561462E-02  0.1253463E+00
          1   -1    0    0  501    0  0.00000000000E+00  0.00000000000E+00  0.21482618335E+03  0.21482618335E+03  0.00000000000E+00 0. -1.
         -1   -1    0    0    0  501 -0.00000000000E+00 -0.00000000000E+00 -0.84168539852E+02  0.84168539852E+02  0.00000000000E+00 0.  1.
         25    2    1    2    0    0 -0.51622851616E+02  0.59979332086E+02  0.62238674409E+02  0.16056857865E+03  0.12508467840E+03 0.  0.
         23    2    1    2    0    0  0.51622851616E+02 -0.59979332086E+02  0.68418969086E+02  0.13842614455E+03  0.90654305351E+02 0.  0.
          5    1    3    3  502    0 -0.53116730543E+02 -0.12615063975E+02 -0.12627697234E+02  0.56191263022E+02  0.41800000000E+01 0.  1.
         -5    1    3    3    0  502  0.14938789268E+01  0.72594396061E+02  0.74866371643E+02  0.10437731562E+03  0.41800000000E+01 0.  1.
        -11    1    4    4    0    0 -0.14098239365E+01 -0.45333291284E+02 -0.61362594295E+01  0.45768423416E+02  0.00000000000E+00 0.  1.
         11    1    4    4    0    0  0.53032675553E+02 -0.14646040802E+02  0.74555228515E+02  0.92657721137E+02  0.00000000000E+00 0. -1.
</event>
<event>
 8    1  0.3528896E-009  0.1125505E+03  0.7561462E-02  0.1255918E+00
          1   -1    0    0  501    0  0.00000000000E+00  0.00000000000E+00  0.40001731394E+03  0.40001731394E+03  0.00000000000E+00 0. -1.
         -1   -1    0    0    0  501 -0.00000000000E+00 -0.00000000000E+00 -0.40449930345E+02  0.40449930345E+02  0.00000000000E+00 0.  1.
         25    2    1    2    0    0 -0.40669588833E+01  0.66560877371E+02  0.20798116354E+03  0.25168694696E+03  0.12507303600E+03 0.  0.
         23    2    1    2    0    0  0.40669588833E+01 -0.66560877371E+02  0.15158622005E+03  0.18878029732E+03  0.90624102726E+02 0.  0.
          5    1    3    3  502    0  0.50835101030E+02  0.62671251098E+02  0.15687467267E+03  0.17646254145E+03  0.41800000000E+01 0.  1.
         -5    1    3    3    0  502 -0.54902059913E+02  0.38896262726E+01  0.51106490870E+02  0.75224405509E+02  0.41800000000E+01 0.  1.
        -11    1    4    4    0    0  0.28423213819E+02 -0.15147630834E+02  0.63885757462E+01  0.32835098655E+02  0.00000000000E+00 0.  1.
         11    1    4    4    0    0 -0.24356254935E+02 -0.51413246537E+02  0.14519764430E+03  0.15594519866E+03  0.00000000000E+00 0. -1.
</event>
<event>
 8    1  0.3528896E-009  0.1141897E+03  0.7561462E-02  0.1253002E+00
         -2   -1    0    0    0  501 -0.00000000000E+00  0.00000000000E+00  0.13589684171E+03  0.13589684171E+03  0.00000000000E+00 0.  1.
          2   -1    0    0  501    0  0.00000000000E+00 -0.00000000000E+00 -0.13055983320E+03  0.13055983320E+03  0.00000000000E+00 0. -1.
         25    2    1    2    0    0 -0.31886418356E+02  0.65878112527E+02  0.26843388282E+02  0.14736815963E+03  0.12506053571E+03 0.  0.
         23    2    1    2    0    0  0.31886418356E+02 -0.65878112527E+02 -0.21506379769E+02  0.11908851528E+03  0.91448787389E+02 0.  0.
          5    1    3    3  502    0  0.28356373096E+02  0.31165374014E+02 -0.34449981943E+02  0.54586061302E+02  0.41800000000E+01 0.  1.
         -5    1    3    3    0  502 -0.60242791453E+02  0.34712738513E+02  0.61293370225E+02  0.92782098330E+02  0.41800000000E+01 0.  1.
        -11    1    4    4    0    0  0.55743034356E+02 -0.11379934371E+02 -0.17226864985E+02  0.59443701623E+02  0.00000000000E+00 0.  1.
         11    1    4    4    0    0 -0.23856616000E+02 -0.54498178156E+02 -0.42795147839E+01  0.59644813656E+02  0.00000000000E+00 0. -1.
</event>
<event>
 8    1  0.3528896E-009  0.3414409E+03  0.7561462E-02  0.1066184E+00
         -1   -1    0    0    0  501 -0.00000000000E+00  0.00000000000E+00  0.14578195150E+03  0.14578195150E+03  0.00000000000E+00 0.  1.
          1   -1    0    0  501    0  0.00000000000E+00 -0.00000000000E+00 -0.85598082114E+03  0.85598082114E+03  0.00000000000E+00 0. -1.
         25    2    1    2    0    0  0.32526679652E+03 -0.70806951366E+02 -0.40756408168E+03  0.54089553133E+03  0.12508949541E+03 0.  0.
         23    2    1    2    0    0 -0.32526679652E+03  0.70806951366E+02 -0.30263478796E+03  0.46086724131E+03  0.99993429539E+02 0.  0.
          5    1    3    3  502    0  0.16737884568E+03 -0.71629757675E+02 -0.29595605966E+03  0.34749670763E+03  0.41800000000E+01 0. -1.
         -5    1    3    3    0  502  0.15788795084E+03  0.82280630899E+00 -0.11160802202E+03  0.19339882370E+03  0.41800000000E+01 0. -1.
        -11    1    4    4    0    0 -0.16942600883E+03  0.78644309264E+02 -0.20234593440E+03  0.27537969608E+03  0.00000000000E+00 0. -1.
         11    1    4    4    0    0 -0.15584078768E+03 -0.78373578973E+01 -0.10028885356E+03  0.18548754523E+03  0.00000000000E+00 0.  1.
</event>
<event>
 8    1  0.3528896E-009  0.1507763E+03  0.7561462E-02  0.1199522E+00
          2   -1    0    0  501    0  0.00000000000E+00  0.00000000000E+00  0.87460147671E+03  0.87460147671E+03  0.00000000000E+00 0. -1.
         -2   -1    0    0    0  501 -0.00000000000E+00 -0.00000000000E+00 -0.40369037730E+02  0.40369037730E+02  0.00000000000E+00 0.  1.
         25    2    1    2    0    0 -0.11626556332E+03  0.55015169628E+02  0.64053131264E+03  0.66518648431E+03  0.12509335046E+03 0.  0.
         23    2    1    2    0    0  0.11626556332E+03 -0.55015169628E+02  0.19370112633E+03  0.24978403013E+03  0.91255603987E+02 0.  0.
          5    1    3    3  502    0 -0.14521872374E+02 -0.18443413964E+02  0.32079629829E+03  0.32168118019E+03  0.41800000000E+01 0. -1.
         -5    1    3    3    0  502 -0.10174369095E+03  0.73458583592E+02  0.31973501435E+03  0.34350530412E+03  0.41800000000E+01 0. -1.
        -11    1    4    4    0    0  0.56333423843E+02 -0.70505712802E+02  0.81310138350E+02  0.12147365467E+03  0.00000000000E+00 0.  1.
         11    1    4    4    0    0  0.59932139481E+02  0.15490543174E+02  0.11239098798E+03  0.12831037546E+03  0.00000000000E+00 0. -1.
</event>
<event>
 8    1  0.3528896E-009  0.1224120E+03  0.7561462E-02  0.1239170E+00
          1   -1    0    0  501    0  0.00000000000E+00  0.00000000000E+00  0.35853106588E+03  0.35853106588E+03  0.00000000000E+00 0. -1.
         -1   -1    0    0    0  501 -0.00000000000E+00 -0.00000000000E+00 -0.56342124662E+02  0.56342124662E+02  0.00000000000E+00 0.  1.
         25    2    1    2    0    0 -0.84626804106E+02 -0.17425210831E+02  0.20654790277E+03  0.25646635809E+03  0.12509045825E+03 0.  0.
         23    2    1    2    0    0  0.84626804106E+02  0.17425210831E+02  0.95641038442E+02  0.15840683245E+03  0.92087905758E+02 0.  0.
          5    1    3    3  502    0  0.25448799636E+02  0.31840957047E+01  0.59049921609E+01  0.26648099384E+02  0.41800000000E+01 0. -1.
         -5    1    3    3    0  502 -0.11007560374E+03 -0.20609306536E+02  0.20064291061E+03  0.22981825870E+03  0.41800000000E+01 0. -1.
        -11    1    4    4    0    0  0.51605554164E+02  0.41239549639E+02  0.14510690921E+02  0.67634265177E+02  0.00000000000E+00 0.  1.
         11    1    4    4    0    0  0.33021249942E+02 -0.23814338808E+02  0.81130347521E+02  0.90772567273E+02  0.00000000000E+00 0. -1.
</event>
<event>
 8    1  0.3528896E-009  0.2045667E+03  0.7561462E-02  0.1145942E+00
         -1   -1    0    0    0  501 -0.00000000000E+00  0.00000000000E+00  0.18880771703E+03  0.18880771703E+03  0.00000000000E+00 0.  1.
          1   -1    0    0  501    0  0.00000000000E+00 -0.00000000000E+00 -0.24831915762E+03  0.24831915762E+03  0.00000000000E+00 0. -1.
         25    2    1    2    0    0 -0.17394699050E+03  0.67384817187E+02 -0.42390575054E+02  0.22854275993E+03  0.12504624413E+03 0.  0.
         23    2    1    2    0    0  0.17394699050E+03 -0.67384817187E+02 -0.17120865539E+02  0.20858411472E+03  0.91738431337E+02 0.  0.
          5    1    3    3  502    0 -0.86948230405E+02  0.80444834142E+02 -0.68222963302E+02  0.13675968424E+03  0.41800000000E+01 0. -1.
         -5    1    3    3    0  502 -0.86998760097E+02 -0.13060016955E+02  0.25832388248E+02  0.91783075695E+02  0.41800000000E+01 0. -1.
        -11    1    4    4    0    0  0.10228882635E+03 -0.79892332823E+02 -0.33449758902E+02  0.13403236628E+03  0.00000000000E+00 0.  1.
         11    1    4    4    0    0  0.71658164148E+02  0.12507515636E+02  0.16328893363E+02  0.74551748436E+02  0.00000000000E+00 0. -1.
</event>
<event>
 8    1  0.3528896E-009  0.1509661E+03  0.7561462E-02  0.1199291E+00
          1   -1    0    0  501    0  0.00000000000E+00  0.00000000000E+00  0.58243609718E+02  0.58243609718E+02  0.00000000000E+00 0. -1.
         -1   -1    0    0    0  501 -0.00000000000E+00 -0.00000000000E+00 -0.49940723374E+03  0.49940723374E+03  0.00000000000E+00 0.  1.
         25    2    1    2    0    0  0.12687077393E+03  0.29107019311E+02 -0.27482435212E+03  0.32881543542E+03  0.12509098369E+03 0.  0.
         23    2    1    2    0    0 -0.12687077393E+03 -0.29107019311E+02 -0.16633927190E+03  0.22883540804E+03  0.88053840028E+02 0.  0.
          5    1    3    3  502    0  0.13835538408E+03  0.53000789509E+01 -0.26723029490E+03  0.30099801669E+03  0.41800000000E+01 0.  1.
         -5    1    3    3    0  502 -0.11484610145E+02  0.23806940360E+02 -0.75940572154E+01  0.27817418724E+02  0.41800000000E+01 0.  1.
        -11    1    4    4    0    0 -0.13240191021E+02  0.98782253212E+01 -0.77972362329E+02  0.79703019271E+02  0.00000000000E+00 0.  1.
         11    1    4    4    0    0 -0.11363058291E+03 -0.38985244632E+02 -0.88366909572E+02  0.14913238877E+03  0.00000000000E+00 0. -1.
</event>
<event>
 8    1  0.3528896E-009  0.1272397E+03  0.7561462E-02  0.1231610E+00
         -2   -1    0    0    0  501 -0.00000000000E+00  0.00000000000E+00  0.42424605174E+02  0.42424605174E+02  0.00000000000E+00 0.  1.
          2   -1    0    0  501    0  0.00000000000E+00 -0.00000000000E+00 -0.83167796818E+03  0.83167796818E+03  0.00000000000E+00 0. -1.
         25    2    1    2    0    0 -0.10993685536E+03  0.14261273985E+02 -0.65582122087E+03  0.67678555581E+03  0.12509084185E+03 0.  0.
         23    2    1    2    0    0  0.10993685536E+03 -0.14261273985E+02 -0.13343214214E+03  0.19731701755E+03  0.94023256453E+02 0.  0.
          5    1    3    3  502    0 -0.58273573776E+02  0.16227895321E+02 -0.58940086158E+03  0.59251160496E+03  0.41800000000E+01 0. -1.
         -5    1    3    3    0  502 -0.51663281585E+02 -0.19666213368E+01 -0.66420359288E+02  0.84273950848E+02  0.41800000000E+01 0. -1.
        -11    1    4    4    0    0  0.16779069522E+02 -0.41626449727E+02 -0.23551977296E+02  0.50685245639E+02  0.00000000000E+00 0.  1.
         11    1    4    4    0    0  0.93157785839E+02  0.27365175742E+02 -0.10988016485E+03  0.14663177191E+03  0.00000000000E+00 0. -1.
</event>
<event>
 8    1  0.3528896E-009  0.1041840E+03  0.7561462E-02  0.1271736E+00
         -2   -1    0    0    0  501 -0.00000000000E+00  0.00000000000E+00  0.34042749842E+02  0.34042749842E+02  0.00000000000E+00 0.  1.
          2   -1    0    0  501    0  0.00000000000E+00 -0.00000000000E+00 -0.37158092899E+03  0.37158092899E+03  0.00000000000E+00 0. -1.
         25    2    1    2    0    0 -0.23441294681E+02  0.17848154262E+02 -0.17803434963E+03  0.21957154569E+03  0.12508950044E+03 0.  0.
         23    2    1    2    0    0  0.23441294681E+02 -0.17848154262E+02 -0.15950382952E+03  0.18605213315E+03  0.91136566268E+02 0.  0.
          5    1    3    3  502    0  0.42447270022E+02 -0.21741227089E+02 -0.94758128368E+02  0.10616509304E+03  0.41800000000E+01 0. -1.
         -5    1    3    3    0  502 -0.65888564703E+02  0.39589381352E+02 -0.83276221264E+02  0.11340645265E+03  0.41800000000E+01 0. -1.
        -11    1    4    4    0    0 -0.28493473652E+02 -0.13102473755E+02 -0.20194122334E+02  0.37300877149E+02  0.00000000000E+00 0.  1.
         11    1    4    4    0    0  0.51934768334E+02 -0.47456805074E+01 -0.13930970718E+03  0.14875125600E+03  0.00000000000E+00 0. -1.
</event>
<event>
 8    1  0.3528896E-009  0.2126712E+03  0.7561462E-02  0.1139468E+00
         -1   -1    0    0    0  501 -0.00000000000E+00  0.00000000000E+00  0.36075390930E+02  0.36075390930E+02  0.00000000000E+00 0.  1.
          1   -1    0    0  501    0  0.00000000000E+00 -0.00000000000E+00 -0.16135280456E+04  0.16135280456E+04  0.00000000000E+00 0. -1.
         25    2    1    2    0    0  0.18170679187E+03 -0.91325854303E+02 -0.56942253233E+03  0.61745116145E+03  0.12508455773E+03 0.  0.
         23    2    1    2    0    0 -0.18170679187E+03  0.91325854303E+02 -0.10080301223E+04  0.10321522750E+04  0.88633072381E+02 0.  0.
          5    1    3    3  502    0  0.72042288971E+02 -0.41804860736E+02 -0.88159167212E+02  0.12135587726E+03  0.41800000000E+01 0. -1.
         -5    1    3    3    0  502  0.10966450289E+03 -0.49520993566E+02 -0.48126336511E+03  0.49609528419E+03  0.41800000000E+01 0. -1.
        -11    1    4    4    0    0 -0.84239766801E+01 -0.15740939022E+02 -0.96930063784E+02  0.98560528659E+02  0.00000000000E+00 0. -1.
         11    1    4    4    0    0 -0.17328281519E+03  0.10706679333E+03 -0.91110005852E+03  0.93359174638E+03  0.00000000000E+00 0.  1.
</event>
<event>
 8    1  0.3528896E-009  0.1003259E+03  0.7561462E-02  0.1279612E+00
          1   -1    0    0  501    0  0.00000000000E+00  0.00000000000E+00  0.21475027525E+03  0.21475027525E+03  0.00000000000E+00 0. -1.
         -1   -1    0    0    0  501 -0.00000000000E+00 -0.00000000000E+00 -0.68713788753E+02  0.68713788753E+02  0.00000000000E+00 0.  1.
         25    2    1    2    0    0 -0.43553240442E+02 -0.14356646799E+02  0.11235130042E+03  0.17428051690E+03  0.12509150972E+03 0.  0.
         23    2    1    2    0    0  0.43553240442E+02  0.14356646799E+02  0.33685186077E+02  0.10918354711E+03  0.93184532715E+02 0.  0.
          5    1    3    3  502    0 -0.75872773542E+02 -0.34987165291E+02  0.40979235369E+02  0.93153366184E+02  0.41800000000E+01 0.  1.
         -5    1    3    3    0  502  0.32319533100E+02  0.20630518491E+02  0.71372065056E+02  0.81127150716E+02  0.41800000000E+01 0.  1.
        -11    1    4    4    0    0  0.30749250255E+02 -0.23346737689E+02  0.52480699692E+02  0.65152209418E+02  0.00000000000E+00 0. -1.
         11    1    4    4    0    0  0.12803990188E+02  0.37703384488E+02 -0.18795513615E+02  0.44031337689E+02  0.00000000000E+00 0.  1.
</event>
<event>
 8    1  0.3528896E-009  0.8132344E+02  0.7561462E-02  0.1325337E+00
          2   -1    0    0  501    0  0.00000000000E+00  0.00000000000E+00  0.55712438213E+02  0.55712438213E+02  0.00000000000E+00 0. -1.
         -2   -1    0    0    0  501 -0.00000000000E+00 -0.00000000000E+00 -0.31910427729E+03  0.31910427729E+03  0.00000000000E+00 0.  1.
         25    2    1    2    0    0 -0.78236396542E+01  0.32772531883E+02 -0.49920780770E+02  0.13883428776E+03  0.12509047494E+03 0.  0.
         23    2    1    2    0    0  0.78236396542E+01 -0.32772531883E+02 -0.21347105831E+03  0.23598242775E+03  0.94776396259E+02 0.  0.
          5    1    3    3  502    0 -0.26192191133E+02  0.38915521593E+02  0.30433898621E+02  0.56072660740E+02  0.41800000000E+01 0.  1.
         -5    1    3    3    0  502  0.18368551479E+02 -0.61429897101E+01 -0.80354679392E+02  0.82761627015E+02  0.41800000000E+01 0.  1.
        -11    1    4    4    0    0  0.48467523834E+02 -0.11287777514E+02 -0.74395285326E+02  0.89505157765E+02  0.00000000000E+00 0. -1.
         11    1    4    4    0    0 -0.40643884180E+02 -0.21484754369E+02 -0.13907577298E+03  0.14647726998E+03  0.00000000000E+00 0.  1.
</event>
<event>
 8    1  0.3528896E-009  0.1026817E+03  0.7561462E-02  0.1274756E+00
          3   -1    0    0  501    0  0.00000000000E+00  0.00000000000E+00  0.50018727838E+02  0.50018727838E+02  0.00000000000E+00 0. -1.
         -3   -1    0    0    0  501 -0.00000000000E+00 -0.00000000000E+00 -0.40840470335E+03  0.40840470335E+03  0.00000000000E+00 0.  1.
         25    2    1    2    0    0  0.12203625662E+02  0.27439190060E+02 -0.55100317451E+02  0.13995030429E+03  0.12509278579E+03 0.  0.
         23    2    1    2    0    0 -0.12203625662E+02 -0.27439190060E+02 -0.30328565806E+03  0.31847312690E+03  0.92418096407E+02 0.  0.
          5    1    3    3  502    0 -0.20325661837E+02 -0.38436874844E+02 -0.49695115926E+02  0.66163455349E+02  0.41800000000E+01 0. -1.
         -5    1    3    3    0  502  0.32529287499E+02  0.65876064904E+02 -0.54052015257E+01  0.73786848936E+02  0.41800000000E+01 0. -1.
        -11    1    4    4    0    0 -0.39998805275E+02 -0.40902953220E+02 -0.12418608667E+03  0.13673017270E+03  0.00000000000E+00 0. -1.
         11    1    4    4    0    0  0.27795179613E+02  0.13463763160E+02 -0.17909957139E+03  0.18174295420E+03  0.00000000000E+00 0.  1.
</event>
<event>
 8    1  0.3528896E-009  0.1276652E+03  0.7561462E-02  0.1230962E+00
          2   -1    0    0  501    0  0.00000000000E+00  0.00000000000E+00  0.15845671075E+04  0.15845671075E+04  0.00000000000E+00 0. -1.
         -2   -1    0    0    0  501 -0.00000000000E+00 -0.00000000000E+00 -0.17759629595E+02  0.17759629595E+02  0.00000000000E+00 0.  1.
         25    2    1    2    0    0  0.56814852670E+02 -0.97395154749E+02  0.11190193245E+04  0.11316214425E+04  0.12509635083E+03 0.  0.
         23    2    1    2    0    0 -0.56814852670E+02  0.97395154749E+02  0.44778815343E+03  0.47070529456E+03  0.91298961263E+02 0.  0.
          5    1    3    3  502    0 -0.32644400773E+01  0.39095660329E+01  0.57255503579E+03  0.57259294677E+03  0.41800000000E+01 0. -1.
         -5    1    3    3    0  502  0.60079292747E+02 -0.10130472078E+03  0.54646428870E+03  0.55902849578E+03  0.41800000000E+01 0. -1.
        -11    1    4    4    0    0 -0.68597776464E+02  0.58203889960E+02  0.38772629824E+03  0.39802641883E+03  0.00000000000E+00 0. -1.
         11    1    4    4    0    0  0.11782923794E+02  0.39191264788E+02  0.60061855187E+02  0.72678875730E+02  0.00000000000E+00 0.  1.
</event>
<event>
 8    1  0.3528896E-009  0.1326448E+03  0.7561462E-02  0.1223583E+00
         -2   -1    0    0    0  501 -0.00000000000E+00  0.00000000000E+00  0.13765739051E+02  0.13765739051E+02  0.00000000000E+00 0.  1.
          2   -1    0    0  501    0  0.00000000000E+00 -0.00000000000E+00 -0.14024677177E+04  0.14024677177E+04  0.00000000000E+00 0. -1.
         25    2    1    2    0    0 -0.20884702887E+01  0.79763156700E+02 -0.90618515508E+03  0.91825158606E+03  0.12509163500E+03 0.  0.
         23    2    1    2    0    0  0.20884702887E+01 -0.79763156700E+02 -0.48251682357E+03  0.49798187069E+03  0.93791980634E+02 0.  0.
          5    1    3    3  502    0 -0.53258471886E+02  0.80003148504E+02 -0.63558377976E+03  0.64282282325E+03  0.41800000000E+01 0. -1.
         -5    1    3    3    0  502  0.51170001597E+02 -0.23999180458E+00 -0.27060137532E+03  0.27542876281E+03  0.41800000000E+01 0. -1.
        -11    1    4    4    0    0 -0.39745990696E+02 -0.19197668128E+02 -0.11529721365E+03  0.12345744900E+03  0.00000000000E+00 0.  1.
         11    1    4    4    0    0  0.41834460985E+02 -0.60565488571E+02 -0.36721960992E+03  0.37452442168E+03  0.00000000000E+00 0. -1.
</event>
<event>
 8    1  0.3528896E-009  0.1026448E+03  0.7561462E-02  0.1274831E+00
          1   -1    0    0  501    0  0.00000000000E+00  0.00000000000E+00  0.64930312591E+03  0.64930312591E+03  0.00000000000E+00 0. -1.
         -1   -1    0    0    0  501 -0.00000000000E+00 -0.00000000000E+00 -0.18170930687E+02  0.18170930687E+02  0.00000000000E+00 0.  1.
         25    2    1    2    0    0 -0.35869048669E+02  0.85666119669E+01  0.47407007241E+03  0.49168094265E+03  0.12509092821E+03 0.  0.
         23    2    1    2    0    0  0.35869048669E+02 -0.85666119669E+01  0.15706212281E+03  0.17579311394E+03  0.69819288128E+02 0.  0.
          5    1    3    3  502    0  0.36870592331E+02 -0.27215581070E+02  0.12240259942E+03  0.13076695751E+03  0.41800000000E+01 0.  1.
         -5    1    3    3    0  502 -0.72739641000E+02  0.35782193037E+02  0.35166747299E+03  0.36091398514E+03  0.41800000000E+01 0.  1.
        -11    1    4    4    0    0 -0.73739169444E+01 -0.29250072806E+02  0.48445012886E+02  0.57068911710E+02  0.00000000000E+00 0.  1.
         11    1    4    4    0    0  0.43242965614E+02  0.20683460839E+02  0.10861710993E+03  0.11872420223E+03  0.00000000000E+00 0. -1.
</event>
<event>
 8    1  0.3528896E-009  0.1075598E+03  0.7561462E-02  0.1265157E+00
          1   -1    0    0  501    0  0.00000000000E+00  0.00000000000E+00  0.22478610043E+03  0.22478610043E+03  0.00000000000E+00 0. -1.
         -1   -1    0    0    0  501 -0.00000000000E+00 -0.00000000000E+00 -0.71902243207E+02  0.71902243207E+02  0.00000000000E+00 0.  1.
         25    2    1    2    0    0  0.44337683146E+02  0.43217946937E+02  0.54264957715E+02  0.14975159053E+03  0.12508889698E+03 0.  0.
         23    2    1    2    0    0 -0.44337683146E+02 -0.43217946937E+02  0.98618899509E+02  0.14693675310E+03  0.89616410259E+02 0.  0.
          5    1    3    3  502    0  0.71460484452E+02  0.38538537827E+02  0.78374276009E+02  0.11292395351E+03  0.41800000000E+01 0.  1.
         -5    1    3    3    0  502 -0.27122801306E+02  0.46794091102E+01 -0.24109318294E+02  0.36827637026E+02  0.41800000000E+01 0.  1.
        -11    1    4    4    0    0 -0.69072917910E+02 -0.19640486017E+02  0.81803807242E+02  0.10885164013E+03  0.00000000000E+00 0. -1.
         11    1    4    4    0    0  0.24735234764E+02 -0.23577460920E+02  0.16815092267E+02  0.38085112973E+02  0.00000000000E+00 0.  1.
</event>
<event>
 8    1  0.3528896E-009  0.1215101E+03  0.7561462E-02  0.1240626E+00
          4   -1    0    0  501    0  0.00000000000E+00  0.00000000000E+00  0.79426200131E+03  0.79426200131E+03  0.00000000000E+00 0. -1.
         -4   -1    0    0    0  501 -0.00000000000E+00 -0.00000000000E+00 -0.23850766119E+02  0.23850766119E+02  0.00000000000E+00 0.  1.
         25    2    1    2    0    0 -0.36792953537E+02  0.51155324392E+02  0.25447777987E+03  0.29047977751E+03  0.12509585147E+03 0.  0.
         23    2    1    2    0    0  0.36792953537E+02 -0.51155324392E+02  0.51593345532E+03  0.52763298992E+03  0.90767026397E+02 0.  0.
          5    1    3    3  502    0 -0.76904449994E+02  0.15146703172E+02  0.19444398614E+03  0.20968942079E+03  0.41800000000E+01 0. -1.
         -5    1    3    3    0  502  0.40111496457E+02  0.36008621220E+02  0.60033793731E+02  0.80790356726E+02  0.41800000000E+01 0. -1.
        -11    1    4    4    0    0  0.64477375719E+02 -0.51895686649E+02  0.39212767041E+03  0.40076751886E+03  0.00000000000E+00 0. -1.
         11    1    4    4    0    0 -0.27684422182E+02  0.74036225643E+00  0.12380578491E+03  0.12686547105E+03  0.00000000000E+00 0.  1.
</event>
<event>
 8    1  0.3528896E-009  0.1298576E+03  0.7561462E-02  0.1227667E+00
         -2   -1    0    0    0  501 -0.00000000000E+00  0.00000000000E+00  0.36695618205E+03  0.36695618205E+03  0.00000000000E+00 0.  1.
          2   -1    0    0  501    0  0.00000000000E+00 -0.00000000000E+00 -0.13271417515E+03  0.13271417515E+03  0.00000000000E+00 0. -1.
         25    2    1    2    0    0  0.16450973533E+01 -0.10024146844E+03 -0.63374767847E+02  0.17237989454E+03  0.12508960189E+03 0.  0.
         23    2    1    2    0    0 -0.16450973533E+01  0.10024146844E+03  0.29761677474E+03  0.32729046267E+03  0.92153372187E+02 0.  0.
          5    1    3    3  502    0 -0.43006855838E+02 -0.46787096775E+02 -0.78396616167E+02  0.10100556371E+03  0.41800000000E+01 0.  1.
         -5    1    3    3    0  502  0.44651953191E+02 -0.53454371666E+02  0.15021848320E+02  0.71374330827E+02  0.41800000000E+01 0.  1.
        -11    1    4    4    0    0 -0.33329056412E+02  0.17483641417E+02  0.15401953543E+03  0.15855131981E+03  0.00000000000E+00 0.  1.
         11    1    4    4    0    0  0.31683959059E+02  0.82757827024E+02  0.14359723931E+03  0.16873914286E+03  0.00000000000E+00 0. -1.
</event>
<event>
 8    1  0.3528896E-009  0.2764635E+03  0.7561462E-02  0.1097636E+00
          2   -1    0    0  501    0  0.00000000000E+00  0.00000000000E+00  0.16663599565E+04  0.16663599565E+04  0.00000000000E+00 0. -1.
         -2   -1    0    0    0  501 -0.00000000000E+00 -0.00000000000E+00 -0.48039883009E+02  0.48039883009E+02  0.00000000000E+00 0.  1.
         25    2    1    2    0    0 -0.23871996632E+03  0.95450777450E+02  0.96544730610E+03  0.10068936130E+04  0.12509266071E+03 0.  0.
         23    2    1    2    0    0  0.23871996632E+03 -0.95450777450E+02  0.65287276742E+03  0.70750622656E+03  0.90687027465E+02 0.  0.
          5    1    3    3  502    0 -0.23573390119E+03  0.11425394873E+03  0.93255687418E+03  0.96866105164E+03  0.41800000000E+01 0.  1.
         -5    1    3    3    0  502 -0.29860651228E+01 -0.18803171276E+02  0.32890431917E+02  0.38232561340E+02  0.41800000000E+01 0.  1.
        -11    1    4    4    0    0  0.19662757571E+03 -0.38077186276E+02  0.45139292500E+03  0.49382977673E+03  0.00000000000E+00 0.  1.
         11    1    4    4    0    0  0.42092390605E+02 -0.57373591174E+02  0.20147984242E+03  0.21367644983E+03  0.00000000000E+00 0. -1.
</event>
<event>
 8    1  0.3528896E-009  0.3328212E+03  0.7561462E-02  0.1069895E+00
          1   -1    0    0  501    0  0.00000000000E+00  0.00000000000E+00  0.12741834066E+04  0.12741834066E+04  0.00000000000E+00 0. -1.
         -1   -1    0    0    0  501 -0.00000000000E+00 -0.00000000000E+00 -0.19225876962E+03  0.19225876962E+03  0.00000000000E+00 0.  1.
         25    2    1    2    0    0  0.32644392914E+03 -0.16741201740E+02  0.18910929632E+02  0.35050138812E+03  0.12509073948E+03 0.  0.
         23    2    1    2    0    0 -0.32644392914E+03  0.16741201740E+02  0.10630137074E+04  0.11159407881E+04  0.92085796041E+02 0.  0.
          5    1    3    3  502    0  0.17745703444E+03 -0.25126815353E+02 -0.49948545239E+02  0.18610396420E+03  0.41800000000E+01 0. -1.
         -5    1    3    3    0  502  0.14898689471E+03  0.83856136130E+01  0.68859474871E+02  0.16439742392E+03  0.41800000000E+01 0. -1.
        -11    1    4    4    0    0 -0.25610796421E+03  0.47228571267E+02  0.76004250860E+03  0.80342170879E+03  0.00000000000E+00 0.  1.
         11    1    4    4    0    0 -0.70335964933E+02 -0.30487369526E+02  0.30297119878E+03  0.31251907935E+03  0.00000000000E+00 0. -1.
</event>
<event>
 8    1  0.3528896E-009  0.1058894E+03  0.7561462E-02  0.1268377E+00
          4   -1    0    0  501    0  0.00000000000E+00  0.00000000000E+00  0.11714124221E+03  0.11714124221E+03  0.00000000000E+00 0. -1.
         -4   -1    0    0    0  501 -0.00000000000E+00 -0.00000000000E+00 -0.10156312415E+03  0.10156312415E+03  0.00000000000E+00 0.  1.
         25    2    1    2    0    0 -0.11872073976E+02  0.13869960619E+02  0.44444306203E+01  0.12649444723E+03  0.12509104792E+03 0.  0.
         23    2    1    2    0    0  0.11872073976E+02 -0.13869960619E+02  0.11133687434E+02  0.92209919128E+02  0.89696088218E+02 0.  0.
          5    1    3    3  502    0 -0.24022311483E+02 -0.52865548926E+02 -0.18109440204E+01  0.58245940893E+02  0.41800000000E+01 0.  1.
         -5    1    3    3    0  502  0.12150237507E+02  0.66735509546E+02  0.62553746407E+01  0.68248506340E+02  0.41800000000E+01 0.  1.
        -11    1    4    4    0    0  0.60554301481E+01  0.35437139996E+02 -0.11360328402E+02  0.37702999705E+02  0.00000000000E+00 0.  1.
         11    1    4    4    0    0  0.58166438277E+01 -0.49307100615E+02  0.22494015836E+02  0.54506919423E+02  0.00000000000E+00 0. -1.
</event>
<event>
 8    1  0.3528896E-009  0.1015971E+03  0.7561462E-02  0.1276973E+00
          1   -1    0    0  501    0  0.00000000000E+00  0.00000000000E+00  0.56306454785E+03  0.56306454785E+03  0.00000000000E+00 0. -1.
         -1   -1    0    0    0  501 -0.00000000000E+00 -0.00000000000E+00 -0.36268310525E+02  0.36268310525E+02  0.00000000000E+00 0.  1.
         25    2    1    2    0    0 -0.62480651986E+02 -0.57949609269E+02  0.20494336297E+03  0.25477864748E+03  0.12509351741E+03 0.  0.
         23    2    1    2    0    0  0.62480651986E+02  0.57949609269E+02  0.32185287435E+03  0.34455421090E+03  0.88692403448E+02 0.  0.
          5    1    3    3  502    0 -0.28157424128E+02 -0.30625057101E+02 -0.32824992255E+01  0.41940217657E+02  0.41800000000E+01 0. -1.
         -5    1    3    3    0  502 -0.34323227857E+02 -0.27324552168E+02  0.20822586220E+03  0.21283842982E+03  0.41800000000E+01 0. -1.
        -11    1    4    4    0    0 -0.11679279790E+02  0.39082201933E+02  0.16587328183E+03  0.17081501605E+03  0.00000000000E+00 0. -1.
         11    1    4    4    0    0  0.74159931776E+02  0.18867407336E+02  0.15597959252E+03  0.17373919484E+03  0.00000000000E+00 0.  1.
</event>
<event>
 8    1  0.3528896E-009  0.1002844E+03  0.7561462E-02  0.1279699E+00
         -2   -1    0    0    0  501 -0.00000000000E+00  0.00000000000E+00  0.90836022215E+02  0.90836022215E+02  0.00000000000E+00 0.  1.
          2   -1    0    0  501    0  0.00000000000E+00 -0.00000000000E+00 -0.14394020771E+03  0.14394020771E+03  0.00000000000E+00 0. -1.
         25    2    1    2    0    0 -0.16568312540E+02  0.42772795151E+01 -0.62092422008E+02  0.14069809333E+03  0.12509068909E+03 0.  0.
         23    2    1    2    0    0  0.16568312540E+02 -0.42772795151E+01  0.89882365157E+01  0.94078136590E+02  0.92071185982E+02 0.  0.
          5    1    3    3  502    0 -0.62925961399E+02  0.66104524523E+01 -0.43818871852E+00  0.63411663824E+02  0.41800000000E+01 0. -1.
         -5    1    3    3    0  502  0.46357648859E+02 -0.23331729373E+01 -0.61654233289E+02  0.77286429508E+02  0.41800000000E+01 0. -1.
        -11    1    4    4    0    0  0.53316624205E+02 -0.66500053008E+01 -0.65142963145E+01  0.54123202452E+02  0.00000000000E+00 0. -1.
         11    1    4    4    0    0 -0.36748311665E+02  0.23727257857E+01  0.15502532830E+02  0.39954934139E+02  0.00000000000E+00 0.  1.
</event>
<event>
 8    1  0.3528896E-009  0.1588156E+03  0.7561462E-02  0.1190040E+00
         -1   -1    0    0    0  501 -0.00000000000E+00  0.00000000000E+00  0.50001615618E+02  0.50001615618E+02  0.00000000000E+00 0.  1.
          1   -1    0    0  501    0  0.00000000000E+00 -0.00000000000E+00 -0.95165426055E+03  0.95165426055E+03  0.00000000000E+00 0. -1.
         25    2    1    2    0    0 -0.14905102430E+03 -0.14680775006E+01 -0.20346535767E+03  0.28153738018E+03  0.12508709594E+03 0.  0.
         23    2    1    2    0    0  0.14905102430E+03  0.14680775006E+01 -0.69818728727E+03  0.72011849600E+03  0.94269810001E+02 0.  0.
          5    1    3    3  502    0 -0.13043532122E+03  0.23886402519E+02 -0.21070203748E+03  0.24899147425E+03  0.41800000000E+01 0. -1.
         -5    1    3    3    0  502 -0.18615703076E+02 -0.25354480019E+02  0.72366798158E+01  0.32545905930E+02  0.41800000000E+01 0. -1.
        -11    1    4    4    0    0  0.95281205306E+01  0.95273270714E+01 -0.74739676998E+01  0.15408284627E+02  0.00000000000E+00 0.  1.
         11    1    4    4    0    0  0.13952290377E+03 -0.80592495708E+01 -0.69071331957E+03  0.70471021137E+03  0.00000000000E+00 0. -1.
</event>
<event>
 8    1  0.3528896E-009  0.6309023E+02  0.7561462E-02  0.1385303E+00
          2   -1    0    0  501    0  0.00000000000E+00  0.00000000000E+00  0.40306427866E+03  0.40306427866E+03  0.00000000000E+00 0. -1.
         -2   -1    0    0    0  501 -0.00000000000E+00 -0.00000000000E+00 -0.31535780781E+02  0.31535780781E+02  0.00000000000E+00 0.  1.
         25    2    1    2    0    0  0.40833878557E+00  0.27098321644E+02  0.22482966052E+03  0.25870990952E+03  0.12509178734E+03 0.  0.
         23    2    1    2    0    0 -0.40833878557E+00 -0.27098321644E+02  0.14669883736E+03  0.17589014992E+03  0.93178914881E+02 0.  0.
          5    1    3    3  502    0  0.71976699061E+01  0.32137944652E+02  0.23921523386E+03  0.24150787658E+03  0.41800000000E+01 0.  1.
         -5    1    3    3    0  502 -0.67893311205E+01 -0.50396230087E+01 -0.14385573341E+02  0.17202032947E+02  0.41800000000E+01 0.  1.
        -11    1    4    4    0    0 -0.12555282866E+02  0.26110517388E+02  0.13539294115E+02  0.31979786291E+02  0.00000000000E+00 0.  1.
         11    1    4    4    0    0  0.12146944080E+02 -0.53208839031E+02  0.13315954325E+03  0.14391036363E+03  0.00000000000E+00 0. -1.
</event>
<event>
 8    1  0.3528896E-009  0.9975670E+02  0.7561462E-02  0.1280808E+00
         -1   -1    0    0    0  501 -0.00000000000E+00  0.00000000000E+00  0.17225269718E+02  0.17225269718E+02  0.00000000000E+00 0.  1.
          1   -1    0    0  501    0  0.00000000000E+00 -0.00000000000E+00 -0.89707827189E+03  0.89707827189E+03  0.00000000000E+00 0. -1.
         25    2    1    2    0    0  0.51040659183E+02  0.14789775398E+02 -0.38258630301E+03  0.40600903743E+03  0.12508866006E+03 0.  0.
         23    2    1    2    0    0 -0.51040659183E+02 -0.14789775398E+02 -0.49726669916E+03  0.50829450418E+03  0.90913401314E+02 0.  0.
          5    1    3    3  502    0 -0.20731600454E+02  0.42367421997E+01 -0.58766878186E+01  0.22355247741E+02  0.41800000000E+01 0.  1.
         -5    1    3    3    0  502  0.71772259637E+02  0.10553033198E+02 -0.37670961519E+03  0.38365378969E+03  0.41800000000E+01 0.  1.
        -11    1    4    4    0    0  0.26508514079E+02 -0.10957149217E+01 -0.12058013297E+03  0.12346444985E+03  0.00000000000E+00 0.  1.
         11    1    4    4    0    0 -0.77549173262E+02 -0.13694060476E+02 -0.37668656619E+03  0.38483005433E+03  0.00000000000E+00 0. -1.
</event>
<event>
 8    1  0.3528896E-009  0.2482765E+03  0.7561462E-02  0.1114399E+00
         -2   -1    0    0    0  501 -0.00000000000E+00  0.00000000000E+00  0.16921476204E+03  0.16921476204E+03  0.00000000000E+00 0. -1.
          2   -1    0    0  501    0  0.00000000000E+00 -0.00000000000E+00 -0.56823493748E+03  0.56823493748E+03  0.00000000000E+00 0.  1.
         25    2    1    2    0    0 -0.19629004543E+03  0.14194471615E+03 -0.14680970222E+02  0.27302231516E+03  0.12509024466E+03 0.  0.
         23    2    1    2    0    0  0.19629004543E+03 -0.14194471615E+03 -0.38433920522E+03  0.46442738436E+03  0.96426585019E+02 0.  0.
          5    1    3    3  502    0 -0.10114548865E+03  0.78752565051E+02 -0.69921775737E+02  0.14607841558E+03  0.41800000000E+01 0. -1.
         -5    1    3    3    0  502 -0.95144556783E+02  0.63192151097E+02  0.55240805515E+02  0.12694389958E+03  0.41800000000E+01 0. -1.
        -11    1    4    4    0    0  0.20297271553E+03 -0.13235586210E+03 -0.33334120949E+03  0.41210721836E+03  0.00000000000E+00 0. -1.
         11    1    4    4    0    0 -0.66826701002E+01 -0.95888540448E+01 -0.50997995731E+02  0.52320165999E+02  0.00000000000E+00 0.  1.
</event>
<event>
 8    1  0.3528896E-009  0.1934181E+03  0.7561462E-02  0.1155414E+00
         -2   -1    0    0    0  501 -0.00000000000E+00  0.00000000000E+00  0.53949603146E+02  0.53949603146E+02  0.00000000000E+00 0.  1.
          2   -1    0    0  501    0  0.00000000000E+00 -0.00000000000E+00 -0.11029248761E+04  0.11029248761E+04  0.00000000000E+00 0. -1.
         25    2    1    2    0    0 -0.18419368621E+03 -0.11812493905E+02 -0.81873988275E+03  0.84856031574E+03  0.12511100989E+03 0.  0.
         23    2    1    2    0    0  0.18419368621E+03  0.11812493905E+02 -0.23023539016E+03  0.30831416346E+03  0.89344498744E+02 0.  0.
          5    1    3    3  502    0 -0.23780215873E+02 -0.32309983773E+02 -0.56973222061E+02  0.69805831779E+02  0.41800000000E+01 0.  1.
         -5    1    3    3    0  502 -0.16041347034E+03  0.20497489868E+02 -0.76176666069E+03  0.77875448396E+03  0.41800000000E+01 0.  1.
        -11    1    4    4    0    0  0.79650593519E+02  0.13232389159E+01 -0.35863287758E+02  0.87362139500E+02  0.00000000000E+00 0.  1.
         11    1    4    4    0    0  0.10454309269E+03  0.10489254990E+02 -0.19437210240E+03  0.22095202396E+03  0.00000000000E+00 0. -1.
</event>
<event>
 8    1  0.3528896E-009  0.1607502E+03  0.7561462E-02  0.1187852E+00
         -1   -1    0    0    0  501 -0.00000000000E+00  0.00000000000E+00  0.58863578390E+02  0.58863578390E+02  0.00000000000E+00 0.  1.
          1   -1    0    0  501    0  0.00000000000E+00 -0.00000000000E+00 -0.55398875058E+03  0.55398875058E+03  0.00000000000E+00 0. -1.
         25    2    1    2    0    0 -0.69387943748E+02 -0.11709961348E+03 -0.18437555912E+03  0.26109268522E+03  0.12509211510E+03 0.  0.
         23    2    1    2    0    0  0.69387943748E+02  0.11709961348E+03 -0.31074961307E+03  0.35175964375E+03  0.92965147944E+02 0.  0.
          5    1    3    3  502    0  0.18671452991E+02 -0.90826102278E+02 -0.89417633318E+02  0.12888362798E+03  0.41800000000E+01 0.  1.
         -5    1    3    3    0  502 -0.88059396740E+02 -0.26273511203E+02 -0.94957925800E+02  0.13220905724E+03  0.41800000000E+01 0.  1.
        -11    1    4    4    0    0  0.50868379078E+02  0.74182469770E+02 -0.94295251578E+02  0.13031586734E+03  0.00000000000E+00 0.  1.
         11    1    4    4    0    0  0.18519564671E+02  0.42917143711E+02 -0.21645436150E+03  0.22144377641E+03  0.00000000000E+00 0. -1.
</event>
<event>
 8    1  0.3528896E-009  0.1027708E+03  0.7561462E-02  0.1274575E+00
         -2   -1    0    0    0  501 -0.00000000000E+00  0.00000000000E+00  0.20210807742E+03  0.20210807742E+03  0.00000000000E+00 0.  1.
          2   -1    0    0  501    0  0.00000000000E+00 -0.00000000000E+00 -0.10242150279E+03  0.10242150279E+03  0.00000000000E+00 0. -1.
         25    2    1    2    0    0  0.23710520376E+02 -0.75252227263E+02  0.11505669526E+01  0.14789848155E+03  0.12509016971E+03 0.  0.
         23    2    1    2    0    0 -0.23710520376E+02  0.75252227263E+02  0.98536007678E+02  0.15663109865E+03  0.92730090965E+02 0.  0.
          5    1    3    3  502    0  0.53366638988E+02 -0.24975399041E+02 -0.44271089663E+02  0.73818496964E+02  0.41800000000E+01 0. -1.
         -5    1    3    3    0  502 -0.29656118612E+02 -0.50276828222E+02  0.45421656616E+02  0.74079984590E+02  0.41800000000E+01 0. -1.
        -11    1    4    4    0    0  0.35812043626E+01  0.51924035322E+02  0.10766497557E+03  0.11958543989E+03  0.00000000000E+00 0.  1.
         11    1    4    4    0    0 -0.27291724739E+02  0.23328191941E+02 -0.91289678896E+01  0.37045658763E+02  0.00000000000E+00 0. -1.
</event>
<event>
 8    1  0.3528896E-009  0.1170905E+03  0.7561462E-02  0.1247975E+00
          2   -1    0    0  501    0  0.00000000000E+00  0.00000000000E+00  0.60355784006E+03  0.60355784006E+03  0.00000000000E+00 0.  1.
         -2   -1    0    0    0  501 -0.00000000000E+00 -0.00000000000E+00 -0.31661829186E+02  0.31661829186E+02  0.00000000000E+00 0. -1.
         25    2    1    2    0    0  0.67953210953E+02 -0.44044295847E+02  0.24683377553E+03  0.28832582939E+03  0.12508929719E+03 0.  0.
         23    2    1    2    0    0 -0.67953210953E+02  0.44044295847E+02  0.32506223534E+03  0.34689383986E+03  0.90068531764E+02 0.  0.
          5    1    3    3  502    0 -0.29114438928E+02 -0.42695270800E+02  0.85858021684E+02  0.10029760212E+03  0.41800000000E+01 0.  1.
         -5    1    3    3    0  502  0.97067649882E+02 -0.13490250470E+01  0.16097575385E+03  0.18802822727E+03  0.41800000000E+01 0.  1.
        -11    1    4    4    0    0 -0.47590306981E+02  0.15393096000E+02  0.29895114148E+03  0.30310653196E+03  0.00000000000E+00 0.  1.
         11    1    4    4    0    0 -0.20362903972E+02  0.28651199848E+02  0.26111093859E+02  0.43787307903E+02  0.00000000000E+00 0. -1.
</event>
<event>
 8    1  0.3528896E-009  0.1736553E+03  0.7561462E-02  0.1174089E+00
         -2   -1    0    0    0  501 -0.00000000000E+00  0.00000000000E+00  0.45015719346E+03  0.45015719346E+03  0.00000000000E+00 0.  1.
          2   -1    0    0  501    0  0.00000000000E+00 -0.00000000000E+00 -0.83165764359E+02  0.83165764359E+02  0.00000000000E+00 0. -1.
         25    2    1    2    0    0  0.83660104551E+02 -0.11403865977E+03  0.29592386050E+03  0.35102821983E+03  0.12508417519E+03 0.  0.
         23    2    1    2    0    0 -0.83660104551E+02  0.11403865977E+03  0.71067568595E+02  0.18229473799E+03  0.90426451748E+02 0.  0.
          5    1    3    3  502    0  0.81429976448E+02 -0.13934576852E+03  0.23745794238E+03  0.28714426873E+03  0.41800000000E+01 0. -1.
         -5    1    3    3    0  502  0.22301281031E+01  0.25307108750E+02  0.58465918128E+02  0.63883951092E+02  0.41800000000E+01 0. -1.
        -11    1    4    4    0    0 -0.29043990957E+01  0.66179677160E+02  0.56967149427E+02  0.87369567453E+02  0.00000000000E+00 0.  1.
         11    1    4    4    0    0 -0.80755705455E+02  0.47858982615E+02  0.14100419168E+02  0.94925170535E+02  0.00000000000E+00 0. -1.
</event>
<event>
 8    1  0.3528896E-009  0.1134803E+03  0.7561462E-02  0.1254257E+00
          1   -1    0    0  501    0  0.00000000000E+00  0.00000000000E+00  0.21212469732E+02  0.21212469732E+02  0.00000000000E+00 0. -1.
         -1   -1    0    0    0  501 -0.00000000000E+00 -0.00000000000E+00 -0.63445145342E+03  0.63445145342E+03  0.00000000000E+00 0.  1.
         25    2    1    2    0    0 -0.78731640229E+01 -0.42537694340E+02 -0.38745169725E+03  0.40943567962E+03  0.12508923174E+03 0.  0.
         23    2    1    2    0    0  0.78731640229E+01  0.42537694340E+02 -0.22578728645E+03  0.24622824353E+03  0.88187340597E+02 0.  0.
          5    1    3    3  502    0  0.55320912064E+02 -0.36763433508E+02 -0.23522620664E+03  0.24446020953E+03  0.41800000000E+01 0.  1.
         -5    1    3    3    0  502 -0.63194076087E+02 -0.57742608313E+01 -0.15222549061E+03  0.16497547009E+03  0.41800000000E+01 0.  1.
        -11    1    4    4    0    0  0.47229841815E+02  0.27684033918E+02 -0.10661064570E+03  0.11984528972E+03  0.00000000000E+00 0. -1.
         11    1    4    4    0    0 -0.39356677792E+02  0.14853660422E+02 -0.11917664074E+03  0.12638295381E+03  0.00000000000E+00 0.  1.
</event>
<event>
 8    1  0.3528896E-009  0.1097108E+03  0.7561462E-02  0.1261106E+00
          1   -1    0    0  501    0  0.00000000000E+00  0.00000000000E+00  0.63493103822E+03  0.63493103822E+03  0.00000000000E+00 0. -1.
         -1   -1    0    0    0  501 -0.00000000000E+00 -0.00000000000E+00 -0.21341476593E+02  0.21341476593E+02  0.00000000000E+00 0.  1.
         25    2    1    2    0    0  0.13166165651E+02  0.40955990508E+02  0.36958097195E+03  0.39254036228E+03  0.12508836923E+03 0.  0.
         23    2    1    2    0    0 -0.13166165651E+02 -0.40955990508E+02  0.24400858968E+03  0.26373215253E+03  0.90353280885E+02 0.  0.
          5    1    3    3  502    0  0.33967284618E+02  0.76085446841E+02  0.17756369794E+03  0.19618641867E+03  0.41800000000E+01 0.  1.
         -5    1    3    3    0  502 -0.20801118968E+02 -0.35129456334E+02  0.19201727401E+03  0.19635394361E+03  0.41800000000E+01 0.  1.
        -11    1    4    4    0    0  0.23906592540E+01  0.26053248625E+02  0.11035665126E+03  0.11341550817E+03  0.00000000000E+00 0. -1.
         11    1    4    4    0    0 -0.15556824905E+02 -0.67009239133E+02  0.13365193841E+03  0.15031664436E+03  0.00000000000E+00 0.  1.
</event>
<event>
 8    1  0.3528896E-009  0.9237639E+02  0.7561462E-02  0.1297197E+00
         -1   -1    0    0    0  501 -0.00000000000E+00  0.00000000000E+00  0.48905161793E+02  0.48905161793E+02  0.00000000000E+00 0.  1.
          1   -1    0    0  501    0  0.00000000000E+00 -0.00000000000E+00 -0.28431583672E+03  0.28431583672E+03  0.00000000000E+00 0. -1.
         25    2    1    2    0    0  0.39911407005E+02  0.22390996974E+02 -0.12848709048E+03  0.18506973024E+03  0.12509034925E+03 0.  0.
         23    2    1    2    0    0 -0.39911407005E+02 -0.22390996974E+02 -0.10692358444E+03  0.14815126827E+03  0.91770737303E+02 0.  0.
          5    1    3    3  502    0 -0.13712954373E+02 -0.33701137495E+02 -0.92386072281E+02  0.99380433374E+02  0.41800000000E+01 0.  1.
         -5    1    3    3    0  502  0.53624361378E+02  0.56092134469E+02 -0.36101018200E+02  0.85689296867E+02  0.41800000000E+01 0.  1.
        -11    1    4    4    0    0 -0.24703389201E+02 -0.40084103808E+02 -0.95785140955E+01  0.48049357419E+02  0.00000000000E+00 0.  1.
         11    1    4    4    0    0 -0.15208017803E+02  0.17693106834E+02 -0.97345070348E+02  0.10010191085E+03  0.00000000000E+00 0. -1.
</event>
<event>
 8    1  0.3528896E-009  0.1353952E+03  0.7561462E-02  0.1219663E+00
         -1   -1    0    0    0  501 -0.00000000000E+00  0.00000000000E+00  0.83906383469E+02  0.83906383469E+02  0.00000000000E+00 0.  1.
          1   -1    0    0  501    0  0.00000000000E+00 -0.00000000000E+00 -0.29966212264E+03  0.29966212264E+03  0.00000000000E+00 0. -1.
         25    2    1    2    0    0  0.10539775625E+03 -0.36022236190E+02 -0.83985524093E+02  0.18737478402E+03  0.12509777339E+03 0.  0.
         23    2    1    2    0    0 -0.10539775625E+03  0.36022236190E+02 -0.13177021508E+03  0.19619372209E+03  0.93393246448E+02 0.  0.
          5    1    3    3  502    0  0.10231317181E+03 -0.47898847408E+02 -0.11377525669E+02  0.11361868332E+03  0.41800000000E+01 0.  1.
         -5    1    3    3    0  502  0.30845844390E+01  0.11876611218E+02 -0.72607998423E+02  0.73756100698E+02  0.41800000000E+01 0.  1.
        -11    1    4    4    0    0 -0.10051339021E+03  0.62165536531E+02 -0.10045406366E+03  0.15510807345E+03  0.00000000000E+00 0.  1.
         11    1    4    4    0    0 -0.48843660417E+01 -0.26143300341E+02 -0.31316151417E+02  0.41085648637E+02  0.00000000000E+00 0. -1.
</event>
<event>
 8    1  0.3528896E-009  0.1652650E+03  0.7561462E-02  0.1182878E+00
         -2   -1    0    0    0  501 -0.00000000000E+00  0.00000000000E+00  0.10378660482E+03  0.10378660482E+03  0.00000000000E+00 0.  1.
          2   -1    0    0  501    0  0.00000000000E+00 -0.00000000000E+00 -0.31422029029E+03  0.31422029029E+03  0.00000000000E+00 0. -1.
         25    2    1    2    0    0 -0.59800894459E+02  0.11306196863E+03 -0.35944242292E+02  0.18247794175E+03  0.12508818866E+03 0.  0.
         23    2    1    2    0    0  0.59800894459E+02 -0.11306196863E+03 -0.17448944317E+03  0.23552895337E+03  0.93102987963E+02 0.  0.
          5    1    3    3  502    0 -0.19860623061E+02  0.12878146438E+03 -0.70375936942E+01  0.13056075230E+03  0.41800000000E+01 0.  1.
         -5    1    3    3    0  502 -0.39940271398E+02 -0.15719495758E+02 -0.28906648598E+02  0.51917189440E+02  0.41800000000E+01 0.  1.
        -11    1    4    4    0    0  0.49657227288E+02 -0.12895153125E+03 -0.16194077668E+03  0.21288295560E+03  0.00000000000E+00 0. -1.
         11    1    4    4    0    0  0.10143667171E+02  0.15889562625E+02 -0.12548666496E+02  0.22645997768E+02  0.00000000000E+00 0.  1.
</event>
<event>
 8    1  0.3528896E-009  0.3830981E+03  0.7561462E-02  0.1049795E+00
          1   -1    0    0  501    0  0.00000000000E+00  0.00000000000E+00  0.78274039838E+03  0.78274039838E+03  0.00000000000E+00 0. -1.
         -1   -1    0    0    0  501 -0.00000000000E+00 -0.00000000000E+00 -0.19411179696E+03  0.19411179696E+03  0.00000000000E+00 0.  1.
         25    2    1    2    0    0 -0.11038601121E+03 -0.35765820136E+03  0.29285581723E+03  0.49144350389E+03  0.12509087642E+03 0.  0.
         23    2    1    2    0    0  0.11038601121E+03  0.35765820136E+03  0.29577278420E+03  0.48540869145E+03  0.89641493694E+02 0.  0.
          5    1    3    3  502    0 -0.84266188323E+02 -0.13435546224E+03  0.65402768495E+02  0.17160179269E+03  0.41800000000E+01 0. -1.
         -5    1    3    3    0  502 -0.26119822884E+02 -0.22330273912E+03  0.22745304873E+03  0.31984171120E+03  0.41800000000E+01 0. -1.
        -11    1    4    4    0    0  0.40483483875E+02  0.25678307732E+03  0.17606269522E+03  0.31396581648E+03  0.00000000000E+00 0. -1.
         11    1    4    4    0    0  0.69902527331E+02  0.10087512404E+03  0.11971008897E+03  0.17144287497E+03  0.00000000000E+00 0.  1.
</event>
<event>
 8    1  0.3528896E-009  0.1076443E+03  0.7561462E-02  0.1264996E+00
         -1   -1    0    0    0  501 -0.00000000000E+00  0.00000000000E+00  0.21384047485E+02  0.21384047485E+02  0.00000000000E+00 0.  1.
          1   -1    0    0  501    0  0.00000000000E+00 -0.00000000000E+00 -0.14052333715E+04  0.14052333715E+04  0.00000000000E+00 0. -1.
         25    2    1    2    0    0  0.10042051856E+03 -0.69720234914E+01 -0.11012015251E+04  0.11128456195E+04  0.12509070377E+03 0.  0.
         23    2    1    2    0    0 -0.10042051856E+03  0.69720234914E+01 -0.28264779887E+03  0.31377179950E+03  0.91815436048E+02 0.  0.
          5    1    3    3  502    0  0.87390869205E+01  0.16179470061E+02 -0.19924165861E+02  0.27433404399E+02  0.41800000000E+01 0.  1.
         -5    1    3    3    0  502  0.91681431636E+02 -0.23151493553E+02 -0.10812773593E+04  0.10854122151E+04  0.41800000000E+01 0.  1.
        -11    1    4    4    0    0 -0.68450932992E+02  0.11757056740E+02 -0.27044293386E+03  0.27921880145E+03  0.00000000000E+00 0. -1.
         11    1    4    4    0    0 -0.31969585564E+02 -0.47850332484E+01 -0.12204865018E+02  0.34552998053E+02  0.00000000000E+00 0.  1.
</event>
<event>
 8    1  0.3528896E-009  0.9397699E+02  0.7561462E-02  0.1293497E+00
         -2   -1    0    0    0  501 -0.00000000000E+00  0.00000000000E+00  0.11270737469E+03  0.11270737469E+03  0.00000000000E+00 0.  1.
          2   -1    0    0  501    0  0.00000000000E+00 -0.00000000000E+00 -0.13344437183E+03  0.13344437183E+03  0.00000000000E+00 0. -1.
         25    2    1    2    0    0 -0.17515401029E+02 -0.29169291225E+02  0.31201836999E+02  0.13333700822E+03  0.12509023266E+03 0.  0.
         23    2    1    2    0    0  0.17515401029E+02  0.29169291225E+02 -0.51938834134E+02  0.11281473829E+03  0.94190688823E+02 0.  0.
          5    1    3    3  502    0  0.37533670145E+02  0.24831993459E+02  0.33204548231E+02  0.56084032639E+02  0.41800000000E+01 0.  1.
         -5    1    3    3    0  502 -0.55049071174E+02 -0.54001284684E+02 -0.20027112327E+01  0.77252975586E+02  0.41800000000E+01 0.  1.
        -11    1    4    4    0    0  0.76026848224E+01  0.45659692582E+02 -0.71629655443E+02  0.85284323777E+02  0.00000000000E+00 0. -1.
         11    1    4    4    0    0  0.99127162061E+01 -0.16490401357E+02  0.19690821310E+02  0.27530414515E+02  0.00000000000E+00 0.  1.
</event>
<event>
 8    1  0.3528896E-009  0.1352595E+03  0.7561462E-02  0.1219854E+00
          2   -1    0    0  501    0  0.00000000000E+00  0.00000000000E+00  0.12522565379E+03  0.12522565379E+03  0.00000000000E+00 0. -1.
         -2   -1    0    0    0  501 -0.00000000000E+00 -0.00000000000E+00 -0.19200198312E+03  0.19200198312E+03  0.00000000000E+00 0.  1.
         25    2    1    2    0    0 -0.41128532060E+02  0.88238095930E+02 -0.86237820978E+02  0.18044733427E+03  0.12508701354E+03 0.  0.
         23    2    1    2    0    0  0.41128532060E+02 -0.88238095930E+02  0.19461491642E+02  0.13678030264E+03  0.94088170401E+02 0.  0.
          5    1    3    3  502    0 -0.14425383281E+02 -0.30229765466E+02 -0.46218896038E+01  0.34069996573E+02  0.41800000000E+01 0.  1.
         -5    1    3    3    0  502 -0.26703148779E+02  0.11846786140E+03 -0.81615931374E+02  0.14637733770E+03  0.41800000000E+01 0.  1.
        -11    1    4    4    0    0  0.57074515688E+02 -0.59915033410E+02 -0.20518919971E+02  0.85254546192E+02  0.00000000000E+00 0.  1.
         11    1    4    4    0    0 -0.15945983628E+02 -0.28323062520E+02  0.39980411613E+02  0.51525756444E+02  0.00000000000E+00 0. -1.
</event>
<event>
 8    1  0.3528896E-009  0.2018760E+03  0.7561462E-02  0.1148166E+00
         -1   -1    0    0    0  501 -0.00000000000E+00  0.00000000000E+00  0.32657800525E+03  0.32657800525E+03  0.00000000000E+00 0.  1.
          1   -1    0    0  501    0  0.00000000000E+00 -0.00000000000E+00 -0.14616826933E+03  0.14616826933E+03  0.00000000000E+00 0. -1.
         25    2    1    2    0    0 -0.42771768772E+02 -0.17978786835E+03  0.49548135907E+02  0.22861116697E+03  0.12511972699E+03 0.  0.
         23    2    1    2    0    0  0.42771768772E+02  0.17978786835E+03  0.13086160002E+03  0.24413510761E+03  0.91236454350E+02 0.  0.
          5    1    3    3  502    0  0.12065200323E+02  0.11836661814E+02  0.20901357874E+02  0.27203212728E+02  0.41800000000E+01 0. -1.
         -5    1    3    3    0  502 -0.54836969096E+02 -0.19162453016E+03  0.28646778032E+02  0.20140795424E+03  0.41800000000E+01 0. -1.
        -11    1    4    4    0    0  0.18692764802E+02  0.13351949165E+03  0.42204962923E+02  0.14127325650E+03  0.00000000000E+00 0. -1.
         11    1    4    4    0    0  0.24079003970E+02  0.46268376697E+02  0.88656637092E+02  0.10286185112E+03  0.00000000000E+00 0.  1.
</event>
<event>
 8    1  0.3528896E-009  0.1062043E+03  0.7561462E-02  0.1267765E+00
          4   -1    0    0  501    0  0.00000000000E+00  0.00000000000E+00  0.13512216483E+03  0.13512216483E+03  0.00000000000E+00 0. -1.
         -4   -1    0    0    0  501 -0.00000000000E+00 -0.00000000000E+00 -0.13293955648E+03  0.13293955648E+03  0.00000000000E+00 0.  1.
         25    2    1    2    0    0  0.60011221628E+02  0.14474343013E+02 -0.47982198883E+02  0.14751409557E+03  0.12508902292E+03 0.  0.
         23    2    1    2    0    0 -0.60011221628E+02 -0.14474343013E+02  0.50164807233E+02  0.12054762574E+03  0.90577971158E+02 0.  0.
          5    1    3    3  502    0 -0.36900994525E+02 -0.11842793654E+02 -0.12916471222E+02  0.41063886656E+02  0.41800000000E+01 0.  1.
         -5    1    3    3    0  502  0.96912216152E+02  0.26317136668E+02 -0.35065727661E+02  0.10645020892E+03  0.41800000000E+01 0.  1.
        -11    1    4    4    0    0 -0.56462117778E+02 -0.25046528938E+02 -0.71293783368E+01  0.62178190640E+02  0.00000000000E+00 0.  1.
         11    1    4    4    0    0 -0.35491038498E+01  0.10572185925E+02  0.57294185570E+02  0.58369435096E+02  0.00000000000E+00 0. -1.
</event>
<event>
 8    1  0.3528896E-009  0.8952346E+02  0.7561462E-02  0.1304010E+00
          2   -1    0    0  501    0  0.00000000000E+00  0.00000000000E+00  0.14824108611E+03  0.14824108611E+03  0.00000000000E+00 0. -1.
         -2   -1    0    0    0  501 -0.00000000000E+00 -0.00000000000E+00 -0.98404920383E+02  0.98404920383E+02  0.00000000000E+00 0.  1.
         25    2    1    2    0    0  0.47275033095E+02 -0.20539579518E+02  0.46269418387E+02  0.14298549878E+03  0.12508873132E+03 0.  0.
         23    2    1    2    0    0 -0.47275033095E+02  0.20539579518E+02  0.35667473363E+01  0.10366050771E+03  0.89866434731E+02 0.  0.
          5    1    3    3  502    0  0.74457189941E+02  0.41268375289E+01  0.67247646471E+02  0.10050185211E+03  0.41800000000E+01 0.  1.
         -5    1    3    3    0  502 -0.27182156846E+02 -0.24666417047E+02 -0.20978228084E+02  0.42483646669E+02  0.41800000000E+01 0.  1.
        -11    1    4    4    0    0 -0.19228540235E+01 -0.11645704762E+02 -0.34370502860E+02  0.36340766006E+02  0.00000000000E+00 0.  1.
         11    1    4    4    0    0 -0.45352179071E+02  0.32185284280E+02  0.37937250197E+02  0.67319741705E+02  0.00000000000E+00 0. -1.
</event>
<event>
 8    1  0.3528896E-009  0.9924681E+02  0.7561462E-02  0.1281888E+00
         -1   -1    0    0    0  501 -0.00000000000E+00  0.00000000000E+00  0.22100189630E+02  0.22100189630E+02  0.00000000000E+00 0.  1.
          1   -1    0    0  501    0  0.00000000000E+00 -0.00000000000E+00 -0.67594226065E+03  0.67594226065E+03  0.00000000000E+00 0. -1.
         25    2    1    2    0    0  0.15541074271E+02  0.52710748879E+02 -0.40110438708E+03  0.42373603898E+03  0.12509018091E+03 0.  0.
         23    2    1    2    0    0 -0.15541074271E+02 -0.52710748879E+02 -0.25273768394E+03  0.27430641130E+03  0.91365870867E+02 0.  0.
          5    1    3    3  502    0 -0.38141588597E+02  0.10868944499E+01 -0.41721116083E+02  0.56692910028E+02  0.41800000000E+01 0. -1.
         -5    1    3    3    0  502  0.53682662868E+02  0.51623854429E+02 -0.35938327100E+03  0.36704312895E+03  0.41800000000E+01 0. -1.
        -11    1    4    4    0    0 -0.38452944710E+02 -0.14770591036E+02 -0.41513357844E+02  0.58482118600E+02  0.00000000000E+00 0.  1.
         11    1    4    4    0    0  0.22911870439E+02 -0.37940157842E+02 -0.21122432610E+03  0.21582429270E+03  0.00000000000E+00 0. -1.
</event>
<event>
 8    1  0.3528896E-009  0.9206840E+02  0.7561462E-02  0.1297919E+00
         -1   -1    0    0    0  501 -0.00000000000E+00  0.00000000000E+00  0.98484720758E+02  0.98484720758E+02  0.00000000000E+00 0.  1.
          1   -1    0    0  501    0  0.00000000000E+00 -0.00000000000E+00 -0.16074704458E+03  0.16074704458E+03  0.00000000000E+00 0. -1.
         25    2    1    2    0    0  0.29881353591E+02  0.23336392067E+02  0.18572619466E+02  0.13202307468E+03  0.12509063741E+03 0.  0.
         23    2    1    2    0    0 -0.29881353591E+02 -0.23336392067E+02 -0.80834943287E+02  0.12720869065E+03  0.90610597805E+02 0.  0.
          5    1    3    3  502    0 -0.35300353864E+02  0.44896866059E+02  0.25903327897E+02  0.62851399038E+02  0.41800000000E+01 0.  1.
         -5    1    3    3    0  502  0.65181707455E+02 -0.21560473992E+02 -0.73307084315E+01  0.69171675646E+02  0.41800000000E+01 0.  1.
        -11    1    4    4    0    0 -0.33712757742E+02  0.72923061859E+00  0.83627396867E+01  0.34742153459E+02  0.00000000000E+00 0.  1.
         11    1    4    4    0    0  0.38314041507E+01 -0.24065622685E+02 -0.89197682974E+02  0.92466537195E+02  0.00000000000E+00 0. -1.
</event>
<event>
 8    1  0.3528896E-009  0.9174052E+02  0.7561462E-02  0.1298691E+00
         -1   -1    0    0    0  501 -0.00000000000E+00  0.00000000000E+00  0.15520459862E+03  0.15520459862E+03  0.00000000000E+00 0.  1.
          1   -1    0    0  501    0  0.00000000000E+00 -0.00000000000E+00 -0.90818045803E+02  0.90818045803E+02  0.00000000000E+00 0. -1.
         25    2    1    2    0    0  0.29627495353E+02 -0.34322034658E+02  0.21208319420E+02  0.13473409594E+03  0.12509074008E+03 0.  0.
         23    2    1    2    0    0 -0.29627495353E+02  0.34322034658E+02  0.43178233397E+02  0.11128854848E+03  0.92005383752E+02 0.  0.
          5    1    3    3  502    0 -0.29608484227E+02 -0.44849267039E+02 -0.24353033711E+02  0.59149486415E+02  0.41800000000E+01 0.  1.
         -5    1    3    3    0  502  0.59235979580E+02  0.10527232381E+02  0.45561353131E+02  0.75584609528E+02  0.41800000000E+01 0.  1.
        -11    1    4    4    0    0  0.14952252109E+02  0.13168658525E+02  0.56722052042E+02  0.60119668981E+02  0.00000000000E+00 0.  1.
         11    1    4    4    0    0 -0.44579747462E+02  0.21153376133E+02 -0.13543818646E+02  0.51168879499E+02  0.00000000000E+00 0. -1.
</event>
<event>
 7    1  0.3528896E-009  0.1415800E+03  0.7561462E-02  0.1211219E+00
          1   -1    0    0  501    0  0.00000000000E+00  0.00000000000E+00  0.28212426996E+02  0.28212426996E+02  0.00000000000E+00 0. -1.
         -1   -1    0    0    0  501 -0.00000000000E+00 -0.00000000000E+00 -0.80840898455E+03  0.80840898455E+03  0.00000000000E+00 0.  1.
         25    2    1    2    0    0 -0.67846487418E+02 -0.23605773796E+02 -0.47673348647E+03  0.49807871186E+03  0.12508879916E+03 0.  0.
          5    1    3    3  502    0  0.88415425629E+01 -0.51203299145E+02 -0.10185170023E+03  0.11441674685E+03  0.41800000000E+01 0. -1.
         -5    1    3    3    0  502 -0.76688029981E+02  0.27597525349E+02 -0.37488178623E+03  0.38366196501E+03  0.41800000000E+01 0. -1.
        -11    1    1    2    0    0  0.10742321887E+03  0.22906750306E+02 -0.20855257031E+03  0.23570880710E+03  0.00000000000E+00 0.  1.
         11    1    1    2    0    0 -0.39576731456E+02  0.69902348984E+00 -0.94910500780E+02  0.10283389259E+03  0.00000000000E+00 0. -1.
</event>
<event>
 8    1  0.3528896E-009  0.1176256E+03  0.7561462E-02  0.1247066E+00
         -2   -1    0    0    0  501 -0.00000000000E+00  0.00000000000E+00  0.93620658736E+02  0.93620658736E+02  0.00000000000E+00 0.  1.
          2   -1    0    0  501    0  0.00000000000E+00 -0.00000000000E+00 -0.23771690688E+03  0.23771690688E+03  0.00000000000E+00 0. -1.
         25    2    1    2    0    0  0.46846935056E+02 -0.88489586621E+02 -0.10661161133E+03  0.19244632757E+03  0.12507801989E+03 0.  0.
         23    2    1    2    0    0 -0.46846935056E+02  0.88489586621E+02 -0.37484636814E+02  0.13889123805E+03  0.88660226401E+02 0.  0.
          5    1    3    3  502    0 -0.15274096227E+02 -0.37490341294E+02  0.17680464096E+02  0.44372231368E+02  0.41800000000E+01 0. -1.
         -5    1    3    3    0  502  0.62121031283E+02 -0.50999245327E+02 -0.12429207543E+03  0.14807409620E+03  0.41800000000E+01 0. -1.
        -11    1    4    4    0    0  0.53931978998E+01  0.47137735083E+02 -0.52325029653E+02  0.70632580163E+02  0.00000000000E+00 0. -1.
         11    1    4    4    0    0 -0.52240132956E+02  0.41351851538E+02  0.14840392839E+02  0.68258657887E+02  0.00000000000E+00 0.  1.
</event>
<event>
 8    1  0.3528896E-009  0.1104798E+03  0.7561462E-02  0.1259684E+00
          2   -1    0    0  501    0  0.00000000000E+00  0.00000000000E+00  0.24649563853E+03  0.24649563853E+03  0.00000000000E+00 0. -1.
         -2   -1    0    0    0  501 -0.00000000000E+00 -0.00000000000E+00 -0.74564842653E+02  0.74564842653E+02  0.00000000000E+00 0.  1.
         25    2    1    2    0    0  0.45506824169E+02  0.23050689934E+02  0.15848103372E+03  0.20825033029E+03  0.12509898746E+03 0.  0.
         23    2    1    2    0    0 -0.45506824169E+02 -0.23050689934E+02  0.13449762160E+02  0.11281015090E+03  0.99714736580E+02 0.  0.
          5    1    3    3  502    0 -0.18483468472E+02 -0.38917141052E+02  0.72111947273E+02  0.84105813199E+02  0.41800000000E+01 0.  1.
         -5    1    3    3    0  502  0.63990292641E+02  0.61967830986E+02  0.86369086446E+02  0.12414451709E+03  0.41800000000E+01 0.  1.
        -11    1    4    4    0    0 -0.36227675142E+02  0.22078534661E+02 -0.28002923081E+02  0.50833747059E+02  0.00000000000E+00 0.  1.
         11    1    4    4    0    0 -0.92791490270E+01 -0.45129224595E+02  0.41452685242E+02  0.61976403840E+02  0.00000000000E+00 0. -1.
</event>
<event>
 8    1  0.3528896E-009  0.1006136E+03  0.7561462E-02  0.1279011E+00
         -2   -1    0    0    0  501 -0.00000000000E+00  0.00000000000E+00  0.70119472119E+02  0.70119472119E+02  0.00000000000E+00 0.  1.
          2   -1    0    0  501    0  0.00000000000E+00 -0.00000000000E+00 -0.23534856581E+03  0.23534856581E+03  0.00000000000E+00 0. -1.
         25    2    1    2    0    0 -0.25998161176E+02 -0.61594183186E+02 -0.10479864859E+03  0.17636310764E+03  0.12510572011E+03 0.  0.
         23    2    1    2    0    0  0.25998161176E+02  0.61594183186E+02 -0.60430445101E+02  0.12910493029E+03  0.92447263578E+02 0.  0.
          5    1    3    3  502    0  0.77514388071E+01 -0.52131435364E+02  0.12111920744E+02  0.54239675338E+02  0.41800000000E+01 0. -1.
         -5    1    3    3    0  502 -0.33749599983E+02 -0.94627478219E+01 -0.11691056933E+03  0.12212343230E+03  0.41800000000E+01 0. -1.
        -11    1    4    4    0    0  0.50650825416E+02  0.44781138544E+01 -0.35849415089E+02  0.62215272894E+02  0.00000000000E+00 0.  1.
         11    1    4    4    0    0 -0.24652664240E+02  0.57116069331E+02 -0.24581030011E+02  0.66889657395E+02  0.00000000000E+00 0. -1.
</event>
<event>
 7    1  0.3528896E-009  0.1158264E+03  0.7561462E-02  0.1250145E+00
          2   -1    0    0  501    0  0.00000000000E+00  0.00000000000E+00  0.12507158217E+04  0.12507158217E+04  0.00000000000E+00 0. -1.
         -2   -1    0    0    0  501 -0.00000000000E+00 -0.00000000000E+00 -0.19894198593E+02  0.19894198593E+02  0.00000000000E+00 0.  1.
         23    2    1    2    0    0 -0.70556753600E+02  0.64587084889E+02  0.24787791713E+03  0.27519772439E+03  0.71697829085E+02 0.  0.
          5    1    1    2  502    0  0.72875875882E+02 -0.18481999349E+02  0.25222706980E+03  0.26322698327E+03  0.41800000000E+01 0. -1.
         -5    1    1    2    0  502 -0.23191222819E+01 -0.46105085539E+02  0.73071663622E+03  0.73218531267E+03  0.41800000000E+01 0. -1.
        -11    1    3    3    0    0 -0.78387713041E+02  0.48685720899E+02  0.23717135966E+03  0.25449005250E+03  0.00000000000E+00 0. -1.
         11    1    3    3    0    0  0.78309594413E+01  0.15901363990E+02  0.10706557471E+02  0.20707671897E+02  0.00000000000E+00 0.  1.
</event>
<event>
 8    1  0.3528896E-009  0.1017143E+03  0.7561462E-02  0.1276732E+00
         -1   -1    0    0    0  501 -0.00000000000E+00  0.00000000000E+00  0.25444385661E+03  0.25444385661E+03  0.00000000000E+00 0.  1.
          1   -1    0    0  501    0  0.00000000000E+00 -0.00000000000E+00 -0.52415657243E+02  0.52415657243E+02  0.00000000000E+00 0. -1.
         25    2    1    2    0    0 -0.16022852811E+02  0.33270449795E+02  0.89528160310E+02  0.15819811677E+03  0.12509075912E+03 0.  0.
         23    2    1    2    0    0  0.16022852811E+02 -0.33270449795E+02  0.11250003906E+03  0.14866139709E+03  0.89890475329E+02 0.  0.
          5    1    3    3  502    0 -0.10055910306E+02 -0.36635216518E+02 -0.69370161259E+01  0.38843982985E+02  0.41800000000E+01 0. -1.
         -5    1    3    3    0  502 -0.59669425055E+01  0.69905666314E+02  0.96465176435E+02  0.11935413378E+03  0.41800000000E+01 0. -1.
        -11    1    4    4    0    0 -0.34478165384E+02 -0.27486265091E+02  0.36558245246E+02  0.57277778871E+02  0.00000000000E+00 0. -1.
         11    1    4    4    0    0  0.50501018195E+02 -0.57841847044E+01  0.75941793815E+02  0.91383618222E+02  0.00000000000E+00 0.  1.
</event>
<event>
 8    1  0.3528896E-009  0.1192931E+03  0.7561462E-02  0.1244268E+00
          2   -1    0    0  501    0  0.00000000000E+00  0.00000000000E+00  0.56209909621E+03  0.56209909621E+03  0.00000000000E+00 0. -1.
         -2   -1    0    0    0  501 -0.00000000000E+00 -0.00000000000E+00 -0.40258566122E+02  0.40258566122E+02  0.00000000000E+00 0.  1.
         25    2    1    2    0    0 -0.58407102348E+02  0.31700745480E+02  0.12234992690E+03  0.18717253081E+03  0.12509086622E+03 0.  0.
         23    2    1    2    0    0  0.58407102348E+02 -0.31700745480E+02  0.39949060319E+03  0.41518513151E+03  0.91485652032E+02 0.  0.
          5    1    3    3  502    0  0.37844208748E+02  0.11251632641E+02  0.17708986075E+02  0.43472565610E+02  0.41800000000E+01 0.  1.
         -5    1    3    3    0  502 -0.96251311097E+02  0.20449112838E+02  0.10464094082E+03  0.14369996521E+03  0.41800000000E+01 0.  1.
        -11    1    4    4    0    0 -0.14729170793E+01 -0.39926254715E+02  0.73678721801E+02  0.83814255032E+02  0.00000000000E+00 0.  1.
         11    1    4    4    0    0  0.59880019427E+02  0.82255092358E+01  0.32581188139E+03  0.33137087648E+03  0.00000000000E+00 0. -1.
</event>
<event>
 8    1  0.3528896E-009  0.1186112E+03  0.7561462E-02  0.1245406E+00
         -3   -1    0    0    0  501 -0.00000000000E+00  0.00000000000E+00  0.26814107900E+03  0.26814107900E+03  0.00000000000E+00 0.  1.
          3   -1    0    0  501    0  0.00000000000E+00 -0.00000000000E+00 -0.62676441895E+02  0.62676441895E+02  0.00000000000E+00 0. -1.
         25    2    1    2    0    0 -0.74924008789E+02  0.17190886556E+02  0.10898041457E+03  0.18284844642E+03  0.12509072677E+03 0.  0.
         23    2    1    2    0    0  0.74924008789E+02 -0.17190886556E+02  0.96484222538E+02  0.14796907448E+03  0.81709902272E+02 0.  0.
          5    1    3    3  502    0  0.22990237930E+02  0.27385236162E+02  0.66354995753E+02  0.75491456875E+02  0.41800000000E+01 0.  1.
         -5    1    3    3    0  502 -0.97914246720E+02 -0.10194349606E+02  0.42625418815E+02  0.10735698954E+03  0.41800000000E+01 0.  1.
        -11    1    4    4    0    0 -0.31492093394E+01  0.17122444930E+02 -0.21922784228E+01  0.17547128669E+02  0.00000000000E+00 0. -1.
         11    1    4    4    0    0  0.78073218129E+02 -0.34313331486E+02  0.98676500961E+02  0.13042194581E+03  0.00000000000E+00 0.  1.
</event>
<event>
 8    1  0.3528896E-009  0.1260423E+03  0.7561462E-02  0.1233449E+00
          2   -1    0    0  501    0  0.00000000000E+00  0.00000000000E+00  0.60801007678E+02  0.60801007678E+02  0.00000000000E+00 0. -1.
         -2   -1    0    0    0  501 -0.00000000000E+00 -0.00000000000E+00 -0.31578954803E+03  0.31578954803E+03  0.00000000000E+00 0.  1.
         25    2    1    2    0    0 -0.80033097326E+02  0.20715745228E+02 -0.15776568186E+03  0.21764947669E+03  0.12508735172E+03 0.  0.
         23    2    1    2    0    0  0.80033097326E+02 -0.20715745228E+02 -0.97222858485E+02  0.15894107902E+03  0.94739345679E+02 0.  0.
          5    1    3    3  502    0 -0.12909471439E+02  0.65539601066E+02 -0.90114990481E+02  0.11225095844E+03  0.41800000000E+01 0. -1.
         -5    1    3    3    0  502 -0.67123625886E+02 -0.44823855838E+02 -0.67650691384E+02  0.10539851825E+03  0.41800000000E+01 0. -1.
        -11    1    4    4    0    0  0.39469912216E+02 -0.42739113793E+02 -0.96617877690E+02  0.11278084991E+03  0.00000000000E+00 0.  1.
         11    1    4    4    0    0  0.40563185110E+02  0.22023368565E+02 -0.60498079532E+00  0.46160229104E+02  0.00000000000E+00 0. -1.
</event>
<event>
 8    1  0.3528896E-009  0.2516427E+03  0.7561462E-02  0.1112271E+00
         -2   -1    0    0    0  501 -0.00000000000E+00  0.00000000000E+00  0.11587634625E+03  0.11587634625E+03  0.00000000000E+00 0.  1.
          2   -1    0    0  501    0  0.00000000000E+00 -0.00000000000E+00 -0.10576632001E+04  0.10576632001E+04  0.00000000000E+00 0. -1.
         25    2    1    2    0    0  0.23305040911E+03 -0.52322051725E+02 -0.86442811443E+03  0.90549958089E+03  0.12507372100E+03 0.  0.
         23    2    1    2    0    0 -0.23305040911E+03  0.52322051725E+02 -0.77358739406E+02  0.26803996545E+03  0.93866704603E+02 0.  0.
          5    1    3    3  502    0  0.86171656214E+02  0.31480971826E+02 -0.20340909279E+03  0.22318005590E+03  0.41800000000E+01 0. -1.
         -5    1    3    3    0  502  0.14687875290E+03 -0.83803023551E+02 -0.66101902164E+03  0.68231952499E+03  0.41800000000E+01 0. -1.
        -11    1    4    4    0    0 -0.12743319903E+02  0.13547001894E+02  0.17058402576E+02  0.25236928516E+02  0.00000000000E+00 0.  1.
         11    1    4    4    0    0 -0.22030708921E+03  0.38775049831E+02 -0.94417141983E+02  0.24280303694E+03  0.00000000000E+00 0. -1.
</event>
<event>
 8    1  0.3528896E-009  0.1831757E+03  0.7561462E-02  0.1164765E+00
          1   -1    0    0  501    0  0.00000000000E+00  0.00000000000E+00  0.88074669766E+02  0.88074669766E+02  0.00000000000E+00 0. -1.
         -1   -1    0    0    0  501 -0.00000000000E+00 -0.00000000000E+00 -0.42629733620E+03  0.42629733620E+03  0.00000000000E+00 0.  1.
         25    2    1    2    0    0 -0.26876077103E+02 -0.15565563004E+03 -0.20461406737E+03  0.28716642570E+03  0.12508653325E+03 0.  0.
         23    2    1    2    0    0  0.26876077103E+02  0.15565563004E+03 -0.13360859906E+03  0.22720558026E+03  0.93915490079E+02 0.  0.
          5    1    3    3  502    0 -0.65268927060E+02 -0.37354485750E+02 -0.95757297473E+02  0.12182907233E+03  0.41800000000E+01 0.  1.
         -5    1    3    3    0  502  0.38392849957E+02 -0.11830114429E+03 -0.10885676990E+03  0.16533735337E+03  0.41800000000E+01 0.  1.
        -11    1    4    4    0    0  0.27775223718E+02  0.29830901850E+02  0.37431477889E+01  0.40931124015E+02  0.00000000000E+00 0. -1.
         11    1    4    4    0    0 -0.89914661508E+00  0.12582472819E+03 -0.13735174684E+03  0.18627445624E+03  0.00000000000E+00 0.  1.
</event>
<event>
 8    1  0.3528896E-009  0.1811163E+03  0.7561462E-02  0.1166727E+00
          2   -1    0    0  501    0  0.00000000000E+00  0.00000000000E+00  0.76220477494E+03  0.76220477494E+03  0.00000000000E+00 0. -1.
         -2   -1    0    0    0  501 -0.00000000000E+00 -0.00000000000E+00 -0.48370239737E+02  0.48370239737E+02  0.00000000000E+00 0.  1.
         25    2    1    2    0    0 -0.13168544293E+03 -0.89652731613E+02  0.37690044635E+03  0.42787876945E+03  0.12509047417E+03 0.  0.
         23    2    1    2    0    0  0.13168544293E+03  0.89652731613E+02  0.33693408886E+03  0.38269624522E+03  0.86908962200E+02 0.  0.
          5    1    3    3  502    0 -0.76723527977E+02 -0.11748759414E+03  0.24881769365E+03  0.28568785693E+03  0.41800000000E+01 0.  1.
         -5    1    3    3    0  502 -0.54961914950E+02  0.27834862526E+02  0.12808275269E+03  0.14219091253E+03  0.41800000000E+01 0.  1.
        -11    1    4    4    0    0  0.52081107244E+02  0.44987617903E+02  0.60676808441E+02  0.91749673455E+02  0.00000000000E+00 0.  1.
         11    1    4    4    0    0  0.79604335683E+02  0.44665113710E+02  0.27625728041E+03  0.29094657177E+03  0.00000000000E+00 0. -1.
</event>
<event>
 8    1  0.3528896E-009  0.9513379E+02  0.7561462E-02  0.1290875E+00
         -1   -1    0    0    0  501 -0.00000000000E+00  0.00000000000E+00  0.11610379126E+03  0.11610379126E+03  0.00000000000E+00 0.  1.
          1   -1    0    0  501    0  0.00000000000E+00 -0.00000000000E+00 -0.10562936760E+03  0.10562936760E+03  0.00000000000E+00 0. -1.
         25    2    1    2    0    0 -0.13333071217E+02  0.19913480132E+02  0.73276178177E+01  0.12757552041E+03  0.12508997540E+03 0.  0.
         23    2    1    2    0    0  0.13333071217E+02 -0.19913480132E+02  0.31468058399E+01  0.94157638446E+02  0.91002423109E+02 0.  0.
          5    1    3    3  502    0  0.51854881557E+02 -0.48572164309E+01  0.21137270911E+02  0.56362912578E+02  0.41800000000E+01 0.  1.
         -5    1    3    3    0  502 -0.65187952775E+02  0.24770696562E+02 -0.13809653093E+02  0.71212607828E+02  0.41800000000E+01 0.  1.
        -11    1    4    4    0    0 -0.23288770588E+02 -0.21228286953E+02 -0.30902051606E+02  0.44135516264E+02  0.00000000000E+00 0. -1.
         11    1    4    4    0    0  0.36621841805E+02  0.13148068212E+01  0.34048857446E+02  0.50022122182E+02  0.00000000000E+00 0.  1.
</event>
<event>
 8    1  0.3528896E-009  0.1056325E+03  0.7561462E-02  0.1268878E+00
          1   -1    0    0  501    0  0.00000000000E+00  0.00000000000E+00  0.29204055724E+03  0.29204055724E+03  0.00000000000E+00 0. -1.
         -1   -1    0    0    0  501 -0.00000000000E+00 -0.00000000000E+00 -0.65271231095E+02  0.65271231095E+02  0.00000000000E+00 0.  1.
         25    2    1    2    0    0  0.96655256574E+01 -0.84391635558E+02  0.11781722058E+03  0.19168419349E+03  0.12508621839E+03 0.  0.
         23    2    1    2    0    0 -0.96655256574E+01  0.84391635558E+02  0.10895210557E+03  0.16562759485E+03  0.91359555209E+02 0.  0.
          5    1    3    3  502    0  0.68672529713E+01 -0.82710464437E+02  0.99581294323E+01  0.83694783783E+02  0.41800000000E+01 0.  1.
         -5    1    3    3    0  502  0.27982726861E+01 -0.16811711216E+01  0.10785909115E+03  0.10798940971E+03  0.41800000000E+01 0.  1.
        -11    1    4    4    0    0  0.34360557554E+02  0.89408458565E+01  0.45224935706E+02  0.57496795125E+02  0.00000000000E+00 0.  1.
         11    1    4    4    0    0 -0.44026083211E+02  0.75450789702E+02  0.63727169866E+02  0.10813079972E+03  0.00000000000E+00 0. -1.
</event>
<event>
 8    1  0.3528896E-009  0.1327018E+03  0.7561462E-02  0.1223501E+00
          1   -1    0    0  501    0  0.00000000000E+00  0.00000000000E+00  0.17201345724E+04  0.17201345724E+04  0.00000000000E+00 0. -1.
         -1   -1    0    0    0  501 -0.00000000000E+00 -0.00000000000E+00 -0.26035006275E+02  0.26035006275E+02  0.00000000000E+00 0.  1.
         25    2    1    2    0    0 -0.46947584307E+02 -0.70839706522E+02  0.15413518954E+04  0.15487534780E+04  0.12509728340E+03 0.  0.
         23    2    1    2    0    0  0.46947584307E+02  0.70839706522E+02  0.15274767071E+03  0.19741610071E+03  0.91754706803E+02 0.  0.
          5    1    3    3  502    0 -0.14960351832E+02  0.35492106272E+02  0.49665060400E+03  0.49815940882E+03  0.41800000000E+01 0.  1.
         -5    1    3    3    0  502 -0.31987232475E+02 -0.10633181279E+03  0.10447012914E+04  0.10505940692E+04  0.41800000000E+01 0.  1.
        -11    1    4    4    0    0 -0.19429858670E+02  0.13971468576E+01  0.33011917602E+01  0.19757765418E+02  0.00000000000E+00 0.  1.
         11    1    4    4    0    0  0.66377442977E+02  0.69442559665E+02  0.14944647895E+03  0.17765833530E+03  0.00000000000E+00 0. -1.
</event>
<event>
 8    1  0.3528896E-009  0.1164253E+03  0.7561462E-02  0.1249113E+00
         -3   -1    0    0    0  501 -0.00000000000E+00  0.00000000000E+00  0.34788441526E+03  0.34788441526E+03  0.00000000000E+00 0. -1.
          3   -1    0    0  501    0  0.00000000000E+00 -0.00000000000E+00 -0.71094322540E+02  0.71094322540E+02  0.00000000000E+00 0.  1.
         25    2    1    2    0    0 -0.41100589612E+02 -0.46824913112E+02  0.27359865714E+03  0.30722289901E+03  0.12509138073E+03 0.  0.
         23    2    1    2    0    0  0.41100589612E+02  0.46824913112E+02  0.31914355733E+01  0.11175583878E+03  0.92721902952E+02 0.  0.
          5    1    3    3  502    0 -0.55202490688E+02 -0.83522755376E+02  0.19461165831E+03  0.21889389118E+03  0.41800000000E+01 0. -1.
         -5    1    3    3    0  502  0.14101901076E+02  0.36697842264E+02  0.78986998833E+02  0.88329007837E+02  0.41800000000E+01 0. -1.
        -11    1    4    4    0    0 -0.18749568147E+02  0.20337691507E+02  0.30199127497E+02  0.40953086613E+02  0.00000000000E+00 0. -1.
         11    1    4    4    0    0  0.59850157759E+02  0.26487221606E+02 -0.27007691924E+02  0.70802752172E+02  0.00000000000E+00 0.  1.
</event>
<event>
 8    1  0.3528896E-009  0.9368320E+02  0.7561462E-02  0.1294170E+00
          2   -1    0    0  501    0  0.00000000000E+00  0.00000000000E+00  0.34465156918E+03  0.34465156918E+03  0.00000000000E+00 0. -1.
         -2   -1    0    0    0  501 -0.00000000000E+00 -0.00000000000E+00 -0.55743494303E+02  0.55743494303E+02  0.00000000000E+00 0.  1.
         25    2    1    2    0    0 -0.43659340796E+02 -0.29149635115E+02  0.56689554494E+02  0.14702338494E+03  0.12508529436E+03 0.  0.
         23    2    1    2    0    0  0.43659340796E+02  0.29149635115E+02  0.23221852039E+03  0.25337167854E+03  0.86694446257E+02 0.  0.
          5    1    3    3  502    0 -0.75975856238E+02 -0.16297722857E+02  0.74497638554E+02  0.10772797711E+03  0.41800000000E+01 0. -1.
         -5    1    3    3    0  502  0.32316515442E+02 -0.12851912258E+02 -0.17808084060E+02  0.39295407835E+02  0.41800000000E+01 0. -1.
        -11    1    4    4    0    0  0.24362683096E+02 -0.13396960049E+02  0.15822663196E+02  0.31990241275E+02  0.00000000000E+00 0.  1.
         11    1    4    4    0    0  0.19296657700E+02  0.42546595164E+02  0.21639585719E+03  0.22138143727E+03  0.00000000000E+00 0. -1.
</event>
<event>
 8    1  0.3528896E-009  0.1235951E+03  0.7561462E-02  0.1237281E+00
         -1   -1    0    0    0  501 -0.00000000000E+00  0.00000000000E+00  0.71144930047E+02  0.71144930047E+02  0.00000000000E+00 0.  1.
          1   -1    0    0  501    0  0.00000000000E+00 -0.00000000000E+00 -0.29580402878E+03  0.29580402878E+03  0.00000000000E+00 0. -1.
         25    2    1    2    0    0 -0.14376259915E+02  0.93379092752E+02 -0.14491653745E+03  0.21348461291E+03  0.12509414579E+03 0.  0.
         23    2    1    2    0    0  0.14376259915E+02 -0.93379092752E+02 -0.79742561288E+02  0.15346434592E+03  0.90918081671E+02 0.  0.
          5    1    3    3  502    0 -0.90750430570E-01  0.12076983782E+03 -0.91263773024E+02  0.15143285849E+03  0.41800000000E+01 0. -1.
         -5    1    3    3    0  502 -0.14285509485E+02 -0.27390745071E+02 -0.53652764424E+02  0.62051754424E+02  0.41800000000E+01 0. -1.
        -11    1    4    4    0    0  0.74289402875E+01 -0.17958911782E+02  0.20222257501E+02  0.28047305835E+02  0.00000000000E+00 0.  1.
         11    1    4    4    0    0  0.69473196278E+01 -0.75420180971E+02 -0.99964818789E+02  0.12541704008E+03  0.00000000000E+00 0. -1.
</event>
<event>
 8    1  0.3528896E-009  0.1514879E+03  0.7561462E-02  0.1198657E+00
         -2   -1    0    0    0  501 -0.00000000000E+00  0.00000000000E+00  0.12739834891E+03  0.12739834891E+03  0.00000000000E+00 0.  1.
          2   -1    0    0  501    0  0.00000000000E+00 -0.00000000000E+00 -0.21318968263E+03  0.21318968263E+03  0.00000000000E+00 0. -1.
         25    2    1    2    0    0 -0.10039968732E+03  0.67570762435E+02 -0.71234929988E+02  0.18806411355E+03  0.12509112840E+03 0.  0.
         23    2    1    2    0    0  0.10039968732E+03 -0.67570762435E+02 -0.14556403731E+02  0.15252391800E+03  0.91682885654E+02 0.  0.
          5    1    3    3  502    0 -0.99626223447E+02 -0.36626807318E+01 -0.58228001036E+02  0.11552823089E+03  0.41800000000E+01 0. -1.
         -5    1    3    3    0  502 -0.77346387134E+00  0.71233443167E+02 -0.13006928952E+02  0.72535882655E+02  0.41800000000E+01 0. -1.
        -11    1    4    4    0    0  0.74773659373E+02 -0.74224976439E+02  0.21758883991E+02  0.10758204449E+03  0.00000000000E+00 0.  1.
         11    1    4    4    0    0  0.25626027946E+02  0.66542140034E+01 -0.36315287722E+02  0.44941873510E+02  0.00000000000E+00 0. -1.
</event>
<event>
 8    1  0.3528896E-009  0.1170458E+03  0.7561462E-02  0.1248052E+00
          1   -1    0    0  501    0  0.00000000000E+00  0.00000000000E+00  0.54159088004E+02  0.54159088004E+02  0.00000000000E+00 0. -1.
         -1   -1    0    0    0  501 -0.00000000000E+00 -0.00000000000E+00 -0.29352595790E+03  0.29352595790E+03  0.00000000000E+00 0.  1.
         25    2    1    2    0    0 -0.53985713139E+02 -0.13191615775E+02 -0.18265361169E+03  0.22825130302E+03  0.12509132471E+03 0.  0.
         23    2    1    2    0    0  0.53985713139E+02  0.13191615775E+02 -0.56713258209E+02  0.11943374289E+03  0.89216306430E+02 0.  0.
          5    1    3    3  502    0  0.30377712319E+01 -0.61349492463E+02 -0.72309550868E+02  0.94969109853E+02  0.41800000000E+01 0.  1.
         -5    1    3    3    0  502 -0.57023484371E+02  0.48157876688E+02 -0.11034406082E+03  0.13328219317E+03  0.41800000000E+01 0.  1.
        -11    1    4    4    0    0  0.34788664594E+02 -0.32874180769E+02 -0.59245656877E+01  0.48229279738E+02  0.00000000000E+00 0. -1.
         11    1    4    4    0    0  0.19197048545E+02  0.46065796544E+02 -0.50788692521E+02  0.71204463148E+02  0.00000000000E+00 0.  1.
</event>
<event>
 8    1  0.3528896E-009  0.1445565E+03  0.7561462E-02  0.1207326E+00
         -2   -1    0    0    0  501 -0.00000000000E+00  0.00000000000E+00  0.20245990624E+03  0.20245990624E+03  0.00000000000E+00 0.  1.
          2   -1    0    0  501    0  0.00000000000E+00 -0.00000000000E+00 -0.13317064216E+03  0.13317064216E+03  0.00000000000E+00 0. -1.
         25    2    1    2    0    0  0.40254602704E+02 -0.11146138518E+03  0.70676789624E+02  0.18624387044E+03  0.12508995667E+03 0.  0.
         23    2    1    2    0    0 -0.40254602704E+02  0.11146138518E+03 -0.13875255435E+01  0.14938667796E+03  0.90941634569E+02 0.  0.
          5    1    3    3  502    0 -0.30257624839E+02 -0.43141559513E+02  0.70321059053E+02  0.87972960417E+02  0.41800000000E+01 0. -1.
         -5    1    3    3    0  502  0.70512227543E+02 -0.68319825671E+02  0.35573057052E+00  0.98270910025E+02  0.41800000000E+01 0. -1.
        -11    1    4    4    0    0 -0.36233746505E+01 -0.10253487586E+02  0.17779879547E+02  0.20841952122E+02  0.00000000000E+00 0.  1.
         11    1    4    4    0    0 -0.36631228053E+02  0.12171487277E+03 -0.19167405091E+02  0.12854472584E+03  0.00000000000E+00 0. -1.
</event>
<event>
 8    1  0.3528896E-009  0.1528247E+03  0.7561462E-02  0.1197044E+00
          2   -1    0    0  501    0  0.00000000000E+00  0.00000000000E+00  0.55041453733E+03  0.55041453733E+03  0.00000000000E+00 0. -1.
         -2   -1    0    0    0  501 -0.00000000000E+00 -0.00000000000E+00 -0.80479835032E+02  0.80479835032E+02  0.00000000000E+00 0.  1.
         25    2    1    2    0    0  0.95913718998E+02  0.49478765206E+02  0.29468208761E+02  0.16780975705E+03  0.12507657469E+03 0.  0.
         23    2    1    2    0    0 -0.95913718998E+02 -0.49478765206E+02  0.44046649353E+03  0.46308461530E+03  0.93749876307E+02 0.  0.
          5    1    3    3  502    0  0.11017559760E+03 -0.15134700025E+01  0.31438030250E+02  0.11465938707E+03  0.41800000000E+01 0. -1.
         -5    1    3    3    0  502 -0.14261878599E+02  0.50992235209E+02 -0.19698214884E+01  0.53150369984E+02  0.41800000000E+01 0. -1.
        -11    1    4    4    0    0 -0.42897456979E+02  0.25903528729E+02  0.13410864683E+03  0.14316533718E+03  0.00000000000E+00 0.  1.
         11    1    4    4    0    0 -0.53016262019E+02 -0.75382293936E+02  0.30635784670E+03  0.31991927812E+03  0.00000000000E+00 0. -1.
</event>
<event>
 8    1  0.3528896E-009  0.1317324E+03  0.7561462E-02  0.1224908E+00
         -1   -1    0    0    0  501 -0.00000000000E+00  0.00000000000E+00  0.15609624186E+03  0.15609624186E+03  0.00000000000E+00 0.  1.
          1   -1    0    0  501    0  0.00000000000E+00 -0.00000000000E+00 -0.17711841580E+03  0.17711841580E+03  0.00000000000E+00 0. -1.
         25    2    1    2    0    0 -0.10609371870E+03  0.25425719860E+01  0.56190329436E+02  0.17339849679E+03  0.12508934306E+03 0.  0.
         23    2    1    2    0    0  0.10609371870E+03 -0.25425719860E+01 -0.77212503375E+02  0.15981616086E+03  0.91198096338E+02 0.  0.
          5    1    3    3  502    0 -0.96220992597E+02 -0.43074387500E+02  0.67426155274E+02  0.12521038731E+03  0.41800000000E+01 0. -1.
         -5    1    3    3    0  502 -0.98727261045E+01  0.45616959486E+02 -0.11235825838E+02  0.48188109485E+02  0.41800000000E+01 0. -1.
        -11    1    4    4    0    0  0.19234014871E+02 -0.13575041777E+02  0.18614344240E+02  0.30012045895E+02  0.00000000000E+00 0.  1.
         11    1    4    4    0    0  0.86859703830E+02  0.11032469791E+02 -0.95826847615E+02  0.12980411497E+03  0.00000000000E+00 0. -1.
</event>
<event>
 8    1  0.3528896E-009  0.1324059E+03  0.7561462E-02  0.1223929E+00
         -1   -1    0    0    0  501 -0.00000000000E+00  0.00000000000E+00  0.31455886069E+03  0.31455886069E+03  0.00000000000E+00 0.  1.
          1   -1    0    0  501    0  0.00000000000E+00 -0.00000000000E+00 -0.81304971020E+02  0.81304971020E+02  0.00000000000E+00 0. -1.
         25    2    1    2    0    0 -0.80127099389E+02  0.74629179009E+01  0.22969315411E+03  0.27364712126E+03  0.12509098580E+03 0.  0.
         23    2    1    2    0    0  0.80127099389E+02 -0.74629179009E+01  0.35607355647E+01  0.12221671045E+03  0.91914080946E+02 0.  0.
          5    1    3    3  502    0 -0.32670368189E+02 -0.58008747799E+02  0.87655124123E+02  0.11015108245E+03  0.41800000000E+01 0. -1.
         -5    1    3    3    0  502 -0.47456731200E+02  0.65471665700E+02  0.14203802999E+03  0.16349603882E+03  0.41800000000E+01 0. -1.
        -11    1    4    4    0    0  0.73675388873E+02  0.29684813793E+02  0.18674448071E+02  0.81596483418E+02  0.00000000000E+00 0.  1.
         11    1    4    4    0    0  0.64517105162E+01 -0.37147731694E+02 -0.15113712506E+02  0.40620227035E+02  0.00000000000E+00 0. -1.
</event>
<event>
 8    1  0.3528896E-009  0.1224887E+03  0.7561462E-02  0.1239047E+00
          3   -1    0    0  501    0  0.00000000000E+00  0.00000000000E+00  0.21797325596E+03  0.21797325596E+03  0.00000000000E+00 0. -1.
         -3   -1    0    0    0  501 -0.00000000000E+00 -0.00000000000E+00 -0.81446325750E+02  0.81446325750E+02  0.00000000000E+00 0.  1.
         25    2    1    2    0    0  0.41290239268E+02  0.76698056207E+02  0.67481344310E+02  0.16670108693E+03  0.12509214551E+03 0.  0.
         23    2    1    2    0    0 -0.41290239268E+02 -0.76698056207E+02  0.69045585904E+02  0.13271849478E+03  0.72521929374E+02 0.  0.
          5    1    3    3  502    0 -0.14243551437E+02  0.84131533965E+02  0.70019450515E+02  0.11045899518E+03  0.41800000000E+01 0. -1.
         -5    1    3    3    0  502  0.55533790705E+02 -0.74334777575E+01 -0.25381062043E+01  0.56242091753E+02  0.41800000000E+01 0. -1.
        -11    1    4    4    0    0 -0.54544764373E+02 -0.52149612747E+02  0.23017356111E+02  0.78895577268E+02  0.00000000000E+00 0.  1.
         11    1    4    4    0    0  0.13254525105E+02 -0.24548443461E+02  0.46028229793E+02  0.53822917516E+02  0.00000000000E+00 0. -1.
</event>
<event>
 8    1  0.3528896E-009  0.1049879E+03  0.7561462E-02  0.1270143E+00
         -4   -1    0    0    0  501 -0.00000000000E+00  0.00000000000E+00  0.93591443773E+02  0.93591443773E+02  0.00000000000E+00 0.  1.
          4   -1    0    0  501    0  0.00000000000E+00 -0.00000000000E+00 -0.17884555010E+03  0.17884555010E+03  0.00000000000E+00 0. -1.
         25    2    1    2    0    0 -0.81139610857E+01  0.55275601334E+02 -0.93189273193E+02  0.16568668538E+03  0.12508640457E+03 0.  0.
         23    2    1    2    0    0  0.81139610857E+01 -0.55275601334E+02  0.79351668675E+01  0.10675030849E+03  0.90616957692E+02 0.  0.
          5    1    3    3  502    0  0.29543237613E+02 -0.10989090087E+02  0.13466004772E+02  0.34530691770E+02  0.41800000000E+01 0. -1.
         -5    1    3    3    0  502 -0.37657198699E+02  0.66264691421E+02 -0.10665527797E+03  0.13115599361E+03  0.41800000000E+01 0. -1.
        -11    1    4    4    0    0  0.42643406354E+02 -0.81335090653E+01  0.18809782595E+02  0.47311964623E+02  0.00000000000E+00 0.  1.
         11    1    4    4    0    0 -0.34529445268E+02 -0.47142092269E+02 -0.10874615728E+02  0.59438343864E+02  0.00000000000E+00 0. -1.
</event>
<event>
 8    1  0.3528896E-009  0.1356878E+03  0.7561462E-02  0.1219252E+00
         -1   -1    0    0    0  501 -0.00000000000E+00  0.00000000000E+00  0.17805232614E+02  0.17805232614E+02  0.00000000000E+00 0.  1.
          1   -1    0    0  501    0  0.00000000000E+00 -0.00000000000E+00 -0.11239181387E+04  0.11239181387E+04  0.00000000000E+00 0. -1.
         25    2    1    2    0    0 -0.10044013455E+02  0.87045861474E+02 -0.65928904756E+03  0.67674757500E+03  0.12508943930E+03 0.  0.
         23    2    1    2    0    0  0.10044013455E+02 -0.87045861474E+02 -0.44682385853E+03  0.46497579632E+03  0.94196955412E+02 0.  0.
          5    1    3    3  502    0 -0.18745145661E+02  0.11401508755E+03 -0.59826323861E+03  0.60933340279E+03  0.41800000000E+01 0. -1.
         -5    1    3    3    0  502  0.87011322058E+01 -0.26969226080E+02 -0.61025808948E+02  0.67414172210E+02  0.41800000000E+01 0. -1.
        -11    1    4    4    0    0 -0.22392156656E+02 -0.91652222040E+02 -0.29758403263E+03  0.31218231045E+03  0.00000000000E+00 0.  1.
         11    1    4    4    0    0  0.32436170111E+02  0.46063605663E+01 -0.14923982590E+03  0.15279348587E+03  0.00000000000E+00 0. -1.
</event>
<event>
 8    1  0.3528896E-009  0.1377293E+03  0.7561462E-02  0.1216417E+00
         -2   -1    0    0    0  501 -0.00000000000E+00  0.00000000000E+00  0.36840010375E+02  0.36840010375E+02  0.00000000000E+00 0.  1.
          2   -1    0    0  501    0  0.00000000000E+00 -0.00000000000E+00 -0.55523480821E+03  0.55523480821E+03  0.00000000000E+00 0. -1.
         25    2    1    2    0    0 -0.83529534817E+02 -0.40536564191E+02 -0.28285922799E+03  0.32293602800E+03  0.12513168705E+03 0.  0.
         23    2    1    2    0    0  0.83529534817E+02  0.40536564191E+02 -0.23553556985E+03  0.26913879058E+03  0.91314225111E+02 0.  0.
          5    1    3    3  502    0 -0.48091633518E+02 -0.80242179671E+02 -0.22755503329E+03  0.24606986445E+03  0.41800000000E+01 0.  1.
         -5    1    3    3    0  502 -0.35437901299E+02  0.39705615480E+02 -0.55304194692E+02  0.76866163555E+02  0.41800000000E+01 0.  1.
        -11    1    4    4    0    0  0.30512746254E+02 -0.28251337419E+02 -0.98271519296E+02  0.10670734396E+03  0.00000000000E+00 0.  1.
         11    1    4    4    0    0  0.53016788563E+02  0.68787901610E+02 -0.13726405055E+03  0.16243144662E+03  0.00000000000E+00 0. -1.
</event>
<event>
 8    1  0.3528896E-009  0.1419080E+03  0.7561462E-02  0.1210784E+00
          1   -1    0    0  501    0  0.00000000000E+00  0.00000000000E+00  0.32930443353E+03  0.32930443353E+03  0.00000000000E+00 0. -1.
         -1   -1    0    0    0  501 -0.00000000000E+00 -0.00000000000E+00 -0.86055634561E+02  0.86055634561E+02  0.00000000000E+00 0.  1.
         25    2    1    2    0    0 -0.10840197826E+03  0.66133339840E+02  0.11895487472E+03  0.21429921427E+03  0.12509709624E+03 0.  0.
         23    2    1    2    0    0  0.10840197826E+03 -0.66133339840E+02  0.12429392424E+03  0.20106085382E+03  0.94084429126E+02 0.  0.
          5    1    3    3  502    0 -0.43055018523E+02  0.56178330409E+02  0.12910477699E+03  0.14729309308E+03  0.41800000000E+01 0.  1.
         -5    1    3    3    0  502 -0.65346959741E+02  0.99550094312E+01 -0.10149902273E+02  0.67006121186E+02  0.41800000000E+01 0.  1.
        -11    1    4    4    0    0  0.62522670871E+02 -0.77340678746E+02  0.45884669557E+02  0.10952656236E+03  0.00000000000E+00 0.  1.
         11    1    4    4    0    0  0.45879307393E+02  0.11207338907E+02  0.78409254687E+02  0.91534291458E+02  0.00000000000E+00 0. -1.
</event>
<event>
 8    1  0.3528896E-009  0.1296445E+03  0.7561462E-02  0.1227984E+00
          1   -1    0    0  501    0  0.00000000000E+00  0.00000000000E+00  0.14352984805E+04  0.14352984805E+04  0.00000000000E+00 0. -1.
         -1   -1    0    0    0  501 -0.00000000000E+00 -0.00000000000E+00 -0.14135397080E+02  0.14135397080E+02  0.00000000000E+00 0.  1.
         25    2    1    2    0    0 -0.66747669339E+02 -0.56853169437E+02  0.70220079052E+03  0.71862468570E+03  0.12509178410E+03 0.  0.
         23    2    1    2    0    0  0.66747669339E+02  0.56853169437E+02  0.71896229293E+03  0.73080919191E+03  0.97405144065E+02 0.  0.
          5    1    3    3  502    0 -0.65987490558E+02 -0.81248054324E+02  0.34465206189E+03  0.36021953224E+03  0.41800000000E+01 0.  1.
         -5    1    3    3    0  502 -0.76017878141E+00  0.24394884886E+02  0.35754872863E+03  0.35840515346E+03  0.41800000000E+01 0.  1.
        -11    1    4    4    0    0  0.89353134350E+02  0.58988711096E+02  0.62761252088E+03  0.63667976803E+03  0.00000000000E+00 0. -1.
         11    1    4    4    0    0 -0.22605465010E+02 -0.21355416581E+01  0.91349772044E+02  0.94129423875E+02  0.00000000000E+00 0.  1.
</event>
<event>
 7    1  0.3528896E-009  0.1145738E+03  0.7561462E-02  0.1252327E+00
         -2   -1    0    0    0  501 -0.00000000000E+00  0.00000000000E+00  0.32919066435E+02  0.32919066435E+02  0.00000000000E+00 0.  1.
          2   -1    0    0  501    0  0.00000000000E+00 -0.00000000000E+00 -0.68369215623E+03  0.68369215623E+03  0.00000000000E+00 0. -1.
         23    2    1    2    0    0  0.52755352931E+02  0.72415109229E+02 -0.17892700364E+03  0.22032989680E+03  0.92213423559E+02 0.  0.
          5    1    1    2  502    0 -0.15931305225E+02  0.27898586434E+02 -0.40434161542E+02  0.51812464049E+02  0.41800000000E+01 0.  1.
         -5    1    1    2    0  502 -0.36824047707E+02 -0.10031369566E+03 -0.43141192461E+03  0.44446886181E+03  0.41800000000E+01 0.  1.
        -11    1    3    3    0    0  0.16390999892E+02  0.17819903527E+02  0.52892809414E+01  0.24782863678E+02  0.00000000000E+00 0.  1.
         11    1    3    3    0    0  0.36364353039E+02  0.54595205702E+02 -0.18421628458E+03  0.19554703312E+03  0.00000000000E+00 0. -1.
</event>
<event>
 8    1  0.3528896E-009  0.1083419E+03  0.7561462E-02  0.1263671E+00
         -3   -1    0    0    0  501 -0.00000000000E+00  0.00000000000E+00  0.25052824502E+02  0.25052824502E+02  0.00000000000E+00 0.  1.
          3   -1    0    0  501    0  0.00000000000E+00 -0.00000000000E+00 -0.49255780927E+03  0.49255780927E+03  0.00000000000E+00 0. -1.
         25    2    1    2    0    0 -0.60491592495E+00 -0.13790962272E+02 -0.22642411682E+03  0.25904902182E+03  0.12509180016E+03 0.  0.
         23    2    1    2    0    0  0.60491592495E+00  0.13790962272E+02 -0.24108086795E+03  0.25856161195E+03  0.92431410881E+02 0.  0.
          5    1    3    3  502    0 -0.56496537560E+02  0.17636916579E+02 -0.13328171869E+03  0.14589176988E+03  0.41800000000E+01 0. -1.
         -5    1    3    3    0  502  0.55891621635E+02 -0.31427878851E+02 -0.93142398126E+02  0.11315725194E+03  0.41800000000E+01 0. -1.
        -11    1    4    4    0    0  0.27013891636E+02 -0.30986229621E+02 -0.95256153658E+02  0.10374792324E+03  0.00000000000E+00 0.  1.
         11    1    4    4    0    0 -0.26408975712E+02  0.44777191893E+02 -0.14582471430E+03  0.15481368871E+03  0.00000000000E+00 0. -1.
</event>
<event>
 8    1  0.3528896E-009  0.1053583E+03  0.7561462E-02  0.1269415E+00
         -1   -1    0    0    0  501 -0.00000000000E+00  0.00000000000E+00  0.64829503068E+02  0.64829503068E+02  0.00000000000E+00 0.  1.
          1   -1    0    0  501    0  0.00000000000E+00 -0.00000000000E+00 -0.28186024964E+03  0.28186024964E+03  0.00000000000E+00 0. -1.
         25    2    1    2    0    0  0.77903019372E+02  0.21915131301E+02 -0.12406543985E+03  0.19387660040E+03  0.12508696739E+03 0.  0.
         23    2    1    2    0    0 -0.77903019372E+02 -0.21915131301E+02 -0.92965306724E+02  0.15281315230E+03  0.90333592068E+02 0.  0.
          5    1    3    3  502    0  0.37305783696E+02  0.29970693025E+02 -0.14100350036E+03  0.14896114746E+03  0.41800000000E+01 0. -1.
         -5    1    3    3    0  502  0.40597235676E+02 -0.80555617237E+01  0.16938060515E+02  0.44915452945E+02  0.41800000000E+01 0. -1.
        -11    1    4    4    0    0 -0.10163328555E+02  0.32588988775E+02 -0.30228808709E+02  0.45597327911E+02  0.00000000000E+00 0. -1.
         11    1    4    4    0    0 -0.67739690817E+02 -0.54504120076E+02 -0.62736498015E+02  0.10721582439E+03  0.00000000000E+00 0.  1.
</event>
<event>
 8    1  0.3528896E-009  0.1080209E+03  0.7561462E-02  0.1264279E+00
          2   -1    0    0  501    0  0.00000000000E+00  0.00000000000E+00  0.23075069992E+03  0.23075069992E+03  0.00000000000E+00 0. -1.
         -2   -1    0    0    0  501 -0.00000000000E+00 -0.00000000000E+00 -0.18127366835E+03  0.18127366835E+03  0.00000000000E+00 0.  1.
         25    2    1    2    0    0 -0.55366267151E+02 -0.10805605227E+02  0.19080619086E+03  0.23502629522E+03  0.12509265499E+03 0.  0.
         23    2    1    2    0    0  0.55366267151E+02  0.10805605227E+02 -0.14132915928E+03  0.17699807305E+03  0.90400232071E+02 0.  0.
          5    1    3    3  502    0  0.39518454572E+02 -0.94375124799E+01  0.42796952681E+02  0.59159331068E+02  0.41800000000E+01 0. -1.
         -5    1    3    3    0  502 -0.94884721723E+02 -0.13680927467E+01  0.14800923818E+03  0.17586696415E+03  0.41800000000E+01 0. -1.
        -11    1    4    4    0    0  0.29387877526E+02 -0.23183014932E+02 -0.12618050925E+03  0.13161542631E+03  0.00000000000E+00 0.  1.
         11    1    4    4    0    0  0.25978389626E+02  0.33988620159E+02 -0.15148650028E+02  0.45382646745E+02  0.00000000000E+00 0. -1.
</event>
<event>
 8    1  0.3528896E-009  0.6713263E+02  0.7561462E-02  0.1370124E+00
          2   -1    0    0  501    0  0.00000000000E+00  0.00000000000E+00  0.17993275349E+03  0.17993275349E+03  0.00000000000E+00 0. -1.
         -2   -1    0    0    0  501 -0.00000000000E+00 -0.00000000000E+00 -0.69082242812E+02  0.69082242812E+02  0.00000000000E+00 0.  1.
         25    2    1    2    0    0  0.32832505821E+01  0.25675334430E+02  0.56540100579E+02  0.13969583268E+03  0.12509252640E+03 0.  0.
         23    2    1    2    0    0 -0.32832505821E+01 -0.25675334430E+02  0.54310410103E+02  0.10931916363E+03  0.91274620560E+02 0.  0.
          5    1    3    3  502    0  0.48200545529E+02 -0.17372065436E+01  0.70102050200E+02  0.85194367877E+02  0.41800000000E+01 0. -1.
         -5    1    3    3    0  502 -0.44917294946E+02  0.27412540973E+02 -0.13561949621E+02  0.54501464801E+02  0.41800000000E+01 0. -1.
        -11    1    4    4    0    0  0.87741069499E+01 -0.10508158136E+02  0.77728373756E+02  0.78924688323E+02  0.00000000000E+00 0. -1.
         11    1    4    4    0    0 -0.12057357532E+02 -0.15167176293E+02 -0.23417963653E+02  0.30394475305E+02  0.00000000000E+00 0.  1.
</event>
<event>
 8    1  0.3528896E-009  0.1117185E+03  0.7561462E-02  0.1257420E+00
         -2   -1    0    0    0  501 -0.00000000000E+00  0.00000000000E+00  0.27535136494E+02  0.27535136494E+02  0.00000000000E+00 0.  1.
          2   -1    0    0  501    0  0.00000000000E+00 -0.00000000000E+00 -0.79353125112E+03  0.79353125112E+03  0.00000000000E+00 0. -1.
         25    2    1    2    0    0 -0.62327048901E+02 -0.34186194436E+02 -0.61095285816E+03  0.62766564343E+03  0.12508960040E+03 0.  0.
         23    2    1    2    0    0  0.62327048901E+02  0.34186194436E+02 -0.15504325646E+03  0.19340074418E+03  0.91170606897E+02 0.  0.
          5    1    3    3  502    0 -0.84315259735E+02 -0.28738412234E+02 -0.24055889032E+03  0.25655605912E+03  0.41800000000E+01 0. -1.
         -5    1    3    3    0  502  0.21988210835E+02 -0.54477822023E+01 -0.37039396785E+03  0.37110958431E+03  0.41800000000E+01 0. -1.
        -11    1    4    4    0    0  0.75886368206E+01  0.52850247573E+02 -0.10101396176E+03  0.11425653831E+03  0.00000000000E+00 0.  1.
         11    1    4    4    0    0  0.54738412080E+02 -0.18664053137E+02 -0.54029294700E+02  0.79144205867E+02  0.00000000000E+00 0. -1.
</event>
<event>
 8    1  0.3528896E-009  0.7529876E+02  0.7561462E-02  0.1342948E+00
         -2   -1    0    0    0  501 -0.00000000000E+00  0.00000000000E+00  0.19229434817E+02  0.19229434817E+02  0.00000000000E+00 0.  1.
          2   -1    0    0  501    0  0.00000000000E+00 -0.00000000000E+00 -0.63003584820E+03  0.63003584820E+03  0.00000000000E+00 0. -1.
         25    2    1    2    0    0  0.39187599197E+02  0.24905759025E+01 -0.41249322656E+03  0.43282839642E+03  0.12509151804E+03 0.  0.
         23    2    1    2    0    0 -0.39187599197E+02 -0.24905759025E+01 -0.19831318682E+03  0.21643688660E+03  0.77297703167E+02 0.  0.
          5    1    3    3  502    0  0.24547317975E+02 -0.26169586599E+02 -0.39364464845E+03  0.39529862096E+03  0.41800000000E+01 0. -1.
         -5    1    3    3    0  502  0.14640281222E+02  0.28660162501E+02 -0.18848578117E+02  0.37529775457E+02  0.41800000000E+01 0. -1.
        -11    1    4    4    0    0  0.34677267020E+01 -0.30691105038E+02 -0.11134794327E+03  0.11555229780E+03  0.00000000000E+00 0. -1.
         11    1    4    4    0    0 -0.42655325899E+02  0.28200529135E+02 -0.86965243551E+02  0.10088458880E+03  0.00000000000E+00 0.  1.
</event>
<event>
 8    1  0.3528896E-009  0.2368224E+03  0.7561462E-02  0.1121928E+00
         -1   -1    0    0    0  501 -0.00000000000E+00  0.00000000000E+00  0.35563235853E+03  0.35563235853E+03  0.00000000000E+00 0.  1.
          1   -1    0    0  501    0  0.00000000000E+00 -0.00000000000E+00 -0.18593792739E+03  0.18593792739E+03  0.00000000000E+00 0. -1.
         25    2    1    2    0    0  0.17346990139E+03  0.12009911959E+03 -0.15865311206E+02  0.24579183817E+03  0.12508522854E+03 0.  0.
         23    2    1    2    0    0 -0.17346990139E+03 -0.12009911959E+03  0.18555974234E+03  0.29577844775E+03  0.92395167412E+02 0.  0.
          5    1    3    3  502    0 -0.13822845672E+02 -0.81690515499E+01  0.61247898086E+01  0.17685867688E+02  0.41800000000E+01 0.  1.
         -5    1    3    3    0  502  0.18729274706E+03  0.12826817114E+03 -0.21990101015E+02  0.22810597048E+03  0.41800000000E+01 0.  1.
        -11    1    4    4    0    0 -0.14532310151E+03 -0.48705252970E+02  0.11619463970E+03  0.19233356388E+03  0.00000000000E+00 0. -1.
         11    1    4    4    0    0 -0.28146799875E+02 -0.71393866616E+02  0.69365102644E+02  0.10344488387E+03  0.00000000000E+00 0.  1.
</event>
<event>
 8    1  0.3528896E-009  0.7781147E+02  0.7561462E-02  0.1335379E+00
          2   -1    0    0  501    0  0.00000000000E+00  0.00000000000E+00  0.75412566128E+03  0.75412566128E+03  0.00000000000E+00 0. -1.
         -2   -1    0    0    0  501 -0.00000000000E+00 -0.00000000000E+00 -0.16963068497E+02  0.16963068497E+02  0.00000000000E+00 0.  1.
         25    2    1    2    0    0  0.46128475671E+01  0.25837149832E+02  0.44924636904E+03  0.46707476271E+03  0.12509075580E+03 0.  0.
         23    2    1    2    0    0 -0.46128475671E+01 -0.25837149832E+02  0.28791622374E+03  0.30401396707E+03  0.94020761570E+02 0.  0.
          5    1    3    3  502    0  0.22056612376E+02  0.49499010331E+02  0.42576338544E+03  0.42921856782E+03  0.41800000000E+01 0. -1.
         -5    1    3    3    0  502 -0.17443764808E+02 -0.23661860499E+02  0.23482983599E+02  0.37856194892E+02  0.41800000000E+01 0. -1.
        -11    1    4    4    0    0 -0.14595456814E+02  0.19948291564E+02  0.19351993319E+02  0.31392058571E+02  0.00000000000E+00 0.  1.
         11    1    4    4    0    0  0.99826092471E+01 -0.45785441396E+02  0.26856423042E+03  0.27262190850E+03  0.00000000000E+00 0. -1.
</event>
<event>
 8    1  0.3528896E-009  0.9450421E+02  0.7561462E-02  0.1292297E+00
         -1   -1    0    0    0  501 -0.00000000000E+00  0.00000000000E+00  0.37504917369E+03  0.37504917369E+03  0.00000000000E+00 0.  1.
          1   -1    0    0  501    0  0.00000000000E+00 -0.00000000000E+00 -0.41912644392E+02  0.41912644392E+02  0.00000000000E+00 0. -1.
         25    2    1    2    0    0 -0.41030030116E+02  0.49459448160E+02  0.18914497466E+03  0.23569504805E+03  0.12508650547E+03 0.  0.
         23    2    1    2    0    0  0.41030030116E+02 -0.49459448160E+02  0.14399155463E+03  0.18126677003E+03  0.89411261747E+02 0.  0.
          5    1    3    3  502    0 -0.40320219825E+02  0.71856660840E+02  0.19536145379E+03  0.21206760682E+03  0.41800000000E+01 0.  1.
         -5    1    3    3    0  502 -0.70981029094E+00 -0.22397212680E+02 -0.62164791287E+01  0.23627441233E+02  0.41800000000E+01 0.  1.
        -11    1    4    4    0    0  0.53404576601E+02 -0.31824110811E+02  0.14691368748E+03  0.15952571705E+03  0.00000000000E+00 0.  1.
         11    1    4    4    0    0 -0.12374546485E+02 -0.17635337349E+02 -0.29221328508E+01  0.21741052976E+02  0.00000000000E+00 0. -1.
</event>
<event>
 8    1  0.3528896E-009  0.1148639E+03  0.7561462E-02  0.1251819E+00
         -4   -1    0    0    0  501 -0.00000000000E+00  0.00000000000E+00  0.61799181076E+02  0.61799181076E+02  0.00000000000E+00 0.  1.
          4   -1    0    0  501    0  0.00000000000E+00 -0.00000000000E+00 -0.35190776675E+03  0.35190776675E+03  0.00000000000E+00 0. -1.
         25    2    1    2    0    0 -0.28020032260E+02  0.83600985177E+02 -0.22285452541E+03  0.27032248232E+03  0.12504342454E+03 0.  0.
         23    2    1    2    0    0  0.28020032260E+02 -0.83600985177E+02 -0.67254060265E+02  0.14338446551E+03  0.90894165908E+02 0.  0.
          5    1    3    3  502    0  0.29491840926E+02  0.69680105599E+02 -0.58934705344E+02  0.95999258806E+02  0.41800000000E+01 0.  1.
         -5    1    3    3    0  502 -0.57511873185E+02  0.13920879578E+02 -0.16391982007E+03  0.17432322351E+03  0.41800000000E+01 0.  1.
        -11    1    4    4    0    0 -0.12087169667E+01 -0.50318545087E+02  0.12762402120E+02  0.51925869124E+02  0.00000000000E+00 0. -1.
         11    1    4    4    0    0  0.29228749227E+02 -0.33282440089E+02 -0.80016462385E+02  0.91458596382E+02  0.00000000000E+00 0.  1.
</event>
<event>
 8    1  0.3528896E-009  0.9850605E+02  0.7561462E-02  0.1283469E+00
          1   -1    0    0  501    0  0.00000000000E+00  0.00000000000E+00  0.51417636932E+03  0.51417636932E+03  0.00000000000E+00 0. -1.
         -1   -1    0    0    0  501 -0.00000000000E+00 -0.00000000000E+00 -0.25448050979E+02  0.25448050979E+02  0.00000000000E+00 0.  1.
         25    2    1    2    0    0  0.28044965917E+02  0.25927041857E+02  0.27572323218E+03  0.30517133534E+03  0.12509001372E+03 0.  0.
         23    2    1    2    0    0 -0.28044965917E+02 -0.25927041857E+02  0.21300508616E+03  0.23445308496E+03  0.90212807887E+02 0.  0.
          5    1    3    3  502    0  0.34042775953E+02  0.63572556570E+02  0.24675618690E+03  0.25711178253E+03  0.41800000000E+01 0.  1.
         -5    1    3    3    0  502 -0.59978100360E+01 -0.37645514714E+02  0.28967045286E+02  0.48059552806E+02  0.41800000000E+01 0.  1.
        -11    1    4    4    0    0  0.22359083864E+02 -0.28181731295E+02  0.38030478190E+02  0.52349363716E+02  0.00000000000E+00 0.  1.
         11    1    4    4    0    0 -0.50404049781E+02  0.22546894386E+01  0.17497460797E+03  0.18210372125E+03  0.00000000000E+00 0. -1.
</event>
<event>
 8    1  0.3528896E-009  0.1480177E+03  0.7561462E-02  0.1202930E+00
          1   -1    0    0  501    0  0.00000000000E+00  0.00000000000E+00  0.36276297347E+03  0.36276297347E+03  0.00000000000E+00 0. -1.
         -1   -1    0    0    0  501 -0.00000000000E+00 -0.00000000000E+00 -0.94711242560E+02  0.94711242560E+02  0.00000000000E+00 0.  1.
         25    2    1    2    0    0  0.12598755981E+03  0.46321240084E+02  0.22366054258E+03  0.28929206985E+03  0.12508933152E+03 0.  0.
         23    2    1    2    0    0 -0.12598755981E+03 -0.46321240084E+02  0.44391188333E+02  0.16818214619E+03  0.91083116898E+02 0.  0.
          5    1    3    3  502    0  0.11605777360E+03  0.16648778202E+02  0.79508283227E+02  0.14172377405E+03  0.41800000000E+01 0.  1.
         -5    1    3    3    0  502  0.99297862092E+01  0.29672461882E+02  0.14415225935E+03  0.14756829580E+03  0.41800000000E+01 0.  1.
        -11    1    4    4    0    0 -0.64010416355E+02  0.82868588149E+01 -0.15221505731E+02  0.66315154133E+02  0.00000000000E+00 0.  1.
         11    1    4    4    0    0 -0.61977143456E+02 -0.54608098899E+02  0.59612694064E+02  0.10186699205E+03  0.00000000000E+00 0. -1.
</event>
<event>
 8    1  0.3528896E-009  0.1500975E+03  0.7561462E-02  0.1200353E+00
          2   -1    0    0  501    0  0.00000000000E+00  0.00000000000E+00  0.25983026504E+03  0.25983026504E+03  0.00000000000E+00 0.  1.
         -2   -1    0    0    0  501 -0.00000000000E+00 -0.00000000000E+00 -0.10983814717E+03  0.10983814717E+03  0.00000000000E+00 0. -1.
         25    2    1    2    0    0 -0.92796867275E+02  0.89064130034E+02  0.97598150041E+02  0.20425100904E+03  0.12509755380E+03 0.  0.
         23    2    1    2    0    0  0.92796867275E+02 -0.89064130034E+02  0.52393967829E+02  0.16541740317E+03  0.89856060288E+02 0.  0.
          5    1    3    3  502    0 -0.99220781662E+02  0.10244807523E+03  0.11333541851E+03  0.18221624823E+03  0.41800000000E+01 0. -1.
         -5    1    3    3    0  502  0.64239143872E+01 -0.13383945196E+02 -0.15737268466E+02  0.22034760807E+02  0.41800000000E+01 0. -1.
        -11    1    4    4    0    0  0.93257890350E+02 -0.55498643724E+02  0.67146092557E+01  0.10873003056E+03  0.00000000000E+00 0. -1.
         11    1    4    4    0    0 -0.46102307486E+00 -0.33565486309E+02  0.45679358573E+02  0.56687372608E+02  0.00000000000E+00 0.  1.
</event>
<event>
 8    1  0.3528896E-009  0.1669513E+03  0.7561462E-02  0.1181065E+00
          1   -1    0    0  501    0  0.00000000000E+00  0.00000000000E+00  0.86205423005E+03  0.86205423005E+03  0.00000000000E+00 0. -1.
         -1   -1    0    0    0  501 -0.00000000000E+00 -0.00000000000E+00 -0.10848105488E+03  0.10848105488E+03  0.00000000000E+00 0.  1.
         25    2    1    2    0    0 -0.11304241446E+03 -0.73612299013E+02  0.78251470964E+03  0.80384967765E+03  0.12509066881E+03 0.  0.
         23    2    1    2    0    0  0.11304241446E+03  0.73612299013E+02 -0.28941534467E+02  0.16668560727E+03  0.93536737280E+02 0.  0.
          5    1    3    3  502    0 -0.21806803965E+01  0.23822315483E+02  0.39983953046E+02  0.46780839915E+02  0.41800000000E+01 0. -1.
         -5    1    3    3    0  502 -0.11086173407E+03 -0.97434614496E+02  0.74253075660E+03  0.75706883774E+03  0.41800000000E+01 0. -1.
        -11    1    4    4    0    0  0.60226644438E+02 -0.11963684443E+02  0.21065278427E+01  0.61439530477E+02  0.00000000000E+00 0.  1.
         11    1    4    4    0    0  0.52815770027E+02  0.85575983456E+02 -0.31048062310E+02  0.10524607680E+03  0.00000000000E+00 0. -1.
</event>
<event>
 8    1  0.3528896E-009  0.1208166E+03  0.7561462E-02  0.1241756E+00
         -1   -1    0    0    0  501 -0.00000000000E+00  0.00000000000E+00  0.33521880363E+02  0.33521880363E+02  0.00000000000E+00 0.  1.
          1   -1    0    0  501    0  0.00000000000E+00 -0.00000000000E+00 -0.51379305191E+03  0.51379305191E+03  0.00000000000E+00 0. -1.
         25    2    1    2    0    0  0.27163364013E+02 -0.60029721005E+02 -0.20963772461E+03  0.25285773472E+03  0.12509053793E+03 0.  0.
         23    2    1    2    0    0 -0.27163364013E+02  0.60029721005E+02 -0.27063344693E+03  0.29445719755E+03  0.95504779146E+02 0.  0.
          5    1    3    3  502    0 -0.26221562072E+02 -0.79947437009E+02 -0.12355514453E+03  0.14954099485E+03  0.41800000000E+01 0. -1.
         -5    1    3    3    0  502  0.53384926085E+02  0.19917716005E+02 -0.86082580085E+02  0.10331673987E+03  0.41800000000E+01 0. -1.
        -11    1    4    4    0    0 -0.50608843164E+02  0.57620419392E+02 -0.25473153927E+03  0.26602542141E+03  0.00000000000E+00 0. -1.
         11    1    4    4    0    0  0.23445479151E+02  0.24093016128E+01 -0.15901907658E+02  0.28431776132E+02  0.00000000000E+00 0.  1.
</event>
<event>
 8    1  0.3528896E-009  0.5424106E+02  0.7561462E-02  0.1423722E+00
         -1   -1    0    0    0  501 -0.00000000000E+00  0.00000000000E+00  0.21722375643E+03  0.21722375643E+03  0.00000000000E+00 0.  1.
          1   -1    0    0  501    0  0.00000000000E+00 -0.00000000000E+00 -0.67752691753E+02  0.67752691753E+02  0.00000000000E+00 0. -1.
         25    2    1    2    0    0  0.35920229168E+01  0.22325607303E+02  0.14650675004E+03  0.19396574983E+03  0.12508856434E+03 0.  0.
         23    2    1    2    0    0 -0.35920229168E+01 -0.22325607303E+02  0.29643146376E+01  0.91010698357E+02  0.88106893510E+02 0.  0.
          5    1    3    3  502    0  0.34701291120E+02  0.14861485787E+02  0.15582189644E+03  0.16038384949E+03  0.41800000000E+01 0.  1.
         -5    1    3    3    0  502 -0.31109268203E+02  0.74641215166E+01 -0.93151464001E+01  0.33581900342E+02  0.41800000000E+01 0.  1.
        -11    1    4    4    0    0 -0.12825641994E+02  0.12809016164E+01  0.42297180514E+02  0.44217522330E+02  0.00000000000E+00 0.  1.
         11    1    4    4    0    0  0.92336190773E+01 -0.23606508920E+02 -0.39332865877E+02  0.46793176027E+02  0.00000000000E+00 0. -1.
</event>
<event>
 8    1  0.3528896E-009  0.6486725E+02  0.7561462E-02  0.1378472E+00
         -2   -1    0    0    0  501 -0.00000000000E+00  0.00000000000E+00  0.54421987108E+02  0.54421987108E+02  0.00000000000E+00 0.  1.
          2   -1    0    0  501    0  0.00000000000E+00 -0.00000000000E+00 -0.27326913433E+03  0.27326913433E+03  0.00000000000E+00 0. -1.
         25    2    1    2    0    0  0.45497257950E+02  0.14083699653E+02 -0.77129475829E+02  0.15448992605E+03  0.12509928111E+03 0.  0.
         23    2    1    2    0    0 -0.45497257950E+02 -0.14083699653E+02 -0.14171767140E+03  0.17320119539E+03  0.87443722593E+02 0.  0.
          5    1    3    3  502    0  0.59190056344E+02  0.24141598791E+02  0.10688369920E+02  0.64946079280E+02  0.41800000000E+01 0.  1.
         -5    1    3    3    0  502 -0.13692798395E+02 -0.10057899138E+02 -0.87817845748E+02  0.89543846773E+02  0.41800000000E+01 0.  1.
        -11    1    4    4    0    0 -0.25608413225E+02 -0.41382275508E+01 -0.14787064172E+03  0.15012875287E+03  0.00000000000E+00 0. -1.
         11    1    4    4    0    0 -0.19888844724E+02 -0.99454721020E+01  0.61529703275E+01  0.23072442516E+02  0.00000000000E+00 0.  1.
</event>
<event>
 8    1  0.3528896E-009  0.1329637E+03  0.7561462E-02  0.1223123E+00
          2   -1    0    0  501    0  0.00000000000E+00  0.00000000000E+00  0.20626199552E+04  0.20626199552E+04  0.00000000000E+00 0. -1.
         -2   -1    0    0    0  501 -0.00000000000E+00 -0.00000000000E+00 -0.11382493672E+02  0.11382493672E+02  0.00000000000E+00 0.  1.
         25    2    1    2    0    0  0.63079898257E+02 -0.77005479167E+02  0.13913633527E+04  0.14005142091E+04  0.12505660019E+03 0.  0.
         23    2    1    2    0    0 -0.63079898257E+02  0.77005479167E+02  0.65987410887E+03  0.67348823982E+03  0.90794560592E+02 0.  0.
          5    1    3    3  502    0  0.81849146750E+02 -0.76269262302E+02  0.70107457173E+03  0.70995725978E+03  0.41800000000E+01 0. -1.
         -5    1    3    3    0  502 -0.18769248493E+02 -0.73621686464E+00  0.69028878096E+03  0.69055694929E+03  0.41800000000E+01 0. -1.
        -11    1    4    4    0    0 -0.15446129777E+01  0.73051466233E+02  0.35628983144E+03  0.36370502682E+03  0.00000000000E+00 0. -1.
         11    1    4    4    0    0 -0.61535285279E+02  0.39540129341E+01  0.30358427743E+03  0.30978321299E+03  0.00000000000E+00 0.  1.
</event>
<event>
 8    1  0.3528896E-009  0.1640999E+03  0.7561462E-02  0.1184144E+00
         -2   -1    0    0    0  501 -0.00000000000E+00  0.00000000000E+00  0.98983315373E+02  0.98983315373E+02  0.00000000000E+00 0.  1.
          2   -1    0    0  501    0  0.00000000000E+00 -0.00000000000E+00 -0.29026620590E+03  0.29026620590E+03  0.00000000000E+00 0. -1.
         25    2    1    2    0    0  0.86600288009E+02  0.88302997934E+02 -0.56742519373E+02  0.18483276722E+03  0.12508560671E+03 0.  0.
         23    2    1    2    0    0 -0.86600288009E+02 -0.88302997934E+02 -0.13454037115E+03  0.20441675405E+03  0.91586399316E+02 0.  0.
          5    1    3    3  502    0  0.10803479130E+03  0.29163209999E+02 -0.45115502691E+02  0.12072650882E+03  0.41800000000E+01 0. -1.
         -5    1    3    3    0  502 -0.21434503296E+02  0.59139787936E+02 -0.11627016682E+02  0.64106258396E+02  0.41800000000E+01 0. -1.
        -11    1    4    4    0    0 -0.34338668104E+02  0.14949472095E+02 -0.41734881728E+02  0.56075228006E+02  0.00000000000E+00 0.  1.
         11    1    4    4    0    0 -0.52261619905E+02 -0.10325247003E+03 -0.92805489421E+02  0.14834152604E+03  0.00000000000E+00 0. -1.
</event>
<event>
 8    1  0.3528896E-009  0.2578913E+03  0.7561462E-02  0.1108417E+00
         -2   -1    0    0    0  501 -0.00000000000E+00  0.00000000000E+00  0.85790639157E+02  0.85790639157E+02  0.00000000000E+00 0.  1.
          2   -1    0    0  501    0  0.00000000000E+00 -0.00000000000E+00 -0.10168873250E+04  0.10168873250E+04  0.00000000000E+00 0. -1.
         25    2    1    2    0    0 -0.22940735215E+03 -0.10033806935E+03 -0.26558602494E+03  0.38584876672E+03  0.12509145757E+03 0.  0.
         23    2    1    2    0    0  0.22940735215E+03  0.10033806935E+03 -0.66551066092E+03  0.71682919746E+03  0.90797561353E+02 0.  0.
          5    1    3    3  502    0 -0.13539844478E+03 -0.42908767740E+02 -0.63480042200E+02  0.15563126085E+03  0.41800000000E+01 0.  1.
         -5    1    3    3    0  502 -0.94008907367E+02 -0.57429301608E+02 -0.20210598274E+03  0.23021750587E+03  0.41800000000E+01 0.  1.
        -11    1    4    4    0    0  0.17408571905E+03  0.34538647697E+02 -0.49538287929E+03  0.52621569043E+03  0.00000000000E+00 0.  1.
         11    1    4    4    0    0  0.55321633096E+02  0.65799421651E+02 -0.17012778163E+03  0.19061350703E+03  0.00000000000E+00 0. -1.
</event>
<event>
 8    1  0.3528896E-009  0.1473743E+03  0.7561462E-02  0.1203737E+00
          2   -1    0    0  501    0  0.00000000000E+00  0.00000000000E+00  0.34467765629E+02  0.34467765629E+02  0.00000000000E+00 0. -1.
         -2   -1    0    0    0  501 -0.00000000000E+00 -0.00000000000E+00 -0.13453298250E+04  0.13453298250E+04  0.00000000000E+00 0.  1.
         25    2    1    2    0    0  0.28808507559E+02  0.14079940624E+03 -0.10558304349E+04  0.10728837911E+04  0.12508924441E+03 0.  0.
         23    2    1    2    0    0 -0.28808507559E+02 -0.14079940624E+03 -0.25503162448E+03  0.30691379953E+03  0.92198416190E+02 0.  0.
          5    1    3    3  502    0  0.30894384998E+02  0.52927216221E+02 -0.79976187416E+03  0.80211737358E+03  0.41800000000E+01 0. -1.
         -5    1    3    3    0  502 -0.20858774386E+01  0.87872190021E+02 -0.25606856074E+03  0.27076641753E+03  0.41800000000E+01 0. -1.
        -11    1    4    4    0    0 -0.75981072521E+01 -0.87704152658E+01  0.64115446076E+01  0.13257425165E+02  0.00000000000E+00 0. -1.
         11    1    4    4    0    0 -0.21210400307E+02 -0.13202899098E+03 -0.26144316909E+03  0.29365637436E+03  0.00000000000E+00 0.  1.
</event>
<event>
 8    1  0.3528896E-009  0.1038400E+03  0.7561462E-02  0.1272422E+00
         -2   -1    0    0    0  501 -0.00000000000E+00  0.00000000000E+00  0.52134192290E+02  0.52134192290E+02  0.00000000000E+00 0. -1.
          2   -1    0    0  501    0  0.00000000000E+00 -0.00000000000E+00 -0.25741804076E+03  0.25741804076E+03  0.00000000000E+00 0.  1.
         25    2    1    2    0    0  0.14891102267E+02 -0.36477721993E+02 -0.13409532725E+03  0.18757180541E+03  0.12509698744E+03 0.  0.
         23    2    1    2    0    0 -0.14891102267E+02  0.36477721993E+02 -0.71188521227E+02  0.12198042764E+03  0.90879315827E+02 0.  0.
          5    1    3    3  502    0  0.63884944998E+02 -0.63376471841E+01 -0.35849860295E+02  0.73648739653E+02  0.41800000000E+01 0.  1.
         -5    1    3    3    0  502 -0.48993842731E+02 -0.30140074809E+02 -0.98245466950E+02  0.11392306576E+03  0.41800000000E+01 0.  1.
        -11    1    4    4    0    0 -0.31353793293E+00  0.58914255996E+02 -0.74543735956E+02  0.95014506450E+02  0.00000000000E+00 0.  1.
         11    1    4    4    0    0 -0.14577564334E+02 -0.22436534003E+02  0.33552147287E+01  0.26965921194E+02  0.00000000000E+00 0. -1.
</event>
<event>
 8    1  0.3528896E-009  0.1089950E+03  0.7561462E-02  0.1262442E+00
          1   -1    0    0  501    0  0.00000000000E+00  0.00000000000E+00  0.76312261513E+03  0.76312261513E+03  0.00000000000E+00 0. -1.
         -1   -1    0    0    0  501 -0.00000000000E+00 -0.00000000000E+00 -0.24317771458E+02  0.24317771458E+02  0.00000000000E+00 0.  1.
         25    2    1    2    0    0  0.34468097706E+02 -0.24479726736E+02  0.58502051551E+03  0.59973579853E+03  0.12508684057E+03 0.  0.
         23    2    1    2    0    0 -0.34468097706E+02  0.24479726736E+02  0.15378432816E+03  0.18770458806E+03  0.98975178762E+02 0.  0.
          5    1    3    3  502    0 -0.31133703903E+02  0.14973374287E+02  0.61763711798E+02  0.70892439310E+02  0.41800000000E+01 0.  1.
         -5    1    3    3    0  502  0.65601801609E+02 -0.39453101023E+02  0.52325680371E+03  0.52884335922E+03  0.41800000000E+01 0.  1.
        -11    1    4    4    0    0  0.25561925624E+02 -0.19465013095E+02  0.59318047514E+02  0.67460577653E+02  0.00000000000E+00 0. -1.
         11    1    4    4    0    0 -0.60030023330E+02  0.43944739831E+02  0.94466280647E+02  0.12024401041E+03  0.00000000000E+00 0.  1.
</event>
<event>
 8    1  0.3528896E-009  0.1072384E+03  0.7561462E-02  0.1265771E+00
         -2   -1    0    0    0  501 -0.00000000000E+00  0.00000000000E+00  0.15452446040E+03  0.15452446040E+03  0.00000000000E+00 0.  1.
          2   -1    0    0  501    0  0.00000000000E+00 -0.00000000000E+00 -0.11530106897E+03  0.11530106897E+03  0.00000000000E+00 0. -1.
         25    2    1    2    0    0  0.50335020376E+02  0.13530653130E+02  0.80099988443E+02  0.15741494152E+03  0.12508702096E+03 0.  0.
         23    2    1    2    0    0 -0.50335020376E+02 -0.13530653130E+02 -0.40876597010E+02  0.11241058785E+03  0.90821535039E+02 0.  0.
          5    1    3    3  502    0  0.38231437080E+01  0.50711213212E+02  0.83245065477E+02  0.97639422876E+02  0.41800000000E+01 0. -1.
         -5    1    3    3    0  502  0.46511876668E+02 -0.37180560082E+02 -0.31450770341E+01  0.59775518640E+02  0.41800000000E+01 0. -1.
        -11    1    4    4    0    0  0.14776392056E+02  0.24310061127E+02 -0.18158118391E+02  0.33749638482E+02  0.00000000000E+00 0. -1.
         11    1    4    4    0    0 -0.65111412433E+02 -0.37840714257E+02 -0.22718478619E+02  0.78660949366E+02  0.00000000000E+00 0.  1.
</event>
<event>
 8    1  0.3528896E-009  0.1308405E+03  0.7561462E-02  0.1226214E+00
         -2   -1    0    0    0  501 -0.00000000000E+00  0.00000000000E+00  0.68373439992E+02  0.68373439992E+02  0.00000000000E+00 0.  1.
          2   -1    0    0  501    0  0.00000000000E+00 -0.00000000000E+00 -0.31157204042E+03  0.31157204042E+03  0.00000000000E+00 0. -1.
         25    2    1    2    0    0  0.93296888359E+02 -0.85135741810E+01 -0.13993892630E+03  0.20977792616E+03  0.12508830835E+03 0.  0.
         23    2    1    2    0    0 -0.93296888359E+02  0.85135741810E+01 -0.10325967413E+03  0.17016755426E+03  0.97558422996E+02 0.  0.
          5    1    3    3  502    0  0.11418258577E+03 -0.36527786300E+02 -0.11823805529E+03  0.16843293082E+03  0.41800000000E+01 0.  1.
         -5    1    3    3    0  502 -0.20885697411E+02  0.28014212119E+02 -0.21700871011E+02  0.41344995339E+02  0.41800000000E+01 0.  1.
        -11    1    4    4    0    0 -0.39603084355E+02  0.28976883398E+02  0.32151306673E+01  0.49177241963E+02  0.00000000000E+00 0.  1.
         11    1    4    4    0    0 -0.53693804005E+02 -0.20463309217E+02 -0.10647480479E+03  0.12099031229E+03  0.00000000000E+00 0. -1.
</event>
<event>
 8    1  0.3528896E-009  0.1379152E+03  0.7561462E-02  0.1216162E+00
          1   -1    0    0  501    0  0.00000000000E+00  0.00000000000E+00  0.87803392698E+03  0.87803392698E+03  0.00000000000E+00 0. -1.
         -1   -1    0    0    0  501 -0.00000000000E+00 -0.00000000000E+00 -0.29992406786E+02  0.29992406786E+02  0.00000000000E+00 0.  1.
         25    2    1    2    0    0 -0.77309813759E+02  0.58863064212E+02  0.64785498326E+03  0.66693507958E+03  0.12507858889E+03 0.  0.
         23    2    1    2    0    0  0.77309813759E+02 -0.58863064212E+02  0.20018653693E+03  0.24109125419E+03  0.92782949115E+02 0.  0.
          5    1    3    3  502    0  0.15537619147E+02 -0.26090898161E+02  0.91107850733E+02  0.96126299423E+02  0.41800000000E+01 0. -1.
         -5    1    3    3    0  502 -0.92847432906E+02  0.84953962373E+02  0.55674713253E+03  0.57080878015E+03  0.41800000000E+01 0. -1.
        -11    1    4    4    0    0  0.69624784811E+02 -0.10646434330E+02  0.59596473182E+02  0.92264277159E+02  0.00000000000E+00 0.  1.
         11    1    4    4    0    0  0.76850289480E+01 -0.48216629882E+02  0.14059006375E+03  0.14882697703E+03  0.00000000000E+00 0. -1.
</event>
<event>
 8    1  0.3528896E-009  0.1241303E+03  0.7561462E-02  0.1236435E+00
         -1   -1    0    0    0  501 -0.00000000000E+00  0.00000000000E+00  0.35300022855E+02  0.35300022855E+02  0.00000000000E+00 0.  1.
          1   -1    0    0  501    0  0.00000000000E+00 -0.00000000000E+00 -0.60993750519E+03  0.60993750519E+03  0.00000000000E+00 0. -1.
         25    2    1    2    0    0 -0.58584080296E+02  0.57271573012E+02 -0.19285977166E+03  0.24401843263E+03  0.12505189484E+03 0.  0.
         23    2    1    2    0    0  0.58584080296E+02 -0.57271573012E+02 -0.38177771068E+03  0.40121909541E+03  0.92251908449E+02 0.  0.
          5    1    3    3  502    0 -0.87611632565E+02  0.16194250434E+02 -0.77728568585E+02  0.11830999401E+03  0.41800000000E+01 0.  1.
         -5    1    3    3    0  502  0.29027552270E+02  0.41077322577E+02 -0.11513120307E+03  0.12570843862E+03  0.41800000000E+01 0.  1.
        -11    1    4    4    0    0  0.42105127385E+02  0.66111706617E+01 -0.25258780340E+03  0.25615844268E+03  0.00000000000E+00 0. -1.
         11    1    4    4    0    0  0.16478952911E+02 -0.63882743673E+02 -0.12918990728E+03  0.14506065273E+03  0.00000000000E+00 0.  1.
</event>
<event>
 8    1  0.3528896E-009  0.8715562E+02  0.7561462E-02  0.1309890E+00
         -2   -1    0    0    0  501 -0.00000000000E+00  0.00000000000E+00  0.42481862852E+02  0.42481862852E+02  0.00000000000E+00 0.  1.
          2   -1    0    0  501    0  0.00000000000E+00 -0.00000000000E+00 -0.38874996359E+03  0.38874996359E+03  0.00000000000E+00 0. -1.
         25    2    1    2    0    0  0.61620499128E+02 -0.26874200186E+02 -0.21795606290E+03  0.26013787059E+03  0.12509019871E+03 0.  0.
         23    2    1    2    0    0 -0.61620499128E+02  0.26874200186E+02 -0.12831203784E+03  0.17109395585E+03  0.91048636042E+02 0.  0.
          5    1    3    3  502    0  0.39437410971E+02 -0.32546475962E+02 -0.11762358226E+02  0.52634664933E+02  0.41800000000E+01 0. -1.
         -5    1    3    3    0  502  0.22183088158E+02  0.56722757756E+01 -0.20619370467E+03  0.20750320566E+03  0.41800000000E+01 0. -1.
        -11    1    4    4    0    0 -0.51719569114E+02 -0.17242755790E+02 -0.10910785817E+03  0.12197028806E+03  0.00000000000E+00 0. -1.
         11    1    4    4    0    0 -0.99009300143E+01  0.44116955976E+02 -0.19204179673E+02  0.49123667785E+02  0.00000000000E+00 0.  1.
</event>
<event>
 8    1  0.3528896E-009  0.1464804E+03  0.7561462E-02  0.1204866E+00
          2   -1    0    0  501    0  0.00000000000E+00  0.00000000000E+00  0.17558459699E+03  0.17558459699E+03  0.00000000000E+00 0. -1.
         -2   -1    0    0    0  501 -0.00000000000E+00 -0.00000000000E+00 -0.14830645074E+03  0.14830645074E+03  0.00000000000E+00 0.  1.
         25    2    1    2    0    0  0.85338348222E+01  0.11448835275E+03 -0.17640197857E+02  0.17070040116E+03  0.12508813342E+03 0.  0.
         23    2    1    2    0    0 -0.85338348222E+01 -0.11448835275E+03  0.44918344113E+02  0.15319064657E+03  0.90935731735E+02 0.  0.
          5    1    3    3  502    0 -0.11916611323E+02  0.13776707709E+03 -0.11367299104E+02  0.13881088230E+03  0.41800000000E+01 0.  1.
         -5    1    3    3    0  502  0.20450446145E+02 -0.23278724341E+02 -0.62728987521E+01  0.31889518861E+02  0.41800000000E+01 0.  1.
        -11    1    4    4    0    0 -0.21147080745E+02 -0.10613470535E+03  0.26030793313E+01  0.10825225506E+03  0.00000000000E+00 0.  1.
         11    1    4    4    0    0  0.12613245922E+02 -0.83536473973E+01  0.42315264781E+02  0.44938391505E+02  0.00000000000E+00 0. -1.
</event>
<event>
 8    1  0.3528896E-009  0.1087766E+03  0.7561462E-02  0.1262852E+00
          1   -1    0    0  501    0  0.00000000000E+00  0.00000000000E+00  0.69762253287E+03  0.69762253287E+03  0.00000000000E+00 0. -1.
         -1   -1    0    0    0  501 -0.00000000000E+00 -0.00000000000E+00 -0.26858971345E+02  0.26858971345E+02  0.00000000000E+00 0.  1.
         25    2    1    2    0    0  0.68295616405E+02  0.27417854026E+02  0.47134884924E+03  0.49318712835E+03  0.12509107061E+03 0.  0.
         23    2    1    2    0    0 -0.68295616405E+02 -0.27417854026E+02  0.19941471228E+03  0.23129437586E+03  0.91185694567E+02 0.  0.
          5    1    3    3  502    0  0.75329674014E+02 -0.17964647345E+02  0.40517371830E+03  0.41252939622E+03  0.41800000000E+01 0.  1.
         -5    1    3    3    0  502 -0.70340576089E+01  0.45382501371E+02  0.66175130939E+02  0.80657732127E+02  0.41800000000E+01 0.  1.
        -11    1    4    4    0    0  0.10744236059E+02 -0.28952513455E+01 -0.38930036376E+01  0.11788832265E+02  0.00000000000E+00 0.  1.
         11    1    4    4    0    0 -0.79039852464E+02 -0.24522602680E+02  0.20330771591E+03  0.21950554360E+03  0.00000000000E+00 0. -1.
</event>
<event>
 8    1  0.3528896E-009  0.1028447E+03  0.7561462E-02  0.1274425E+00
         -2   -1    0    0    0  501 -0.00000000000E+00  0.00000000000E+00  0.22986026306E+02  0.22986026306E+02  0.00000000000E+00 0.  1.
          2   -1    0    0  501    0  0.00000000000E+00 -0.00000000000E+00 -0.53477399442E+03  0.53477399442E+03  0.00000000000E+00 0. -1.
         25    2    1    2    0    0  0.21249378427E+02 -0.24397169469E+01 -0.32655343275E+03  0.35034681201E+03  0.12509298919E+03 0.  0.
         23    2    1    2    0    0 -0.21249378427E+02  0.24397169469E+01 -0.18523453537E+03  0.20741320872E+03  0.90834562559E+02 0.  0.
          5    1    3    3  502    0 -0.37249420914E+02  0.28266181955E+02 -0.21961019495E+03  0.22457205198E+03  0.41800000000E+01 0. -1.
         -5    1    3    3    0  502  0.58498799341E+02 -0.30705898901E+02 -0.10694323779E+03  0.12577476003E+03  0.41800000000E+01 0. -1.
        -11    1    4    4    0    0  0.35576753021E+02 -0.12342077139E+01 -0.58615511811E+02  0.68578472199E+02  0.00000000000E+00 0.  1.
         11    1    4    4    0    0 -0.56826131448E+02  0.36739246608E+01 -0.12661902356E+03  0.13883473652E+03  0.00000000000E+00 0. -1.
</event>
<event>
 8    1  0.3528896E-009  0.1274472E+03  0.7561462E-02  0.1231294E+00
         -2   -1    0    0    0  501 -0.00000000000E+00  0.00000000000E+00  0.15384122864E+02  0.15384122864E+02  0.00000000000E+00 0.  1.
          2   -1    0    0  501    0  0.00000000000E+00 -0.00000000000E+00 -0.15368189354E+04  0.15368189354E+04  0.00000000000E+00 0. -1.
         25    2    1    2    0    0  0.30057843316E+02  0.81545676581E+02 -0.11495807928E+04  0.11596266124E+04  0.12507881376E+03 0.  0.
         23    2    1    2    0    0 -0.30057843316E+02 -0.81545676581E+02 -0.37185401968E+03  0.39257644582E+03  0.91036709919E+02 0.  0.
          5    1    3    3  502    0  0.58225991810E+02  0.96754871395E+02 -0.71776528739E+03  0.72660598088E+03  0.41800000000E+01 0. -1.
         -5    1    3    3    0  502 -0.28168148494E+02 -0.15209194815E+02 -0.43181550542E+03  0.43302063151E+03  0.41800000000E+01 0. -1.
        -11    1    4    4    0    0  0.11383244099E+02  0.59145693233E+01 -0.60445784375E+01  0.14180878145E+02  0.00000000000E+00 0.  1.
         11    1    4    4    0    0 -0.41441087414E+02 -0.87460245904E+02 -0.36580944124E+03  0.37839556768E+03  0.00000000000E+00 0. -1.
</event>
<event>
 8    1  0.3528896E-009  0.1216227E+03  0.7561462E-02  0.1240444E+00
          1   -1    0    0  501    0  0.00000000000E+00  0.00000000000E+00  0.67069575892E+03  0.67069575892E+03  0.00000000000E+00 0. -1.
         -1   -1    0    0    0  501 -0.00000000000E+00 -0.00000000000E+00 -0.27747735443E+02  0.27747735443E+02  0.00000000000E+00 0.  1.
         25    2    1    2    0    0  0.64436170029E+02 -0.27256068925E+02  0.23860432226E+03  0.27834212211E+03  0.12508957205E+03 0.  0.
         23    2    1    2    0    0 -0.64436170029E+02  0.27256068925E+02  0.40434370122E+03  0.42010137226E+03  0.89980114227E+02 0.  0.
          5    1    3    3  502    0 -0.23072145185E+02  0.20823546338E+02  0.18000240863E+02  0.36158332880E+02  0.41800000000E+01 0.  1.
         -5    1    3    3    0  502  0.87508315214E+02 -0.48079615262E+02  0.22060408140E+03  0.24218378923E+03  0.41800000000E+01 0.  1.
        -11    1    4    4    0    0 -0.78646211229E+02  0.43898350984E+02  0.28935502355E+03  0.30304887628E+03  0.00000000000E+00 0.  1.
         11    1    4    4    0    0  0.14210041200E+02 -0.16642282060E+02  0.11498867767E+03  0.11705249598E+03  0.00000000000E+00 0. -1.
</event>
<event>
 8    1  0.3528896E-009  0.3854902E+02  0.7561462E-02  0.1519169E+00
          2   -1    0    0  501    0  0.00000000000E+00  0.00000000000E+00  0.10362291866E+03  0.10362291866E+03  0.00000000000E+00 0. -1.
         -2   -1    0    0    0  501 -0.00000000000E+00 -0.00000000000E+00 -0.13595057969E+03  0.13595057969E+03  0.00000000000E+00 0.  1.
         25    2    1    2    0    0  0.26343523833E+02 -0.23253203530E+02 -0.51304851615E+02  0.13969461798E+03  0.12509079012E+03 0.  0.
         23    2    1    2    0    0 -0.26343523833E+02  0.23253203530E+02  0.18977190592E+02  0.99878880365E+02  0.91547606511E+02 0.  0.
          5    1    3    3  502    0  0.21203257849E+02 -0.23900037648E+02  0.38181575661E+02  0.49960935369E+02  0.41800000000E+01 0. -1.
         -5    1    3    3    0  502  0.51402659835E+01  0.64683411766E+00 -0.89486427276E+02  0.89733682613E+02  0.41800000000E+01 0. -1.
        -11    1    4    4    0    0 -0.15666144920E+02  0.39448726807E+01  0.55172345745E+02  0.57488936780E+02  0.00000000000E+00 0. -1.
         11    1    4    4    0    0 -0.10677378913E+02  0.19308330850E+02 -0.36195155153E+02  0.42389943585E+02  0.00000000000E+00 0.  1.
</event>
<event>
 8    1  0.3528896E-009  0.1068874E+03  0.7561462E-02  0.1266445E+00
          3   -1    0    0  501    0  0.00000000000E+00  0.00000000000E+00  0.30090185715E+03  0.30090185715E+03  0.00000000000E+00 0. -1.
         -3   -1    0    0    0  501 -0.00000000000E+00 -0.00000000000E+00 -0.67044524103E+02  0.67044524103E+02  0.00000000000E+00 0.  1.
         25    2    1    2    0    0  0.84906157628E+02 -0.30482125338E+02  0.15901525841E+03  0.22152514086E+03  0.12509724241E+03 0.  0.
         23    2    1    2    0    0 -0.84906157628E+02  0.30482125338E+02  0.74842074633E+02  0.14642124039E+03  0.87747523797E+02 0.  0.
          5    1    3    3  502    0  0.26791729109E+02 -0.25814431256E+02 -0.13171276785E+02  0.39687989895E+02  0.41800000000E+01 0. -1.
         -5    1    3    3    0  502  0.58114428519E+02 -0.46676940817E+01  0.17218653519E+03  0.18183715097E+03  0.41800000000E+01 0. -1.
        -11    1    4    4    0    0 -0.62670961928E+02 -0.17442830675E+02  0.15316854526E+02  0.66831937301E+02  0.00000000000E+00 0.  1.
         11    1    4    4    0    0 -0.22235195700E+02  0.47924956012E+02  0.59525220108E+02  0.79589303084E+02  0.00000000000E+00 0. -1.
</event>
<event>
 8    1  0.3528896E-009  0.1104577E+03  0.7561462E-02  0.1259725E+00
          2   -1    0    0  501    0  0.00000000000E+00  0.00000000000E+00  0.80758363741E+03  0.80758363741E+03  0.00000000000E+00 0. -1.
         -2   -1    0    0    0  501 -0.00000000000E+00 -0.00000000000E+00 -0.16430186162E+02  0.16430186162E+02  0.00000000000E+00 0.  1.
         25    2    1    2    0    0 -0.31700208905E+02  0.80896872406E+00  0.39004262059E+03  0.41083611643E+03  0.12509001164E+03 0.  0.
         23    2    1    2    0    0  0.31700208905E+02 -0.80896872406E+00  0.40111083066E+03  0.41317770714E+03  0.93916779824E+02 0.  0.
          5    1    3    3  502    0 -0.36774954210E+02  0.59029931048E+02  0.23416801498E+03  0.24431344960E+03  0.41800000000E+01 0. -1.
         -5    1    3    3    0  502  0.50747453045E+01 -0.58220962324E+02  0.15587460561E+03  0.16652266683E+03  0.41800000000E+01 0. -1.
        -11    1    4    4    0    0 -0.26312950426E+02 -0.18308419825E+02  0.76253958129E+02  0.82717807798E+02  0.00000000000E+00 0.  1.
         11    1    4    4    0    0  0.58013159332E+02  0.17499451101E+02  0.32485687253E+03  0.33045989934E+03  0.00000000000E+00 0. -1.
</event>
<event>
 8    1  0.3528896E-009  0.1380740E+03  0.7561462E-02  0.1215944E+00
         -1   -1    0    0    0  501 -0.00000000000E+00  0.00000000000E+00  0.38377603587E+03  0.38377603587E+03  0.00000000000E+00 0.  1.
          1   -1    0    0  501    0  0.00000000000E+00 -0.00000000000E+00 -0.87910080027E+02  0.87910080027E+02  0.00000000000E+00 0. -1.
         25    2    1    2    0    0 -0.86660508744E+02  0.65836344430E+02  0.28031918294E+03  0.32568393160E+03  0.12508681367E+03 0.  0.
         23    2    1    2    0    0  0.86660508744E+02 -0.65836344430E+02  0.15546772899E+02  0.14600218429E+03  0.96075322782E+02 0.  0.
          5    1    3    3  502    0 -0.54238024797E+01  0.77874499301E+02  0.17804989163E+03  0.19445588596E+03  0.41800000000E+01 0.  1.
         -5    1    3    3    0  502 -0.81236706264E+02 -0.12038154871E+02  0.10226929131E+03  0.13122804564E+03  0.41800000000E+01 0.  1.
        -11    1    4    4    0    0  0.53955686568E+02 -0.16262920314E+02 -0.36410643448E+02  0.67092724244E+02  0.00000000000E+00 0. -1.
         11    1    4    4    0    0  0.32704822176E+02 -0.49573424116E+02  0.51957416347E+02  0.78909460051E+02  0.00000000000E+00 0.  1.
</event>
<event>
 8    1  0.3528896E-009  0.8677190E+02  0.7561462E-02  0.1310863E+00
         -2   -1    0    0    0  501 -0.00000000000E+00  0.00000000000E+00  0.39960909196E+02  0.39960909196E+02  0.00000000000E+00 0.  1.
          2   -1    0    0  501    0  0.00000000000E+00 -0.00000000000E+00 -0.41382913014E+03  0.41382913014E+03  0.00000000000E+00 0. -1.
         25    2    1    2    0    0  0.84262951594E+01 -0.41452499796E+02 -0.33631437137E+03  0.36131038979E+03  0.12509408134E+03 0.  0.
         23    2    1    2    0    0 -0.84262951594E+01  0.41452499796E+02 -0.37553849566E+02  0.92479649545E+02  0.73163390937E+02 0.  0.
          5    1    3    3  502    0  0.19635137658E+02  0.20670972099E+02 -0.26257389747E+03  0.26415024466E+03  0.41800000000E+01 0. -1.
         -5    1    3    3    0  502 -0.11208842499E+02 -0.62123471895E+02 -0.73740473900E+02  0.97160145129E+02  0.41800000000E+01 0. -1.
        -11    1    4    4    0    0  0.30461092488E+02  0.12247234440E+02 -0.33043564823E+01  0.32996843466E+02  0.00000000000E+00 0.  1.
         11    1    4    4    0    0 -0.38887387647E+02  0.29205265356E+02 -0.34249493084E+02  0.59482806079E+02  0.00000000000E+00 0. -1.
</event>
<event>
 8    1  0.3528896E-009  0.1120062E+03  0.7561462E-02  0.1256899E+00
         -2   -1    0    0    0  501 -0.00000000000E+00  0.00000000000E+00  0.31162907450E+02  0.31162907450E+02  0.00000000000E+00 0.  1.
          2   -1    0    0  501    0  0.00000000000E+00 -0.00000000000E+00 -0.68634369119E+03  0.68634369119E+03  0.00000000000E+00 0. -1.
         25    2    1    2    0    0 -0.77943640412E+02 -0.39927201048E+02 -0.46286224710E+03  0.48739858440E+03  0.12508608162E+03 0.  0.
         23    2    1    2    0    0  0.77943640412E+02  0.39927201048E+02 -0.19231853664E+03  0.23010801424E+03  0.91070775882E+02 0.  0.
          5    1    3    3  502    0  0.16283597542E+02  0.15792816416E+02 -0.18033015525E+02  0.29278501468E+02  0.41800000000E+01 0. -1.
         -5    1    3    3    0  502 -0.94227237954E+02 -0.55720017464E+02 -0.44482923158E+03  0.45812008293E+03  0.41800000000E+01 0. -1.
        -11    1    4    4    0    0  0.11238009579E+02 -0.35363674023E+01  0.82051985040E+01  0.14357020450E+02  0.00000000000E+00 0.  1.
         11    1    4    4    0    0  0.66705630833E+02  0.43463568451E+02 -0.20052373514E+03  0.21575099379E+03  0.00000000000E+00 0. -1.
</event>
<event>
 8    1  0.3528896E-009  0.9632257E+02  0.7561462E-02  0.1288225E+00
         -3   -1    0    0    0  501 -0.00000000000E+00  0.00000000000E+00  0.84199961742E+02  0.84199961742E+02  0.00000000000E+00 0.  1.
          3   -1    0    0  501    0  0.00000000000E+00 -0.00000000000E+00 -0.19111346909E+03  0.19111346909E+03  0.00000000000E+00 0. -1.
         25    2    1    2    0    0 -0.16162629175E+02 -0.29601152507E+02  0.34474969044E+01  0.12960460490E+03  0.12509200440E+03 0.  0.
         23    2    1    2    0    0  0.16162629175E+02  0.29601152507E+02 -0.11036100425E+03  0.14570882593E+03  0.88960957072E+02 0.  0.
          5    1    3    3  502    0  0.33630550559E+02  0.20370497047E+02 -0.31699695824E+02  0.50678537826E+02  0.41800000000E+01 0. -1.
         -5    1    3    3    0  502 -0.49793179733E+02 -0.49971649554E+02  0.35147192728E+02  0.78926067074E+02  0.41800000000E+01 0. -1.
        -11    1    4    4    0    0  0.45297979227E+02  0.28008390586E+02 -0.10246700600E+03  0.11548101222E+03  0.00000000000E+00 0. -1.
         11    1    4    4    0    0 -0.29135350052E+02  0.15927619210E+01 -0.78939982511E+01  0.30227813708E+02  0.00000000000E+00 0.  1.
</event>
<event>
 8    1  0.3528896E-009  0.1084979E+03  0.7561462E-02  0.1263377E+00
          2   -1    0    0  501    0  0.00000000000E+00  0.00000000000E+00  0.25351443616E+03  0.25351443616E+03  0.00000000000E+00 0.  1.
         -2   -1    0    0    0  501 -0.00000000000E+00 -0.00000000000E+00 -0.15585753594E+03  0.15585753594E+03  0.00000000000E+00 0. -1.
         25    2    1    2    0    0 -0.59925953282E+02  0.23246255491E+02 -0.10593395121E+03  0.17607292086E+03  0.12509261837E+03 0.  0.
         23    2    1    2    0    0  0.59925953282E+02 -0.23246255491E+02  0.20359085144E+03  0.23329905123E+03  0.94062236033E+02 0.  0.
          5    1    3    3  502    0 -0.84518832517E+02  0.29641382184E+02 -0.11753271213E+03  0.14782914262E+03  0.41800000000E+01 0.  1.
         -5    1    3    3    0  502  0.24592879235E+02 -0.63951266935E+01  0.11598760914E+02  0.28243778239E+02  0.41800000000E+01 0.  1.
        -11    1    4    4    0    0 -0.59377339086E+01  0.21270115114E+02  0.10436932047E+02  0.24425479145E+02  0.00000000000E+00 0. -1.
         11    1    4    4    0    0  0.65863687191E+02 -0.44516370605E+02  0.19315391939E+03  0.20887357209E+03  0.00000000000E+00 0.  1.
</event>
<event>
 8    1  0.3528896E-009  0.1060457E+03  0.7561462E-02  0.1268073E+00
          1   -1    0    0  501    0  0.00000000000E+00  0.00000000000E+00  0.24445416420E+02  0.24445416420E+02  0.00000000000E+00 0. -1.
         -1   -1    0    0    0  501 -0.00000000000E+00 -0.00000000000E+00 -0.65582591394E+03  0.65582591394E+03  0.00000000000E+00 0.  1.
         25    2    1    2    0    0 -0.49784406449E+02 -0.42923047211E+02 -0.35163863517E+03  0.37896968845E+03  0.12508964750E+03 0.  0.
         23    2    1    2    0    0  0.49784406449E+02  0.42923047211E+02 -0.27974186235E+03  0.30130164191E+03  0.90588601717E+02 0.  0.
          5    1    3    3  502    0  0.23431546418E+02  0.25294056244E+02 -0.48066695547E+02  0.59301823493E+02  0.41800000000E+01 0.  1.
         -5    1    3    3    0  502 -0.73215952867E+02 -0.68217103455E+02 -0.30357193963E+03  0.31966786496E+03  0.41800000000E+01 0.  1.
        -11    1    4    4    0    0 -0.60505448129E+01  0.11843450407E+02  0.10398645323E+01  0.13340079772E+02  0.00000000000E+00 0. -1.
         11    1    4    4    0    0  0.55834951262E+02  0.31079596804E+02 -0.28078172688E+03  0.28796156214E+03  0.00000000000E+00 0.  1.
</event>
<event>
 8    1  0.3528896E-009  0.8511825E+02  0.7561462E-02  0.1315124E+00
         -2   -1    0    0    0  501 -0.00000000000E+00  0.00000000000E+00  0.63457593217E+02  0.63457593217E+02  0.00000000000E+00 0.  1.
          2   -1    0    0  501    0  0.00000000000E+00 -0.00000000000E+00 -0.22223552757E+03  0.22223552757E+03  0.00000000000E+00 0. -1.
         25    2    1    2    0    0  0.48353484180E+02  0.56937608167E+01 -0.11451554888E+03  0.17643967837E+03  0.12508665326E+03 0.  0.
         23    2    1    2    0    0 -0.48353484180E+02 -0.56937608167E+01 -0.44262385473E+02  0.10925344242E+03  0.87216268942E+02 0.  0.
          5    1    3    3  502    0  0.24070275709E+02  0.53492470090E+02 -0.10706169266E+03  0.12214950252E+03  0.41800000000E+01 0.  1.
         -5    1    3    3    0  502  0.24283208470E+02 -0.47798709273E+02 -0.74538562207E+01  0.54290175855E+02  0.41800000000E+01 0.  1.
        -11    1    4    4    0    0 -0.16918911931E+02  0.12769928859E+02  0.23905273739E+02  0.31949691337E+02  0.00000000000E+00 0.  1.
         11    1    4    4    0    0 -0.31434572249E+02 -0.18463689676E+02 -0.68167659212E+02  0.77303751082E+02  0.00000000000E+00 0. -1.
</event>
<event>
 8    1  0.3528896E-009  0.1116085E+03  0.7561462E-02  0.1257620E+00
         -2   -1    0    0    0  501 -0.00000000000E+00  0.00000000000E+00  0.28282567113E+03  0.28282567113E+03  0.00000000000E+00 0. -1.
          2   -1    0    0  501    0  0.00000000000E+00 -0.00000000000E+00 -0.12718756080E+03  0.12718756080E+03  0.00000000000E+00 0.  1.
         25    2    1    2    0    0  0.15776981614E+02  0.68576366169E+02 -0.68610084967E+02  0.15908006914E+03  0.12508994161E+03 0.  0.
         23    2    1    2    0    0 -0.15776981614E+02 -0.68576366169E+02  0.22424819529E+03  0.25093316279E+03  0.87912274163E+02 0.  0.
          5    1    3    3  502    0 -0.51249094886E+02  0.67985767189E+01 -0.19157355840E+02  0.55291654477E+02  0.41800000000E+01 0. -1.
         -5    1    3    3    0  502  0.67026076500E+02  0.61777789450E+02 -0.49452729127E+02  0.10378841466E+03  0.41800000000E+01 0. -1.
        -11    1    4    4    0    0 -0.28093859384E+02 -0.39025991054E+02  0.36225737287E+02  0.60204625693E+02  0.00000000000E+00 0.  1.
         11    1    4    4    0    0  0.12316877771E+02 -0.29550375115E+02  0.18802245801E+03  0.19072853709E+03  0.00000000000E+00 0. -1.
</event>
<event>
 8    1  0.3528896E-009  0.1124853E+03  0.7561462E-02  0.1256035E+00
          1   -1    0    0  501    0  0.00000000000E+00  0.00000000000E+00  0.34168201205E+03  0.34168201205E+03  0.00000000000E+00 0. -1.
         -1   -1    0    0    0  501 -0.00000000000E+00 -0.00000000000E+00 -0.43178424640E+02  0.43178424640E+02  0.00000000000E+00 0.  1.
         25    2    1    2    0    0 -0.64584768251E+01  0.45085112397E+02  0.21671513576E+03  0.25433637596E+03  0.12508861975E+03 0.  0.
         23    2    1    2    0    0  0.64584768251E+01 -0.45085112397E+02  0.81788451650E+02  0.13052406072E+03  0.90954935663E+02 0.  0.
          5    1    3    3  502    0 -0.32187144126E+01 -0.39190286512E+02  0.11790947360E+03  0.12436380118E+03  0.41800000000E+01 0.  1.
         -5    1    3    3    0  502 -0.32397624125E+01  0.84275398909E+02  0.98805662157E+02  0.12997257478E+03  0.41800000000E+01 0.  1.
        -11    1    4    4    0    0  0.30131252464E+02 -0.63964747599E+02  0.49841162218E+02  0.86507356691E+02  0.00000000000E+00 0. -1.
         11    1    4    4    0    0 -0.23672775639E+02  0.18879635201E+02  0.31947289432E+02  0.44016704032E+02  0.00000000000E+00 0.  1.
</event>
<event>
 8    1  0.3528896E-009  0.1959475E+03  0.7561462E-02  0.1153204E+00
          1   -1    0    0  501    0  0.00000000000E+00  0.00000000000E+00  0.18596648013E+04  0.18596648013E+04  0.00000000000E+00 0. -1.
         -1   -1    0    0    0  501 -0.00000000000E+00 -0.00000000000E+00 -0.30385121376E+02  0.30385121376E+02  0.00000000000E+00 0.  1.
         25    2    1    2    0    0 -0.15828385130E+03  0.87173700902E+02  0.13035135764E+04  0.13219121159E+04  0.12510382307E+03 0.  0.
         23    2    1    2    0    0  0.15828385130E+03 -0.87173700902E+02  0.52576610354E+03  0.56813780681E+03  0.11703649082E+03 0.  0.
          5    1    3    3  502    0 -0.68041400036E+02  0.83666974850E+02  0.98253568927E+03  0.98844506569E+03  0.41800000000E+01 0.  1.
         -5    1    3    3    0  502 -0.90242451264E+02  0.35067260517E+01  0.32097788716E+03  0.33346705022E+03  0.41800000000E+01 0.  1.
        -11    1    4    4    0    0  0.11050169463E+03 -0.94281892796E+02  0.25828077844E+03  0.29632526105E+03  0.00000000000E+00 0.  1.
         11    1    4    4    0    0  0.47782156675E+02  0.71081918939E+01  0.26748532510E+03  0.27181254576E+03  0.00000000000E+00 0. -1.
</event>
<event>
 8    1  0.3528896E-009  0.1188868E+03  0.7561462E-02  0.1244945E+00
         -1   -1    0    0    0  501 -0.00000000000E+00  0.00000000000E+00  0.86629866382E+02  0.86629866382E+02  0.00000000000E+00 0.  1.
          1   -1    0    0  501    0  0.00000000000E+00 -0.00000000000E+00 -0.21159307099E+03  0.21159307099E+03  0.00000000000E+00 0. -1.
         25    2    1    2    0    0  0.86891731712E+02 -0.29976842909E+02 -0.45668639516E+02  0.16180816138E+03  0.12508985692E+03 0.  0.
         23    2    1    2    0    0 -0.86891731712E+02  0.29976842909E+02 -0.79294565090E+02  0.13641477599E+03  0.62230048246E+02 0.  0.
          5    1    3    3  502    0  0.63670434373E+02  0.36540891119E+02 -0.53303620032E+02  0.90818000669E+02  0.41800000000E+01 0.  1.
         -5    1    3    3    0  502  0.23221297340E+02 -0.66517734028E+02  0.76349805162E+01  0.70990160711E+02  0.41800000000E+01 0.  1.
        -11    1    4    4    0    0 -0.58174592693E+02  0.10893450626E+02 -0.82777244710E+02  0.10175963219E+03  0.00000000000E+00 0. -1.
         11    1    4    4    0    0 -0.28717139020E+02  0.19083392283E+02  0.34826796200E+01  0.34655143800E+02  0.00000000000E+00 0.  1.
</event>
<event>
 8    1  0.3528896E-009  0.7615406E+02  0.7561462E-02  0.1340334E+00
          1   -1    0    0  501    0  0.00000000000E+00  0.00000000000E+00  0.13701896770E+03  0.13701896770E+03  0.00000000000E+00 0. -1.
         -1   -1    0    0    0  501 -0.00000000000E+00 -0.00000000000E+00 -0.11161583894E+03  0.11161583894E+03  0.00000000000E+00 0.  1.
         25    2    1    2    0    0  0.10791699722E+01 -0.57567853294E+01  0.73689129045E+02  0.14531793983E+03  0.12511159304E+03 0.  0.
         23    2    1    2    0    0 -0.10791699722E+01  0.57567853294E+01 -0.48286000285E+02  0.10331686682E+03  0.91151148980E+02 0.  0.
          5    1    3    3  502    0 -0.42991310493E+02  0.20367636153E+02 -0.83755532084E+01  0.48484179604E+02  0.41800000000E+01 0. -1.
         -5    1    3    3    0  502  0.44070480465E+02 -0.26124421482E+02  0.82064682254E+02  0.96833760226E+02  0.41800000000E+01 0. -1.
        -11    1    4    4    0    0  0.18934861789E+01  0.29329948760E+02 -0.66940722917E+02  0.73108765335E+02  0.00000000000E+00 0.  1.
         11    1    4    4    0    0 -0.29726561510E+01 -0.23573163430E+02  0.18654722632E+02  0.30208101483E+02  0.00000000000E+00 0. -1.
</event>
<event>
 8    1  0.3528896E-009  0.8915248E+02  0.7561462E-02  0.1304917E+00
         -2   -1    0    0    0  501 -0.00000000000E+00  0.00000000000E+00  0.35805011795E+02  0.35805011795E+02  0.00000000000E+00 0.  1.
          2   -1    0    0  501    0  0.00000000000E+00 -0.00000000000E+00 -0.36432175281E+03  0.36432175281E+03  0.00000000000E+00 0. -1.
         25    2    1    2    0    0 -0.32694612121E+02  0.17328791329E+02 -0.17568369903E+03  0.21882817038E+03  0.12510707963E+03 0.  0.
         23    2    1    2    0    0  0.32694612121E+02 -0.17328791329E+02 -0.15283304199E+03  0.18129859423E+03  0.90233125165E+02 0.  0.
          5    1    3    3  502    0 -0.77305808301E+01  0.62099272058E+02 -0.14727505375E+03  0.16007340606E+03  0.41800000000E+01 0.  1.
         -5    1    3    3    0  502 -0.24964031291E+02 -0.44770480729E+02 -0.28408645278E+02  0.58754764314E+02  0.41800000000E+01 0.  1.
        -11    1    4    4    0    0  0.13537359308E+02 -0.35351119925E+02 -0.14579027555E+02  0.40564884092E+02  0.00000000000E+00 0.  1.
         11    1    4    4    0    0  0.19157252812E+02  0.18022328596E+02 -0.13825401443E+03  0.14073371014E+03  0.00000000000E+00 0. -1.
</event>
<event>
 8    1  0.3528896E-009  0.8121751E+02  0.7561462E-02  0.1325631E+00
         -2   -1    0    0    0  501 -0.00000000000E+00  0.00000000000E+00  0.19934412044E+03  0.19934412044E+03  0.00000000000E+00 0.  1.
          2   -1    0    0  501    0  0.00000000000E+00 -0.00000000000E+00 -0.66976015593E+02  0.66976015593E+02  0.00000000000E+00 0. -1.
         25    2    1    2    0    0  0.15503900524E+01 -0.27588542430E+02  0.42309654512E+02  0.13490801560E+03  0.12508610805E+03 0.  0.
         23    2    1    2    0    0 -0.15503900524E+01  0.27588542430E+02  0.90058450340E+02  0.13141212044E+03  0.91624721211E+02 0.  0.
          5    1    3    3  502    0  0.41535735442E+02 -0.52757729151E+02 -0.55770130535E+01  0.67506820237E+02  0.41800000000E+01 0.  1.
         -5    1    3    3    0  502 -0.39985345390E+02  0.25169186721E+02  0.47886667566E+02  0.67401195366E+02  0.41800000000E+01 0.  1.
        -11    1    4    4    0    0  0.18696746437E+02  0.13453909748E+02  0.10158339364E+03  0.10416219025E+03  0.00000000000E+00 0.  1.
         11    1    4    4    0    0 -0.20247136489E+02  0.14134632681E+02 -0.11524943298E+02  0.27249930185E+02  0.00000000000E+00 0. -1.
</event>
<event>
 8    1  0.3528896E-009  0.6172968E+02  0.7561462E-02  0.1390713E+00
          2   -1    0    0  501    0  0.00000000000E+00  0.00000000000E+00  0.57583573797E+03  0.57583573797E+03  0.00000000000E+00 0. -1.
         -2   -1    0    0    0  501 -0.00000000000E+00 -0.00000000000E+00 -0.19225567391E+02  0.19225567391E+02  0.00000000000E+00 0.  1.
         25    2    1    2    0    0 -0.79757943739E+01  0.19911142750E+00  0.30648014873E+03  0.33112143600E+03  0.12509065062E+03 0.  0.
         23    2    1    2    0    0  0.79757943739E+01 -0.19911142750E+00  0.25013002185E+03  0.26393986936E+03  0.83878327750E+02 0.  0.
          5    1    3    3  502    0  0.22243944631E+02  0.28624058304E+01 -0.30107456278E+00  0.22815553593E+02  0.41800000000E+01 0. -1.
         -5    1    3    3    0  502 -0.30219739004E+02 -0.26632944029E+01  0.30678122329E+03  0.30830588241E+03  0.41800000000E+01 0. -1.
        -11    1    4    4    0    0 -0.86190907018E+01  0.32354522587E+02  0.19464623402E+03  0.19750508923E+03  0.00000000000E+00 0.  1.
         11    1    4    4    0    0  0.16594885076E+02 -0.32553634014E+02  0.55483787838E+02  0.66434780131E+02  0.00000000000E+00 0. -1.
</event>
<event>
 8    1  0.3528896E-009  0.1369347E+03  0.7561462E-02  0.1217514E+00
         -1   -1    0    0    0  501 -0.00000000000E+00  0.00000000000E+00  0.22644859334E+03  0.22644859334E+03  0.00000000000E+00 0.  1.
          1   -1    0    0  501    0  0.00000000000E+00 -0.00000000000E+00 -0.10544547671E+03  0.10544547671E+03  0.00000000000E+00 0. -1.
         25    2    1    2    0    0  0.92634072787E+02  0.15203227813E+02  0.12556436310E+03  0.20056354749E+03  0.12508843961E+03 0.  0.
         23    2    1    2    0    0 -0.92634072787E+02 -0.15203227813E+02 -0.45612464677E+01  0.13133052255E+03  0.91731628176E+02 0.  0.
          5    1    3    3  502    0 -0.22674617699E+02 -0.15259947973E+02  0.55940384193E+02  0.62400346823E+02  0.41800000000E+01 0. -1.
         -5    1    3    3    0  502  0.11530869049E+03  0.30463175786E+02  0.69623978911E+02  0.13816320067E+03  0.41800000000E+01 0. -1.
        -11    1    4    4    0    0 -0.21177120712E+02  0.34047773704E+02 -0.17199128397E+02  0.43629478034E+02  0.00000000000E+00 0. -1.
         11    1    4    4    0    0 -0.71456952074E+02 -0.49251001517E+02  0.12637881929E+02  0.87701044520E+02  0.00000000000E+00 0.  1.
</event>
<event>
 8    1  0.3528896E-009  0.1544646E+03  0.7561462E-02  0.1195092E+00
         -2   -1    0    0    0  501 -0.00000000000E+00  0.00000000000E+00  0.61409200678E+02  0.61409200678E+02  0.00000000000E+00 0.  1.
          2   -1    0    0  501    0  0.00000000000E+00 -0.00000000000E+00 -0.65435966277E+03  0.65435966277E+03  0.00000000000E+00 0. -1.
         25    2    1    2    0    0  0.98168886455E+02  0.60408171733E+02 -0.52852572042E+03  0.55522278806E+03  0.12508648909E+03 0.  0.
         23    2    1    2    0    0 -0.98168886455E+02 -0.60408171733E+02 -0.64424741668E+02  0.16054607539E+03  0.91313840698E+02 0.  0.
          5    1    3    3  502    0  0.86148018106E+02 -0.19651575662E+02 -0.25298797043E+03  0.26800755779E+03  0.41800000000E+01 0.  1.
         -5    1    3    3    0  502  0.12020868349E+02  0.80059747395E+02 -0.27553774999E+03  0.28721523027E+03  0.41800000000E+01 0.  1.
        -11    1    4    4    0    0 -0.63326774154E+02 -0.77920597024E+02 -0.21749050723E+02  0.10273714505E+03  0.00000000000E+00 0.  1.
         11    1    4    4    0    0 -0.34842112301E+02  0.17512425291E+02 -0.42675690945E+02  0.57808930338E+02  0.00000000000E+00 0. -1.
</event>
<event>
 8    1  0.3528896E-009  0.1324043E+03  0.7561462E-02  0.1223931E+00
          2   -1    0    0  501    0  0.00000000000E+00  0.00000000000E+00  0.23381810469E+03  0.23381810469E+03  0.00000000000E+00 0. -1.
         -2   -1    0    0    0  501 -0.00000000000E+00 -0.00000000000E+00 -0.35958548240E+03  0.35958548240E+03  0.00000000000E+00 0.  1.
         25    2    1    2    0    0  0.52912677274E+02  0.11387746612E+03 -0.30735953676E+03  0.35480413303E+03  0.12509300250E+03 0.  0.
         23    2    1    2    0    0 -0.52912677274E+02 -0.11387746612E+03  0.18159215904E+03  0.23859945406E+03  0.90477392456E+02 0.  0.
          5    1    3    3  502    0 -0.11093150373E+02  0.12423274765E+02 -0.17611209116E+03  0.17694727123E+03  0.41800000000E+01 0. -1.
         -5    1    3    3    0  502  0.64005827647E+02  0.10145419135E+03 -0.13124744559E+03  0.17785686180E+03  0.41800000000E+01 0. -1.
        -11    1    4    4    0    0 -0.23117556681E+02 -0.75865453374E+02  0.17193573057E+03  0.18934593708E+03  0.00000000000E+00 0.  1.
         11    1    4    4    0    0 -0.29795120592E+02 -0.38012012743E+02  0.96564284744E+01  0.49253516979E+02  0.00000000000E+00 0. -1.
</event>
<event>
 8    1  0.3528896E-009  0.1567003E+03  0.7561462E-02  0.1192473E+00
         -2   -1    0    0    0  501 -0.00000000000E+00  0.00000000000E+00  0.17356974879E+02  0.17356974879E+02  0.00000000000E+00 0.  1.
          2   -1    0    0  501    0  0.00000000000E+00 -0.00000000000E+00 -0.21803623231E+04  0.21803623231E+04  0.00000000000E+00 0. -1.
         25    2    1    2    0    0  0.11067338214E+03  0.42361488844E+02 -0.17562620908E+04  0.17646946051E+04  0.12508966538E+03 0.  0.
         23    2    1    2    0    0 -0.11067338214E+03 -0.42361488844E+02 -0.40674325744E+03  0.43302469292E+03  0.89594720534E+02 0.  0.
          5    1    3    3  502    0  0.11903830254E+03  0.68575883253E+02 -0.12213687902E+04  0.12290776881E+04  0.41800000000E+01 0.  1.
         -5    1    3    3    0  502 -0.83649203957E+01 -0.26214394409E+02 -0.53489330056E+03  0.53561691698E+03  0.41800000000E+01 0.  1.
        -11    1    4    4    0    0 -0.48363682496E+02 -0.65706906543E+02 -0.20745351744E+03  0.22292017686E+03  0.00000000000E+00 0.  1.
         11    1    4    4    0    0 -0.62309699647E+02  0.23345417699E+02 -0.19928974000E+03  0.21010451606E+03  0.00000000000E+00 0. -1.
</event>
<event>
 8    1  0.3528896E-009  0.8992344E+02  0.7561462E-02  0.1303037E+00
          3   -1    0    0  501    0  0.00000000000E+00  0.00000000000E+00  0.22560832382E+03  0.22560832382E+03  0.00000000000E+00 0. -1.
         -3   -1    0    0    0  501 -0.00000000000E+00 -0.00000000000E+00 -0.54390961621E+02  0.54390961621E+02  0.00000000000E+00 0.  1.
         25    2    1    2    0    0  0.42595558535E+01  0.14271690058E+02  0.95389718410E+02  0.15801417770E+03  0.12508979584E+03 0.  0.
         23    2    1    2    0    0 -0.42595558535E+01 -0.14271690058E+02  0.75827643795E+02  0.12198510775E+03  0.94385962914E+02 0.  0.
          5    1    3    3  502    0 -0.22685603958E+02 -0.27666391455E+02  0.10142181624E+03  0.10762863491E+03  0.41800000000E+01 0.  1.
         -5    1    3    3    0  502  0.26945159811E+02  0.41938081513E+02 -0.60320978287E+01  0.50385542792E+02  0.41800000000E+01 0.  1.
        -11    1    4    4    0    0  0.36764476511E+02  0.18629146268E+02  0.45025927272E+02  0.61041018590E+02  0.00000000000E+00 0. -1.
         11    1    4    4    0    0 -0.41024032364E+02 -0.32900836325E+02  0.30801716523E+02  0.60944089156E+02  0.00000000000E+00 0.  1.
</event>
<event>
 8    1  0.3528896E-009  0.1035273E+03  0.7561462E-02  0.1273049E+00
         -1   -1    0    0    0  501 -0.00000000000E+00  0.00000000000E+00  0.17744292195E+03  0.17744292195E+03  0.00000000000E+00 0.  1.
          1   -1    0    0  501    0  0.00000000000E+00 -0.00000000000E+00 -0.12683347535E+03  0.12683347535E+03  0.00000000000E+00 0. -1.
         25    2    1    2    0    0 -0.85772985493E+02 -0.60240902467E+01 -0.32264548892E+02  0.15518410626E+03  0.12509121079E+03 0.  0.
         23    2    1    2    0    0  0.85772985493E+02  0.60240902467E+01  0.82873995496E+02  0.14909229105E+03  0.89258710589E+02 0.  0.
          5    1    3    3  502    0 -0.80731140235E+02 -0.26642814154E+02 -0.70983695313E+02  0.11083101529E+03  0.41800000000E+01 0.  1.
         -5    1    3    3    0  502 -0.50418452581E+01  0.20618723907E+02  0.38719146421E+02  0.44353090972E+02  0.41800000000E+01 0.  1.
        -11    1    4    4    0    0  0.49457224809E+02 -0.22296641687E+02 -0.35556843153E-01  0.54250885529E+02  0.00000000000E+00 0. -1.
         11    1    4    4    0    0  0.36315760684E+02  0.28320731934E+02  0.82909552339E+02  0.94841405516E+02  0.00000000000E+00 0.  1.
</event>
<event>
 8    1  0.3528896E-009  0.1866849E+03  0.7561462E-02  0.1161486E+00
          1   -1    0    0  501    0  0.00000000000E+00  0.00000000000E+00  0.40098980174E+03  0.40098980174E+03  0.00000000000E+00 0. -1.
         -1   -1    0    0    0  501 -0.00000000000E+00 -0.00000000000E+00 -0.12322231002E+03  0.12322231002E+03  0.00000000000E+00 0.  1.
         25    2    1    2    0    0 -0.83686139705E+02 -0.14986598820E+03  0.38206378911E+02  0.21580180056E+03  0.12508998896E+03 0.  0.
         23    2    1    2    0    0  0.83686139705E+02  0.14986598820E+03  0.23956111281E+03  0.30841031119E+03  0.90907694291E+02 0.  0.
          5    1    3    3  502    0 -0.43972640560E+02 -0.26175506118E+02 -0.39131880210E+02  0.64556383783E+02  0.41800000000E+01 0. -1.
         -5    1    3    3    0  502 -0.39713499144E+02 -0.12369048209E+03  0.77338259121E+02  0.15124541678E+03  0.41800000000E+01 0. -1.
        -11    1    4    4    0    0  0.61033607436E+02  0.26360202516E+02  0.10573551229E+03  0.12489980013E+03  0.00000000000E+00 0. -1.
         11    1    4    4    0    0  0.22652532269E+02  0.12350578569E+03  0.13382560052E+03  0.18351051106E+03  0.00000000000E+00 0.  1.
</event>
<event>
 8    1  0.3528896E-009  0.9348568E+02  0.7561462E-02  0.1294624E+00
         -1   -1    0    0    0  501 -0.00000000000E+00  0.00000000000E+00  0.52753448769E+03  0.52753448769E+03  0.00000000000E+00 0.  1.
          1   -1    0    0  501    0  0.00000000000E+00 -0.00000000000E+00 -0.31800477572E+02  0.31800477572E+02  0.00000000000E+00 0. -1.
         25    2    1    2    0    0 -0.63542232139E+02 -0.27445803938E+02  0.26158597135E+03  0.29810582662E+03  0.12509586739E+03 0.  0.
         23    2    1    2    0    0  0.63542232139E+02  0.27445803938E+02  0.23414803876E+03  0.26122913864E+03  0.92868032173E+02 0.  0.
          5    1    3    3  502    0  0.28138333252E+01  0.19460507512E+02 -0.38593020705E+01  0.20469382577E+02  0.41800000000E+01 0. -1.
         -5    1    3    3    0  502 -0.66356065464E+02 -0.46906311451E+02  0.26544527342E+03  0.27763644404E+03  0.41800000000E+01 0. -1.
        -11    1    4    4    0    0  0.15121389452E+00 -0.11237786896E+02 -0.38768121105E+01  0.11888666541E+02  0.00000000000E+00 0. -1.
         11    1    4    4    0    0  0.63391018244E+02  0.38683590835E+02  0.23802485087E+03  0.24934047210E+03  0.00000000000E+00 0.  1.
</event>
<event>
 8    1  0.3528896E-009  0.2283003E+03  0.7561462E-02  0.1127842E+00
         -1   -1    0    0    0  501 -0.00000000000E+00  0.00000000000E+00  0.29498671437E+02  0.29498671437E+02  0.00000000000E+00 0.  1.
          1   -1    0    0  501    0  0.00000000000E+00 -0.00000000000E+00 -0.18548266113E+04  0.18548266113E+04  0.00000000000E+00 0. -1.
         25    2    1    2    0    0 -0.20526291938E+03  0.25740595513E+02 -0.90616867645E+03  0.93786209969E+03  0.12509277967E+03 0.  0.
         23    2    1    2    0    0  0.20526291938E+03 -0.25740595513E+02 -0.91915926346E+03  0.94646318309E+03  0.90240573002E+02 0.  0.
          5    1    3    3  502    0 -0.16562423947E+02  0.38705441024E+02 -0.29678689283E+03  0.29978718653E+03  0.41800000000E+01 0. -1.
         -5    1    3    3    0  502 -0.18870049543E+03 -0.12964845511E+02 -0.60938178362E+03  0.63807491316E+03  0.41800000000E+01 0. -1.
        -11    1    4    4    0    0  0.13509705610E+02  0.23518592062E+02 -0.90157919752E+02  0.94149279404E+02  0.00000000000E+00 0.  1.
         11    1    4    4    0    0  0.19175321377E+03 -0.49259187575E+02 -0.82900134370E+03  0.85231390369E+03  0.00000000000E+00 0. -1.
</event>
<event>
 8    1  0.3528896E-009  0.2714954E+03  0.7561462E-02  0.1100427E+00
          4   -1    0    0  501    0  0.00000000000E+00  0.00000000000E+00  0.83435339786E+03  0.83435339786E+03  0.00000000000E+00 0. -1.
         -4   -1    0    0    0  501 -0.00000000000E+00 -0.00000000000E+00 -0.10066970632E+03  0.10066970632E+03  0.00000000000E+00 0.  1.
         25    2    1    2    0    0 -0.13655320101E+03 -0.22482586517E+03  0.28933364347E+03  0.41055647262E+03  0.12509681696E+03 0.  0.
         23    2    1    2    0    0  0.13655320101E+03  0.22482586517E+03  0.44435004807E+03  0.52446663155E+03  0.91786905588E+02 0.  0.
          5    1    3    3  502    0 -0.69898828666E+02 -0.18791335513E+03  0.26103298790E+03  0.32917012084E+03  0.41800000000E+01 0. -1.
         -5    1    3    3    0  502 -0.66654372344E+02 -0.36912510042E+02  0.28300655571E+02  0.81386351779E+02  0.41800000000E+01 0. -1.
        -11    1    4    4    0    0  0.60785565538E+01  0.36724728838E+02  0.13239077885E+03  0.13752444468E+03  0.00000000000E+00 0. -1.
         11    1    4    4    0    0  0.13047464446E+03  0.18810113633E+03  0.31195926922E+03  0.38694218688E+03  0.00000000000E+00 0.  1.
</event>
<event>
 8    1  0.3528896E-009  0.8345377E+02  0.7561462E-02  0.1319526E+00
          1   -1    0    0  501    0  0.00000000000E+00  0.00000000000E+00  0.39409216770E+03  0.39409216770E+03  0.00000000000E+00 0. -1.
         -1   -1    0    0    0  501 -0.00000000000E+00 -0.00000000000E+00 -0.30545258818E+02  0.30545258818E+02  0.00000000000E+00 0.  1.
         25    2    1    2    0    0  0.16295802520E+02 -0.59620365049E+01  0.21869223208E+03  0.25253851677E+03  0.12509320935E+03 0.  0.
         23    2    1    2    0    0 -0.16295802520E+02  0.59620365049E+01  0.14485467680E+03  0.17209890974E+03  0.91291063547E+02 0.  0.
          5    1    3    3  502    0  0.48829185144E+02  0.34342775398E+02  0.17398307166E+03  0.18398722012E+03  0.41800000000E+01 0.  1.
         -5    1    3    3    0  502 -0.32533382624E+02 -0.40304811903E+02  0.44709160416E+02  0.68551296651E+02  0.41800000000E+01 0.  1.
        -11    1    4    4    0    0 -0.18183336520E+02 -0.21167019459E+02  0.34666087485E+01  0.28119278369E+02  0.00000000000E+00 0.  1.
         11    1    4    4    0    0  0.18875339997E+01  0.27129055964E+02  0.14138806805E+03  0.14397963137E+03  0.00000000000E+00 0. -1.
</event>
<event>
 8    1  0.3528896E-009  0.1098855E+03  0.7561462E-02  0.1260782E+00
          3   -1    0    0  501    0  0.00000000000E+00  0.00000000000E+00  0.49657391350E+02  0.49657391350E+02  0.00000000000E+00 0. -1.
         -3   -1    0    0    0  501 -0.00000000000E+00 -0.00000000000E+00 -0.29180932829E+03  0.29180932829E+03  0.00000000000E+00 0.  1.
         25    2    1    2    0    0 -0.20092350072E+02  0.14744324235E+02 -0.20058099296E+03  0.23769730067E+03  0.12508466883E+03 0.  0.
         23    2    1    2    0    0  0.20092350072E+02 -0.14744324235E+02 -0.41570943980E+02  0.10376941898E+03  0.91754298555E+02 0.  0.
          5    1    3    3  502    0 -0.65138626227E+02 -0.21368372312E+02 -0.94091260274E+02  0.11649156889E+03  0.41800000000E+01 0.  1.
         -5    1    3    3    0  502  0.45046276155E+02  0.36112696547E+02 -0.10648973269E+03  0.12120573178E+03  0.41800000000E+01 0.  1.
        -11    1    4    4    0    0  0.53754427869E+02 -0.23119948220E+02 -0.35816896973E+02  0.68607001319E+02  0.00000000000E+00 0.  1.
         11    1    4    4    0    0 -0.33662077797E+02  0.83756239854E+01 -0.57540470066E+01  0.35162417660E+02  0.00000000000E+00 0. -1.
</event>
<event>
 8    1  0.3528896E-009  0.9408570E+02  0.7561462E-02  0.1293249E+00
          3   -1    0    0  501    0  0.00000000000E+00  0.00000000000E+00  0.45696210828E+03  0.45696210828E+03  0.00000000000E+00 0. -1.
         -3   -1    0    0    0  501 -0.00000000000E+00 -0.00000000000E+00 -0.27430136604E+02  0.27430136604E+02  0.00000000000E+00 0.  1.
         25    2    1    2    0    0 -0.26572290083E+02 -0.10241138398E+02  0.26043053528E+03  0.29032491742E+03  0.12511405379E+03 0.  0.
         23    2    1    2    0    0  0.26572290083E+02  0.10241138398E+02  0.16910143640E+03  0.19406732747E+03  0.90861786690E+02 0.  0.
          5    1    3    3  502    0 -0.61399003835E+02 -0.15619555144E+02  0.24228891006E+03  0.25046995132E+03  0.41800000000E+01 0.  1.
         -5    1    3    3    0  502  0.34826713752E+02  0.53784167464E+01  0.18141625213E+02  0.39854966100E+02  0.41800000000E+01 0.  1.
        -11    1    4    4    0    0 -0.25105713214E+02 -0.17438933491E+02  0.28748619862E+02  0.41963035892E+02  0.00000000000E+00 0.  1.
         11    1    4    4    0    0  0.51678003297E+02  0.27680071889E+02  0.14035281654E+03  0.15210429158E+03  0.00000000000E+00 0. -1.
</event>
<event>
 8    1  0.3528896E-009  0.1107911E+03  0.7561462E-02  0.1259112E+00
          1   -1    0    0  501    0  0.00000000000E+00  0.00000000000E+00  0.52878976383E+03  0.52878976383E+03  0.00000000000E+00 0. -1.
         -1   -1    0    0    0  501 -0.00000000000E+00 -0.00000000000E+00 -0.37555432948E+02  0.37555432948E+02  0.00000000000E+00 0.  1.
         25    2    1    2    0    0  0.25042535065E+02 -0.48700116424E+02  0.40735998870E+03  0.42963723527E+03  0.12508862309E+03 0.  0.
         23    2    1    2    0    0 -0.25042535065E+02  0.48700116424E+02  0.83874342180E+02  0.13670796151E+03  0.93034034435E+02 0.  0.
          5    1    3    3  502    0  0.70336219750E+02 -0.43414112110E+02  0.32532308246E+03  0.33568519377E+03  0.41800000000E+01 0.  1.
         -5    1    3    3    0  502 -0.45293684685E+02 -0.52860043138E+01  0.82036906247E+02  0.93952041492E+02  0.41800000000E+01 0.  1.
        -11    1    4    4    0    0  0.19361785382E+02  0.44373906549E+02  0.85511579485E+01  0.49163447986E+02  0.00000000000E+00 0.  1.
         11    1    4    4    0    0 -0.44404320447E+02  0.43262098751E+01  0.75323184232E+02  0.87544513529E+02  0.00000000000E+00 0. -1.
</event>
<event>
 8    1  0.3528896E-009  0.1336840E+03  0.7561462E-02  0.1222089E+00
         -1   -1    0    0    0  501 -0.00000000000E+00  0.00000000000E+00  0.25667530496E+02  0.25667530496E+02  0.00000000000E+00 0.  1.
          1   -1    0    0  501    0  0.00000000000E+00 -0.00000000000E+00 -0.74158614840E+03  0.74158614840E+03  0.00000000000E+00 0. -1.
         25    2    1    2    0    0  0.22749505232E+02 -0.77047108631E+02 -0.38665337780E+03  0.41424779119E+03  0.12508637416E+03 0.  0.
         23    2    1    2    0    0 -0.22749505232E+02  0.77047108631E+02 -0.32926524010E+03  0.35300588771E+03  0.98710493272E+02 0.  0.
          5    1    3    3  502    0 -0.23072120565E+02  0.23905970676E+02 -0.53581293384E+02  0.63184219406E+02  0.41800000000E+01 0. -1.
         -5    1    3    3    0  502  0.45821625797E+02 -0.10095307931E+03 -0.33307208442E+03  0.35106357178E+03  0.41800000000E+01 0. -1.
        -11    1    4    4    0    0 -0.51209804722E+02  0.12972779837E+02 -0.18826937605E+03  0.19554052029E+03  0.00000000000E+00 0. -1.
         11    1    4    4    0    0  0.28460299490E+02  0.64074328794E+02 -0.14099586405E+03  0.15746536742E+03  0.00000000000E+00 0.  1.
</event>
<event>
 8    1  0.3528896E-009  0.1362905E+03  0.7561462E-02  0.1218409E+00
          2   -1    0    0  501    0  0.00000000000E+00  0.00000000000E+00  0.16906184111E+03  0.16906184111E+03  0.00000000000E+00 0. -1.
         -2   -1    0    0    0  501 -0.00000000000E+00 -0.00000000000E+00 -0.11947207246E+03  0.11947207246E+03  0.00000000000E+00 0.  1.
         25    2    1    2    0    0 -0.10669023212E+02 -0.89869503372E+02  0.10334347808E+02  0.15474026342E+03  0.12508954667E+03 0.  0.
         23    2    1    2    0    0  0.10669023212E+02  0.89869503372E+02  0.39255420840E+02  0.13379365014E+03  0.90384716964E+02 0.  0.
          5    1    3    3  502    0 -0.42064213449E+02  0.84390733957E+01 -0.19386654868E+02  0.47264477146E+02  0.41800000000E+01 0. -1.
         -5    1    3    3    0  502  0.31395190237E+02 -0.98308576767E+02  0.29721002675E+02  0.10747578628E+03  0.41800000000E+01 0. -1.
        -11    1    4    4    0    0 -0.24813641762E+02  0.87139210698E+02  0.18102219447E+02  0.92393989022E+02  0.00000000000E+00 0. -1.
         11    1    4    4    0    0  0.35482664974E+02  0.27302926737E+01  0.21153201393E+02  0.41399661121E+02  0.00000000000E+00 0.  1.
</event>
<event>
 8    1  0.3528896E-009  0.7756680E+02  0.7561462E-02  0.1336102E+00
         -1   -1    0    0    0  501 -0.00000000000E+00  0.00000000000E+00  0.69586267351E+03  0.69586267351E+03  0.00000000000E+00 0.  1.
          1   -1    0    0  501    0  0.00000000000E+00 -0.00000000000E+00 -0.23168504570E+02  0.23168504570E+02  0.00000000000E+00 0. -1.
         25    2    1    2    0    0  0.19822710913E+02  0.57978838159E+02  0.44703644654E+03  0.46823326085E+03  0.12508523692E+03 0.  0.
         23    2    1    2    0    0 -0.19822710913E+02 -0.57978838159E+02  0.22565772241E+03  0.25079791723E+03  0.90684629695E+02 0.  0.
          5    1    3    3  502    0  0.12324513147E+02  0.33302949796E+02  0.21142357870E+02  0.41538557819E+02  0.41800000000E+01 0.  1.
         -5    1    3    3    0  502  0.74981977660E+01  0.24675888363E+02  0.42589408867E+03  0.42669470303E+03  0.41800000000E+01 0.  1.
        -11    1    4    4    0    0 -0.27381649419E+02  0.66537747918E+01  0.14222188147E+03  0.14498652011E+03  0.00000000000E+00 0.  1.
         11    1    4    4    0    0  0.75589385060E+01 -0.64632612951E+02  0.83435840933E+02  0.10581139712E+03  0.00000000000E+00 0. -1.
</event>
<event>
 8    1  0.3528896E-009  0.7747204E+02  0.7561462E-02  0.1336382E+00
          1   -1    0    0  501    0  0.00000000000E+00  0.00000000000E+00  0.49502796861E+03  0.49502796861E+03  0.00000000000E+00 0. -1.
         -1   -1    0    0    0  501 -0.00000000000E+00 -0.00000000000E+00 -0.32501125915E+02  0.32501125915E+02  0.00000000000E+00 0.  1.
         25    2    1    2    0    0  0.41351197129E+02 -0.43437743039E+01  0.35561918398E+03  0.37926409470E+03  0.12508980627E+03 0.  0.
         23    2    1    2    0    0 -0.41351197129E+02  0.43437743039E+01  0.10690765871E+03  0.14826499983E+03  0.93938665110E+02 0.  0.
          5    1    3    3  502    0  0.40572434465E+02 -0.44090138322E+02  0.32042423642E+03  0.32600494846E+03  0.41800000000E+01 0. -1.
         -5    1    3    3    0  502  0.77876266434E+00  0.39746364018E+02  0.35194947557E+02  0.53259146233E+02  0.41800000000E+01 0. -1.
        -11    1    4    4    0    0 -0.12550512002E+02 -0.15491859478E+02 -0.12707267903E+02  0.23642921121E+02  0.00000000000E+00 0.  1.
         11    1    4    4    0    0 -0.28800685127E+02  0.19835633782E+02  0.11961492662E+03  0.12462207871E+03  0.00000000000E+00 0. -1.
</event>
<event>
 8    1  0.3528896E-009  0.1298460E+03  0.7561462E-02  0.1227684E+00
          2   -1    0    0  501    0  0.00000000000E+00  0.00000000000E+00  0.13678312056E+04  0.13678312056E+04  0.00000000000E+00 0. -1.
         -2   -1    0    0    0  501 -0.00000000000E+00 -0.00000000000E+00 -0.18917650928E+02  0.18917650928E+02  0.00000000000E+00 0.  1.
         25    2    1    2    0    0  0.11420163387E+03  0.17318895272E+02  0.83666435982E+03  0.85381240563E+03  0.12508563346E+03 0.  0.
         23    2    1    2    0    0 -0.11420163387E+03 -0.17318895272E+02  0.51224919484E+03  0.53293645089E+03  0.90994866666E+02 0.  0.
          5    1    3    3  502    0  0.10429159794E+03 -0.10393709312E+02  0.32982950691E+03  0.34610654808E+03  0.41800000000E+01 0.  1.
         -5    1    3    3    0  502  0.99100359278E+01  0.27712604584E+02  0.50683485291E+03  0.50770585755E+03  0.41800000000E+01 0.  1.
        -11    1    4    4    0    0 -0.46892332024E+02  0.16545461893E+02  0.80188200741E+02  0.94354600576E+02  0.00000000000E+00 0.  1.
         11    1    4    4    0    0 -0.67309301847E+02 -0.33864357165E+02  0.43206099410E+03  0.43858185031E+03  0.00000000000E+00 0. -1.
</event>
<event>
 8    1  0.3528896E-009  0.1055893E+03  0.7561462E-02  0.1268963E+00
          1   -1    0    0  501    0  0.00000000000E+00  0.00000000000E+00  0.68356996363E+03  0.68356996363E+03  0.00000000000E+00 0. -1.
         -1   -1    0    0    0  501 -0.00000000000E+00 -0.00000000000E+00 -0.19408678520E+02  0.19408678520E+02  0.00000000000E+00 0.  1.
         25    2    1    2    0    0  0.19500688841E+02 -0.67915370530E+01  0.47991801219E+03  0.49638203583E+03  0.12508966875E+03 0.  0.
         23    2    1    2    0    0 -0.19500688841E+02  0.67915370530E+01  0.18424327292E+03  0.20659660632E+03  0.91160146368E+02 0.  0.
          5    1    3    3  502    0  0.62578107772E+02  0.21565617748E+02  0.17580801110E+03  0.18790163546E+03  0.41800000000E+01 0. -1.
         -5    1    3    3    0  502 -0.43077418931E+02 -0.28357154801E+02  0.30411000108E+03  0.30848040036E+03  0.41800000000E+01 0. -1.
        -11    1    4    4    0    0 -0.31572453859E+02  0.43910037909E+02  0.11577584571E+03  0.12778481022E+03  0.00000000000E+00 0.  1.
         11    1    4    4    0    0  0.12071765018E+02 -0.37118500856E+02  0.68467427207E+02  0.78811796102E+02  0.00000000000E+00 0. -1.
</event>
<event>
 8    1  0.3528896E-009  0.1469625E+03  0.7561462E-02  0.1204256E+00
          1   -1    0    0  501    0  0.00000000000E+00  0.00000000000E+00  0.87463357221E+03  0.87463357221E+03  0.00000000000E+00 0. -1.
         -1   -1    0    0    0  501 -0.00000000000E+00 -0.00000000000E+00 -0.35968919328E+02  0.35968919328E+02  0.00000000000E+00 0.  1.
         25    2    1    2    0    0 -0.12058773508E+03 -0.67740352752E+02  0.40963220926E+03  0.45008470947E+03  0.12509013384E+03 0.  0.
         23    2    1    2    0    0  0.12058773508E+03  0.67740352752E+02  0.42903244361E+03  0.46051778207E+03  0.94221190209E+02 0.  0.
          5    1    3    3  502    0 -0.87764152222E+00 -0.30095427203E+01  0.20030417454E+03  0.20037230931E+03  0.41800000000E+01 0.  1.
         -5    1    3    3    0  502 -0.11971009356E+03 -0.64730810032E+02  0.20932803473E+03  0.24971240015E+03  0.41800000000E+01 0.  1.
        -11    1    4    4    0    0  0.10933537766E+03  0.30307810974E+02  0.38624632503E+03  0.40256553729E+03  0.00000000000E+00 0. -1.
         11    1    4    4    0    0  0.11252357422E+02  0.37432541778E+02  0.42786118588E+02  0.57952244782E+02  0.00000000000E+00 0.  1.
</event>
<event>
 8    1  0.3528896E-009  0.1072407E+03  0.7561462E-02  0.1265767E+00
         -2   -1    0    0    0  501 -0.00000000000E+00  0.00000000000E+00  0.16558152728E+02  0.16558152728E+02  0.00000000000E+00 0.  1.
          2   -1    0    0  501    0  0.00000000000E+00 -0.00000000000E+00 -0.98600890841E+03  0.98600890841E+03  0.00000000000E+00 0. -1.
         25    2    1    2    0    0 -0.62322498763E+02 -0.19734959766E+02 -0.62035282623E+03  0.63620668141E+03  0.12509096678E+03 0.  0.
         23    2    1    2    0    0  0.62322498763E+02  0.19734959766E+02 -0.34909792945E+03  0.36636037972E+03  0.89872136943E+02 0.  0.
          5    1    3    3  502    0 -0.48455076636E+02  0.47112641549E+02 -0.39290122698E+03  0.39869329316E+03  0.41800000000E+01 0.  1.
         -5    1    3    3    0  502 -0.13867422127E+02 -0.66847601314E+02 -0.22745159925E+03  0.23751338825E+03  0.41800000000E+01 0.  1.
        -11    1    4    4    0    0  0.55359126263E+02 -0.21535067387E+01 -0.33469413581E+03  0.33924833823E+03  0.00000000000E+00 0. -1.
         11    1    4    4    0    0  0.69633724995E+01  0.21888466505E+02 -0.14403793641E+02  0.27112041490E+02  0.00000000000E+00 0.  1.
</event>
<event>
 8    1  0.3528896E-009  0.2855787E+03  0.7561462E-02  0.1092680E+00
         -1   -1    0    0    0  501 -0.00000000000E+00  0.00000000000E+00  0.23207417330E+03  0.23207417330E+03  0.00000000000E+00 0.  1.
          1   -1    0    0  501    0  0.00000000000E+00 -0.00000000000E+00 -0.40057586900E+03  0.40057586900E+03  0.00000000000E+00 0. -1.
         25    2    1    2    0    0 -0.33094441707E+02  0.27126675524E+03 -0.16813872102E+03  0.34438200248E+03  0.12508972601E+03 0.  0.
         23    2    1    2    0    0  0.33094441707E+02 -0.27126675524E+03 -0.36297467741E+00  0.28826803983E+03  0.91746588297E+02 0.  0.
          5    1    3    3  502    0 -0.57296547792E+02  0.18880740967E+03 -0.60167167315E+02  0.20632181842E+03  0.41800000000E+01 0. -1.
         -5    1    3    3    0  502  0.24202106084E+02  0.82459345571E+02 -0.10797155371E+03  0.13806018405E+03  0.41800000000E+01 0. -1.
        -11    1    4    4    0    0  0.64557712938E+02 -0.18013299315E+03  0.78002282689E+01  0.19151093202E+03  0.00000000000E+00 0.  1.
         11    1    4    4    0    0 -0.31463271231E+02 -0.91133762092E+02 -0.81632029463E+01  0.96757107810E+02  0.00000000000E+00 0. -1.
</event>
<event>
 8    1  0.3528896E-009  0.1161867E+03  0.7561462E-02  0.1249524E+00
         -3   -1    0    0    0  501 -0.00000000000E+00  0.00000000000E+00  0.80424123004E+02  0.80424123004E+02  0.00000000000E+00 0.  1.
          3   -1    0    0  501    0  0.00000000000E+00 -0.00000000000E+00 -0.23008720035E+03  0.23008720035E+03  0.00000000000E+00 0. -1.
         25    2    1    2    0    0  0.46578413116E+02 -0.41771711103E+02 -0.13639399762E+03  0.19535594370E+03  0.12508476219E+03 0.  0.
         23    2    1    2    0    0 -0.46578413116E+02  0.41771711103E+02 -0.13269079723E+02  0.11515537966E+03  0.95761519259E+02 0.  0.
          5    1    3    3  502    0  0.89850680226E+02 -0.26296373007E+02 -0.91613430563E+02  0.13105394702E+03  0.41800000000E+01 0.  1.
         -5    1    3    3    0  502 -0.43272267111E+02 -0.15475338096E+02 -0.44780567061E+02  0.64301996675E+02  0.41800000000E+01 0.  1.
        -11    1    4    4    0    0 -0.21825719878E+02  0.58633660963E+02 -0.40621396991E+02  0.74594679030E+02  0.00000000000E+00 0. -1.
         11    1    4    4    0    0 -0.24752693238E+02 -0.16861949859E+02  0.27352317268E+02  0.40560700629E+02  0.00000000000E+00 0.  1.
</event>
<event>
 8    1  0.3528896E-009  0.1297729E+03  0.7561462E-02  0.1227793E+00
          2   -1    0    0  501    0  0.00000000000E+00  0.00000000000E+00  0.45983167162E+03  0.45983167162E+03  0.00000000000E+00 0. -1.
         -2   -1    0    0    0  501 -0.00000000000E+00 -0.00000000000E+00 -0.51580374808E+02  0.51580374808E+02  0.00000000000E+00 0.  1.
         25    2    1    2    0    0 -0.55785322285E+02 -0.69908885001E+02  0.32317328453E+03  0.35789223188E+03  0.12508646377E+03 0.  0.
         23    2    1    2    0    0  0.55785322285E+02  0.69908885001E+02  0.85078012282E+02  0.15351981455E+03  0.91273275947E+02 0.  0.
          5    1    3    3  502    0 -0.50905251404E+02  0.12489488925E+02  0.50258163391E+02  0.72737111172E+02  0.41800000000E+01 0.  1.
         -5    1    3    3    0  502 -0.48800708803E+01 -0.82398373926E+02  0.27291512114E+03  0.28515512071E+03  0.41800000000E+01 0.  1.
        -11    1    4    4    0    0 -0.79528060636E+01  0.59142414617E+02  0.23169279177E+02  0.64014746962E+02  0.00000000000E+00 0. -1.
         11    1    4    4    0    0  0.63738128348E+02  0.10766470384E+02  0.61908733105E+02  0.89505067592E+02  0.00000000000E+00 0.  1.
</event>
<event>
 8    1  0.3528896E-009  0.1098056E+03  0.7561462E-02  0.1260930E+00
         -1   -1    0    0    0  501 -0.00000000000E+00  0.00000000000E+00  0.13080429777E+03  0.13080429777E+03  0.00000000000E+00 0.  1.
          1   -1    0    0  501    0  0.00000000000E+00 -0.00000000000E+00 -0.11726907933E+03  0.11726907933E+03  0.00000000000E+00 0. -1.
         25    2    1    2    0    0 -0.96756209152E+01 -0.20946858389E+02 -0.46151836231E+02  0.13531370345E+03  0.12508963920E+03 0.  0.
         23    2    1    2    0    0  0.96756209152E+01  0.20946858389E+02  0.59687054670E+02  0.11275967366E+03  0.92842937226E+02 0.  0.
          5    1    3    3  502    0 -0.16164384054E+02 -0.71365362080E+02 -0.41172960294E+02  0.84065375013E+02  0.41800000000E+01 0.  1.
         -5    1    3    3    0  502  0.64887631383E+01  0.50418503691E+02 -0.49788759369E+01  0.51248328432E+02  0.41800000000E+01 0.  1.
        -11    1    4    4    0    0  0.50531450373E+02  0.28023216220E+01  0.26840325049E+02  0.57285980240E+02  0.00000000000E+00 0. -1.
         11    1    4    4    0    0 -0.40855829458E+02  0.18144536767E+02  0.32846729620E+02  0.55473693422E+02  0.00000000000E+00 0.  1.
</event>
<event>
 8    1  0.3528896E-009  0.9038499E+02  0.7561462E-02  0.1301922E+00
         -2   -1    0    0    0  501 -0.00000000000E+00  0.00000000000E+00  0.14020058780E+03  0.14020058780E+03  0.00000000000E+00 0.  1.
          2   -1    0    0  501    0  0.00000000000E+00 -0.00000000000E+00 -0.83227482916E+02  0.83227482916E+02  0.00000000000E+00 0. -1.
         25    2    1    2    0    0  0.21639321647E+00  0.51529072962E+01  0.35324103296E+02  0.13008646756E+03  0.12509235584E+03 0.  0.
         23    2    1    2    0    0 -0.21639321647E+00 -0.51529072962E+01  0.21649001591E+02  0.93341603155E+02  0.90649745339E+02 0.  0.
          5    1    3    3  502    0 -0.15228724975E+02 -0.41439497377E+02 -0.26014982594E+02  0.51413983765E+02  0.41800000000E+01 0.  1.
         -5    1    3    3    0  502  0.15445118191E+02  0.46592404674E+02  0.61339085890E+02  0.78672483799E+02  0.41800000000E+01 0.  1.
        -11    1    4    4    0    0 -0.41713550715E+02 -0.15316084346E+02 -0.20527266065E+01  0.44483889662E+02  0.00000000000E+00 0. -1.
         11    1    4    4    0    0  0.41497157499E+02  0.10163177050E+02  0.23701728197E+02  0.48857713493E+02  0.00000000000E+00 0.  1.
</event>
<event>
 8    1  0.3528896E-009  0.1032784E+03  0.7561462E-02  0.1273549E+00
         -1   -1    0    0    0  501 -0.00000000000E+00  0.00000000000E+00  0.44252386636E+02  0.44252386636E+02  0.00000000000E+00 0.  1.
          1   -1    0    0  501    0  0.00000000000E+00 -0.00000000000E+00 -0.36521775044E+03  0.36521775044E+03  0.00000000000E+00 0. -1.
         25    2    1    2    0    0 -0.19649644928E+02  0.61699767472E+02 -0.17500286275E+03  0.22465155355E+03  0.12509735685E+03 0.  0.
         23    2    1    2    0    0  0.19649644928E+02 -0.61699767472E+02 -0.14596250106E+03  0.18481858353E+03  0.93058515193E+02 0.  0.
          5    1    3    3  502    0 -0.53831093715E+02  0.52592546836E+02 -0.17331040790E+03  0.18899135568E+03  0.41800000000E+01 0. -1.
         -5    1    3    3    0  502  0.34181448786E+02  0.91072206367E+01 -0.16924548428E+01  0.35660197872E+02  0.41800000000E+01 0. -1.
        -11    1    4    4    0    0 -0.25495598776E+02 -0.11262788839E+02 -0.97926625199E+02  0.10181601000E+03  0.00000000000E+00 0. -1.
         11    1    4    4    0    0  0.45145243704E+02 -0.50436978633E+02 -0.48035875862E+02  0.83002573530E+02  0.00000000000E+00 0.  1.
</event>
<event>
 8    1  0.3528896E-009  0.1305345E+03  0.7561462E-02  0.1226665E+00
          1   -1    0    0  501    0  0.00000000000E+00  0.00000000000E+00  0.66619178224E+03  0.66619178224E+03  0.00000000000E+00 0. -1.
         -1   -1    0    0    0  501 -0.00000000000E+00 -0.00000000000E+00 -0.27546739383E+02  0.27546739383E+02  0.00000000000E+00 0.  1.
         25    2    1    2    0    0  0.13419090057E+02  0.79855872176E+02  0.34222030161E+03  0.37325752366E+03  0.12509760925E+03 0.  0.
         23    2    1    2    0    0 -0.13419090057E+02 -0.79855872176E+02  0.29642474125E+03  0.32048099796E+03  0.91013243703E+02 0.  0.
          5    1    3    3  502    0  0.11073149141E+02  0.11073502484E+03  0.30478503696E+03  0.32449383895E+03  0.41800000000E+01 0.  1.
         -5    1    3    3    0  502  0.23459409156E+01 -0.30879152665E+02  0.37435264644E+02  0.48763684716E+02  0.41800000000E+01 0.  1.
        -11    1    4    4    0    0 -0.12000171100E+02 -0.98765331179E+02  0.27155225936E+03  0.28920446800E+03  0.00000000000E+00 0.  1.
         11    1    4    4    0    0 -0.14189189569E+01  0.18909459003E+02  0.24872481892E+02  0.31276529959E+02  0.00000000000E+00 0. -1.
</event>
<event>
 8    1  0.3528896E-009  0.1088337E+03  0.7561462E-02  0.1262745E+00
         -2   -1    0    0    0  501 -0.00000000000E+00  0.00000000000E+00  0.16551742242E+02  0.16551742242E+02  0.00000000000E+00 0.  1.
          2   -1    0    0  501    0  0.00000000000E+00 -0.00000000000E+00 -0.94842074817E+03  0.94842074817E+03  0.00000000000E+00 0. -1.
         25    2    1    2    0    0  0.63406896026E+01  0.36453922795E+02 -0.65935743137E+03  0.67213794358E+03  0.12509236612E+03 0.  0.
         23    2    1    2    0    0 -0.63406896026E+01 -0.36453922795E+02 -0.27251157456E+03  0.29283454684E+03  0.10060030179E+03 0.  0.
          5    1    3    3  502    0 -0.14438144686E+02 -0.38367070269E+02 -0.11309378049E+03  0.12036680476E+03  0.41800000000E+01 0.  1.
         -5    1    3    3    0  502  0.20778834288E+02  0.74820993065E+02 -0.54626365088E+03  0.55177113882E+03  0.41800000000E+01 0.  1.
        -11    1    4    4    0    0 -0.47591277090E+02 -0.72178767335E+01 -0.76311954114E+02  0.90224950763E+02  0.00000000000E+00 0.  1.
         11    1    4    4    0    0  0.41250587488E+02 -0.29236046062E+02 -0.19619962045E+03  0.20260959607E+03  0.00000000000E+00 0. -1.
</event>
<event>
 8    1  0.3528896E-009  0.1158863E+03  0.7561462E-02  0.1250042E+00
         -2   -1    0    0    0  501 -0.00000000000E+00  0.00000000000E+00  0.70091737038E+02  0.70091737038E+02  0.00000000000E+00 0.  1.
          2   -1    0    0  501    0  0.00000000000E+00 -0.00000000000E+00 -0.22713515951E+03  0.22713515951E+03  0.00000000000E+00 0. -1.
         25    2    1    2    0    0  0.64355699365E+02 -0.65409859827E+01 -0.93621510517E+02  0.16910605059E+03  0.12508968213E+03 0.  0.
         23    2    1    2    0    0 -0.64355699365E+02  0.65409859827E+01 -0.63421911958E+02  0.12812084596E+03  0.90598960897E+02 0.  0.
          5    1    3    3  502    0  0.96294729297E+02  0.19664448347E+02 -0.56705707537E+02  0.11354459514E+03  0.41800000000E+01 0.  1.
         -5    1    3    3    0  502 -0.31939029932E+02 -0.26205434330E+02 -0.36915802980E+02  0.55561455444E+02  0.41800000000E+01 0.  1.
        -11    1    4    4    0    0 -0.24603156855E+02 -0.29364882487E+02  0.77069655921E+01  0.39076962130E+02  0.00000000000E+00 0.  1.
         11    1    4    4    0    0 -0.39752542511E+02  0.35905868469E+02 -0.71128877550E+02  0.89043883833E+02  0.00000000000E+00 0. -1.
</event>
<event>
 8    1  0.3528896E-009  0.1292488E+03  0.7561462E-02  0.1228575E+00
         -1   -1    0    0    0  501 -0.00000000000E+00  0.00000000000E+00  0.16349722985E+02  0.16349722985E+02  0.00000000000E+00 0.  1.
          1   -1    0    0  501    0  0.00000000000E+00 -0.00000000000E+00 -0.11204425619E+04  0.11204425619E+04  0.00000000000E+00 0. -1.
         25    2    1    2    0    0  0.28898237641E+02 -0.67709569874E+02 -0.74333943274E+03  0.75737736316E+03  0.12508902418E+03 0.  0.
         23    2    1    2    0    0 -0.28898237641E+02  0.67709569874E+02 -0.36075340618E+03  0.37941492173E+03  0.91613147357E+02 0.  0.
          5    1    3    3  502    0  0.70574922409E+02 -0.74504647858E+02 -0.52431668592E+03  0.53428196840E+03  0.41800000000E+01 0.  1.
         -5    1    3    3    0  502 -0.41676684768E+02  0.67950779843E+01 -0.21902274682E+03  0.22309539476E+03  0.41800000000E+01 0.  1.
        -11    1    4    4    0    0 -0.19891827356E+02  0.88494411702E+02 -0.24026240911E+03  0.25681310506E+03  0.00000000000E+00 0.  1.
         11    1    4    4    0    0 -0.90064102859E+01 -0.20784841828E+02 -0.12049099707E+03  0.12260181667E+03  0.00000000000E+00 0. -1.
</event>
<event>
 8    1  0.3528896E-009  0.1409543E+03  0.7561462E-02  0.1212051E+00
          2   -1    0    0  501    0  0.00000000000E+00  0.00000000000E+00  0.11440593288E+03  0.11440593288E+03  0.00000000000E+00 0. -1.
         -2   -1    0    0    0  501 -0.00000000000E+00 -0.00000000000E+00 -0.25389174728E+03  0.25389174728E+03  0.00000000000E+00 0.  1.
         25    2    1    2    0    0  0.15390370868E+02  0.10989947224E+03  0.16701765890E+01  0.16721342826E+03  0.12507111413E+03 0.  0.
         23    2    1    2    0    0 -0.15390370868E+02 -0.10989947224E+03 -0.14115599099E+03  0.20108425189E+03  0.90526819532E+02 0.  0.
          5    1    3    3  502    0 -0.51017621118E+02  0.56906483654E+02 -0.20635127157E+02  0.79274374291E+02  0.41800000000E+01 0. -1.
         -5    1    3    3    0  502  0.66407991986E+02  0.52992988582E+02  0.22305303746E+02  0.87939053973E+02  0.41800000000E+01 0. -1.
        -11    1    4    4    0    0  0.13182963940E+02 -0.10424884435E+02 -0.78107805698E+02  0.79895544711E+02  0.00000000000E+00 0.  1.
         11    1    4    4    0    0 -0.28573334808E+02 -0.99474587801E+02 -0.63048185291E+02  0.12118870718E+03  0.00000000000E+00 0. -1.
</event>
<event>
 8    1  0.3528896E-009  0.5872930E+02  0.7561462E-02  0.1403243E+00
         -1   -1    0    0    0  501 -0.00000000000E+00  0.00000000000E+00  0.53651669962E+02  0.53651669962E+02  0.00000000000E+00 0.  1.
          1   -1    0    0  501    0  0.00000000000E+00 -0.00000000000E+00 -0.32826302986E+03  0.32826302986E+03  0.00000000000E+00 0. -1.
         25    2    1    2    0    0 -0.11848635730E+02 -0.21436001653E+02 -0.25430552999E+03  0.28446365757E+03  0.12509347529E+03 0.  0.
         23    2    1    2    0    0  0.11848635730E+02  0.21436001653E+02 -0.20305829912E+02  0.97451042251E+02  0.92111272773E+02 0.  0.
          5    1    3    3  502    0 -0.20453210916E+02 -0.11429805442E+02  0.53871989382E+01  0.24402225341E+02  0.41800000000E+01 0. -1.
         -5    1    3    3    0  502  0.86045751861E+01 -0.10006196212E+02 -0.25969272893E+03  0.26006143223E+03  0.41800000000E+01 0. -1.
        -11    1    4    4    0    0 -0.32410388845E+02  0.12006669658E+02  0.17264766206E+02  0.38635030393E+02  0.00000000000E+00 0.  1.
         11    1    4    4    0    0  0.44259024575E+02  0.94293319956E+01 -0.37570596118E+02  0.58816011858E+02  0.00000000000E+00 0. -1.
</event>
<event>
 8    1  0.3528896E-009  0.1441901E+03  0.7561462E-02  0.1207799E+00
          2   -1    0    0  501    0  0.00000000000E+00  0.00000000000E+00  0.41752982539E+03  0.41752982539E+03  0.00000000000E+00 0. -1.
         -2   -1    0    0    0  501 -0.00000000000E+00 -0.00000000000E+00 -0.11770920362E+03  0.11770920362E+03  0.00000000000E+00 0.  1.
         25    2    1    2    0    0  0.91001461484E+02  0.79361801215E+02  0.33732246111E+03  0.37949246916E+03  0.12509408417E+03 0.  0.
         23    2    1    2    0    0 -0.91001461484E+02 -0.79361801215E+02 -0.37501839337E+02  0.15574655986E+03  0.90945266344E+02 0.  0.
          5    1    3    3  502    0  0.19832444924E+02 -0.10601446617E+02 -0.31605889416E+00  0.22875507323E+02  0.41800000000E+01 0.  1.
         -5    1    3    3    0  502  0.71169016560E+02  0.89963247832E+02  0.33763852000E+03  0.35661696183E+03  0.41800000000E+01 0.  1.
        -11    1    4    4    0    0 -0.51966411423E+02  0.10257585107E+02 -0.75190910034E+01  0.53500118672E+02  0.00000000000E+00 0. -1.
         11    1    4    4    0    0 -0.39035050061E+02 -0.89619386322E+02 -0.29982748334E+02  0.10224644119E+03  0.00000000000E+00 0.  1.
</event>
<event>
 8    1  0.3528896E-009  0.1658757E+03  0.7561462E-02  0.1182218E+00
          2   -1    0    0  501    0  0.00000000000E+00  0.00000000000E+00  0.11216771711E+04  0.11216771711E+04  0.00000000000E+00 0. -1.
         -2   -1    0    0    0  501 -0.00000000000E+00 -0.00000000000E+00 -0.33229071713E+02  0.33229071713E+02  0.00000000000E+00 0.  1.
         25    2    1    2    0    0  0.38927075418E+02 -0.14869517370E+03  0.44268228090E+03  0.48501599067E+03  0.12508931806E+03 0.  0.
         23    2    1    2    0    0 -0.38927075418E+02  0.14869517370E+03  0.64576581843E+03  0.66989025210E+03  0.90077109825E+02 0.  0.
          5    1    3    3  502    0 -0.27165954410E+02 -0.35160161794E+02  0.35139411796E+02  0.56802083745E+02  0.41800000000E+01 0. -1.
         -5    1    3    3    0  502  0.66093029828E+02 -0.11353501191E+03  0.40754286911E+03  0.42821390692E+03  0.41800000000E+01 0. -1.
        -11    1    4    4    0    0 -0.39108432434E+02  0.10591989001E+03  0.58364686358E+03  0.59446795873E+03  0.00000000000E+00 0. -1.
         11    1    4    4    0    0  0.18135701609E+00  0.42775283687E+02  0.62118954856E+02  0.75422293370E+02  0.00000000000E+00 0.  1.
</event>
<event>
 8    1  0.3528896E-009  0.1606180E+03  0.7561462E-02  0.1188001E+00
          2   -1    0    0  501    0  0.00000000000E+00  0.00000000000E+00  0.36391436765E+02  0.36391436765E+02  0.00000000000E+00 0. -1.
         -2   -1    0    0    0  501 -0.00000000000E+00 -0.00000000000E+00 -0.12821175122E+04  0.12821175122E+04  0.00000000000E+00 0.  1.
         25    2    1    2    0    0  0.11996352885E+03  0.57117734683E+02 -0.10457785558E+04  0.10615813911E+04  0.12509427769E+03 0.  0.
         23    2    1    2    0    0 -0.11996352885E+03 -0.57117734683E+02 -0.19994751959E+03  0.25692755781E+03  0.91537290221E+02 0.  0.
          5    1    3    3  502    0  0.82560439403E+02 -0.11240826941E+02 -0.28930739262E+03  0.30109603480E+03  0.41800000000E+01 0.  1.
         -5    1    3    3    0  502  0.37403089452E+02  0.68358561624E+02 -0.75647116318E+03  0.76048535631E+03  0.41800000000E+01 0.  1.
        -11    1    4    4    0    0 -0.81316783342E+02 -0.80648743449E+02 -0.15863888140E+03  0.19566025085E+03  0.00000000000E+00 0. -1.
         11    1    4    4    0    0 -0.38646745513E+02  0.23531008767E+02 -0.41308638194E+02  0.61267306957E+02  0.00000000000E+00 0.  1.
</event>
<event>
 8    1  0.3528896E-009  0.1048643E+03  0.7561462E-02  0.1270387E+00
          1   -1    0    0  501    0  0.00000000000E+00  0.00000000000E+00  0.41617455800E+02  0.41617455800E+02  0.00000000000E+00 0. -1.
         -1   -1    0    0    0  501 -0.00000000000E+00 -0.00000000000E+00 -0.44035523579E+03  0.44035523579E+03  0.00000000000E+00 0.  1.
         25    2    1    2    0    0  0.61480161468E+02 -0.28410235661E+02 -0.14275300872E+03  0.20153142775E+03  0.12509813398E+03 0.  0.
         23    2    1    2    0    0 -0.61480161468E+02  0.28410235661E+02 -0.25598477127E+03  0.28044126385E+03  0.92369624888E+02 0.  0.
          5    1    3    3  502    0 -0.66045021407E+01 -0.63881680104E+02 -0.77090662717E+02  0.10042375804E+03  0.41800000000E+01 0. -1.
         -5    1    3    3    0  502  0.68084663609E+02  0.35471444443E+02 -0.65662346006E+02  0.10110766970E+03  0.41800000000E+01 0. -1.
        -11    1    4    4    0    0 -0.24505200569E+02  0.59260064443E+01 -0.49361746244E+01  0.25690236029E+02  0.00000000000E+00 0. -1.
         11    1    4    4    0    0 -0.36974960899E+02  0.22484229216E+02 -0.25104859665E+03  0.25475102782E+03  0.00000000000E+00 0.  1.
</event>
<event>
 8    1  0.3528896E-009  0.9985219E+02  0.7561462E-02  0.1280607E+00
          2   -1    0    0  501    0  0.00000000000E+00  0.00000000000E+00  0.11353749799E+03  0.11353749799E+03  0.00000000000E+00 0. -1.
         -2   -1    0    0    0  501 -0.00000000000E+00 -0.00000000000E+00 -0.22427121489E+03  0.22427121489E+03  0.00000000000E+00 0.  1.
         25    2    1    2    0    0  0.76563700956E+02 -0.30298309670E+02 -0.14663979319E+03  0.20959388954E+03  0.12508549761E+03 0.  0.
         23    2    1    2    0    0 -0.76563700956E+02  0.30298309670E+02  0.35906076289E+02  0.12821482334E+03  0.91486647860E+02 0.  0.
          5    1    3    3  502    0 -0.68001242238E+01  0.17393010258E+02  0.13076649215E+02  0.23178214987E+02  0.41800000000E+01 0.  1.
         -5    1    3    3    0  502  0.83363825180E+02 -0.47691319928E+02 -0.15971644240E+03  0.18641567455E+03  0.41800000000E+01 0.  1.
        -11    1    4    4    0    0 -0.32292773726E+02  0.22806645380E+02 -0.29184794885E+02  0.49139785927E+02  0.00000000000E+00 0.  1.
         11    1    4    4    0    0 -0.44270927230E+02  0.74916642901E+01  0.65090871175E+02  0.79075037413E+02  0.00000000000E+00 0. -1.
</event>
<event>
 8    1  0.3528896E-009  0.9527291E+02  0.7561462E-02  0.1290563E+00
         -2   -1    0    0    0  501 -0.00000000000E+00  0.00000000000E+00  0.13318296875E+03  0.13318296875E+03  0.00000000000E+00 0.  1.
          2   -1    0    0  501    0  0.00000000000E+00 -0.00000000000E+00 -0.88048810335E+02  0.88048810335E+02  0.00000000000E+00 0. -1.
         25    2    1    2    0    0  0.62864268171E+01 -0.11014422541E+02  0.53244440771E+02  0.13653984970E+03  0.12508926179E+03 0.  0.
         23    2    1    2    0    0 -0.62864268171E+01  0.11014422541E+02 -0.81102823519E+01  0.84691929393E+02  0.83343323419E+02 0.  0.
          5    1    3    3  502    0 -0.57891757383E+02 -0.16879546016E+02  0.32954129895E+02  0.68846363185E+02  0.41800000000E+01 0.  1.
         -5    1    3    3    0  502  0.64178184201E+02  0.58651234753E+01  0.20290310877E+02  0.67693486512E+02  0.41800000000E+01 0.  1.
        -11    1    4    4    0    0  0.34229890491E+00  0.37862190918E+02  0.22014841306E+02  0.43798583395E+02  0.00000000000E+00 0.  1.
         11    1    4    4    0    0 -0.66287257220E+01 -0.26847768378E+02 -0.30125123658E+02  0.40893345998E+02  0.00000000000E+00 0. -1.
</event>
<event>
 8    1  0.3528896E-009  0.8167844E+02  0.7561462E-02  0.1324355E+00
          1   -1    0    0  501    0  0.00000000000E+00  0.00000000000E+00  0.92035960751E+02  0.92035960751E+02  0.00000000000E+00 0. -1.
         -1   -1    0    0    0  501 -0.00000000000E+00 -0.00000000000E+00 -0.13533426481E+03  0.13533426481E+03  0.00000000000E+00 0.  1.
         25    2    1    2    0    0 -0.24876060260E+02 -0.63536788627E+01 -0.16906795612E+02  0.12881172743E+03  0.12508970292E+03 0.  0.
         23    2    1    2    0    0  0.24876060260E+02  0.63536788627E+01 -0.26391508442E+02  0.98558498127E+02  0.91422525813E+02 0.  0.
          5    1    3    3  502    0 -0.44791369853E+02 -0.14426519594E+02  0.43710709180E+02  0.64362176610E+02  0.41800000000E+01 0. -1.
         -5    1    3    3    0  502  0.19915309593E+02  0.80728407315E+01 -0.60617504792E+02  0.64449550820E+02  0.41800000000E+01 0. -1.
        -11    1    4    4    0    0  0.11019219912E+02 -0.42259593282E+02 -0.61355639344E+01  0.44101491774E+02  0.00000000000E+00 0. -1.
         11    1    4    4    0    0  0.13856840348E+02  0.48613272145E+02 -0.20255944508E+02  0.54457006354E+02  0.00000000000E+00 0.  1.
</event>
<event>
 8    1  0.3528896E-009  0.1042815E+03  0.7561462E-02  0.1271542E+00
          2   -1    0    0  501    0  0.00000000000E+00  0.00000000000E+00  0.27158965321E+03  0.27158965321E+03  0.00000000000E+00 0.  1.
         -2   -1    0    0    0  501 -0.00000000000E+00 -0.00000000000E+00 -0.56544652169E+02  0.56544652169E+02  0.00000000000E+00 0. -1.
         25    2    1    2    0    0 -0.17833035331E+02  0.29098066582E+02  0.18606089970E+03  0.22678193072E+03  0.12508665427E+03 0.  0.
         23    2    1    2    0    0  0.17833035331E+02 -0.29098066582E+02  0.28984101349E+02  0.10135237467E+03  0.90925854913E+02 0.  0.
          5    1    3    3  502    0  0.72530754868E+01 -0.39970623604E+02  0.12385414137E+03  0.13041310743E+03  0.41800000000E+01 0.  1.
         -5    1    3    3    0  502 -0.25086110818E+02  0.69068690186E+02  0.62206758329E+02  0.96368823287E+02  0.41800000000E+01 0.  1.
        -11    1    4    4    0    0 -0.20991035259E+02 -0.46921803762E+02  0.33066164029E+01  0.51509348099E+02  0.00000000000E+00 0.  1.
         11    1    4    4    0    0  0.38824070590E+02  0.17823737180E+02  0.25677484946E+02  0.49843026567E+02  0.00000000000E+00 0. -1.
</event>
<event>
 8    1  0.3528896E-009  0.1593625E+03  0.7561462E-02  0.1189418E+00
         -2   -1    0    0    0  501 -0.00000000000E+00  0.00000000000E+00  0.45799080829E+03  0.45799080829E+03  0.00000000000E+00 0.  1.
          2   -1    0    0  501    0  0.00000000000E+00 -0.00000000000E+00 -0.80158758603E+02  0.80158758603E+02  0.00000000000E+00 0. -1.
         25    2    1    2    0    0  0.61425890418E+02  0.14009737961E+03  0.23254721566E+03  0.30516640202E+03  0.12509160493E+03 0.  0.
         23    2    1    2    0    0 -0.61425890418E+02 -0.14009737961E+03  0.14528483403E+03  0.23298316488E+03  0.98858769609E+02 0.  0.
          5    1    3    3  502    0  0.30366582761E+02  0.43745897333E+02  0.18627073158E+03  0.19377845784E+03  0.41800000000E+01 0.  1.
         -5    1    3    3    0  502  0.31059307658E+02  0.96351482276E+02  0.46276484080E+02  0.11138794418E+03  0.41800000000E+01 0.  1.
        -11    1    4    4    0    0 -0.31547908060E+02 -0.14203466676E+02 -0.46811409523E+01  0.34913064162E+02  0.00000000000E+00 0. -1.
         11    1    4    4    0    0 -0.29877982358E+02 -0.12589391293E+03  0.14996597499E+03  0.19807010071E+03  0.00000000000E+00 0.  1.
</event>
<event>
 8    1  0.3528896E-009  0.7290338E+02  0.7561462E-02  0.1350489E+00
         -1   -1    0    0    0  501 -0.00000000000E+00  0.00000000000E+00  0.14316738899E+03  0.14316738899E+03  0.00000000000E+00 0.  1.
          1   -1    0    0  501    0  0.00000000000E+00 -0.00000000000E+00 -0.12448917394E+03  0.12448917394E+03  0.00000000000E+00 0. -1.
         25    2    1    2    0    0 -0.39731961543E+02 -0.20962364734E+02 -0.53554042879E+02  0.14329406168E+03  0.12508838116E+03 0.  0.
         23    2    1    2    0    0  0.39731961543E+02  0.20962364734E+02  0.72232257925E+02  0.12436250125E+03  0.90722010165E+02 0.  0.
          5    1    3    3  502    0 -0.34456438770E+02  0.14010813442E+02  0.32873157818E+02  0.49816322334E+02  0.41800000000E+01 0.  1.
         -5    1    3    3    0  502 -0.52755227728E+01 -0.34973178176E+02 -0.86427200697E+02  0.93477739343E+02  0.41800000000E+01 0.  1.
        -11    1    4    4    0    0  0.16897594046E+02 -0.19805545560E+02 -0.11510379744E+02  0.28465367753E+02  0.00000000000E+00 0. -1.
         11    1    4    4    0    0  0.22834367497E+02  0.40767910294E+02  0.83742637669E+02  0.95897133495E+02  0.00000000000E+00 0.  1.
</event>
<event>
 8    1  0.3528896E-009  0.1289821E+03  0.7561462E-02  0.1228974E+00
          2   -1    0    0  501    0  0.00000000000E+00  0.00000000000E+00  0.37148776407E+02  0.37148776407E+02  0.00000000000E+00 0.  1.
         -2   -1    0    0    0  501 -0.00000000000E+00 -0.00000000000E+00 -0.63384446626E+03  0.63384446626E+03  0.00000000000E+00 0. -1.
         25    2    1    2    0    0  0.92548448297E+02 -0.39963151586E+02 -0.40848923528E+03  0.43894792586E+03  0.12509819149E+03 0.  0.
         23    2    1    2    0    0 -0.92548448297E+02  0.39963151586E+02 -0.18820645457E+03  0.23204531680E+03  0.90890542636E+02 0.  0.
          5    1    3    3  502    0  0.55793986075E+02  0.36296801653E+02 -0.25537142834E+03  0.26393648006E+03  0.41800000000E+01 0. -1.
         -5    1    3    3    0  502  0.36754462222E+02 -0.76259953239E+02 -0.15311780694E+03  0.17501144580E+03  0.41800000000E+01 0. -1.
        -11    1    4    4    0    0 -0.86909014707E+01  0.17750333594E+02  0.48880599898E+01  0.20359254445E+02  0.00000000000E+00 0.  1.
         11    1    4    4    0    0 -0.83857546827E+02  0.22212817992E+02 -0.19309451456E+03  0.21168606236E+03  0.00000000000E+00 0. -1.
</event>
<event>
 8    1  0.3528896E-009  0.1131535E+03  0.7561462E-02  0.1254839E+00
          2   -1    0    0  501    0  0.00000000000E+00  0.00000000000E+00  0.35033784030E+03  0.35033784030E+03  0.00000000000E+00 0. -1.
         -2   -1    0    0    0  501 -0.00000000000E+00 -0.00000000000E+00 -0.57411127685E+02  0.57411127685E+02  0.00000000000E+00 0.  1.
         25    2    1    2    0    0  0.85723119906E+02 -0.30719555877E+02  0.19078839749E+03  0.24564303209E+03  0.12509253453E+03 0.  0.
         23    2    1    2    0    0 -0.85723119906E+02  0.30719555877E+02  0.10213831513E+03  0.16210593590E+03  0.86913489390E+02 0.  0.
          5    1    3    3  502    0  0.87545696014E+02 -0.20086485356E+02  0.47131993355E+02  0.10152149025E+03  0.41800000000E+01 0.  1.
         -5    1    3    3    0  502 -0.18225761074E+01 -0.10633070522E+02  0.14365640414E+03  0.14412154184E+03  0.41800000000E+01 0.  1.
        -11    1    4    4    0    0  0.45593873698E+01  0.34168438391E+02  0.19178545704E+02  0.39447266199E+02  0.00000000000E+00 0.  1.
         11    1    4    4    0    0 -0.90282507276E+02 -0.34488825133E+01  0.82959769422E+02  0.12265866970E+03  0.00000000000E+00 0. -1.
</event>
<event>
 8    1  0.3528896E-009  0.1034684E+03  0.7561462E-02  0.1273167E+00
          4   -1    0    0  501    0  0.00000000000E+00  0.00000000000E+00  0.17849699218E+03  0.17849699218E+03  0.00000000000E+00 0. -1.
         -4   -1    0    0    0  501 -0.00000000000E+00 -0.00000000000E+00 -0.10856810074E+03  0.10856810074E+03  0.00000000000E+00 0.  1.
         25    2    1    2    0    0 -0.60755065679E+02 -0.10945958725E+02  0.10208054809E+03  0.17286062136E+03  0.12509741843E+03 0.  0.
         23    2    1    2    0    0  0.60755065679E+02  0.10945958725E+02 -0.32151656654E+02  0.11420447157E+03  0.90542477781E+02 0.  0.
          5    1    3    3  502    0 -0.76331934690E+01  0.48238231771E+02  0.81100169348E+01  0.49683371681E+02  0.41800000000E+01 0.  1.
         -5    1    3    3    0  502 -0.53121872210E+02 -0.59184190495E+02  0.93970531159E+02  0.12317724968E+03  0.41800000000E+01 0.  1.
        -11    1    4    4    0    0  0.52327897699E+02 -0.12130095223E+02 -0.57650442774E+02  0.78796710844E+02  0.00000000000E+00 0.  1.
         11    1    4    4    0    0  0.84271679793E+01  0.23076053948E+02  0.25498786120E+02  0.35407760725E+02  0.00000000000E+00 0. -1.
</event>
<event>
 8    1  0.3528896E-009  0.1078474E+03  0.7561462E-02  0.1264609E+00
          2   -1    0    0  501    0  0.00000000000E+00  0.00000000000E+00  0.19794720219E+03  0.19794720219E+03  0.00000000000E+00 0. -1.
         -2   -1    0    0    0  501 -0.00000000000E+00 -0.00000000000E+00 -0.85692611003E+02  0.85692611003E+02  0.00000000000E+00 0.  1.
         25    2    1    2    0    0 -0.93822756699E+01 -0.53345617484E+02  0.11040127843E+03  0.17541249972E+03  0.12508925125E+03 0.  0.
         23    2    1    2    0    0  0.93822756699E+01  0.53345617484E+02  0.18533127520E+01  0.10822731347E+03  0.93679958425E+02 0.  0.
          5    1    3    3  502    0 -0.38373797133E+02 -0.79715567283E+02  0.10204943584E+03  0.13512468216E+03  0.41800000000E+01 0.  1.
         -5    1    3    3    0  502  0.28991521464E+02  0.26369949799E+02  0.83518425892E+01  0.40287817561E+02  0.41800000000E+01 0.  1.
        -11    1    4    4    0    0  0.30194403205E+02 -0.27379709455E+00 -0.29927792065E+02  0.42514111630E+02  0.00000000000E+00 0.  1.
         11    1    4    4    0    0 -0.20812127535E+02  0.53619414579E+02  0.31781104817E+02  0.65713201837E+02  0.00000000000E+00 0. -1.
</event>
<event>
 8    1  0.3528896E-009  0.1409672E+03  0.7561462E-02  0.1212033E+00
         -2   -1    0    0    0  501 -0.00000000000E+00  0.00000000000E+00  0.11518874691E+03  0.11518874691E+03  0.00000000000E+00 0.  1.
          2   -1    0    0  501    0  0.00000000000E+00 -0.00000000000E+00 -0.18436708158E+03  0.18436708158E+03  0.00000000000E+00 0. -1.
         25    2    1    2    0    0 -0.91009879959E+02 -0.29820935577E+02 -0.22225641396E+02  0.15910206962E+03  0.12508957979E+03 0.  0.
         23    2    1    2    0    0  0.91009879959E+02  0.29820935577E+02 -0.46952693268E+02  0.14045375887E+03  0.91381707829E+02 0.  0.
          5    1    3    3  502    0  0.28477748087E+02 -0.62545740853E+01  0.13081939092E+02  0.32229045340E+02  0.41800000000E+01 0.  1.
         -5    1    3    3    0  502 -0.11948762805E+03 -0.23566361492E+02 -0.35307580488E+02  0.12687302428E+03  0.41800000000E+01 0.  1.
        -11    1    4    4    0    0  0.98450907168E+02 -0.14631063365E+01 -0.25215581243E+02  0.10163930017E+03  0.00000000000E+00 0.  1.
         11    1    4    4    0    0 -0.74410272093E+01  0.31284041914E+02 -0.21737112026E+02  0.38814458693E+02  0.00000000000E+00 0. -1.
</event>
<event>
 8    1  0.3528896E-009  0.7224289E+02  0.7561462E-02  0.1352628E+00
         -1   -1    0    0    0  501 -0.00000000000E+00  0.00000000000E+00  0.33774068051E+02  0.33774068051E+02  0.00000000000E+00 0.  1.
          1   -1    0    0  501    0  0.00000000000E+00 -0.00000000000E+00 -0.40245664869E+03  0.40245664869E+03  0.00000000000E+00 0. -1.
         25    2    1    2    0    0  0.45379936465E+02  0.12167656198E+01 -0.21904250717E+03  0.25629512747E+03  0.12508698279E+03 0.  0.
         23    2    1    2    0    0 -0.45379936465E+02 -0.12167656198E+01 -0.14964007346E+03  0.17993558927E+03  0.89015984785E+02 0.  0.
          5    1    3    3  502    0  0.19602642266E+02 -0.14637406397E+02  0.88607498825E+01  0.26353416066E+02  0.41800000000E+01 0. -1.
         -5    1    3    3    0  502  0.25777294199E+02  0.15854172017E+02 -0.22790325706E+03  0.22994171140E+03  0.41800000000E+01 0. -1.
        -11    1    4    4    0    0  0.11310348393E+02  0.24410174012E+02 -0.13170489004E+02  0.29954004017E+02  0.00000000000E+00 0.  1.
         11    1    4    4    0    0 -0.56690284858E+02 -0.25626939631E+02 -0.13646958446E+03  0.14998158525E+03  0.00000000000E+00 0. -1.
</event>
<event>
 8    1  0.3528896E-009  0.8444435E+02  0.7561462E-02  0.1316892E+00
          4   -1    0    0  501    0  0.00000000000E+00  0.00000000000E+00  0.23287530018E+03  0.23287530018E+03  0.00000000000E+00 0. -1.
         -4   -1    0    0    0  501 -0.00000000000E+00 -0.00000000000E+00 -0.50267239022E+02  0.50267239022E+02  0.00000000000E+00 0.  1.
         25    2    1    2    0    0  0.94920818403E+01  0.16470065603E+01  0.11515415997E+03  0.17029745498E+03  0.12509168784E+03 0.  0.
         23    2    1    2    0    0 -0.94920818403E+01 -0.16470065603E+01  0.67453901192E+02  0.11284508422E+03  0.89950942181E+02 0.  0.
          5    1    3    3  502    0  0.50294510802E+02  0.19503958240E+02  0.86667883550E+01  0.54795326664E+02  0.41800000000E+01 0. -1.
         -5    1    3    3    0  502 -0.40802428961E+02 -0.17856951680E+02  0.10648737161E+03  0.11550212831E+03  0.41800000000E+01 0. -1.
        -11    1    4    4    0    0  0.30221086550E+02  0.10941441444E+01 -0.45388667312E+01  0.30579609789E+02  0.00000000000E+00 0.  1.
         11    1    4    4    0    0 -0.39713168390E+02 -0.27411507047E+01  0.71992767923E+02  0.82265474435E+02  0.00000000000E+00 0. -1.
</event>
<event>
 8    1  0.3528896E-009  0.1061251E+03  0.7561462E-02  0.1267919E+00
         -1   -1    0    0    0  501 -0.00000000000E+00  0.00000000000E+00  0.12575136587E+02  0.12575136587E+02  0.00000000000E+00 0.  1.
          1   -1    0    0  501    0  0.00000000000E+00 -0.00000000000E+00 -0.98924581851E+03  0.98924581851E+03  0.00000000000E+00 0. -1.
         25    2    1    2    0    0  0.41501878651E+00 -0.22795081206E+02 -0.61480564292E+03  0.62781652400E+03  0.12509125178E+03 0.  0.
         23    2    1    2    0    0 -0.41501878651E+00  0.22795081206E+02 -0.36186503900E+03  0.37400443109E+03  0.91723606887E+02 0.  0.
          5    1    3    3  502    0  0.40207664790E+02  0.36093869235E+02 -0.31849177765E+03  0.32306951038E+03  0.41800000000E+01 0. -1.
         -5    1    3    3    0  502 -0.39792646004E+02 -0.58888950442E+02 -0.29631386527E+03  0.30474701362E+03  0.41800000000E+01 0. -1.
        -11    1    4    4    0    0  0.41260483574E+02  0.50616289566E+01 -0.24804350650E+03  0.25150274096E+03  0.00000000000E+00 0. -1.
         11    1    4    4    0    0 -0.41675502361E+02  0.17733452250E+02 -0.11382153249E+03  0.12250169013E+03  0.00000000000E+00 0.  1.
</event>
<event>
 7    1  0.3528896E-009  0.1154169E+03  0.7561462E-02  0.1250855E+00
         -2   -1    0    0    0  501 -0.00000000000E+00  0.00000000000E+00  0.31417476898E+02  0.31417476898E+02  0.00000000000E+00 0.  1.
          2   -1    0    0  501    0  0.00000000000E+00 -0.00000000000E+00 -0.51448503747E+03  0.51448503747E+03  0.00000000000E+00 0. -1.
         23    2    1    2    0    0 -0.10408269759E+02 -0.51713708503E+02 -0.30027632230E+03  0.31816783265E+03  0.91006924309E+02 0.  0.
          5    1    1    2  502    0  0.58864256127E+02  0.59320090051E+02 -0.91314541637E+02  0.12385350882E+03  0.41800000000E+01 0.  1.
         -5    1    1    2    0  502 -0.48455986368E+02 -0.76063815476E+01 -0.91476696631E+02  0.10388117289E+03  0.41800000000E+01 0.  1.
        -11    1    3    3    0    0 -0.46275883006E+02 -0.21460539108E+02 -0.97548013990E+02  0.11008009411E+03  0.00000000000E+00 0.  1.
         11    1    3    3    0    0  0.35867613247E+02 -0.30253169395E+02 -0.20272830831E+03  0.20808773854E+03  0.00000000000E+00 0. -1.
</event>
<event>
 8    1  0.3528896E-009  0.2440761E+03  0.7561462E-02  0.1117107E+00
          1   -1    0    0  501    0  0.00000000000E+00  0.00000000000E+00  0.86090874095E+03  0.86090874095E+03  0.00000000000E+00 0. -1.
         -1   -1    0    0    0  501 -0.00000000000E+00 -0.00000000000E+00 -0.85083744945E+02  0.85083744945E+02  0.00000000000E+00 0.  1.
         25    2    1    2    0    0 -0.20739837585E+03  0.12353401843E+03  0.49401607011E+03  0.56389249368E+03  0.12509247333E+03 0.  0.
         23    2    1    2    0    0  0.20739837585E+03 -0.12353401843E+03  0.28180892589E+03  0.38209999221E+03  0.91155873759E+02 0.  0.
          5    1    3    3  502    0 -0.20041864761E+03  0.11873557060E+03  0.35544124216E+03  0.42499614005E+03  0.41800000000E+01 0.  1.
         -5    1    3    3    0  502 -0.69797282418E+01  0.47984478338E+01  0.13857482795E+03  0.13889635363E+03  0.41800000000E+01 0.  1.
        -11    1    4    4    0    0  0.19828405891E+02 -0.30412678691E+02  0.94145179420E+02  0.10090298070E+03  0.00000000000E+00 0. -1.
         11    1    4    4    0    0  0.18756996996E+03 -0.93121339742E+02  0.18766374647E+03  0.28119701152E+03  0.00000000000E+00 0.  1.
</event>
<event>
 8    1  0.3528896E-009  0.1830001E+03  0.7561462E-02  0.1164931E+00
          1   -1    0    0  501    0  0.00000000000E+00  0.00000000000E+00  0.74721589662E+03  0.74721589662E+03  0.00000000000E+00 0. -1.
         -1   -1    0    0    0  501 -0.00000000000E+00 -0.00000000000E+00 -0.61066856555E+02  0.61066856555E+02  0.00000000000E+00 0.  1.
         25    2    1    2    0    0 -0.71376101199E+02  0.14613620572E+03  0.52019345749E+03  0.55919508376E+03  0.12509024758E+03 0.  0.
         23    2    1    2    0    0  0.71376101199E+02 -0.14613620572E+03  0.16595558257E+03  0.24908766941E+03  0.89738916980E+02 0.  0.
          5    1    3    3  502    0  0.13903700464E+02  0.10912241813E+03  0.32059892176E+03  0.33897220544E+03  0.41800000000E+01 0. -1.
         -5    1    3    3    0  502 -0.85279801663E+02  0.37013787598E+02  0.19959453573E+03  0.22022287832E+03  0.41800000000E+01 0. -1.
        -11    1    4    4    0    0  0.64567326155E+02 -0.12565841077E+03  0.84052218881E+02  0.16438902428E+03  0.00000000000E+00 0.  1.
         11    1    4    4    0    0  0.68087750445E+01 -0.20477794954E+02  0.81903363693E+02  0.84698645137E+02  0.00000000000E+00 0. -1.
</event>
<event>
 8    1  0.3528896E-009  0.1619406E+03  0.7561462E-02  0.1186523E+00
         -2   -1    0    0    0  501 -0.00000000000E+00  0.00000000000E+00  0.48444506258E+02  0.48444506258E+02  0.00000000000E+00 0.  1.
          2   -1    0    0  501    0  0.00000000000E+00 -0.00000000000E+00 -0.56451729107E+03  0.56451729107E+03  0.00000000000E+00 0. -1.
         25    2    1    2    0    0  0.87694526289E+02 -0.84433030677E+02 -0.32391599517E+03  0.36794829501E+03  0.12508041121E+03 0.  0.
         23    2    1    2    0    0 -0.87694526289E+02  0.84433030677E+02 -0.19215678965E+03  0.24501350232E+03  0.91039100935E+02 0.  0.
          5    1    3    3  502    0 -0.26131364211E+02  0.63097302975E+01 -0.34298786239E+02  0.43778305466E+02  0.41800000000E+01 0.  1.
         -5    1    3    3    0  502  0.11382589050E+03 -0.90742760975E+02 -0.28961720893E+03  0.32416998955E+03  0.41800000000E+01 0.  1.
        -11    1    4    4    0    0  0.41494860710E-02  0.60010128117E+02 -0.90085633832E+02  0.10824341512E+03  0.00000000000E+00 0. -1.
         11    1    4    4    0    0 -0.87698675775E+02  0.24422902560E+02 -0.10207115582E+03  0.13677008720E+03  0.00000000000E+00 0.  1.
</event>
<event>
 8    1  0.3528896E-009  0.1481101E+03  0.7561462E-02  0.1202815E+00
         -3   -1    0    0    0  501 -0.00000000000E+00  0.00000000000E+00  0.31221937517E+03  0.31221937517E+03  0.00000000000E+00 0.  1.
          3   -1    0    0  501    0  0.00000000000E+00 -0.00000000000E+00 -0.83585637616E+02  0.83585637616E+02  0.00000000000E+00 0. -1.
         25    2    1    2    0    0 -0.10301408351E+03  0.40207964414E+02  0.17666660672E+03  0.24307768986E+03  0.12508833508E+03 0.  0.
         23    2    1    2    0    0  0.10301408351E+03 -0.40207964414E+02  0.51967130835E+02  0.15272732293E+03  0.91632257842E+02 0.  0.
          5    1    3    3  502    0  0.14002587432E+01  0.55691047907E+02  0.92275692191E+02  0.10786903778E+03  0.41800000000E+01 0. -1.
         -5    1    3    3    0  502 -0.10441434226E+03 -0.15483083493E+02  0.84390914530E+02  0.13520865208E+03  0.41800000000E+01 0. -1.
        -11    1    4    4    0    0 -0.21254876525E+01 -0.28891327168E+02  0.35315847416E+02  0.45677517030E+02  0.00000000000E+00 0.  1.
         11    1    4    4    0    0  0.10513957116E+03 -0.11316637246E+02  0.16651283419E+02  0.10704980590E+03  0.00000000000E+00 0. -1.
</event>
<event>
 8    1  0.3528896E-009  0.1655232E+03  0.7561462E-02  0.1182598E+00
          1   -1    0    0  501    0  0.00000000000E+00  0.00000000000E+00  0.87093345290E+02  0.87093345290E+02  0.00000000000E+00 0. -1.
         -1   -1    0    0    0  501 -0.00000000000E+00 -0.00000000000E+00 -0.44671753248E+03  0.44671753248E+03  0.00000000000E+00 0.  1.
         25    2    1    2    0    0  0.37861633753E+02 -0.11748246678E+03 -0.32465679785E+03  0.36916459111E+03  0.12507927738E+03 0.  0.
         23    2    1    2    0    0 -0.37861633753E+02  0.11748246678E+03 -0.34967389347E+02  0.16464628666E+03  0.10319907017E+03 0.  0.
          5    1    3    3  502    0  0.49384180386E+02  0.25108527004E+01 -0.56934400459E+02  0.75525492447E+02  0.41800000000E+01 0.  1.
         -5    1    3    3    0  502 -0.11522546633E+02 -0.11999331948E+03 -0.26772239739E+03  0.29363909866E+03  0.41800000000E+01 0.  1.
        -11    1    4    4    0    0 -0.70345334589E+02  0.51248993859E+02 -0.16243917802E+02  0.88536943338E+02  0.00000000000E+00 0. -1.
         11    1    4    4    0    0  0.32483700836E+02  0.66233472919E+02 -0.18723471545E+02  0.76109343326E+02  0.00000000000E+00 0.  1.
</event>
<event>
 8    1  0.3528896E-009  0.9134126E+02  0.7561462E-02  0.1299636E+00
         -1   -1    0    0    0  501 -0.00000000000E+00  0.00000000000E+00  0.23716687044E+03  0.23716687044E+03  0.00000000000E+00 0.  1.
          1   -1    0    0  501    0  0.00000000000E+00 -0.00000000000E+00 -0.87539652023E+02  0.87539652023E+02  0.00000000000E+00 0. -1.
         25    2    1    2    0    0 -0.54385587685E+02 -0.15783269073E+02  0.16163793834E+03  0.21208805654E+03  0.12509043483E+03 0.  0.
         23    2    1    2    0    0  0.54385587685E+02  0.15783269073E+02 -0.12010719922E+02  0.11261846593E+03  0.96601023514E+02 0.  0.
          5    1    3    3  502    0 -0.82723098866E+02  0.14731517377E+02  0.14378134378E+03  0.16658534122E+03  0.41800000000E+01 0. -1.
         -5    1    3    3    0  502  0.28337511181E+02 -0.30514786450E+02  0.17856594560E+02  0.45502715318E+02  0.41800000000E+01 0. -1.
        -11    1    4    4    0    0  0.30063234027E+02  0.10200360664E+02  0.42277145745E+02  0.52869674202E+02  0.00000000000E+00 0.  1.
         11    1    4    4    0    0  0.24322353658E+02  0.55829084096E+01 -0.54287865667E+02  0.59748791724E+02  0.00000000000E+00 0. -1.
</event>
<event>
 8    1  0.3528896E-009  0.1103717E+03  0.7561462E-02  0.1259883E+00
         -2   -1    0    0    0  501 -0.00000000000E+00  0.00000000000E+00  0.24284478899E+03  0.24284478899E+03  0.00000000000E+00 0.  1.
          2   -1    0    0  501    0  0.00000000000E+00 -0.00000000000E+00 -0.61537617221E+02  0.61537617221E+02  0.00000000000E+00 0. -1.
         25    2    1    2    0    0  0.25450130253E+02 -0.50007327930E+02  0.13986066971E+03  0.19584969647E+03  0.12509058597E+03 0.  0.
         23    2    1    2    0    0 -0.25450130253E+02  0.50007327930E+02  0.41446502062E+02  0.10853270974E+03  0.83145021345E+02 0.  0.
          5    1    3    3  502    0 -0.50600974831E+02 -0.24121669878E+02  0.49872953546E+02  0.75147172315E+02  0.41800000000E+01 0. -1.
         -5    1    3    3    0  502  0.76051105084E+02 -0.25885658052E+02  0.89987716162E+02  0.12070252415E+03  0.41800000000E+01 0. -1.
        -11    1    4    4    0    0  0.13807887659E+02 -0.65157020445E+01 -0.13569024787E+02  0.20426222568E+02  0.00000000000E+00 0. -1.
         11    1    4    4    0    0 -0.39258017912E+02  0.56523029974E+02  0.55015526849E+02  0.88106487175E+02  0.00000000000E+00 0.  1.
</event>
<event>
 8    1  0.3528896E-009  0.1026521E+03  0.7561462E-02  0.1274816E+00
         -2   -1    0    0    0  501 -0.00000000000E+00  0.00000000000E+00  0.15689114250E+02  0.15689114250E+02  0.00000000000E+00 0.  1.
          2   -1    0    0  501    0  0.00000000000E+00 -0.00000000000E+00 -0.88066995203E+03  0.88066995203E+03  0.00000000000E+00 0. -1.
         25    2    1    2    0    0  0.41956273272E+02  0.15651680149E+02 -0.49085766453E+03  0.50851947822E+03  0.12508200889E+03 0.  0.
         23    2    1    2    0    0 -0.41956273272E+02 -0.15651680149E+02 -0.37412317325E+03  0.38783958805E+03  0.91902629682E+02 0.  0.
          5    1    3    3  502    0  0.55811512004E+02  0.49764787822E+02 -0.43557320291E+03  0.44196487018E+03  0.41800000000E+01 0.  1.
         -5    1    3    3    0  502 -0.13855238731E+02 -0.34113107673E+02 -0.55284461619E+02  0.66554608044E+02  0.41800000000E+01 0.  1.
        -11    1    4    4    0    0 -0.12486120154E+02 -0.47999083542E+02 -0.11790777536E+03  0.12791426312E+03  0.00000000000E+00 0.  1.
         11    1    4    4    0    0 -0.29470153118E+02  0.32347403393E+02 -0.25621539788E+03  0.25992532494E+03  0.00000000000E+00 0. -1.
</event>
<event>
 8    1  0.3528896E-009  0.4450041E+02  0.7561462E-02  0.1477485E+00
          2   -1    0    0  501    0  0.00000000000E+00  0.00000000000E+00  0.31544536988E+03  0.31544536988E+03  0.00000000000E+00 0. -1.
         -2   -1    0    0    0  501 -0.00000000000E+00 -0.00000000000E+00 -0.54916877553E+02  0.54916877553E+02  0.00000000000E+00 0.  1.
         25    2    1    2    0    0 -0.29112730325E+01 -0.31247496922E+02  0.25143980713E+03  0.28258394774E+03  0.12508728687E+03 0.  0.
         23    2    1    2    0    0  0.29112730325E+01  0.31247496922E+02  0.90886851969E+01  0.87778299691E+02  0.81471124476E+02 0.  0.
          5    1    3    3  502    0 -0.83933556276E+01 -0.83289975343E+01  0.25757262425E+03  0.25787778071E+03  0.41800000000E+01 0.  1.
         -5    1    3    3    0  502  0.54820825951E+01 -0.22918499387E+02 -0.61328171210E+01  0.24706167035E+02  0.41800000000E+01 0.  1.
        -11    1    4    4    0    0 -0.19648495213E+02  0.15187725589E+02  0.39493572077E+02  0.46652680610E+02  0.00000000000E+00 0. -1.
         11    1    4    4    0    0  0.22559768246E+02  0.16059771333E+02 -0.30404886880E+02  0.41125619080E+02  0.00000000000E+00 0.  1.
</event>
<event>
 8    1  0.3528896E-009  0.1378520E+03  0.7561462E-02  0.1216249E+00
          1   -1    0    0  501    0  0.00000000000E+00  0.00000000000E+00  0.40068616347E+02  0.40068616347E+02  0.00000000000E+00 0. -1.
         -1   -1    0    0    0  501 -0.00000000000E+00 -0.00000000000E+00 -0.65466779857E+03  0.65466779857E+03  0.00000000000E+00 0.  1.
         25    2    1    2    0    0 -0.81518123288E+02  0.73287444649E+02 -0.43182692577E+03  0.46275050509E+03  0.12508909696E+03 0.  0.
         23    2    1    2    0    0  0.81518123288E+02 -0.73287444649E+02 -0.18277225645E+03  0.23198590982E+03  0.91627019262E+02 0.  0.
          5    1    3    3  502    0 -0.90642739151E+02  0.83955076506E+02 -0.23636354574E+03  0.26673912196E+03  0.41800000000E+01 0. -1.
         -5    1    3    3    0  502  0.91246158631E+01 -0.10667631857E+02 -0.19546338003E+03  0.19601138313E+03  0.41800000000E+01 0. -1.
        -11    1    4    4    0    0 -0.52754823431E+01 -0.46220213829E+02 -0.33953251468E+02  0.57593073938E+02  0.00000000000E+00 0. -1.
         11    1    4    4    0    0  0.86793605631E+02 -0.27067230820E+02 -0.14881900498E+03  0.17439283588E+03  0.00000000000E+00 0.  1.
</event>
<event>
 8    1  0.3528896E-009  0.1121745E+03  0.7561462E-02  0.1256595E+00
         -4   -1    0    0    0  501 -0.00000000000E+00  0.00000000000E+00  0.29521872637E+03  0.29521872637E+03  0.00000000000E+00 0.  1.
          4   -1    0    0  501    0  0.00000000000E+00 -0.00000000000E+00 -0.48949430536E+02  0.48949430536E+02  0.00000000000E+00 0. -1.
         25    2    1    2    0    0 -0.34947947164E+02 -0.38371050855E+02  0.12438031605E+03  0.18387847868E+03  0.12508851005E+03 0.  0.
         23    2    1    2    0    0  0.34947947164E+02  0.38371050855E+02  0.12188897978E+03  0.16028967822E+03  0.90233923763E+02 0.  0.
          5    1    3    3  502    0  0.31250317830E+02 -0.51585027130E+02  0.88883468590E+02  0.10749577097E+03  0.41800000000E+01 0. -1.
         -5    1    3    3    0  502 -0.66198264994E+02  0.13213976274E+02  0.35496847462E+02  0.76382707709E+02  0.41800000000E+01 0. -1.
        -11    1    4    4    0    0  0.55613121077E+02  0.47997139787E+02  0.61722343772E+02  0.95948905071E+02  0.00000000000E+00 0. -1.
         11    1    4    4    0    0 -0.20665173913E+02 -0.96260889318E+01  0.60166636009E+02  0.64340773150E+02  0.00000000000E+00 0.  1.
</event>
<event>
 8    1  0.3528896E-009  0.1679573E+03  0.7561462E-02  0.1179995E+00
          1   -1    0    0  501    0  0.00000000000E+00  0.00000000000E+00  0.19141314860E+03  0.19141314860E+03  0.00000000000E+00 0. -1.
         -1   -1    0    0    0  501 -0.00000000000E+00 -0.00000000000E+00 -0.16844291377E+03  0.16844291377E+03  0.00000000000E+00 0.  1.
         25    2    1    2    0    0  0.45995218604E+02  0.13231012958E+03 -0.20703865469E+02  0.18893763881E+03  0.12508897149E+03 0.  0.
         23    2    1    2    0    0 -0.45995218604E+02 -0.13231012958E+03  0.43674100294E+02  0.17091842356E+03  0.87659283322E+02 0.  0.
          5    1    3    3  502    0 -0.91741082367E+01  0.12268730055E+03  0.12441055074E+02  0.12372788785E+03  0.41800000000E+01 0.  1.
         -5    1    3    3    0  502  0.55169326840E+02  0.96228290261E+01 -0.33144920543E+02  0.65209750960E+02  0.41800000000E+01 0.  1.
        -11    1    4    4    0    0  0.18894399066E+02 -0.26860418277E+02  0.33139944293E+02  0.46655506576E+02  0.00000000000E+00 0. -1.
         11    1    4    4    0    0 -0.64889617669E+02 -0.10544971130E+03  0.10534156001E+02  0.12426291699E+03  0.00000000000E+00 0.  1.
</event>
<event>
 8    1  0.3528896E-009  0.1306624E+03  0.7561462E-02  0.1226476E+00
          3   -1    0    0  501    0  0.00000000000E+00  0.00000000000E+00  0.28408843410E+03  0.28408843410E+03  0.00000000000E+00 0. -1.
         -3   -1    0    0    0  501 -0.00000000000E+00 -0.00000000000E+00 -0.11157602982E+03  0.11157602982E+03  0.00000000000E+00 0.  1.
         25    2    1    2    0    0  0.82982692841E+02  0.20193334963E+02  0.21368313234E+03  0.26192164339E+03  0.12509423704E+03 0.  0.
         23    2    1    2    0    0 -0.82982692841E+02 -0.20193334963E+02 -0.41170728055E+02  0.13374282053E+03  0.94330350928E+02 0.  0.
          5    1    3    3  502    0 -0.28581686011E+02  0.23611474016E+02  0.34728387854E+02  0.50970067720E+02  0.41800000000E+01 0.  1.
         -5    1    3    3    0  502  0.11156437885E+03 -0.34181390532E+01  0.17895474449E+03  0.21095157567E+03  0.41800000000E+01 0.  1.
        -11    1    4    4    0    0 -0.26042998898E+02 -0.43578276473E+02  0.12267419266E+02  0.52228283022E+02  0.00000000000E+00 0. -1.
         11    1    4    4    0    0 -0.56939693942E+02  0.23384941510E+02 -0.53438147321E+02  0.81514537506E+02  0.00000000000E+00 0.  1.
</event>
<event>
 8    1  0.3528896E-009  0.8054520E+02  0.7561462E-02  0.1327511E+00
         -1   -1    0    0    0  501 -0.00000000000E+00  0.00000000000E+00  0.67323897356E+02  0.67323897356E+02  0.00000000000E+00 0.  1.
          1   -1    0    0  501    0  0.00000000000E+00 -0.00000000000E+00 -0.19756503377E+03  0.19756503377E+03  0.00000000000E+00 0. -1.
         25    2    1    2    0    0 -0.15634597387E+02 -0.30388321402E+02 -0.10762462246E+03  0.16853393079E+03  0.12511089383E+03 0.  0.
         23    2    1    2    0    0  0.15634597387E+02  0.30388321402E+02 -0.22616513955E+02  0.96355000335E+02  0.87206012826E+02 0.  0.
          5    1    3    3  502    0 -0.57545345201E+02  0.19597307567E+02 -0.71166358566E+02  0.93689082660E+02  0.41800000000E+01 0. -1.
         -5    1    3    3    0  502  0.41910747814E+02 -0.49985628969E+02 -0.36458263896E+02  0.74844848133E+02  0.41800000000E+01 0. -1.
        -11    1    4    4    0    0  0.13364263069E+02  0.19315218311E+02  0.32495717850E+02  0.40095546690E+02  0.00000000000E+00 0.  1.
         11    1    4    4    0    0  0.22703343179E+01  0.11073103091E+02 -0.55112231805E+02  0.56259453645E+02  0.00000000000E+00 0. -1.
</event>
<event>
 8    1  0.3528896E-009  0.1077954E+03  0.7561462E-02  0.1264708E+00
         -1   -1    0    0    0  501 -0.00000000000E+00  0.00000000000E+00  0.19760647982E+03  0.19760647982E+03  0.00000000000E+00 0.  1.
          1   -1    0    0  501    0  0.00000000000E+00 -0.00000000000E+00 -0.80109163519E+02  0.80109163519E+02  0.00000000000E+00 0. -1.
         25    2    1    2    0    0 -0.32433842394E+02  0.15718736103E+02  0.12353943036E+03  0.17946747782E+03  0.12509017525E+03 0.  0.
         23    2    1    2    0    0  0.32433842394E+02 -0.15718736103E+02 -0.60421140592E+01  0.98248165520E+02  0.91198476351E+02 0.  0.
          5    1    3    3  502    0  0.44266197117E+02  0.10032558013E+02  0.18449492025E+02  0.49173210018E+02  0.41800000000E+01 0.  1.
         -5    1    3    3    0  502 -0.76700039510E+02  0.56861780898E+01  0.10508993833E+03  0.13029426780E+03  0.41800000000E+01 0.  1.
        -11    1    4    4    0    0  0.14311858901E+02  0.35702802833E+02  0.12837923020E+02  0.40550360082E+02  0.00000000000E+00 0.  1.
         11    1    4    4    0    0  0.18121983493E+02 -0.51421538936E+02 -0.18880037079E+02  0.57697805438E+02  0.00000000000E+00 0. -1.
</event>
<event>
 8    1  0.3528896E-009  0.6731082E+02  0.7561462E-02  0.1369484E+00
         -1   -1    0    0    0  501 -0.00000000000E+00  0.00000000000E+00  0.19572927376E+03  0.19572927376E+03  0.00000000000E+00 0.  1.
          1   -1    0    0  501    0  0.00000000000E+00 -0.00000000000E+00 -0.61271193972E+02  0.61271193972E+02  0.00000000000E+00 0. -1.
         25    2    1    2    0    0 -0.45960416109E+01  0.82813856991E+01  0.91994829485E+02  0.15555362037E+03  0.12507667732E+03 0.  0.
         23    2    1    2    0    0  0.45960416109E+01 -0.82813856991E+01  0.42463250300E+02  0.10144684736E+03  0.91644041084E+02 0.  0.
          5    1    3    3  502    0  0.13001162830E+02 -0.39532379898E+02  0.95556904749E+02  0.10430931761E+03  0.41800000000E+01 0. -1.
         -5    1    3    3    0  502 -0.17597204441E+02  0.47813765598E+02 -0.35620752635E+01  0.51244302756E+02  0.41800000000E+01 0. -1.
        -11    1    4    4    0    0 -0.10813259231E+02 -0.19716990200E+02 -0.23632587928E+02  0.32621856016E+02  0.00000000000E+00 0. -1.
         11    1    4    4    0    0  0.15409300842E+02  0.11435604501E+02  0.66095838228E+02  0.68824991347E+02  0.00000000000E+00 0.  1.
</event>
<event>
 8    1  0.3528896E-009  0.1042560E+03  0.7561462E-02  0.1271592E+00
          2   -1    0    0  501    0  0.00000000000E+00  0.00000000000E+00  0.94252670558E+03  0.94252670558E+03  0.00000000000E+00 0. -1.
         -2   -1    0    0    0  501 -0.00000000000E+00 -0.00000000000E+00 -0.12782567536E+02  0.12782567536E+02  0.00000000000E+00 0.  1.
         25    2    1    2    0    0 -0.16130773691E+02 -0.80170368944E+01  0.54650735565E+03  0.56092552894E+03  0.12507071798E+03 0.  0.
         23    2    1    2    0    0  0.16130773691E+02  0.80170368944E+01  0.38323678239E+03  0.39438374417E+03  0.91343481158E+02 0.  0.
          5    1    3    3  502    0  0.29291477620E+02 -0.47234875323E+02  0.15278317529E+03  0.16263239271E+03  0.41800000000E+01 0.  1.
         -5    1    3    3    0  502 -0.45422251311E+02  0.39217838429E+02  0.39372418037E+03  0.39829313624E+03  0.41800000000E+01 0.  1.
        -11    1    4    4    0    0  0.52233530918E+02  0.17854037317E+02  0.20833238006E+03  0.21552143509E+03  0.00000000000E+00 0.  1.
         11    1    4    4    0    0 -0.36102757227E+02 -0.98370004230E+01  0.17490440233E+03  0.17886230908E+03  0.00000000000E+00 0. -1.
</event>
<event>
 8    1  0.3528896E-009  0.1596855E+03  0.7561462E-02  0.1189052E+00
          1   -1    0    0  501    0  0.00000000000E+00  0.00000000000E+00  0.45944097266E+03  0.45944097266E+03  0.00000000000E+00 0. -1.
         -1   -1    0    0    0  501 -0.00000000000E+00 -0.00000000000E+00 -0.75256088498E+02  0.75256088498E+02  0.00000000000E+00 0.  1.
         25    2    1    2    0    0 -0.13912295455E+03 -0.53395660709E+02  0.18369465013E+03  0.26757810626E+03  0.12509206767E+03 0.  0.
         23    2    1    2    0    0  0.13912295455E+03  0.53395660709E+02  0.20049023403E+03  0.26711895491E+03  0.94603959017E+02 0.  0.
          5    1    3    3  502    0 -0.64923617378E+02 -0.21755589950E+02  0.17299598961E+03  0.18610068944E+03  0.41800000000E+01 0.  1.
         -5    1    3    3    0  502 -0.74199337174E+02 -0.31640070759E+02  0.10698660523E+02  0.81477416820E+02  0.41800000000E+01 0.  1.
        -11    1    4    4    0    0  0.34699185233E+02  0.55615498021E+02  0.11402887289E+03  0.13152832747E+03  0.00000000000E+00 0.  1.
         11    1    4    4    0    0  0.10442376932E+03 -0.22198373121E+01  0.86461361146E+02  0.13559062743E+03  0.00000000000E+00 0. -1.
</event>
<event>
 8    1  0.3528896E-009  0.1146838E+03  0.7561462E-02  0.1252134E+00
         -2   -1    0    0    0  501 -0.00000000000E+00  0.00000000000E+00  0.82603859912E+02  0.82603859912E+02  0.00000000000E+00 0.  1.
          2   -1    0    0  501    0  0.00000000000E+00 -0.00000000000E+00 -0.17276461540E+03  0.17276461540E+03  0.00000000000E+00 0. -1.
         25    2    1    2    0    0  0.69023763028E+01  0.52607966821E+02 -0.58831506919E+02  0.14806980108E+03  0.12509308060E+03 0.  0.
         23    2    1    2    0    0 -0.69023763028E+01 -0.52607966821E+02 -0.31329248573E+02  0.10729867423E+03  0.87842146517E+02 0.  0.
          5    1    3    3  502    0  0.19673022045E+01  0.93525524694E+02 -0.33174340301E+02  0.99342354017E+02  0.41800000000E+01 0.  1.
         -5    1    3    3    0  502  0.49350740982E+01 -0.40917557872E+02 -0.25657166618E+02  0.48727447065E+02  0.41800000000E+01 0.  1.
        -11    1    4    4    0    0 -0.23997372708E+02  0.12450870928E+02  0.94461280881E+01  0.28637866883E+02  0.00000000000E+00 0.  1.
         11    1    4    4    0    0  0.17094996405E+02 -0.65058837749E+02 -0.40775376661E+02  0.78660807352E+02  0.00000000000E+00 0. -1.
</event>
<event>
 8    1  0.3528896E-009  0.8747449E+02  0.7561462E-02  0.1309085E+00
         -2   -1    0    0    0  501 -0.00000000000E+00  0.00000000000E+00  0.24030327260E+02  0.24030327260E+02  0.00000000000E+00 0.  1.
          2   -1    0    0  501    0  0.00000000000E+00 -0.00000000000E+00 -0.51636072467E+03  0.51636072467E+03  0.00000000000E+00 0. -1.
         25    2    1    2    0    0  0.16085504444E+02 -0.19545879244E+02 -0.30088510057E+03  0.32683723270E+03  0.12509975252E+03 0.  0.
         23    2    1    2    0    0 -0.16085504444E+02  0.19545879244E+02 -0.19144529683E+03  0.21355381923E+03  0.91176461766E+02 0.  0.
          5    1    3    3  502    0  0.22231224491E+02  0.26122907937E+02 -0.15756149774E+02  0.37978445429E+02  0.41800000000E+01 0. -1.
         -5    1    3    3    0  502 -0.61457200472E+01 -0.45668787182E+02 -0.28512895080E+03  0.28885878727E+03  0.41800000000E+01 0. -1.
        -11    1    4    4    0    0  0.37605559749E+02  0.14079653523E+02 -0.92686341839E+02  0.10101075552E+03  0.00000000000E+00 0.  1.
         11    1    4    4    0    0 -0.53691064193E+02  0.54662257215E+01 -0.98758954995E+02  0.11254306371E+03  0.00000000000E+00 0. -1.
</event>
<event>
 8    1  0.3528896E-009  0.9349841E+02  0.7561462E-02  0.1294594E+00
          1   -1    0    0  501    0  0.00000000000E+00  0.00000000000E+00  0.32028386118E+03  0.32028386118E+03  0.00000000000E+00 0. -1.
         -1   -1    0    0    0  501 -0.00000000000E+00 -0.00000000000E+00 -0.39968922033E+02  0.39968922033E+02  0.00000000000E+00 0.  1.
         25    2    1    2    0    0 -0.16836119347E+02  0.26865202177E+02  0.14488321774E+03  0.19400994057E+03  0.12507404309E+03 0.  0.
         23    2    1    2    0    0  0.16836119347E+02 -0.26865202177E+02  0.13543172140E+03  0.16624284264E+03  0.91047995931E+02 0.  0.
          5    1    3    3  502    0 -0.36291484461E+02 -0.20028544171E+02  0.13607878977E+03  0.14231347038E+03  0.41800000000E+01 0. -1.
         -5    1    3    3    0  502  0.19455365113E+02  0.46893746348E+02  0.88044279649E+01  0.51696470189E+02  0.41800000000E+01 0. -1.
        -11    1    4    4    0    0 -0.33336191594E+02 -0.28987796753E+02  0.46685021595E+02  0.64273519212E+02  0.00000000000E+00 0.  1.
         11    1    4    4    0    0  0.50172310941E+02  0.21225945758E+01  0.88746699809E+02  0.10196932343E+03  0.00000000000E+00 0. -1.
</event>
<event>
 8    1  0.3528896E-009  0.1177680E+03  0.7561462E-02  0.1246825E+00
          1   -1    0    0  501    0  0.00000000000E+00  0.00000000000E+00  0.66614426934E+03  0.66614426934E+03  0.00000000000E+00 0. -1.
         -1   -1    0    0    0  501 -0.00000000000E+00 -0.00000000000E+00 -0.24907339099E+02  0.24907339099E+02  0.00000000000E+00 0.  1.
         25    2    1    2    0    0  0.65664880566E+02 -0.26012402679E+02  0.24635090510E+03  0.28518493425E+03  0.12511257591E+03 0.  0.
         23    2    1    2    0    0 -0.65664880566E+02  0.26012402679E+02  0.39488602514E+03  0.40586667418E+03  0.61678705630E+02 0.  0.
          5    1    3    3  502    0  0.69710555528E+02  0.37880142201E+02  0.14062727912E+03  0.16151771036E+03  0.41800000000E+01 0.  1.
         -5    1    3    3    0  502 -0.40456749620E+01 -0.63892544880E+02  0.10572362598E+03  0.12366722390E+03  0.41800000000E+01 0.  1.
        -11    1    4    4    0    0 -0.34965400080E+02  0.44115622805E+02  0.20107098163E+03  0.20880207621E+03  0.00000000000E+00 0.  1.
         11    1    4    4    0    0 -0.30699480485E+02 -0.18103220126E+02  0.19381504351E+03  0.19706459797E+03  0.00000000000E+00 0. -1.
</event>
<event>
 8    1  0.3528896E-009  0.2550316E+03  0.7561462E-02  0.1110166E+00
         -2   -1    0    0    0  501 -0.00000000000E+00  0.00000000000E+00  0.78349300110E+02  0.78349300110E+02  0.00000000000E+00 0.  1.
          2   -1    0    0  501    0  0.00000000000E+00 -0.00000000000E+00 -0.89829372336E+03  0.89829372336E+03  0.00000000000E+00 0. -1.
         25    2    1    2    0    0 -0.20963739981E+03  0.11935941682E+03 -0.43718460589E+03  0.51475296385E+03  0.12508287007E+03 0.  0.
         23    2    1    2    0    0  0.20963739981E+03 -0.11935941682E+03 -0.38275981736E+03  0.46189005962E+03  0.92966873707E+02 0.  0.
          5    1    3    3  502    0 -0.16478097965E+03  0.14116149550E+03 -0.31312111488E+03  0.38097459764E+03  0.41800000000E+01 0.  1.
         -5    1    3    3    0  502 -0.44856420158E+02 -0.21802078675E+02 -0.12406349101E+03  0.13377836621E+03  0.41800000000E+01 0.  1.
        -11    1    4    4    0    0  0.18128402457E+03 -0.90799534666E+02 -0.24313039410E+03  0.31657675466E+03  0.00000000000E+00 0. -1.
         11    1    4    4    0    0  0.28353375239E+02 -0.28559882154E+02 -0.13962942326E+03  0.14531330495E+03  0.00000000000E+00 0.  1.
</event>
<event>
 8    1  0.3528896E-009  0.1175815E+03  0.7561462E-02  0.1247141E+00
         -2   -1    0    0    0  501 -0.00000000000E+00  0.00000000000E+00  0.20091003141E+02  0.20091003141E+02  0.00000000000E+00 0.  1.
          2   -1    0    0  501    0  0.00000000000E+00 -0.00000000000E+00 -0.76836635633E+03  0.76836635633E+03  0.00000000000E+00 0. -1.
         25    2    1    2    0    0 -0.19558692825E+02  0.52237211670E+02 -0.34164571880E+03  0.36807780859E+03  0.12509279459E+03 0.  0.
         23    2    1    2    0    0  0.19558692825E+02 -0.52237211670E+02 -0.40662963439E+03  0.42037955087E+03  0.90884753854E+02 0.  0.
          5    1    3    3  502    0 -0.68082730790E+02  0.36509067338E+02 -0.13912227904E+03  0.15918747172E+03  0.41800000000E+01 0. -1.
         -5    1    3    3    0  502  0.48524037966E+02  0.15728144331E+02 -0.20252343976E+03  0.20889033687E+03  0.41800000000E+01 0. -1.
        -11    1    4    4    0    0  0.20341586389E+02  0.23382361615E+02 -0.11449039842E+03  0.11861098728E+03  0.00000000000E+00 0.  1.
         11    1    4    4    0    0 -0.78289356438E+00 -0.75619573285E+02 -0.29213923596E+03  0.30176856360E+03  0.00000000000E+00 0. -1.
</event>
<event>
 8    1  0.3528896E-009  0.1256054E+03  0.7561462E-02  0.1234126E+00
         -2   -1    0    0    0  501 -0.00000000000E+00  0.00000000000E+00  0.69968321684E+02  0.69968321684E+02  0.00000000000E+00 0. -1.
          2   -1    0    0  501    0  0.00000000000E+00 -0.00000000000E+00 -0.35245636611E+03  0.35245636611E+03  0.00000000000E+00 0.  1.
         25    2    1    2    0    0 -0.13705668768E+02 -0.63270374299E+02 -0.27260223027E+02  0.14346352726E+03  0.12509068021E+03 0.  0.
         23    2    1    2    0    0  0.13705668768E+02  0.63270374299E+02 -0.25522782140E+03  0.27896116053E+03  0.92125472315E+02 0.  0.
          5    1    3    3  502    0 -0.10277381439E+02  0.37677577659E+02 -0.23518628034E+01  0.39347529606E+02  0.41800000000E+01 0.  1.
         -5    1    3    3    0  502 -0.34282873282E+01 -0.10094795196E+03 -0.24908360223E+02  0.10411599765E+03  0.41800000000E+01 0.  1.
        -11    1    4    4    0    0 -0.36445031056E+02  0.10248312892E+02 -0.65112978917E+02  0.75319109324E+02  0.00000000000E+00 0.  1.
         11    1    4    4    0    0  0.50150699824E+02  0.53022061407E+02 -0.19011484248E+03  0.20364205121E+03  0.00000000000E+00 0. -1.
</event>
<event>
 8    1  0.3528896E-009  0.1960491E+03  0.7561462E-02  0.1153116E+00
          2   -1    0    0  501    0  0.00000000000E+00  0.00000000000E+00  0.11221886440E+04  0.11221886440E+04  0.00000000000E+00 0. -1.
         -2   -1    0    0    0  501 -0.00000000000E+00 -0.00000000000E+00 -0.38066762927E+02  0.38066762927E+02  0.00000000000E+00 0.  1.
         25    2    1    2    0    0 -0.39711332432E+02 -0.16613620922E+03  0.68128400805E+03  0.71342476824E+03  0.12509504538E+03 0.  0.
         23    2    1    2    0    0  0.39711332432E+02  0.16613620922E+03  0.40283787305E+03  0.44683063872E+03  0.90559581436E+02 0.  0.
          5    1    3    3  502    0 -0.54704971741E+02 -0.17814361758E+03  0.55122699342E+03  0.58189041330E+03  0.41800000000E+01 0. -1.
         -5    1    3    3    0  502  0.14993639309E+02  0.12007408357E+02  0.13005701463E+03  0.13153435494E+03  0.41800000000E+01 0. -1.
        -11    1    4    4    0    0 -0.18893871559E+02  0.77574101249E+02  0.11476061670E+03  0.13980242742E+03  0.00000000000E+00 0.  1.
         11    1    4    4    0    0  0.58605203990E+02  0.88562107975E+02  0.28807725635E+03  0.30702821129E+03  0.00000000000E+00 0. -1.
</event>
<event>
 8    1  0.3528896E-009  0.6748378E+02  0.7561462E-02  0.1368865E+00
          2   -1    0    0  501    0  0.00000000000E+00  0.00000000000E+00  0.72774009719E+02  0.72774009719E+02  0.00000000000E+00 0.  1.
         -2   -1    0    0    0  501 -0.00000000000E+00 -0.00000000000E+00 -0.31584548297E+03  0.31584548297E+03  0.00000000000E+00 0. -1.
         25    2    1    2    0    0 -0.76474170597E+01 -0.60983636372E+02 -0.21513461465E+03  0.25633566911E+03  0.12509031117E+03 0.  0.
         23    2    1    2    0    0  0.76474170597E+01  0.60983636372E+02 -0.27936858601E+02  0.13228382357E+03  0.11375875798E+03 0.  0.
          5    1    3    3  502    0  0.15677816501E+02 -0.23458975191E+02 -0.20969142291E+03  0.21162250043E+03  0.41800000000E+01 0. -1.
         -5    1    3    3    0  502 -0.23325233560E+02 -0.37524661181E+02 -0.54431917399E+01  0.44713168684E+02  0.41800000000E+01 0. -1.
        -11    1    4    4    0    0  0.90438898186E+01  0.38974494311E+02  0.42562574665E+02  0.58415545122E+02  0.00000000000E+00 0.  1.
         11    1    4    4    0    0 -0.13964727589E+01  0.22009142061E+02 -0.70499433266E+02  0.73868278451E+02  0.00000000000E+00 0. -1.
</event>
<event>
 8    1  0.3528896E-009  0.9585841E+02  0.7561462E-02  0.1289254E+00
         -2   -1    0    0    0  501 -0.00000000000E+00  0.00000000000E+00  0.72592561561E+02  0.72592561561E+02  0.00000000000E+00 0.  1.
          2   -1    0    0  501    0  0.00000000000E+00 -0.00000000000E+00 -0.16309252419E+03  0.16309252419E+03  0.00000000000E+00 0. -1.
         25    2    1    2    0    0  0.12279531789E+02 -0.13032742841E+02 -0.38447359089E+02  0.13208386893E+03  0.12508920706E+03 0.  0.
         23    2    1    2    0    0 -0.12279531789E+02  0.13032742841E+02 -0.52052603536E+02  0.10360121682E+03  0.87767302023E+02 0.  0.
          5    1    3    3  502    0 -0.33014124706E+01  0.50439915568E+02 -0.42916711739E+02  0.66440958401E+02  0.41800000000E+01 0. -1.
         -5    1    3    3    0  502  0.15580944259E+02 -0.63472658409E+02  0.44693526503E+01  0.65642910528E+02  0.41800000000E+01 0. -1.
        -11    1    4    4    0    0  0.28938264789E+02 -0.68577348429E+01  0.53189330701E+01  0.30211632613E+02  0.00000000000E+00 0.  1.
         11    1    4    4    0    0 -0.41217796578E+02  0.19890477684E+02 -0.57371536606E+02  0.73389584205E+02  0.00000000000E+00 0. -1.
</event>
<event>
 8    1  0.3528896E-009  0.1123518E+03  0.7561462E-02  0.1256276E+00
          2   -1    0    0  501    0  0.00000000000E+00  0.00000000000E+00  0.48729853073E+03  0.48729853073E+03  0.00000000000E+00 0. -1.
         -2   -1    0    0    0  501 -0.00000000000E+00 -0.00000000000E+00 -0.41195904840E+02  0.41195904840E+02  0.00000000000E+00 0.  1.
         25    2    1    2    0    0 -0.12606711132E+02  0.86521120626E+02  0.27877035682E+03  0.31781523578E+03  0.12509507893E+03 0.  0.
         23    2    1    2    0    0  0.12606711132E+02 -0.86521120626E+02  0.16733226908E+03  0.21067919979E+03  0.93492264235E+02 0.  0.
          5    1    3    3  502    0  0.28130656681E+02  0.54696826763E+02  0.40025938785E+02  0.73502550152E+02  0.41800000000E+01 0.  1.
         -5    1    3    3    0  502 -0.40737367814E+02  0.31824293864E+02  0.23874441803E+03  0.24431268562E+03  0.41800000000E+01 0.  1.
        -11    1    4    4    0    0  0.26758992042E+02 -0.92153454059E+02  0.17000190465E+03  0.19521513859E+03  0.00000000000E+00 0. -1.
         11    1    4    4    0    0 -0.14152280910E+02  0.56323334324E+01 -0.26696355733E+01  0.15464061205E+02  0.00000000000E+00 0.  1.
</event>
<event>
 8    1  0.3528896E-009  0.1526290E+03  0.7561462E-02  0.1197279E+00
         -2   -1    0    0    0  501 -0.00000000000E+00  0.00000000000E+00  0.54067562361E+03  0.54067562361E+03  0.00000000000E+00 0.  1.
          2   -1    0    0  501    0  0.00000000000E+00 -0.00000000000E+00 -0.49785733375E+02  0.49785733375E+02  0.00000000000E+00 0. -1.
         25    2    1    2    0    0 -0.30263456261E+02  0.12167353889E+03  0.26367377299E+03  0.31763405174E+03  0.12508879009E+03 0.  0.
         23    2    1    2    0    0  0.30263456261E+02 -0.12167353889E+03  0.22721611725E+03  0.27282730525E+03  0.84185792766E+02 0.  0.
          5    1    3    3  502    0 -0.69446181807E+02  0.30826779727E+02  0.91428011597E+02  0.11895215938E+03  0.41800000000E+01 0.  1.
         -5    1    3    3    0  502  0.39182725546E+02  0.90846759166E+02  0.17224576139E+03  0.19868189236E+03  0.41800000000E+01 0.  1.
        -11    1    4    4    0    0  0.30604153616E+02 -0.51101620372E+02  0.37441306434E+02  0.70355108206E+02  0.00000000000E+00 0. -1.
         11    1    4    4    0    0 -0.34069735485E+00 -0.70571918522E+02  0.18977481081E+03  0.20247219705E+03  0.00000000000E+00 0.  1.
</event>
<event>
 8    1  0.3528896E-009  0.1052299E+03  0.7561462E-02  0.1269667E+00
         -1   -1    0    0    0  501 -0.00000000000E+00  0.00000000000E+00  0.32683049648E+03  0.32683049648E+03  0.00000000000E+00 0.  1.
          1   -1    0    0  501    0  0.00000000000E+00 -0.00000000000E+00 -0.40548565557E+02  0.40548565557E+02  0.00000000000E+00 0. -1.
         25    2    1    2    0    0 -0.18450787150E+02 -0.11481479249E+02  0.13074030994E+03  0.18225438763E+03  0.12510546453E+03 0.  0.
         23    2    1    2    0    0  0.18450787150E+02  0.11481479249E+02  0.15554162099E+03  0.18512467441E+03  0.98008638922E+02 0.  0.
          5    1    3    3  502    0  0.34756420920E+02 -0.45639220891E+02  0.34642107259E+02  0.67145329503E+02  0.41800000000E+01 0.  1.
         -5    1    3    3    0  502 -0.53207208070E+02  0.34157741642E+02  0.96098202677E+02  0.11510905813E+03  0.41800000000E+01 0.  1.
        -11    1    4    4    0    0  0.45235849684E+02 -0.18941237670E+02  0.12529167623E+03  0.13454760018E+03  0.00000000000E+00 0.  1.
         11    1    4    4    0    0 -0.26785062535E+02  0.30422716920E+02  0.30249944752E+02  0.50577074226E+02  0.00000000000E+00 0. -1.
</event>
<event>
 8    1  0.3528896E-009  0.1493677E+03  0.7561462E-02  0.1201252E+00
         -2   -1    0    0    0  501 -0.00000000000E+00  0.00000000000E+00  0.50279954227E+02  0.50279954227E+02  0.00000000000E+00 0.  1.
          2   -1    0    0  501    0  0.00000000000E+00 -0.00000000000E+00 -0.58648801936E+03  0.58648801936E+03  0.00000000000E+00 0. -1.
         25    2    1    2    0    0 -0.10123619583E+03  0.83355780263E+02 -0.24453630184E+03  0.30437310655E+03  0.12509209258E+03 0.  0.
         23    2    1    2    0    0  0.10123619583E+03 -0.83355780263E+02 -0.29167176329E+03  0.33239486703E+03  0.90647540945E+02 0.  0.
          5    1    3    3  502    0 -0.16567583850E+02 -0.21495252264E+02 -0.28325689066E+01  0.27604828402E+02  0.41800000000E+01 0.  1.
         -5    1    3    3    0  502 -0.84668611980E+02  0.10485103253E+03 -0.24170373293E+03  0.27676827815E+03  0.41800000000E+01 0.  1.
        -11    1    4    4    0    0  0.87966596170E+02 -0.51497627031E+02 -0.27651057025E+03  0.29470022581E+03  0.00000000000E+00 0. -1.
         11    1    4    4    0    0  0.13269599661E+02 -0.31858153232E+02 -0.15161193037E+02  0.37694641221E+02  0.00000000000E+00 0.  1.
</event>
<event>
 8    1  0.3528896E-009  0.9213934E+02  0.7561462E-02  0.1297752E+00
         -2   -1    0    0    0  501 -0.00000000000E+00  0.00000000000E+00  0.11928964818E+03  0.11928964818E+03  0.00000000000E+00 0. -1.
          2   -1    0    0  501    0  0.00000000000E+00 -0.00000000000E+00 -0.12288211080E+03  0.12288211080E+03  0.00000000000E+00 0.  1.
         25    2    1    2    0    0 -0.44544139946E+02 -0.29090110709E+02 -0.21299675197E+02  0.13759795214E+03  0.12509638414E+03 0.  0.
         23    2    1    2    0    0  0.44544139946E+02  0.29090110709E+02  0.17707212572E+02  0.10457380684E+03  0.88270724225E+02 0.  0.
          5    1    3    3  502    0 -0.61956557401E+02  0.22620390725E+02 -0.42871317371E+02  0.78776388180E+02  0.41800000000E+01 0. -1.
         -5    1    3    3    0  502  0.17412417455E+02 -0.51710501434E+02  0.21571642174E+02  0.58821563957E+02  0.41800000000E+01 0. -1.
        -11    1    4    4    0    0  0.20812396082E+02 -0.54916429298E+01 -0.32607121555E+02  0.39070939954E+02  0.00000000000E+00 0.  1.
         11    1    4    4    0    0  0.23731743863E+02  0.34581753639E+02  0.50314334127E+02  0.65502866886E+02  0.00000000000E+00 0. -1.
</event>
<event>
 8    1  0.3528896E-009  0.9059265E+02  0.7561462E-02  0.1301423E+00
         -1   -1    0    0    0  501 -0.00000000000E+00  0.00000000000E+00  0.40854211331E+02  0.40854211331E+02  0.00000000000E+00 0.  1.
          1   -1    0    0  501    0  0.00000000000E+00 -0.00000000000E+00 -0.35334077979E+03  0.35334077979E+03  0.00000000000E+00 0. -1.
         25    2    1    2    0    0 -0.16320611765E+01  0.40735918703E+02 -0.23397729006E+03  0.26843096708E+03  0.12509089946E+03 0.  0.
         23    2    1    2    0    0  0.16320611765E+01 -0.40735918703E+02 -0.78509278397E+02  0.12576402404E+03  0.89391298521E+02 0.  0.
          5    1    3    3  502    0 -0.25100958369E+02  0.51099832595E+02 -0.33321983310E+02  0.66099001309E+02  0.41800000000E+01 0.  1.
         -5    1    3    3    0  502  0.23468897193E+02 -0.10363913892E+02 -0.20065530675E+03  0.20233196577E+03  0.41800000000E+01 0.  1.
        -11    1    4    4    0    0 -0.22984915407E+02  0.21317326503E+02 -0.28288062761E+02  0.42224983603E+02  0.00000000000E+00 0.  1.
         11    1    4    4    0    0  0.24616976583E+02 -0.62053245206E+02 -0.50221215636E+02  0.83539040434E+02  0.00000000000E+00 0. -1.
</event>
<event>
 8    1  0.3528896E-009  0.1235352E+03  0.7561462E-02  0.1237376E+00
         -1   -1    0    0    0  501 -0.00000000000E+00  0.00000000000E+00  0.24814460595E+02  0.24814460595E+02  0.00000000000E+00 0.  1.
          1   -1    0    0  501    0  0.00000000000E+00 -0.00000000000E+00 -0.73600126111E+03  0.73600126111E+03  0.00000000000E+00 0. -1.
         25    2    1    2    0    0 -0.30155907932E+02  0.70384459750E+02 -0.39772515386E+03  0.42390578106E+03  0.12508981673E+03 0.  0.
         23    2    1    2    0    0  0.30155907932E+02 -0.70384459750E+02 -0.31346164666E+03  0.33690994064E+03  0.96885258011E+02 0.  0.
          5    1    3    3  502    0  0.34624617531E+02  0.36161818680E+02 -0.28503094826E+03  0.28942469683E+03  0.41800000000E+01 0.  1.
         -5    1    3    3    0  502 -0.64780525463E+02  0.34222641070E+02 -0.11269420560E+03  0.13448108423E+03  0.41800000000E+01 0.  1.
        -11    1    4    4    0    0  0.65096305841E+02 -0.35827566373E+02 -0.18424356483E+03  0.19866261533E+03  0.00000000000E+00 0.  1.
         11    1    4    4    0    0 -0.34940397909E+02 -0.34556893377E+02 -0.12921808182E+03  0.13824732531E+03  0.00000000000E+00 0. -1.
</event>
<event>
 8    1  0.3528896E-009  0.9325563E+02  0.7561462E-02  0.1295154E+00
         -2   -1    0    0    0  501 -0.00000000000E+00  0.00000000000E+00  0.18614323899E+03  0.18614323899E+03  0.00000000000E+00 0. -1.
          2   -1    0    0  501    0  0.00000000000E+00 -0.00000000000E+00 -0.85767813139E+02  0.85767813139E+02  0.00000000000E+00 0.  1.
         25    2    1    2    0    0 -0.47797941072E+02  0.40061400305E+02  0.38647173874E+02  0.14502305356E+03  0.12509405682E+03 0.  0.
         23    2    1    2    0    0  0.47797941072E+02 -0.40061400305E+02  0.61728251982E+02  0.12688799857E+03  0.91654940529E+02 0.  0.
          5    1    3    3  502    0 -0.46852778081E+02 -0.97043678526E+01  0.70847791517E+02  0.85593454961E+02  0.41800000000E+01 0.  1.
         -5    1    3    3    0  502 -0.94516299078E+00  0.49765768158E+02 -0.32200617643E+02  0.59429598603E+02  0.41800000000E+01 0.  1.
        -11    1    4    4    0    0  0.19432180378E+02 -0.53663453901E+02  0.73711724890E+02  0.93224429765E+02  0.00000000000E+00 0. -1.
         11    1    4    4    0    0  0.28365760694E+02  0.13602053596E+02 -0.11983472907E+02  0.33663568805E+02  0.00000000000E+00 0.  1.
</event>
<event>
 8    1  0.3528896E-009  0.7394914E+02  0.7561462E-02  0.1347156E+00
          1   -1    0    0  501    0  0.00000000000E+00  0.00000000000E+00  0.19090600831E+03  0.19090600831E+03  0.00000000000E+00 0. -1.
         -1   -1    0    0    0  501 -0.00000000000E+00 -0.00000000000E+00 -0.71265120623E+02  0.71265120623E+02  0.00000000000E+00 0.  1.
         25    2    1    2    0    0 -0.24221209197E+00 -0.39115462427E+02  0.48913944516E+02  0.13989653392E+03  0.12509351768E+03 0.  0.
         23    2    1    2    0    0  0.24221209197E+00  0.39115462427E+02  0.70726943174E+02  0.12227459502E+03  0.91753463305E+02 0.  0.
          5    1    3    3  502    0 -0.37580629367E+02 -0.89329567531E+01 -0.28861433850E+02  0.48399960577E+02  0.41800000000E+01 0. -1.
         -5    1    3    3    0  502  0.37338417275E+02 -0.30182505674E+02  0.77775378365E+02  0.91496573341E+02  0.41800000000E+01 0. -1.
        -11    1    4    4    0    0  0.10582339763E+02  0.46791785990E+02 -0.23892358911E+01  0.48032963673E+02  0.00000000000E+00 0.  1.
         11    1    4    4    0    0 -0.10340127671E+02 -0.76763235636E+01  0.73116179065E+02  0.74241631345E+02  0.00000000000E+00 0. -1.
</event>
<event>
 8    1  0.3528896E-009  0.1017827E+03  0.7561462E-02  0.1276591E+00
          1   -1    0    0  501    0  0.00000000000E+00  0.00000000000E+00  0.41752807355E+02  0.41752807355E+02  0.00000000000E+00 0. -1.
         -1   -1    0    0    0  501 -0.00000000000E+00 -0.00000000000E+00 -0.38508763968E+03  0.38508763968E+03  0.00000000000E+00 0.  1.
         25    2    1    2    0    0 -0.60615679339E+02  0.16896835961E+02 -0.15385197317E+03  0.20803340909E+03  0.12509079104E+03 0.  0.
         23    2    1    2    0    0  0.60615679339E+02 -0.16896835961E+02 -0.18948285915E+03  0.21880703794E+03  0.89515374622E+02 0.  0.
          5    1    3    3  502    0 -0.43936390493E+02 -0.36227869197E+02 -0.13897437898E+03  0.15024718077E+03  0.41800000000E+01 0.  1.
         -5    1    3    3    0  502 -0.16679288846E+02  0.53124705158E+02 -0.14877594189E+02  0.57786228320E+02  0.41800000000E+01 0.  1.
        -11    1    4    4    0    0  0.40669779212E+02  0.22493261481E+02 -0.35117022483E+02  0.58251034508E+02  0.00000000000E+00 0. -1.
         11    1    4    4    0    0  0.19945900127E+02 -0.39390097442E+02 -0.15436583667E+03  0.16055600343E+03  0.00000000000E+00 0.  1.
</event>
<event>
 8    1  0.3528896E-009  0.1402322E+03  0.7561462E-02  0.1213017E+00
         -2   -1    0    0    0  501 -0.00000000000E+00  0.00000000000E+00  0.15517106861E+03  0.15517106861E+03  0.00000000000E+00 0.  1.
          2   -1    0    0  501    0  0.00000000000E+00 -0.00000000000E+00 -0.21890954672E+03  0.21890954672E+03  0.00000000000E+00 0. -1.
         25    2    1    2    0    0  0.60365869459E+02 -0.88235183286E+02  0.71365624513E+02  0.17936598651E+03  0.12509843719E+03 0.  0.
         23    2    1    2    0    0 -0.60365869459E+02  0.88235183286E+02 -0.13510410262E+03  0.19471462882E+03  0.90725863818E+02 0.  0.
          5    1    3    3  502    0 -0.12464629020E+01  0.29229737742E+02  0.19965277952E+01  0.29620765714E+02  0.41800000000E+01 0. -1.
         -5    1    3    3    0  502  0.61612332361E+02 -0.11746492103E+03  0.69369096718E+02  0.14974522079E+03  0.41800000000E+01 0. -1.
        -11    1    4    4    0    0 -0.10084887015E+02  0.59379541948E+02 -0.12083185654E+03  0.13501100882E+03  0.00000000000E+00 0. -1.
         11    1    4    4    0    0 -0.50280982444E+02  0.28855641338E+02 -0.14272246083E+02  0.59703619998E+02  0.00000000000E+00 0.  1.
</event>
<event>
 8    1  0.3528896E-009  0.9103131E+02  0.7561462E-02  0.1300373E+00
          1   -1    0    0  501    0  0.00000000000E+00  0.00000000000E+00  0.28191566026E+03  0.28191566026E+03  0.00000000000E+00 0. -1.
         -1   -1    0    0    0  501 -0.00000000000E+00 -0.00000000000E+00 -0.55016472651E+02  0.55016472651E+02  0.00000000000E+00 0.  1.
         25    2    1    2    0    0  0.11587075961E+02 -0.16154837504E+02  0.20325477276E+03  0.23948975643E+03  0.12509037404E+03 0.  0.
         23    2    1    2    0    0 -0.11587075961E+02  0.16154837504E+02  0.23644414842E+02  0.97442376484E+02  0.92416012019E+02 0.  0.
          5    1    3    3  502    0 -0.16536387635E+02 -0.44389928031E+02  0.19466706798E+02  0.51384267049E+02  0.41800000000E+01 0.  1.
         -5    1    3    3    0  502  0.28123463595E+02  0.28235090528E+02  0.18378806597E+03  0.18810548938E+03  0.41800000000E+01 0.  1.
        -11    1    4    4    0    0  0.16591040538E+02 -0.33478496141E+02  0.72594045586E+01  0.38062728286E+02  0.00000000000E+00 0. -1.
         11    1    4    4    0    0 -0.28178116498E+02  0.49633333645E+02  0.16385010283E+02  0.59379648198E+02  0.00000000000E+00 0.  1.
</event>
<event>
 8    1  0.3528896E-009  0.1142734E+03  0.7561462E-02  0.1252855E+00
         -1   -1    0    0    0  501 -0.00000000000E+00  0.00000000000E+00  0.84328269683E+02  0.84328269683E+02  0.00000000000E+00 0.  1.
          1   -1    0    0  501    0  0.00000000000E+00 -0.00000000000E+00 -0.15965539547E+03  0.15965539547E+03  0.00000000000E+00 0. -1.
         25    2    1    2    0    0 -0.37143799689E+02 -0.24472241571E+02 -0.41243778852E+02  0.13902115620E+03  0.12508908872E+03 0.  0.
         23    2    1    2    0    0  0.37143799689E+02  0.24472241571E+02 -0.34083346935E+02  0.10496250895E+03  0.88751908619E+02 0.  0.
          5    1    3    3  502    0 -0.40088163534E+02 -0.73308883536E+02 -0.25830210466E+02  0.87555270735E+02  0.41800000000E+01 0. -1.
         -5    1    3    3    0  502  0.29443638448E+01  0.48836641964E+02 -0.15413568386E+02  0.51465885470E+02  0.41800000000E+01 0. -1.
        -11    1    4    4    0    0  0.63498474684E+02  0.63808733942E+01 -0.35380556644E+02  0.72969552697E+02  0.00000000000E+00 0. -1.
         11    1    4    4    0    0 -0.26354674995E+02  0.18091368177E+02  0.12972097090E+01  0.31992956250E+02  0.00000000000E+00 0.  1.
</event>
<event>
 8    1  0.3528896E-009  0.2020329E+03  0.7561462E-02  0.1148035E+00
          1   -1    0    0  501    0  0.00000000000E+00  0.00000000000E+00  0.23089476847E+04  0.23089476847E+04  0.00000000000E+00 0. -1.
         -1   -1    0    0    0  501 -0.00000000000E+00 -0.00000000000E+00 -0.18143141734E+02  0.18143141734E+02  0.00000000000E+00 0.  1.
         25    2    1    2    0    0  0.64353922956E+01  0.17338954635E+03  0.11970970544E+04  0.12160563122E+04  0.12508496180E+03 0.  0.
         23    2    1    2    0    0 -0.64353922956E+01 -0.17338954635E+03  0.10937074885E+04  0.11110345142E+04  0.89979288044E+02 0.  0.
          5    1    3    3  502    0  0.59166022229E+02  0.11802537061E+03  0.62101079821E+03  0.63490352826E+03  0.41800000000E+01 0. -1.
         -5    1    3    3    0  502 -0.52730629933E+02  0.55364175737E+02  0.57608625620E+03  0.58115278393E+03  0.41800000000E+01 0. -1.
        -11    1    4    4    0    0  0.41672292159E+02 -0.88766021239E+02  0.56131386805E+03  0.56981509713E+03  0.00000000000E+00 0.  1.
         11    1    4    4    0    0 -0.48107684454E+02 -0.84623525106E+02  0.53239362047E+03  0.54121941708E+03  0.00000000000E+00 0. -1.
</event>
<event>
 8    1  0.3528896E-009  0.1664408E+03  0.7561462E-02  0.1181611E+00
         -2   -1    0    0    0  501 -0.00000000000E+00  0.00000000000E+00  0.20084126133E+03  0.20084126133E+03  0.00000000000E+00 0.  1.
          2   -1    0    0  501    0  0.00000000000E+00 -0.00000000000E+00 -0.19767620734E+03  0.19767620734E+03  0.00000000000E+00 0. -1.
         25    2    1    2    0    0 -0.12427728778E+03  0.87011307693E+02 -0.65899751537E+02  0.20737583480E+03  0.12508456213E+03 0.  0.
         23    2    1    2    0    0  0.12427728778E+03 -0.87011307693E+02  0.69064805520E+02  0.19114163387E+03  0.93538039914E+02 0.  0.
          5    1    3    3  502    0 -0.16447412504E+02  0.65109825297E+02  0.17173989934E+02  0.69442242609E+02  0.41800000000E+01 0.  1.
         -5    1    3    3    0  502 -0.10782987528E+03  0.21901482396E+02 -0.83073741471E+02  0.13793359219E+03  0.41800000000E+01 0.  1.
        -11    1    4    4    0    0  0.27913377624E+02 -0.38626139318E+02 -0.19610425835E+02  0.51533523947E+02  0.00000000000E+00 0.  1.
         11    1    4    4    0    0  0.96363910158E+02 -0.48385168375E+02  0.88675231355E+02  0.13960810992E+03  0.00000000000E+00 0. -1.
</event>
<event>
 8    1  0.3528896E-009  0.1300480E+03  0.7561462E-02  0.1227385E+00
         -2   -1    0    0    0  501 -0.00000000000E+00  0.00000000000E+00  0.19034831398E+02  0.19034831398E+02  0.00000000000E+00 0.  1.
          2   -1    0    0  501    0  0.00000000000E+00 -0.00000000000E+00 -0.10300795667E+04  0.10300795667E+04  0.00000000000E+00 0. -1.
         25    2    1    2    0    0  0.18761628812E+02 -0.75868049591E+02 -0.41849229597E+03  0.44372421068E+03  0.12508962265E+03 0.  0.
         23    2    1    2    0    0 -0.18761628812E+02  0.75868049591E+02 -0.59255243934E+03  0.60539018742E+03  0.96285647925E+02 0.  0.
          5    1    3    3  502    0 -0.31219477626E+02  0.16603648444E+02 -0.56743243228E+02  0.66989588571E+02  0.41800000000E+01 0. -1.
         -5    1    3    3    0  502  0.49981106438E+02 -0.92471698035E+02 -0.36174905274E+03  0.37673462211E+03  0.41800000000E+01 0. -1.
        -11    1    4    4    0    0 -0.39765936363E+01 -0.20963849930E+02 -0.55158419001E+02  0.59141757562E+02  0.00000000000E+00 0.  1.
         11    1    4    4    0    0 -0.14785035175E+02  0.96831899520E+02 -0.53739402034E+03  0.54624842986E+03  0.00000000000E+00 0. -1.
</event>
<event>
 8    1  0.3528896E-009  0.7739414E+02  0.7561462E-02  0.1336613E+00
          3   -1    0    0  501    0  0.00000000000E+00  0.00000000000E+00  0.12129517082E+03  0.12129517082E+03  0.00000000000E+00 0. -1.
         -3   -1    0    0    0  501 -0.00000000000E+00 -0.00000000000E+00 -0.14110767039E+03  0.14110767039E+03  0.00000000000E+00 0.  1.
         25    2    1    2    0    0  0.60544124043E+02 -0.48538278579E+01  0.19616215260E+02  0.14040984923E+03  0.12506390070E+03 0.  0.
         23    2    1    2    0    0 -0.60544124043E+02  0.48538278579E+01 -0.39428714835E+02  0.12199299198E+03  0.98175943782E+02 0.  0.
          5    1    3    3  502    0  0.51254718278E+02  0.27530993768E+02 -0.40748048009E+02  0.71153900668E+02  0.41800000000E+01 0. -1.
         -5    1    3    3    0  502  0.92894057647E+01 -0.32384821626E+02  0.60364263269E+02  0.69255948562E+02  0.41800000000E+01 0. -1.
        -11    1    4    4    0    0 -0.18843716960E+02 -0.53290307376E+01 -0.67778362870E+02  0.70550625162E+02  0.00000000000E+00 0.  1.
         11    1    4    4    0    0 -0.41700407083E+02  0.10182858596E+02  0.28349648034E+02  0.51442366817E+02  0.00000000000E+00 0. -1.
</event>
<event>
 8    1  0.3528896E-009  0.1530293E+03  0.7561462E-02  0.1196799E+00
         -2   -1    0    0    0  501 -0.00000000000E+00  0.00000000000E+00  0.30710067395E+02  0.30710067395E+02  0.00000000000E+00 0.  1.
          2   -1    0    0  501    0  0.00000000000E+00 -0.00000000000E+00 -0.81377861743E+03  0.81377861743E+03  0.00000000000E+00 0. -1.
         25    2    1    2    0    0 -0.94446049363E+02 -0.78539800496E+02 -0.37812605882E+03  0.41679288576E+03  0.12509371191E+03 0.  0.
         23    2    1    2    0    0  0.94446049363E+02  0.78539800496E+02 -0.40494249121E+03  0.42769579906E+03  0.62102486610E+02 0.  0.
          5    1    3    3  502    0 -0.54723719980E+02 -0.10854600722E+03 -0.22568808431E+03  0.25637766090E+03  0.41800000000E+01 0.  1.
         -5    1    3    3    0  502 -0.39722329383E+02  0.30006206720E+02 -0.15243797451E+03  0.16041522486E+03  0.41800000000E+01 0.  1.
        -11    1    4    4    0    0  0.20859424449E+02  0.52364102090E+02 -0.21630751467E+03  0.22353088305E+03  0.00000000000E+00 0. -1.
         11    1    4    4    0    0  0.73586624914E+02  0.26175698407E+02 -0.18863497654E+03  0.20416491601E+03  0.00000000000E+00 0.  1.
</event>
<event>
 8    1  0.3528896E-009  0.9948981E+02  0.7561462E-02  0.1281372E+00
          3   -1    0    0  501    0  0.00000000000E+00  0.00000000000E+00  0.30076915646E+02  0.30076915646E+02  0.00000000000E+00 0. -1.
         -3   -1    0    0    0  501 -0.00000000000E+00 -0.00000000000E+00 -0.52302959167E+03  0.52302959167E+03  0.00000000000E+00 0.  1.
         25    2    1    2    0    0  0.51519976812E+02 -0.99541967421E+01 -0.36698462927E+03  0.39125319858E+03  0.12509177925E+03 0.  0.
         23    2    1    2    0    0 -0.51519976812E+02  0.99541967421E+01 -0.12596804675E+03  0.16185330873E+03  0.87035341683E+02 0.  0.
          5    1    3    3  502    0  0.66827485620E+02 -0.36236469119E+02 -0.34548081005E+03  0.35377034506E+03  0.41800000000E+01 0. -1.
         -5    1    3    3    0  502 -0.15307508809E+02  0.26282272377E+02 -0.21503819219E+02  0.37482853523E+02  0.41800000000E+01 0. -1.
        -11    1    4    4    0    0  0.19030004553E+02  0.10205183782E+02 -0.65391795524E+02  0.68864895057E+02  0.00000000000E+00 0.  1.
         11    1    4    4    0    0 -0.70549981365E+02 -0.25098704029E+00 -0.60576251223E+02  0.92988413672E+02  0.00000000000E+00 0. -1.
</event>
<event>
 8    1  0.3528896E-009  0.1238690E+03  0.7561462E-02  0.1236848E+00
          2   -1    0    0  501    0  0.00000000000E+00  0.00000000000E+00  0.15638023366E+03  0.15638023366E+03  0.00000000000E+00 0. -1.
         -2   -1    0    0    0  501 -0.00000000000E+00 -0.00000000000E+00 -0.13174681225E+03  0.13174681225E+03  0.00000000000E+00 0.  1.
         25    2    1    2    0    0  0.10961912460E+02 -0.91261099382E+02  0.26152520569E+02  0.15740681434E+03  0.12507677276E+03 0.  0.
         23    2    1    2    0    0 -0.10961912460E+02  0.91261099382E+02 -0.15190991586E+01  0.13072023158E+03  0.92933952337E+02 0.  0.
          5    1    3    3  502    0  0.61562680092E+02 -0.16740995600E+02  0.16171755767E+01  0.63955548396E+02  0.41800000000E+01 0.  1.
         -5    1    3    3    0  502 -0.50600767631E+02 -0.74520103782E+02  0.24535344993E+02  0.93451265943E+02  0.41800000000E+01 0.  1.
        -11    1    4    4    0    0  0.21201941528E+01  0.55675960188E+02 -0.46015758065E+02  0.72261730926E+02  0.00000000000E+00 0.  1.
         11    1    4    4    0    0 -0.13082106613E+02  0.35585139193E+02  0.44496658907E+02  0.58458500654E+02  0.00000000000E+00 0. -1.
</event>
<event>
 8    1  0.3528896E-009  0.1387096E+03  0.7561462E-02  0.1215076E+00
          2   -1    0    0  501    0  0.00000000000E+00  0.00000000000E+00  0.36013738064E+03  0.36013738064E+03  0.00000000000E+00 0. -1.
         -2   -1    0    0    0  501 -0.00000000000E+00 -0.00000000000E+00 -0.80275603196E+02  0.80275603196E+02  0.00000000000E+00 0.  1.
         25    2    1    2    0    0 -0.34866283143E+02 -0.12103389483E+03  0.10576005257E+03  0.20663124767E+03  0.12508566024E+03 0.  0.
         23    2    1    2    0    0  0.34866283143E+02  0.12103389483E+03  0.17410172487E+03  0.23378173617E+03  0.92074036309E+02 0.  0.
          5    1    3    3  502    0 -0.29833160778E+02 -0.65268773186E+01 -0.19751007827E+02  0.36608637228E+02  0.41800000000E+01 0. -1.
         -5    1    3    3    0  502 -0.50331223650E+01 -0.11450701751E+03  0.12551106040E+03  0.17002261045E+03  0.41800000000E+01 0. -1.
        -11    1    4    4    0    0 -0.85287061153E+01  0.27490895775E+02  0.10687904909E+03  0.11068703317E+03  0.00000000000E+00 0. -1.
         11    1    4    4    0    0  0.43394989258E+02  0.93542999055E+02  0.67222675786E+02  0.12309470299E+03  0.00000000000E+00 0.  1.
</event>
<event>
 8    1  0.3528896E-009  0.1213322E+03  0.7561462E-02  0.1240915E+00
          1   -1    0    0  501    0  0.00000000000E+00  0.00000000000E+00  0.32174386021E+03  0.32174386021E+03  0.00000000000E+00 0. -1.
         -1   -1    0    0    0  501 -0.00000000000E+00 -0.00000000000E+00 -0.67374275626E+02  0.67374275626E+02  0.00000000000E+00 0.  1.
         25    2    1    2    0    0 -0.21111975164E+02  0.65927274144E+02  0.45510051501E+02  0.15003727504E+03  0.12509155903E+03 0.  0.
         23    2    1    2    0    0  0.21111975164E+02 -0.65927274144E+02  0.20885953309E+03  0.23908086080E+03  0.93515947675E+02 0.  0.
          5    1    3    3  502    0 -0.36076413857E+02 -0.21599371897E+02  0.44177413607E+02  0.61132289146E+02  0.41800000000E+01 0.  1.
         -5    1    3    3    0  502  0.14964438693E+02  0.87526646041E+02  0.13326378933E+01  0.88904985891E+02  0.41800000000E+01 0.  1.
        -11    1    4    4    0    0 -0.32537167038E+02 -0.10056429548E+02  0.35448985727E+02  0.49157192792E+02  0.00000000000E+00 0.  1.
         11    1    4    4    0    0  0.53649142202E+02 -0.55870844596E+02  0.17341054736E+03  0.18992366801E+03  0.00000000000E+00 0. -1.
</event>
<event>
 8    1  0.3528896E-009  0.9644971E+02  0.7561462E-02  0.1287944E+00
          1   -1    0    0  501    0  0.00000000000E+00  0.00000000000E+00  0.79726899704E+02  0.79726899704E+02  0.00000000000E+00 0. -1.
         -1   -1    0    0    0  501 -0.00000000000E+00 -0.00000000000E+00 -0.15176528815E+03  0.15176528815E+03  0.00000000000E+00 0.  1.
         25    2    1    2    0    0  0.91087654657E+01  0.16870921301E+02 -0.17291768513E+02  0.12772899948E+03  0.12509234372E+03 0.  0.
         23    2    1    2    0    0 -0.91087654657E+01 -0.16870921301E+02 -0.54746619933E+02  0.10376318837E+03  0.86034930543E+02 0.  0.
          5    1    3    3  502    0  0.62658317377E+02 -0.14285062063E+02 -0.68906711333E+01  0.64769448688E+02  0.41800000000E+01 0.  1.
         -5    1    3    3    0  502 -0.53549551912E+02  0.31155983364E+02 -0.10401097380E+02  0.62959550792E+02  0.41800000000E+01 0.  1.
        -11    1    4    4    0    0  0.21692721336E+02  0.11477412347E+02  0.10132566078E+02  0.26551347395E+02  0.00000000000E+00 0. -1.
         11    1    4    4    0    0 -0.30801486802E+02 -0.28348333648E+02 -0.64879186011E+02  0.77211840979E+02  0.00000000000E+00 0.  1.
</event>
<event>
 8    1  0.3528896E-009  0.1151912E+03  0.7561462E-02  0.1251248E+00
         -2   -1    0    0    0  501 -0.00000000000E+00  0.00000000000E+00  0.45411202288E+02  0.45411202288E+02  0.00000000000E+00 0. -1.
          2   -1    0    0  501    0  0.00000000000E+00 -0.00000000000E+00 -0.33758062202E+03  0.33758062202E+03  0.00000000000E+00 0.  1.
         25    2    1    2    0    0  0.33279811019E+02 -0.43356486151E+02 -0.12025817127E+03  0.18192710154E+03  0.12509241306E+03 0.  0.
         23    2    1    2    0    0 -0.33279811019E+02  0.43356486151E+02 -0.17191124847E+03  0.20106472277E+03  0.88804361827E+02 0.  0.
          5    1    3    3  502    0 -0.14286206404E+02 -0.71354949935E+02 -0.36468532406E+02  0.81504912916E+02  0.41800000000E+01 0. -1.
         -5    1    3    3    0  502  0.47566017423E+02  0.27998463784E+02 -0.83789638862E+02  0.10042218863E+03  0.41800000000E+01 0. -1.
        -11    1    4    4    0    0 -0.57833150253E+02  0.50273635232E+02 -0.14488130917E+03  0.16389846068E+03  0.00000000000E+00 0. -1.
         11    1    4    4    0    0  0.24553339234E+02 -0.69171490813E+01 -0.27029939301E+02  0.37166262088E+02  0.00000000000E+00 0.  1.
</event>
<event>
 8    1  0.3528896E-009  0.1040436E+03  0.7561462E-02  0.1272015E+00
         -4   -1    0    0    0  501 -0.00000000000E+00  0.00000000000E+00  0.92930860265E+02  0.92930860265E+02  0.00000000000E+00 0.  1.
          4   -1    0    0  501    0  0.00000000000E+00 -0.00000000000E+00 -0.13629856869E+03  0.13629856869E+03  0.00000000000E+00 0. -1.
         25    2    1    2    0    0 -0.17286614859E+01  0.26420944258E+02 -0.34371971985E+02  0.13240081991E+03  0.12508992801E+03 0.  0.
         23    2    1    2    0    0  0.17286614859E+01 -0.26420944258E+02 -0.89957364377E+01  0.96828609039E+02  0.92702759874E+02 0.  0.
          5    1    3    3  502    0 -0.54200328365E+02  0.44471191002E+02 -0.30647270507E+02  0.76629563574E+02  0.41800000000E+01 0. -1.
         -5    1    3    3    0  502  0.52471666879E+02 -0.18050246744E+02 -0.37247014784E+01  0.55771256340E+02  0.41800000000E+01 0. -1.
        -11    1    4    4    0    0 -0.37970800194E+02 -0.15668483082E+02  0.20797799475E+02  0.46041627821E+02  0.00000000000E+00 0.  1.
         11    1    4    4    0    0  0.39699461680E+02 -0.10752461176E+02 -0.29793535913E+02  0.50786981217E+02  0.00000000000E+00 0. -1.
</event>
<event>
 8    1  0.3528896E-009  0.8597880E+02  0.7561462E-02  0.1312893E+00
          2   -1    0    0  501    0  0.00000000000E+00  0.00000000000E+00  0.10107958007E+04  0.10107958007E+04  0.00000000000E+00 0.  1.
         -2   -1    0    0    0  501 -0.00000000000E+00 -0.00000000000E+00 -0.16906844971E+02  0.16906844971E+02  0.00000000000E+00 0. -1.
         25    2    1    2    0    0 -0.32426845416E+02  0.26809945288E+02  0.78574928205E+03  0.79675616658E+03  0.12509269073E+03 0.  0.
         23    2    1    2    0    0  0.32426845416E+02 -0.26809945288E+02  0.20813967367E+03  0.23094647908E+03  0.90795809232E+02 0.  0.
          5    1    3    3  502    0  0.16520379614E+02  0.19023806092E+02  0.67345950091E+03  0.67394361775E+03  0.41800000000E+01 0. -1.
         -5    1    3    3    0  502 -0.48947225030E+02  0.77861391962E+01  0.11228978113E+03  0.12281254882E+03  0.41800000000E+01 0. -1.
        -11    1    4    4    0    0  0.32819924366E+02  0.27225225814E+02  0.63006276132E+02  0.76079900026E+02  0.00000000000E+00 0. -1.
         11    1    4    4    0    0 -0.39307894963E+00 -0.54035171102E+02  0.14513339754E+03  0.15486657905E+03  0.00000000000E+00 0.  1.
</event>
<event>
 8    1  0.3528896E-009  0.1682813E+03  0.7561462E-02  0.1179652E+00
         -3   -1    0    0    0  501 -0.00000000000E+00  0.00000000000E+00  0.35298986954E+02  0.35298986954E+02  0.00000000000E+00 0.  1.
          3   -1    0    0  501    0  0.00000000000E+00 -0.00000000000E+00 -0.89411487225E+03  0.89411487225E+03  0.00000000000E+00 0. -1.
         25    2    1    2    0    0 -0.10580154820E+03  0.88880714645E+02 -0.39302470688E+03  0.43498181914E+03  0.12508802394E+03 0.  0.
         23    2    1    2    0    0  0.10580154820E+03 -0.88880714645E+02 -0.46579117842E+03  0.49443204006E+03  0.91694445346E+02 0.  0.
          5    1    3    3  502    0 -0.12121768663E+03  0.10070888364E+03 -0.37949633407E+03  0.41093910348E+03  0.41800000000E+01 0.  1.
         -5    1    3    3    0  502  0.15416138430E+02 -0.11828168990E+02 -0.13528372802E+02  0.24042715663E+02  0.41800000000E+01 0.  1.
        -11    1    4    4    0    0  0.10443736712E+03 -0.42688558458E+02 -0.25844938679E+03  0.28200276986E+03  0.00000000000E+00 0.  1.
         11    1    4    4    0    0  0.13641810779E+01 -0.46192156187E+02 -0.20734179163E+03  0.21242927021E+03  0.00000000000E+00 0. -1.
</event>
<event>
 8    1  0.3528896E-009  0.1508774E+03  0.7561462E-02  0.1199399E+00
          2   -1    0    0  501    0  0.00000000000E+00  0.00000000000E+00  0.18912652781E+03  0.18912652781E+03  0.00000000000E+00 0. -1.
         -2   -1    0    0    0  501 -0.00000000000E+00 -0.00000000000E+00 -0.14567395435E+03  0.14567395435E+03  0.00000000000E+00 0.  1.
         25    2    1    2    0    0  0.47891272487E+02  0.11393389921E+03  0.27769554091E+01  0.17586514851E+03  0.12508529733E+03 0.  0.
         23    2    1    2    0    0 -0.47891272487E+02 -0.11393389921E+03  0.40675618043E+02  0.15893533366E+03  0.91276650968E+02 0.  0.
          5    1    3    3  502    0 -0.28912635649E+02  0.46232258309E+02 -0.36910803103E+02  0.65979102709E+02  0.41800000000E+01 0. -1.
         -5    1    3    3    0  502  0.76803908137E+02  0.67701640898E+02  0.39687758512E+02  0.10988604580E+03  0.41800000000E+01 0. -1.
        -11    1    4    4    0    0 -0.30460812051E+02 -0.12174444515E+03  0.14213052662E+02  0.12629957190E+03  0.00000000000E+00 0.  1.
         11    1    4    4    0    0 -0.17430460436E+02  0.78105459425E+01  0.26462565382E+02  0.32635761758E+02  0.00000000000E+00 0. -1.
</event>
<event>
 8    1  0.3528896E-009  0.1627767E+03  0.7561462E-02  0.1185597E+00
         -1   -1    0    0    0  501 -0.00000000000E+00  0.00000000000E+00  0.87143160734E+02  0.87143160734E+02  0.00000000000E+00 0.  1.
          1   -1    0    0  501    0  0.00000000000E+00 -0.00000000000E+00 -0.31780032700E+03  0.31780032700E+03  0.00000000000E+00 0. -1.
         25    2    1    2    0    0 -0.23352863204E+02 -0.12294957628E+03 -0.10663945982E+03  0.20659581937E+03  0.12509158111E+03 0.  0.
         23    2    1    2    0    0  0.23352863204E+02  0.12294957628E+03 -0.12401770645E+03  0.19834766837E+03  0.91101325494E+02 0.  0.
          5    1    3    3  502    0 -0.14175837737E+02 -0.14831504238E+03 -0.96050493684E+02  0.17731744389E+03  0.41800000000E+01 0. -1.
         -5    1    3    3    0  502 -0.91770254675E+01  0.25365466101E+02 -0.10588966132E+02  0.29278375479E+02  0.41800000000E+01 0. -1.
        -11    1    4    4    0    0  0.52510279303E+02  0.59364019258E+02 -0.39244101606E+02  0.88439333589E+02  0.00000000000E+00 0.  1.
         11    1    4    4    0    0 -0.29157416099E+02  0.63585557018E+02 -0.84773604848E+02  0.10990833478E+03  0.00000000000E+00 0. -1.
</event>
<event>
 8    1  0.3528896E-009  0.1646519E+03  0.7561462E-02  0.1183543E+00
         -1   -1    0    0    0  501 -0.00000000000E+00  0.00000000000E+00  0.13420004088E+03  0.13420004088E+03  0.00000000000E+00 0.  1.
          1   -1    0    0  501    0  0.00000000000E+00 -0.00000000000E+00 -0.25266645280E+03  0.25266645280E+03  0.00000000000E+00 0. -1.
         25    2    1    2    0    0 -0.12419958333E+03  0.66125369727E+02 -0.12211222072E+02  0.18866456440E+03  0.12508838034E+03 0.  0.
         23    2    1    2    0    0  0.12419958333E+03 -0.66125369727E+02 -0.10625518985E+03  0.19820192927E+03  0.90530317442E+02 0.  0.
          5    1    3    3  502    0 -0.60875710645E+02 -0.20096534371E+02 -0.42952590852E+02  0.77279494700E+02  0.41800000000E+01 0. -1.
         -5    1    3    3    0  502 -0.63323872685E+02  0.86221904098E+02  0.30741368780E+02  0.11138506970E+03  0.41800000000E+01 0. -1.
        -11    1    4    4    0    0  0.73511456946E+01  0.14349133309E+02 -0.36920847611E+02  0.40287540978E+02  0.00000000000E+00 0. -1.
         11    1    4    4    0    0  0.11684843763E+03 -0.80474503036E+02 -0.69334342241E+02  0.15791438829E+03  0.00000000000E+00 0.  1.
</event>
<event>
 8    1  0.3528896E-009  0.1021289E+03  0.7561462E-02  0.1275882E+00
         -2   -1    0    0    0  501 -0.00000000000E+00  0.00000000000E+00  0.17048931912E+02  0.17048931912E+02  0.00000000000E+00 0.  1.
          2   -1    0    0  501    0  0.00000000000E+00 -0.00000000000E+00 -0.95111501529E+03  0.95111501529E+03  0.00000000000E+00 0. -1.
         25    2    1    2    0    0  0.48506304621E+02 -0.36725792326E+02 -0.62573838219E+03  0.64100841302E+03  0.12506645114E+03 0.  0.
         23    2    1    2    0    0 -0.48506304621E+02  0.36725792326E+02 -0.30832770119E+03  0.32715553419E+03  0.90901742661E+02 0.  0.
          5    1    3    3  502    0  0.52132545840E+02 -0.62950626914E+02 -0.22582361039E+03  0.24019650117E+03  0.41800000000E+01 0.  1.
         -5    1    3    3    0  502 -0.36262412187E+01  0.26224834588E+02 -0.39991477179E+03  0.40081191184E+03  0.41800000000E+01 0.  1.
        -11    1    4    4    0    0  0.19885333481E+02  0.85585785945E+01 -0.19936211185E+02  0.29430057282E+02  0.00000000000E+00 0.  1.
         11    1    4    4    0    0 -0.68391638102E+02  0.28167213731E+02 -0.28839149001E+03  0.29772547691E+03  0.00000000000E+00 0. -1.
</event>
<event>
 8    1  0.3528896E-009  0.2340281E+03  0.7561462E-02  0.1123836E+00
          2   -1    0    0  501    0  0.00000000000E+00  0.00000000000E+00  0.42340741959E+03  0.42340741959E+03  0.00000000000E+00 0. -1.
         -2   -1    0    0    0  501 -0.00000000000E+00 -0.00000000000E+00 -0.13231895436E+03  0.13231895436E+03  0.00000000000E+00 0.  1.
         25    2    1    2    0    0  0.19062879230E+03 -0.80959143274E+02  0.11082192852E+03  0.26612488166E+03  0.12508890224E+03 0.  0.
         23    2    1    2    0    0 -0.19062879230E+03  0.80959143274E+02  0.18026653671E+03  0.28960149228E+03  0.92083010076E+02 0.  0.
          5    1    3    3  502    0  0.19703999597E+03 -0.41261367031E+02  0.88557113937E+02  0.21997066907E+03  0.41800000000E+01 0.  1.
         -5    1    3    3    0  502 -0.64112036759E+01 -0.39697776243E+02  0.22264814588E+02  0.46154212591E+02  0.41800000000E+01 0.  1.
        -11    1    4    4    0    0 -0.18078175618E+03  0.98706982670E+02  0.15900027930E+03  0.26020415180E+03  0.00000000000E+00 0.  1.
         11    1    4    4    0    0 -0.98470361142E+01 -0.17747839396E+02  0.21266257409E+02  0.29397340486E+02  0.00000000000E+00 0. -1.
</event>
<event>
 8    1  0.3528896E-009  0.9609260E+02  0.7561462E-02  0.1288734E+00
          1   -1    0    0  501    0  0.00000000000E+00  0.00000000000E+00  0.17230805446E+03  0.17230805446E+03  0.00000000000E+00 0. -1.
         -1   -1    0    0    0  501 -0.00000000000E+00 -0.00000000000E+00 -0.11117133171E+03  0.11117133171E+03  0.00000000000E+00 0.  1.
         25    2    1    2    0    0 -0.40511477278E+02  0.26463905884E+01 -0.44420008221E+02  0.13881112790E+03  0.12508880416E+03 0.  0.
         23    2    1    2    0    0  0.40511477278E+02 -0.26463905884E+01  0.10555673097E+03  0.14466825826E+03  0.90213626029E+02 0.  0.
          5    1    3    3  502    0  0.21606990862E+02  0.26981608106E+02  0.24673242886E+02  0.42674471814E+02  0.41800000000E+01 0. -1.
         -5    1    3    3    0  502 -0.62118468140E+02 -0.24335217518E+02 -0.69093251107E+02  0.96136656090E+02  0.41800000000E+01 0. -1.
        -11    1    4    4    0    0  0.22826546184E+02  0.39048073743E+02  0.23568785975E+02  0.51002852332E+02  0.00000000000E+00 0.  1.
         11    1    4    4    0    0  0.17684931094E+02 -0.41694464331E+02  0.81987944992E+02  0.93665405928E+02  0.00000000000E+00 0. -1.
</event>
<event>
 8    1  0.3528896E-009  0.5266594E+02  0.7561462E-02  0.1431471E+00
          1   -1    0    0  501    0  0.00000000000E+00  0.00000000000E+00  0.15032129965E+03  0.15032129965E+03  0.00000000000E+00 0. -1.
         -1   -1    0    0    0  501 -0.00000000000E+00 -0.00000000000E+00 -0.91868376363E+02  0.91868376363E+02  0.00000000000E+00 0.  1.
         25    2    1    2    0    0 -0.39592369826E+02 -0.15742401358E+02  0.42283832599E+02  0.13874301918E+03  0.12508526661E+03 0.  0.
         23    2    1    2    0    0  0.39592369826E+02  0.15742401358E+02  0.16169090688E+02  0.10344665684E+03  0.92867606668E+02 0.  0.
          5    1    3    3  502    0 -0.17286510205E+02  0.56359369430E+01 -0.43573811326E+02  0.47399753731E+02  0.41800000000E+01 0. -1.
         -5    1    3    3    0  502 -0.22305859621E+02 -0.21378338301E+02  0.85857643925E+02  0.91343265446E+02  0.41800000000E+01 0. -1.
        -11    1    4    4    0    0  0.54600706992E+00  0.16436109222E+02 -0.35239020167E+02  0.38887431805E+02  0.00000000000E+00 0.  1.
         11    1    4    4    0    0  0.39046362756E+02 -0.69370786384E+00  0.51408110855E+02  0.64559225033E+02  0.00000000000E+00 0. -1.
</event>
<event>
 8    1  0.3528896E-009  0.1874749E+03  0.7561462E-02  0.1160759E+00
          1   -1    0    0  501    0  0.00000000000E+00  0.00000000000E+00  0.17434145532E+04  0.17434145532E+04  0.00000000000E+00 0. -1.
         -1   -1    0    0    0  501 -0.00000000000E+00 -0.00000000000E+00 -0.28286566422E+02  0.28286566422E+02  0.00000000000E+00 0.  1.
         25    2    1    2    0    0  0.12105654784E+03  0.13811321396E+03  0.11357704958E+04  0.11573007921E+04  0.12506221144E+03 0.  0.
         23    2    1    2    0    0 -0.12105654784E+03 -0.13811321396E+03  0.57935749105E+03  0.61440032754E+03  0.90015067677E+02 0.  0.
          5    1    3    3  502    0  0.19732346025E+02  0.93522245399E+01  0.21122212231E+02  0.30666754524E+02  0.41800000000E+01 0. -1.
         -5    1    3    3    0  502  0.10132420182E+03  0.12876098942E+03  0.11146482835E+04  0.11266340376E+04  0.41800000000E+01 0. -1.
        -11    1    4    4    0    0 -0.26145564748E+02 -0.72020085212E+01  0.24796837091E+02  0.36747008210E+02  0.00000000000E+00 0.  1.
         11    1    4    4    0    0 -0.94910983092E+02 -0.13091120543E+03  0.55456065396E+03  0.57765331933E+03  0.00000000000E+00 0. -1.
</event>
<event>
 8    1  0.3528896E-009  0.5018695E+02  0.7561462E-02  0.1444336E+00
          2   -1    0    0  501    0  0.00000000000E+00  0.00000000000E+00  0.40577387872E+03  0.40577387872E+03  0.00000000000E+00 0. -1.
         -2   -1    0    0    0  501 -0.00000000000E+00 -0.00000000000E+00 -0.29124294803E+02  0.29124294803E+02  0.00000000000E+00 0.  1.
         25    2    1    2    0    0  0.10225812877E+02  0.11181742229E+02  0.20701784995E+03  0.24235121084E+03  0.12509244817E+03 0.  0.
         23    2    1    2    0    0 -0.10225812877E+02 -0.11181742229E+02  0.16963173397E+03  0.19254696268E+03  0.89832115982E+02 0.  0.
          5    1    3    3  502    0  0.39915723959E+01  0.34910648075E+01 -0.16887892829E+02  0.18187729597E+02  0.41800000000E+01 0.  1.
         -5    1    3    3    0  502  0.62342404806E+01  0.76906774218E+01  0.22390574278E+03  0.22416348124E+03  0.41800000000E+01 0.  1.
        -11    1    4    4    0    0 -0.84280987427E+01 -0.46627948966E+02  0.13452312247E+03  0.14262422288E+03  0.00000000000E+00 0.  1.
         11    1    4    4    0    0 -0.17977141338E+01  0.35446206737E+02  0.35108611494E+02  0.49922739801E+02  0.00000000000E+00 0. -1.
</event>
<event>
 8    1  0.3528896E-009  0.1021911E+03  0.7561462E-02  0.1275755E+00
          1   -1    0    0  501    0  0.00000000000E+00  0.00000000000E+00  0.37860578325E+02  0.37860578325E+02  0.00000000000E+00 0. -1.
         -1   -1    0    0    0  501 -0.00000000000E+00 -0.00000000000E+00 -0.34986778645E+03  0.34986778645E+03  0.00000000000E+00 0.  1.
         25    2    1    2    0    0 -0.15913201168E+02 -0.26341265951E+02 -0.14421268663E+03  0.19336936518E+03  0.12508924870E+03 0.  0.
         23    2    1    2    0    0  0.15913201168E+02  0.26341265951E+02 -0.16779452149E+03  0.19435899959E+03  0.93130698579E+02 0.  0.
          5    1    3    3  502    0 -0.66606695100E+02  0.71974286166E+00 -0.10219959565E+03  0.12206227760E+03  0.41800000000E+01 0. -1.
         -5    1    3    3    0  502  0.50693493933E+02 -0.27061008813E+02 -0.42013090983E+02  0.71307087579E+02  0.41800000000E+01 0. -1.
        -11    1    4    4    0    0 -0.24305752179E+02  0.31159372248E+02 -0.27019045914E+02  0.47871754824E+02  0.00000000000E+00 0. -1.
         11    1    4    4    0    0  0.40218953346E+02 -0.48181062966E+01 -0.14077547558E+03  0.14648724477E+03  0.00000000000E+00 0.  1.
</event>
<event>
 8    1  0.3528896E-009  0.1173414E+03  0.7561462E-02  0.1247548E+00
         -1   -1    0    0    0  501 -0.00000000000E+00  0.00000000000E+00  0.14588199099E+02  0.14588199099E+02  0.00000000000E+00 0.  1.
          1   -1    0    0  501    0  0.00000000000E+00 -0.00000000000E+00 -0.10463621648E+04  0.10463621648E+04  0.00000000000E+00 0. -1.
         25    2    1    2    0    0 -0.28816766461E+02  0.35053398390E+02 -0.72296631906E+03  0.73511020750E+03  0.12509025505E+03 0.  0.
         23    2    1    2    0    0  0.28816766461E+02 -0.35053398390E+02 -0.30880764667E+03  0.32584015643E+03  0.93544097251E+02 0.  0.
          5    1    3    3  502    0 -0.34632771506E+02 -0.42407244972E+02 -0.27273607283E+03  0.27820898820E+03  0.41800000000E+01 0.  1.
         -5    1    3    3    0  502  0.58160050454E+01  0.77460643362E+02 -0.45023024622E+03  0.45690121930E+03  0.41800000000E+01 0.  1.
        -11    1    4    4    0    0 -0.33468946772E+02 -0.11488260752E+02 -0.78688578841E+02  0.86278867478E+02  0.00000000000E+00 0.  1.
         11    1    4    4    0    0  0.62285713233E+02 -0.23565137638E+02 -0.23011906783E+03  0.23956128895E+03  0.00000000000E+00 0. -1.
</event>
<event>
 8    1  0.3528896E-009  0.2258963E+03  0.7561462E-02  0.1129562E+00
          1   -1    0    0  501    0  0.00000000000E+00  0.00000000000E+00  0.24285014029E+03  0.24285014029E+03  0.00000000000E+00 0. -1.
         -1   -1    0    0    0  501 -0.00000000000E+00 -0.00000000000E+00 -0.23618792553E+03  0.23618792553E+03  0.00000000000E+00 0.  1.
         25    2    1    2    0    0 -0.67368417966E+02  0.19999476796E+03  0.33847488165E+02  0.24765050473E+03  0.12509480039E+03 0.  0.
         23    2    1    2    0    0  0.67368417966E+02 -0.19999476796E+03 -0.27185273408E+02  0.23138756110E+03  0.90910689075E+02 0.  0.
          5    1    3    3  502    0 -0.29983783547E+02  0.18751197107E+03  0.61128655882E+02  0.19953433675E+03  0.41800000000E+01 0.  1.
         -5    1    3    3    0  502 -0.37384634420E+02  0.12482796888E+02 -0.27281167717E+02  0.48116167977E+02  0.41800000000E+01 0.  1.
        -11    1    4    4    0    0 -0.10109957833E+02 -0.71204715988E+02 -0.36788914173E+02  0.80782095989E+02  0.00000000000E+00 0.  1.
         11    1    4    4    0    0  0.77478375800E+02 -0.12879005197E+03  0.96036407656E+01  0.15060546511E+03  0.00000000000E+00 0. -1.
</event>
<event>
 8    1  0.3528896E-009  0.8387092E+02  0.7561462E-02  0.1318412E+00
         -1   -1    0    0    0  501 -0.00000000000E+00  0.00000000000E+00  0.24410394563E+03  0.24410394563E+03  0.00000000000E+00 0.  1.
          1   -1    0    0  501    0  0.00000000000E+00 -0.00000000000E+00 -0.10212142203E+03  0.10212142203E+03  0.00000000000E+00 0. -1.
         25    2    1    2    0    0  0.62712099950E+02 -0.11052384043E+02  0.18162975132E+03  0.22954567058E+03  0.12508751195E+03 0.  0.
         23    2    1    2    0    0 -0.62712099950E+02  0.11052384043E+02 -0.39647227712E+02  0.11667969707E+03  0.89371619494E+02 0.  0.
          5    1    3    3  502    0  0.51880892614E+02  0.29542328220E+02  0.20947342712E+02  0.63408514742E+02  0.41800000000E+01 0.  1.
         -5    1    3    3    0  502  0.10831207336E+02 -0.40594712263E+02  0.16068240860E+03  0.16613715584E+03  0.41800000000E+01 0.  1.
        -11    1    4    4    0    0 -0.51088620110E+02  0.15244726309E+02  0.19110937001E+02  0.56636354915E+02  0.00000000000E+00 0.  1.
         11    1    4    4    0    0 -0.11623479840E+02 -0.41923422658E+01 -0.58758164713E+02  0.60043342159E+02  0.00000000000E+00 0. -1.
</event>
<event>
 8    1  0.3528896E-009  0.8235143E+02  0.7561462E-02  0.1322508E+00
         -2   -1    0    0    0  501 -0.00000000000E+00  0.00000000000E+00  0.11444847556E+03  0.11444847556E+03  0.00000000000E+00 0.  1.
          2   -1    0    0  501    0  0.00000000000E+00 -0.00000000000E+00 -0.13463213096E+03  0.13463213096E+03  0.00000000000E+00 0. -1.
         25    2    1    2    0    0 -0.36299515696E+01  0.38657621105E+02 -0.56891410285E+02  0.14279820318E+03  0.12508839295E+03 0.  0.
         23    2    1    2    0    0  0.36299515696E+01 -0.38657621105E+02  0.36707754882E+02  0.10628240334E+03  0.91874380394E+02 0.  0.
          5    1    3    3  502    0  0.14046222976E+02  0.79190006584E+02 -0.56505520799E+02  0.98380383224E+02  0.41800000000E+01 0.  1.
         -5    1    3    3    0  502 -0.17676174546E+02 -0.40532385479E+02 -0.38588948584E+00  0.44417819958E+02  0.41800000000E+01 0.  1.
        -11    1    4    4    0    0 -0.27685665870E+01 -0.14468505256E+02  0.66077461549E+02  0.67699582939E+02  0.00000000000E+00 0.  1.
         11    1    4    4    0    0  0.63985181567E+01 -0.24189115849E+02 -0.29369706667E+02  0.38582820398E+02  0.00000000000E+00 0. -1.
</event>
<event>
 8    1  0.3528896E-009  0.9034153E+02  0.7561462E-02  0.1302027E+00
         -1   -1    0    0    0  501 -0.00000000000E+00  0.00000000000E+00  0.20575908322E+03  0.20575908322E+03  0.00000000000E+00 0.  1.
          1   -1    0    0  501    0  0.00000000000E+00 -0.00000000000E+00 -0.66188110554E+02  0.66188110554E+02  0.00000000000E+00 0. -1.
         25    2    1    2    0    0 -0.24531346293E+02  0.11449349237E+02  0.11702072768E+03  0.17341960065E+03  0.12509049777E+03 0.  0.
         23    2    1    2    0    0  0.24531346293E+02 -0.11449349237E+02  0.22550244983E+02  0.98527593125E+02  0.92012491050E+02 0.  0.
          5    1    3    3  502    0 -0.40026554378E+02 -0.50099503869E+02  0.55089419601E+02  0.84642789978E+02  0.41800000000E+01 0.  1.
         -5    1    3    3    0  502  0.15495208084E+02  0.61548853106E+02  0.61931308079E+02  0.88776810670E+02  0.41800000000E+01 0.  1.
        -11    1    4    4    0    0 -0.10638852968E+02 -0.13963486455E+02  0.50544401372E+02  0.53506080556E+02  0.00000000000E+00 0.  1.
         11    1    4    4    0    0  0.35170199261E+02  0.25141372180E+01 -0.27994156388E+02  0.45021512568E+02  0.00000000000E+00 0. -1.
</event>
<event>
 8    1  0.3528896E-009  0.1128301E+03  0.7561462E-02  0.1255417E+00
          2   -1    0    0  501    0  0.00000000000E+00  0.00000000000E+00  0.43044300070E+03  0.43044300070E+03  0.00000000000E+00 0. -1.
         -2   -1    0    0    0  501 -0.00000000000E+00 -0.00000000000E+00 -0.44795168045E+02  0.44795168045E+02  0.00000000000E+00 0.  1.
         25    2    1    2    0    0  0.79761942751E+02  0.18280995950E+02  0.17389017929E+03  0.22930688102E+03  0.12509072270E+03 0.  0.
         23    2    1    2    0    0 -0.79761942751E+02 -0.18280995950E+02  0.21175765336E+03  0.24593128772E+03  0.94576594352E+02 0.  0.
          5    1    3    3  502    0  0.96515472866E+02  0.16271638646E+02  0.61698486455E+02  0.11577641538E+03  0.41800000000E+01 0.  1.
         -5    1    3    3    0  502 -0.16753530115E+02  0.20093573041E+01  0.11219169283E+03  0.11353046564E+03  0.41800000000E+01 0.  1.
        -11    1    4    4    0    0  0.28869717633E+00 -0.29478424496E+02  0.14702994845E+02  0.32942964564E+02  0.00000000000E+00 0.  1.
         11    1    4    4    0    0 -0.80050639927E+02  0.11197428546E+02  0.19705465852E+03  0.21298832316E+03  0.00000000000E+00 0. -1.
</event>
<event>
 8    1  0.3528896E-009  0.1857039E+03  0.7561462E-02  0.1162394E+00
          1   -1    0    0  501    0  0.00000000000E+00  0.00000000000E+00  0.48406444004E+02  0.48406444004E+02  0.00000000000E+00 0. -1.
         -1   -1    0    0    0  501 -0.00000000000E+00 -0.00000000000E+00 -0.10442828389E+04  0.10442828389E+04  0.00000000000E+00 0.  1.
         25    2    1    2    0    0  0.14716702827E+03 -0.11214373905E+03 -0.35710250681E+03  0.42119335858E+03  0.12508913829E+03 0.  0.
         23    2    1    2    0    0 -0.14716702827E+03  0.11214373905E+03 -0.63877388806E+03  0.67149592431E+03  0.92953450025E+02 0.  0.
          5    1    3    3  502    0  0.51207589659E+02 -0.47749195145E+02 -0.33853910420E+02  0.77883005376E+02  0.41800000000E+01 0.  1.
         -5    1    3    3    0  502  0.95959438616E+02 -0.64394543904E+02 -0.32324859639E+03  0.34331035320E+03  0.41800000000E+01 0.  1.
        -11    1    4    4    0    0 -0.47273580930E+02  0.44996635478E+02 -0.99799593778E+02  0.11924532518E+03  0.00000000000E+00 0.  1.
         11    1    4    4    0    0 -0.99893447345E+02  0.67147103571E+02 -0.53897429428E+03  0.55225059913E+03  0.00000000000E+00 0. -1.
</event>
<event>
 8    1  0.3528896E-009  0.1017743E+03  0.7561462E-02  0.1276609E+00
          1   -1    0    0  501    0  0.00000000000E+00  0.00000000000E+00  0.17795779015E+03  0.17795779015E+03  0.00000000000E+00 0. -1.
         -1   -1    0    0    0  501 -0.00000000000E+00 -0.00000000000E+00 -0.71067805990E+02  0.71067805990E+02  0.00000000000E+00 0.  1.
         25    2    1    2    0    0  0.12060568441E+02  0.50887008721E+02  0.89476993742E+02  0.16243782644E+03  0.12507985482E+03 0.  0.
         23    2    1    2    0    0 -0.12060568441E+02 -0.50887008721E+02  0.17412990415E+02  0.86587769696E+02  0.66777875513E+02 0.  0.
          5    1    3    3  502    0 -0.39967037330E+02 -0.13222934003E+02  0.62510788340E+02  0.75480335953E+02  0.41800000000E+01 0.  1.
         -5    1    3    3    0  502  0.52027605771E+02  0.64109942724E+02  0.26966205401E+02  0.86957490489E+02  0.41800000000E+01 0.  1.
        -11    1    4    4    0    0  0.39060260374E+01  0.12557291628E+02 -0.91050598818E+01  0.15995147010E+02  0.00000000000E+00 0.  1.
         11    1    4    4    0    0 -0.15966594479E+02 -0.63444300349E+02  0.26518050297E+02  0.70592622685E+02  0.00000000000E+00 0. -1.
</event>
<event>
 8    1  0.3528896E-009  0.1183357E+03  0.7561462E-02  0.1245868E+00
          1   -1    0    0  501    0  0.00000000000E+00  0.00000000000E+00  0.24865214530E+03  0.24865214530E+03  0.00000000000E+00 0. -1.
         -1   -1    0    0    0  501 -0.00000000000E+00 -0.00000000000E+00 -0.11355107764E+03  0.11355107764E+03  0.00000000000E+00 0.  1.
         25    2    1    2    0    0  0.64080467122E+02  0.16568676049E+01 -0.48038364265E+02  0.14853901277E+03  0.12508837834E+03 0.  0.
         23    2    1    2    0    0 -0.64080467122E+02 -0.16568676049E+01  0.18313943193E+03  0.21366421017E+03  0.89461118396E+02 0.  0.
          5    1    3    3  502    0  0.69436916775E+02 -0.44919995964E+02 -0.57127359253E+02  0.10059969694E+03  0.41800000000E+01 0. -1.
         -5    1    3    3    0  502 -0.53564496530E+01  0.46576863568E+02  0.90889949871E+01  0.47939315834E+02  0.41800000000E+01 0. -1.
        -11    1    4    4    0    0 -0.69347383475E+01 -0.38292417615E+02  0.43283874862E+02  0.58205615414E+02  0.00000000000E+00 0.  1.
         11    1    4    4    0    0 -0.57145728774E+02  0.36635550010E+02  0.13985555707E+03  0.15545859476E+03  0.00000000000E+00 0. -1.
</event>
<event>
 8    1  0.3528896E-009  0.1100941E+03  0.7561462E-02  0.1260396E+00
         -1   -1    0    0    0  501 -0.00000000000E+00  0.00000000000E+00  0.12422029744E+03  0.12422029744E+03  0.00000000000E+00 0.  1.
          1   -1    0    0  501    0  0.00000000000E+00 -0.00000000000E+00 -0.15980924846E+03  0.15980924846E+03  0.00000000000E+00 0. -1.
         25    2    1    2    0    0 -0.26500363756E+01 -0.67612523253E+02 -0.80441666159E+02  0.16339682947E+03  0.12509670752E+03 0.  0.
         23    2    1    2    0    0  0.26500363756E+01  0.67612523253E+02  0.44852715136E+02  0.12063271643E+03  0.89230097078E+02 0.  0.
          5    1    3    3  502    0 -0.22679568137E+02 -0.80821261066E+02 -0.50831272821E+01  0.84200651031E+02  0.41800000000E+01 0. -1.
         -5    1    3    3    0  502  0.20029531761E+02  0.13208737812E+02 -0.75358538877E+02  0.79196178436E+02  0.41800000000E+01 0. -1.
        -11    1    4    4    0    0 -0.43371158733E+01 -0.21736597719E+02  0.11797996902E+02  0.25109420252E+02  0.00000000000E+00 0. -1.
         11    1    4    4    0    0  0.69871522490E+01  0.89349120972E+02  0.33054718234E+02  0.95523296177E+02  0.00000000000E+00 0.  1.
</event>
<event>
 8    1  0.3528896E-009  0.8983903E+02  0.7561462E-02  0.1303242E+00
          2   -1    0    0  501    0  0.00000000000E+00  0.00000000000E+00  0.69162474191E+03  0.69162474191E+03  0.00000000000E+00 0. -1.
         -2   -1    0    0    0  501 -0.00000000000E+00 -0.00000000000E+00 -0.22521549599E+02  0.22521549599E+02  0.00000000000E+00 0.  1.
         25    2    1    2    0    0  0.21520426967E+01  0.14107257460E+02  0.54437933805E+03  0.55874867099E+03  0.12509023797E+03 0.  0.
         23    2    1    2    0    0 -0.21520426967E+01 -0.14107257460E+02  0.12472385426E+03  0.15539762052E+03  0.91590035705E+02 0.  0.
          5    1    3    3  502    0  0.62985935121E+02 -0.79165666761E+00  0.27410175323E+03  0.28127761779E+03  0.41800000000E+01 0.  1.
         -5    1    3    3    0  502 -0.60833892424E+02  0.14898914127E+02  0.27027758482E+03  0.27747105320E+03  0.41800000000E+01 0.  1.
        -11    1    4    4    0    0 -0.46235596165E+01 -0.33706962434E+02  0.53987066582E+01  0.34448260532E+02  0.00000000000E+00 0.  1.
         11    1    4    4    0    0  0.24715169198E+01  0.19599704975E+02  0.11932514760E+03  0.12094935999E+03  0.00000000000E+00 0. -1.
</event>
<event>
 8    1  0.3528896E-009  0.9729936E+02  0.7561462E-02  0.1286080E+00
         -2   -1    0    0    0  501 -0.00000000000E+00  0.00000000000E+00  0.18114779128E+03  0.18114779128E+03  0.00000000000E+00 0.  1.
          2   -1    0    0  501    0  0.00000000000E+00 -0.00000000000E+00 -0.10628101254E+03  0.10628101254E+03  0.00000000000E+00 0. -1.
         25    2    1    2    0    0 -0.53550909317E+02 -0.23268835872E+02  0.10794879043E+03  0.17524156993E+03  0.12509007900E+03 0.  0.
         23    2    1    2    0    0  0.53550909317E+02  0.23268835872E+02 -0.33082011679E+02  0.11218723389E+03  0.89902265486E+02 0.  0.
          5    1    3    3  502    0  0.19356242356E+02  0.66849224323E+01  0.92475464907E+02  0.94807891633E+02  0.41800000000E+01 0. -1.
         -5    1    3    3    0  502 -0.72907151673E+02 -0.29953758305E+02  0.15473325520E+02  0.80433678296E+02  0.41800000000E+01 0. -1.
        -11    1    4    4    0    0  0.71842322664E+02  0.10847246704E+02 -0.31395709378E+00  0.72657282194E+02  0.00000000000E+00 0.  1.
         11    1    4    4    0    0 -0.18291413347E+02  0.12421589169E+02 -0.32768054585E+02  0.39529951695E+02  0.00000000000E+00 0. -1.
</event>
<event>
 8    1  0.3528896E-009  0.9155898E+02  0.7561462E-02  0.1299120E+00
          1   -1    0    0  501    0  0.00000000000E+00  0.00000000000E+00  0.16422998283E+03  0.16422998283E+03  0.00000000000E+00 0. -1.
         -1   -1    0    0    0  501 -0.00000000000E+00 -0.00000000000E+00 -0.13228334215E+03  0.13228334215E+03  0.00000000000E+00 0.  1.
         25    2    1    2    0    0 -0.28071679569E+01  0.24728593650E+02 -0.76462647297E+02  0.14870950286E+03  0.12509434948E+03 0.  0.
         23    2    1    2    0    0  0.28071679569E+01 -0.24728593650E+02  0.10840928797E+03  0.14780382212E+03  0.97334539503E+02 0.  0.
          5    1    3    3  502    0 -0.43724283257E+02  0.44153351579E+02 -0.81909909094E+02  0.10289818759E+03  0.41800000000E+01 0.  1.
         -5    1    3    3    0  502  0.40917115300E+02 -0.19424757929E+02  0.54472617970E+01  0.45811315263E+02  0.41800000000E+01 0.  1.
        -11    1    4    4    0    0  0.71469869536E+01 -0.49596028799E+02  0.11162553813E+03  0.12235647207E+03  0.00000000000E+00 0. -1.
         11    1    4    4    0    0 -0.43398189967E+01  0.24867435149E+02 -0.32162501547E+01  0.25447350056E+02  0.00000000000E+00 0.  1.
</event>
<event>
 8    1  0.3528896E-009  0.1104160E+03  0.7561462E-02  0.1259801E+00
         -2   -1    0    0    0  501 -0.00000000000E+00  0.00000000000E+00  0.14868348736E+02  0.14868348736E+02  0.00000000000E+00 0.  1.
          2   -1    0    0  501    0  0.00000000000E+00 -0.00000000000E+00 -0.11561327841E+04  0.11561327841E+04  0.00000000000E+00 0. -1.
         25    2    1    2    0    0  0.31638061303E+02 -0.33005870577E+02 -0.92687358616E+03  0.93639275049E+03  0.12508550686E+03 0.  0.
         23    2    1    2    0    0 -0.31638061303E+02  0.33005870577E+02 -0.21439084919E+03  0.23460838234E+03  0.83590085718E+02 0.  0.
          5    1    3    3  502    0 -0.40026106594E+02  0.11970717112E+02 -0.18534544444E+03  0.19004155717E+03  0.41800000000E+01 0.  1.
         -5    1    3    3    0  502  0.71664167897E+02 -0.44976587690E+02 -0.74152814172E+03  0.74635119331E+03  0.41800000000E+01 0.  1.
        -11    1    4    4    0    0 -0.57855412055E+02  0.35368695177E+02 -0.13700242802E+03  0.15286549181E+03  0.00000000000E+00 0. -1.
         11    1    4    4    0    0  0.26217350752E+02 -0.23628245992E+01 -0.77388421177E+02  0.81742890534E+02  0.00000000000E+00 0.  1.
</event>
<event>
 8    1  0.3528896E-009  0.1960719E+03  0.7561462E-02  0.1153096E+00
          2   -1    0    0  501    0  0.00000000000E+00  0.00000000000E+00  0.11656977151E+03  0.11656977151E+03  0.00000000000E+00 0. -1.
         -2   -1    0    0    0  501 -0.00000000000E+00 -0.00000000000E+00 -0.37079534902E+03  0.37079534902E+03  0.00000000000E+00 0.  1.
         25    2    1    2    0    0  0.12804886986E+03 -0.11767849207E+03 -0.94147444031E+02  0.23399924594E+03  0.12508862984E+03 0.  0.
         23    2    1    2    0    0 -0.12804886986E+03  0.11767849207E+03 -0.16007813348E+03  0.25336587459E+03  0.91238791179E+02 0.  0.
          5    1    3    3  502    0  0.10223973368E+02  0.20541519613E+02  0.91026429282E+01  0.25036257063E+02  0.41800000000E+01 0.  1.
         -5    1    3    3    0  502  0.11782489649E+03 -0.13822001169E+03 -0.10325008696E+03  0.20896298888E+03  0.41800000000E+01 0.  1.
        -11    1    4    4    0    0 -0.56851872751E+02  0.94956050781E+01 -0.87868388242E+02  0.10508641969E+03  0.00000000000E+00 0.  1.
         11    1    4    4    0    0 -0.71196997111E+02  0.10818288700E+03 -0.72209745240E+02  0.14827945490E+03  0.00000000000E+00 0. -1.
</event>
<event>
 8    1  0.3528896E-009  0.1075489E+03  0.7561462E-02  0.1265177E+00
         -2   -1    0    0    0  501 -0.00000000000E+00  0.00000000000E+00  0.23832684484E+03  0.23832684484E+03  0.00000000000E+00 0.  1.
          2   -1    0    0  501    0  0.00000000000E+00 -0.00000000000E+00 -0.83244516098E+02  0.83244516098E+02  0.00000000000E+00 0. -1.
         25    2    1    2    0    0 -0.25095578370E+02 -0.44338877309E+02  0.16752893647E+03  0.21519597443E+03  0.12509052227E+03 0.  0.
         23    2    1    2    0    0  0.25095578370E+02  0.44338877309E+02 -0.12446607726E+02  0.10637538651E+03  0.92547721292E+02 0.  0.
          5    1    3    3  502    0  0.28008465722E+02  0.14209431988E+02  0.20377585622E+01  0.31749125491E+02  0.41800000000E+01 0.  1.
         -5    1    3    3    0  502 -0.53104044092E+02 -0.58548309298E+02  0.16549117790E+03  0.18344684894E+03  0.41800000000E+01 0.  1.
        -11    1    4    4    0    0 -0.20076752252E+02 -0.18209821912E+02 -0.10873165819E+02  0.29204440244E+02  0.00000000000E+00 0.  1.
         11    1    4    4    0    0  0.45172330622E+02  0.62548699221E+02 -0.15734419075E+01  0.77170946265E+02  0.00000000000E+00 0. -1.
</event>
<event>
 8    1  0.3528896E-009  0.1088592E+03  0.7561462E-02  0.1262697E+00
         -2   -1    0    0    0  501 -0.00000000000E+00  0.00000000000E+00  0.89317217495E+01  0.89317217495E+01  0.00000000000E+00 0.  1.
          2   -1    0    0  501    0  0.00000000000E+00 -0.00000000000E+00 -0.18592199375E+04  0.18592199375E+04  0.00000000000E+00 0. -1.
         25    2    1    2    0    0 -0.42408429859E+02  0.62132227626E+01 -0.14272528112E+04  0.14333646381E+04  0.12508604922E+03 0.  0.
         23    2    1    2    0    0  0.42408429859E+02 -0.62132227626E+01 -0.42303540459E+03  0.43478702116E+03  0.90794940219E+02 0.  0.
          5    1    3    3  502    0 -0.61555384928E+02  0.44941468592E+02 -0.11690329470E+04  0.11715222168E+04  0.41800000000E+01 0. -1.
         -5    1    3    3    0  502  0.19146955069E+02 -0.38728245830E+02 -0.25821986425E+03  0.26184242133E+03  0.41800000000E+01 0. -1.
        -11    1    4    4    0    0  0.17411215118E+02 -0.47013975118E+02 -0.16879221429E+03  0.17608031086E+03  0.00000000000E+00 0.  1.
         11    1    4    4    0    0  0.24997214741E+02  0.40800752355E+02 -0.25424319031E+03  0.25870671030E+03  0.00000000000E+00 0. -1.
</event>
<event>
 8    1  0.3528896E-009  0.1124202E+03  0.7561462E-02  0.1256153E+00
          2   -1    0    0  501    0  0.00000000000E+00  0.00000000000E+00  0.79590079656E+02  0.79590079656E+02  0.00000000000E+00 0.  1.
         -2   -1    0    0    0  501 -0.00000000000E+00 -0.00000000000E+00 -0.21736793484E+03  0.21736793484E+03  0.00000000000E+00 0. -1.
         25    2    1    2    0    0  0.47100978908E+02 -0.39545996646E+02 -0.31867875153E+02  0.14298629403E+03  0.12508849168E+03 0.  0.
         23    2    1    2    0    0 -0.47100978908E+02  0.39545996646E+02 -0.10590998003E+03  0.15397172047E+03  0.93316551413E+02 0.  0.
          5    1    3    3  502    0  0.40052037927E+01 -0.71664462392E+02 -0.48314279962E+02  0.86623200561E+02  0.41800000000E+01 0. -1.
         -5    1    3    3    0  502  0.43095775115E+02  0.32118465746E+02  0.16446404808E+02  0.56363093472E+02  0.41800000000E+01 0. -1.
        -11    1    4    4    0    0  0.20896894129E+02  0.18342434873E+02 -0.18462420385E+01  0.27866354462E+02  0.00000000000E+00 0.  1.
         11    1    4    4    0    0 -0.67997873037E+02  0.21203561773E+02 -0.10406373799E+03  0.12610536600E+03  0.00000000000E+00 0. -1.
</event>
<event>
 8    1  0.3528896E-009  0.8414664E+02  0.7561462E-02  0.1317679E+00
          3   -1    0    0  501    0  0.00000000000E+00  0.00000000000E+00  0.84724746264E+02  0.84724746264E+02  0.00000000000E+00 0. -1.
         -3   -1    0    0    0  501 -0.00000000000E+00 -0.00000000000E+00 -0.16685591443E+03  0.16685591443E+03  0.00000000000E+00 0.  1.
         25    2    1    2    0    0  0.17140446105E+01 -0.35366813257E+02 -0.65431218117E+02  0.14554400312E+03  0.12509221842E+03 0.  0.
         23    2    1    2    0    0 -0.17140446105E+01  0.35366813257E+02 -0.16699950051E+02  0.10603665758E+03  0.98545091151E+02 0.  0.
          5    1    3    3  502    0 -0.16690514188E+02  0.26984342799E+02  0.20278594112E+02  0.37886960808E+02  0.41800000000E+01 0. -1.
         -5    1    3    3    0  502  0.18404558798E+02 -0.62351156055E+02 -0.85709812229E+02  0.10765704231E+03  0.41800000000E+01 0. -1.
        -11    1    4    4    0    0  0.17047026913E+02  0.46363971415E+02 -0.47368987704E+02  0.68440046523E+02  0.00000000000E+00 0.  1.
         11    1    4    4    0    0 -0.18761071524E+02 -0.10997158159E+02  0.30669037653E+02  0.37596611056E+02  0.00000000000E+00 0. -1.
</event>
<event>
 8    1  0.3528896E-009  0.2098772E+03  0.7561462E-02  0.1141663E+00
         -1   -1    0    0    0  501 -0.00000000000E+00  0.00000000000E+00  0.18427920292E+02  0.18427920292E+02  0.00000000000E+00 0. -1.
          1   -1    0    0  501    0  0.00000000000E+00 -0.00000000000E+00 -0.26704935587E+04  0.26704935587E+04  0.00000000000E+00 0.  1.
         25    2    1    2    0    0  0.94876257840E+02 -0.16453283640E+03 -0.16040425743E+04  0.16200837332E+04  0.12508462652E+03 0.  0.
         23    2    1    2    0    0 -0.94876257840E+02  0.16453283640E+03 -0.10480230641E+04  0.10688377458E+04  0.89382467042E+02 0.  0.
          5    1    3    3  502    0 -0.28066600859E+02 -0.20210499506E+02 -0.35836736246E+03  0.36005671393E+03  0.41800000000E+01 0. -1.
         -5    1    3    3    0  502  0.12294285870E+03 -0.14432233690E+03 -0.12456752118E+04  0.12600270192E+04  0.41800000000E+01 0. -1.
        -11    1    4    4    0    0 -0.23444142799E+02  0.10899291316E+02 -0.47589052826E+02  0.54158474236E+02  0.00000000000E+00 0.  1.
         11    1    4    4    0    0 -0.71432115041E+02  0.15363354509E+03 -0.10004340113E+04  0.10146792716E+04  0.00000000000E+00 0. -1.
</event>
<event>
 8    1  0.3528896E-009  0.8253254E+02  0.7561462E-02  0.1322014E+00
         -2   -1    0    0    0  501 -0.00000000000E+00  0.00000000000E+00  0.23670438088E+02  0.23670438088E+02  0.00000000000E+00 0.  1.
          2   -1    0    0  501    0  0.00000000000E+00 -0.00000000000E+00 -0.74744143087E+03  0.74744143087E+03  0.00000000000E+00 0. -1.
         25    2    1    2    0    0  0.20262169486E+02 -0.36636184633E+02 -0.58613443220E+03  0.60079620925E+03  0.12509894847E+03 0.  0.
         23    2    1    2    0    0 -0.20262169486E+02  0.36636184633E+02 -0.13763656059E+03  0.17031565971E+03  0.91163784446E+02 0.  0.
          5    1    3    3  502    0 -0.34831440754E+02  0.90301254700E+01 -0.62189809534E+02  0.71970947201E+02  0.41800000000E+01 0.  1.
         -5    1    3    3    0  502  0.55093610240E+02 -0.45666310103E+02 -0.52394462266E+03  0.52882526205E+03  0.41800000000E+01 0.  1.
        -11    1    4    4    0    0  0.35807341980E+01  0.32817450478E+02 -0.14199214177E+03  0.14577919961E+03  0.00000000000E+00 0. -1.
         11    1    4    4    0    0 -0.23842903684E+02  0.38187341551E+01  0.43555811876E+01  0.24536460097E+02  0.00000000000E+00 0.  1.
</event>
<event>
 8    1  0.3528896E-009  0.1086452E+03  0.7561462E-02  0.1263100E+00
         -1   -1    0    0    0  501 -0.00000000000E+00  0.00000000000E+00  0.16620498485E+02  0.16620498485E+02  0.00000000000E+00 0.  1.
          1   -1    0    0  501    0  0.00000000000E+00 -0.00000000000E+00 -0.19869554851E+04  0.19869554851E+04  0.00000000000E+00 0. -1.
         25    2    1    2    0    0  0.49364656011E+01 -0.37754872612E+02 -0.18173040868E+04  0.18220025353E+04  0.12509714477E+03 0.  0.
         23    2    1    2    0    0 -0.49364656011E+01  0.37754872612E+02 -0.15303089976E+03  0.18157344823E+03  0.90003676165E+02 0.  0.
          5    1    3    3  502    0 -0.50213822745E+02  0.51450633427E+01 -0.43711065587E+03  0.44003533670E+03  0.41800000000E+01 0.  1.
         -5    1    3    3    0  502  0.55150288346E+02 -0.42899935955E+02 -0.13801934310E+04  0.13819671986E+04  0.41800000000E+01 0.  1.
        -11    1    4    4    0    0  0.24359023024E+02  0.56731650329E+02 -0.84342055091E+02  0.10452475500E+03  0.00000000000E+00 0. -1.
         11    1    4    4    0    0 -0.29295488625E+02 -0.18976777717E+02 -0.68688844670E+02  0.77048693230E+02  0.00000000000E+00 0.  1.
</event>
<event>
 8    1  0.3528896E-009  0.1064770E+03  0.7561462E-02  0.1267237E+00
         -2   -1    0    0    0  501 -0.00000000000E+00  0.00000000000E+00  0.12491795732E+03  0.12491795732E+03  0.00000000000E+00 0.  1.
          2   -1    0    0  501    0  0.00000000000E+00 -0.00000000000E+00 -0.11845778633E+03  0.11845778633E+03  0.00000000000E+00 0. -1.
         25    2    1    2    0    0  0.46917687734E+02 -0.28844208065E+02 -0.64922691575E+01  0.13683121527E+03  0.12508946459E+03 0.  0.
         23    2    1    2    0    0 -0.46917687734E+02  0.28844208065E+02  0.12952440145E+02  0.10654452839E+03  0.90281299630E+02 0.  0.
          5    1    3    3  502    0  0.68549595960E+02  0.82389402363E+01  0.34526048563E+02  0.77307487812E+02  0.41800000000E+01 0.  1.
         -5    1    3    3    0  502 -0.21631908226E+02 -0.37083148302E+02 -0.41018317720E+02  0.59523727454E+02  0.41800000000E+01 0.  1.
        -11    1    4    4    0    0  0.20765843984E+02  0.25497888360E+02  0.19878220355E+02  0.38425333202E+02  0.00000000000E+00 0.  1.
         11    1    4    4    0    0 -0.67683531719E+02  0.33463197054E+01 -0.69257802104E+01  0.68119195188E+02  0.00000000000E+00 0. -1.
</event>
<event>
 8    1  0.3528896E-009  0.1128362E+03  0.7561462E-02  0.1255406E+00
         -2   -1    0    0    0  501 -0.00000000000E+00  0.00000000000E+00  0.22456693150E+02  0.22456693150E+02  0.00000000000E+00 0.  1.
          2   -1    0    0  501    0  0.00000000000E+00 -0.00000000000E+00 -0.76828553368E+03  0.76828553368E+03  0.00000000000E+00 0. -1.
         25    2    1    2    0    0  0.60040268012E+02 -0.42157307671E+02 -0.41600593024E+03  0.44055655080E+03  0.12508824120E+03 0.  0.
         23    2    1    2    0    0 -0.60040268012E+02  0.42157307671E+02 -0.32982291029E+03  0.35018567603E+03  0.92004256260E+02 0.  0.
          5    1    3    3  502    0 -0.97750745539E+01 -0.38524040501E+02 -0.31570551548E+03  0.31822491839E+03  0.41800000000E+01 0. -1.
         -5    1    3    3    0  502  0.69815342566E+02 -0.36332671701E+01 -0.10030041476E+03  0.12233163241E+03  0.41800000000E+01 0. -1.
        -11    1    4    4    0    0 -0.82678571367E+02  0.22483614129E+02 -0.26994057586E+03  0.28321224120E+03  0.00000000000E+00 0.  1.
         11    1    4    4    0    0  0.22638303356E+02  0.19673693542E+02 -0.59882334431E+02  0.66973434833E+02  0.00000000000E+00 0. -1.
</event>
<event>
 8    1  0.3528896E-009  0.1238643E+03  0.7561462E-02  0.1236855E+00
          1   -1    0    0  501    0  0.00000000000E+00  0.00000000000E+00  0.11938178656E+03  0.11938178656E+03  0.00000000000E+00 0. -1.
         -1   -1    0    0    0  501 -0.00000000000E+00 -0.00000000000E+00 -0.21472985964E+03  0.21472985964E+03  0.00000000000E+00 0.  1.
         25    2    1    2    0    0  0.97027113431E+02 -0.23617250659E+02  0.38959037280E+01  0.16011888488E+03  0.12510333313E+03 0.  0.
         23    2    1    2    0    0 -0.97027113431E+02  0.23617250659E+02 -0.99243976812E+02  0.17399276132E+03  0.10223540869E+03 0.  0.
          5    1    3    3  502    0  0.73608825309E+02 -0.52083485979E+02  0.48202488530E+02  0.10233230661E+03  0.41800000000E+01 0. -1.
         -5    1    3    3    0  502  0.23418288123E+02  0.28466235319E+02 -0.44306584802E+02  0.57786578275E+02  0.41800000000E+01 0. -1.
        -11    1    4    4    0    0 -0.57602711384E+02 -0.20550701102E+02 -0.97093442693E+02  0.11474990322E+03  0.00000000000E+00 0.  1.
         11    1    4    4    0    0 -0.39424402047E+02  0.44167951761E+02 -0.21505341193E+01  0.59242858106E+02  0.00000000000E+00 0. -1.
</event>
<event>
 8    1  0.3528896E-009  0.8914781E+02  0.7561462E-02  0.1304929E+00
         -2   -1    0    0    0  501 -0.00000000000E+00  0.00000000000E+00  0.68194795351E+02  0.68194795351E+02  0.00000000000E+00 0.  1.
          2   -1    0    0  501    0  0.00000000000E+00 -0.00000000000E+00 -0.17160300827E+03  0.17160300827E+03  0.00000000000E+00 0. -1.
         25    2    1    2    0    0  0.88407057789E+01  0.28301026124E+01 -0.57428389976E+02  0.13795677674E+03  0.12509150537E+03 0.  0.
         23    2    1    2    0    0 -0.88407057789E+01 -0.28301026124E+01 -0.45979822945E+02  0.10184102688E+03  0.90395149640E+02 0.  0.
          5    1    3    3  502    0 -0.48639717804E+02 -0.30553547304E+02 -0.17018624541E+02  0.60053704150E+02  0.41800000000E+01 0.  1.
         -5    1    3    3    0  502  0.57480423583E+02  0.33383649916E+02 -0.40409765434E+02  0.77903072593E+02  0.41800000000E+01 0.  1.
        -11    1    4    4    0    0 -0.26416693577E+02 -0.17094247016E+02  0.16399017722E+02  0.35482147101E+02  0.00000000000E+00 0.  1.
         11    1    4    4    0    0  0.17575987799E+02  0.14264144404E+02 -0.62378840667E+02  0.66358879780E+02  0.00000000000E+00 0. -1.
</event>
<event>
 8    1  0.3528896E-009  0.1170859E+03  0.7561462E-02  0.1247983E+00
         -4   -1    0    0    0  501 -0.00000000000E+00  0.00000000000E+00  0.47340940570E+02  0.47340940570E+02  0.00000000000E+00 0. -1.
          4   -1    0    0  501    0  0.00000000000E+00 -0.00000000000E+00 -0.35596304822E+03  0.35596304822E+03  0.00000000000E+00 0.  1.
         25    2    1    2    0    0 -0.23091972415E+02  0.66154839642E+02 -0.19414543563E+03  0.24134729568E+03  0.12508543064E+03 0.  0.
         23    2    1    2    0    0  0.23091972415E+02 -0.66154839642E+02 -0.11447667202E+03  0.16195669311E+03  0.90638623158E+02 0.  0.
          5    1    3    3  502    0 -0.71784041839E+02  0.60789907773E+02 -0.12448273602E+03  0.15608262401E+03  0.41800000000E+01 0. -1.
         -5    1    3    3    0  502  0.48692069424E+02  0.53649318690E+01 -0.69662699605E+02  0.85264671670E+02  0.41800000000E+01 0. -1.
        -11    1    4    4    0    0  0.22743392662E+02  0.18724414081E+01 -0.84658873803E+02  0.87680629903E+02  0.00000000000E+00 0.  1.
         11    1    4    4    0    0  0.34857975318E+00 -0.68027281050E+02 -0.29817798218E+02  0.74276063206E+02  0.00000000000E+00 0. -1.
</event>
<event>
 8    1  0.3528896E-009  0.1001145E+03  0.7561462E-02  0.1280055E+00
         -4   -1    0    0    0  501 -0.00000000000E+00  0.00000000000E+00  0.12228854476E+03  0.12228854476E+03  0.00000000000E+00 0.  1.
          4   -1    0    0  501    0  0.00000000000E+00 -0.00000000000E+00 -0.12190302085E+03  0.12190302085E+03  0.00000000000E+00 0. -1.
         25    2    1    2    0    0 -0.21058497434E+02  0.30931836289E+02 -0.43750481903E+02  0.13770642335E+03  0.12509482626E+03 0.  0.
         23    2    1    2    0    0  0.21058497434E+02 -0.30931836289E+02  0.44136005814E+02  0.10648514226E+03  0.89391608681E+02 0.  0.
          5    1    3    3  502    0 -0.20791670093E+02  0.66408829640E+02 -0.65687707737E+02  0.95785038222E+02  0.41800000000E+01 0.  1.
         -5    1    3    3    0  502 -0.26682734167E+00 -0.35476993352E+02  0.21937225835E+02  0.41921385132E+02  0.41800000000E+01 0.  1.
        -11    1    4    4    0    0  0.54874000291E+02 -0.25628730923E+02  0.17287773338E+02  0.62982972808E+02  0.00000000000E+00 0. -1.
         11    1    4    4    0    0 -0.33815502857E+02 -0.53031053655E+01  0.26848232476E+02  0.43502169452E+02  0.00000000000E+00 0.  1.
</event>
<event>
 7    1  0.3528896E-009  0.1081515E+03  0.7561462E-02  0.1264032E+00
         -2   -1    0    0    0  501 -0.00000000000E+00  0.00000000000E+00  0.60048425624E+02  0.60048425624E+02  0.00000000000E+00 0. -1.
          2   -1    0    0  501    0  0.00000000000E+00 -0.00000000000E+00 -0.23324411921E+03  0.23324411921E+03  0.00000000000E+00 0.  1.
         23    2    1    2    0    0 -0.21087790074E+02  0.47065496610E+02 -0.68691780431E+02  0.12237876671E+03  0.87167344699E+02 0.  0.
          5    1    1    2  502    0  0.62122859167E+02 -0.60758912103E+02 -0.47146243081E+02  0.98950167598E+02  0.41800000000E+01 0.  1.
         -5    1    1    2    0  502 -0.41035069093E+02  0.13693415493E+02 -0.57357670070E+02  0.71963610521E+02  0.41800000000E+01 0.  1.
        -11    1    3    3    0    0  0.25347179553E+01 -0.17195029138E+02  0.83744688511E+01  0.19293147766E+02  0.00000000000E+00 0. -1.
         11    1    3    3    0    0 -0.23622508029E+02  0.64260525748E+02 -0.77066249282E+02  0.10308561895E+03  0.00000000000E+00 0.  1.
</event>
<event>
 8    1  0.3528896E-009  0.5887620E+02  0.7561462E-02  0.1402609E+00
          2   -1    0    0  501    0  0.00000000000E+00  0.00000000000E+00  0.31306246697E+03  0.31306246697E+03  0.00000000000E+00 0. -1.
         -2   -1    0    0    0  501 -0.00000000000E+00 -0.00000000000E+00 -0.96894066119E+02  0.96894066119E+02  0.00000000000E+00 0.  1.
         25    2    1    2    0    0  0.20600129719E+01  0.37611511961E+01  0.27789223894E+03  0.30477923887E+03  0.12509155874E+03 0.  0.
         23    2    1    2    0    0 -0.20600129719E+01 -0.37611511961E+01 -0.61723838087E+02  0.10517729422E+03  0.85053166434E+02 0.  0.
          5    1    3    3  502    0 -0.29443577632E+02 -0.15820573115E+01  0.52511909155E+01  0.30240280673E+02  0.41800000000E+01 0.  1.
         -5    1    3    3    0  502  0.31503590604E+02  0.53432085076E+01  0.27264104803E+03  0.27453895820E+03  0.41800000000E+01 0.  1.
        -11    1    4    4    0    0  0.26217913494E+02  0.37564570308E+01 -0.69938769595E+02  0.74785837228E+02  0.00000000000E+00 0.  1.
         11    1    4    4    0    0 -0.28277926466E+02 -0.75176082269E+01  0.82149315083E+01  0.30391456996E+02  0.00000000000E+00 0. -1.
</event>
<event>
 8    1  0.3528896E-009  0.9649488E+02  0.7561462E-02  0.1287844E+00
          1   -1    0    0  501    0  0.00000000000E+00  0.00000000000E+00  0.16140777971E+03  0.16140777971E+03  0.00000000000E+00 0. -1.
         -1   -1    0    0    0  501 -0.00000000000E+00 -0.00000000000E+00 -0.10131010289E+03  0.10131010289E+03  0.00000000000E+00 0.  1.
         25    2    1    2    0    0 -0.40161971279E+02  0.45499876636E+02  0.62877092522E+02  0.15259136596E+03  0.12508946194E+03 0.  0.
         23    2    1    2    0    0  0.40161971279E+02 -0.45499876636E+02 -0.27794156992E+01  0.11012651665E+03  0.91852609140E+02 0.  0.
          5    1    3    3  502    0 -0.18794565191E+02 -0.14583386765E+02  0.82321954136E+02  0.85792117255E+02  0.41800000000E+01 0.  1.
         -5    1    3    3    0  502 -0.21367406088E+02  0.60083263401E+02 -0.19444861614E+02  0.66799248702E+02  0.41800000000E+01 0.  1.
        -11    1    4    4    0    0 -0.26344078756E+02 -0.22231304205E+02 -0.16703669791E+02  0.38304751098E+02  0.00000000000E+00 0.  1.
         11    1    4    4    0    0  0.66506050036E+02 -0.23268572431E+02  0.13924254092E+02  0.71821765548E+02  0.00000000000E+00 0. -1.
</event>
<event>
 8    1  0.3528896E-009  0.2103951E+03  0.7561462E-02  0.1141254E+00
         -2   -1    0    0    0  501 -0.00000000000E+00  0.00000000000E+00  0.13608901880E+03  0.13608901880E+03  0.00000000000E+00 0.  1.
          2   -1    0    0  501    0  0.00000000000E+00 -0.00000000000E+00 -0.36956101310E+03  0.36956101310E+03  0.00000000000E+00 0. -1.
         25    2    1    2    0    0  0.17602295280E+03  0.37853983329E+02 -0.34117838633E+02  0.22187727798E+03  0.12509394713E+03 0.  0.
         23    2    1    2    0    0 -0.17602295280E+03 -0.37853983329E+02 -0.19935415567E+03  0.28377275391E+03  0.91476185505E+02 0.  0.
          5    1    3    3  502    0  0.19525299769E+03  0.29178459392E+02 -0.33995602139E+02  0.20037037946E+03  0.41800000000E+01 0.  1.
         -5    1    3    3    0  502 -0.19230044897E+02  0.86755239368E+01 -0.12223649438E+00  0.21506898523E+02  0.41800000000E+01 0.  1.
        -11    1    4    4    0    0 -0.14457639746E+02 -0.37566590017E+02 -0.43980804118E+02  0.59620325086E+02  0.00000000000E+00 0. -1.
         11    1    4    4    0    0 -0.16156531305E+03 -0.28739331261E+00 -0.15537335155E+03  0.22415242883E+03  0.00000000000E+00 0.  1.
</event>
<event>
 8    1  0.3528896E-009  0.1057796E+03  0.7561462E-02  0.1268591E+00
          2   -1    0    0  501    0  0.00000000000E+00  0.00000000000E+00  0.16188600283E+03  0.16188600283E+03  0.00000000000E+00 0. -1.
         -2   -1    0    0    0  501 -0.00000000000E+00 -0.00000000000E+00 -0.10379273028E+03  0.10379273028E+03  0.00000000000E+00 0.  1.
         25    2    1    2    0    0  0.96325125292E+01 -0.32459274978E+02  0.97464228485E+02  0.16215145641E+03  0.12508968443E+03 0.  0.
         23    2    1    2    0    0 -0.96325125292E+01  0.32459274978E+02 -0.39370955927E+02  0.10352727670E+03  0.89562464353E+02 0.  0.
          5    1    3    3  502    0  0.63691477694E+01  0.45047392160E+02  0.61315999136E+02  0.76465402201E+02  0.41800000000E+01 0.  1.
         -5    1    3    3    0  502  0.32633647598E+01 -0.77506667137E+02  0.36148229349E+02  0.85686054206E+02  0.41800000000E+01 0.  1.
        -11    1    4    4    0    0 -0.31168553093E+02 -0.16087187409E+02  0.35339811646E+01  0.35252876812E+02  0.00000000000E+00 0.  1.
         11    1    4    4    0    0  0.21536040564E+02  0.48546462386E+02 -0.42904937091E+02  0.68274399889E+02  0.00000000000E+00 0. -1.
</event>
<event>
 8    1  0.3528896E-009  0.1891023E+03  0.7561462E-02  0.1159274E+00
         -1   -1    0    0    0  501 -0.00000000000E+00  0.00000000000E+00  0.15976636362E+03  0.15976636362E+03  0.00000000000E+00 0.  1.
          1   -1    0    0  501    0  0.00000000000E+00 -0.00000000000E+00 -0.28170429259E+03  0.28170429259E+03  0.00000000000E+00 0. -1.
         25    2    1    2    0    0 -0.58171692627E+02 -0.16236259147E+03 -0.12357659288E+03  0.24630129359E+03  0.12509035129E+03 0.  0.
         23    2    1    2    0    0  0.58171692627E+02  0.16236259147E+03  0.16386639056E+01  0.19516936262E+03  0.91339137050E+02 0.  0.
          5    1    3    3  502    0 -0.90249648069E+02 -0.10233709753E+03 -0.48474662303E+02  0.14486250651E+03  0.41800000000E+01 0. -1.
         -5    1    3    3    0  502  0.32077955442E+02 -0.60025493940E+02 -0.75101930577E+02  0.10143878708E+03  0.41800000000E+01 0. -1.
        -11    1    4    4    0    0  0.14057699000E+02  0.66648273078E+02 -0.43175859031E+02  0.80645929894E+02  0.00000000000E+00 0.  1.
         11    1    4    4    0    0  0.44113993628E+02  0.95714318388E+02  0.44814522936E+02  0.11452343273E+03  0.00000000000E+00 0. -1.
</event>
<event>
 8    1  0.3528896E-009  0.2106512E+03  0.7561462E-02  0.1141051E+00
          2   -1    0    0  501    0  0.00000000000E+00  0.00000000000E+00  0.64782280254E+03  0.64782280254E+03  0.00000000000E+00 0. -1.
         -2   -1    0    0    0  501 -0.00000000000E+00 -0.00000000000E+00 -0.85869935508E+02  0.85869935508E+02  0.00000000000E+00 0.  1.
         25    2    1    2    0    0  0.13451609760E+03  0.12368357162E+03  0.13215547318E+03  0.25788480755E+03  0.12508916209E+03 0.  0.
         23    2    1    2    0    0 -0.13451609760E+03 -0.12368357162E+03  0.42979739386E+03  0.47580793050E+03  0.90968019425E+02 0.  0.
          5    1    3    3  502    0 -0.23442764319E+02  0.12692243735E+02  0.26268766309E+02  0.37658687356E+02  0.41800000000E+01 0.  1.
         -5    1    3    3    0  502  0.15795886192E+03  0.11099132788E+03  0.10588670687E+03  0.22022612019E+03  0.41800000000E+01 0.  1.
        -11    1    4    4    0    0 -0.11897812444E+02 -0.63540397666E+02  0.10280931791E+03  0.12144420911E+03  0.00000000000E+00 0.  1.
         11    1    4    4    0    0 -0.12261828516E+03 -0.60143173950E+02  0.32698807595E+03  0.35436372139E+03  0.00000000000E+00 0. -1.
</event>
<event>
 8    1  0.3528896E-009  0.1300896E+03  0.7561462E-02  0.1227323E+00
         -2   -1    0    0    0  501 -0.00000000000E+00  0.00000000000E+00  0.30763389233E+02  0.30763389233E+02  0.00000000000E+00 0.  1.
          2   -1    0    0  501    0  0.00000000000E+00 -0.00000000000E+00 -0.58789949360E+03  0.58789949360E+03  0.00000000000E+00 0. -1.
         25    2    1    2    0    0 -0.24866662828E+02  0.69792977654E+02 -0.37848231078E+03  0.40544524348E+03  0.12509026837E+03 0.  0.
         23    2    1    2    0    0  0.24866662828E+02 -0.69792977654E+02 -0.17865379359E+03  0.21321763936E+03  0.89750616250E+02 0.  0.
          5    1    3    3  502    0  0.32125328263E+02 -0.20452687719E+02 -0.11084901882E+03  0.11728310418E+03  0.41800000000E+01 0.  1.
         -5    1    3    3    0  502 -0.56991991092E+02  0.90245665373E+02 -0.26763329195E+03  0.28816213931E+03  0.41800000000E+01 0.  1.
        -11    1    4    4    0    0  0.57483916373E+02 -0.34725637339E+02 -0.11980165339E+03  0.13734156940E+03  0.00000000000E+00 0.  1.
         11    1    4    4    0    0 -0.32617253544E+02 -0.35067340315E+02 -0.58852140204E+02  0.75876069957E+02  0.00000000000E+00 0. -1.
</event>
<event>
 8    1  0.3528896E-009  0.2436529E+03  0.7561462E-02  0.1117383E+00
          1   -1    0    0  501    0  0.00000000000E+00  0.00000000000E+00  0.14091442377E+04  0.14091442377E+04  0.00000000000E+00 0. -1.
         -1   -1    0    0    0  501 -0.00000000000E+00 -0.00000000000E+00 -0.75111168094E+02  0.75111168094E+02  0.00000000000E+00 0.  1.
         25    2    1    2    0    0 -0.56519710565E+02 -0.21553857079E+03  0.11575850350E+04  0.11854545412E+04  0.12509197754E+03 0.  0.
         23    2    1    2    0    0  0.56519710565E+02  0.21553857079E+03  0.17644803460E+03  0.29880086457E+03  0.92177516657E+02 0.  0.
          5    1    3    3  502    0 -0.42606515972E+02 -0.23021112560E+03  0.10856341751E+04  0.11105996183E+04  0.41800000000E+01 0. -1.
         -5    1    3    3    0  502 -0.13913194593E+02  0.14672554810E+02  0.71950859846E+02  0.74854922891E+02  0.41800000000E+01 0. -1.
        -11    1    4    4    0    0  0.62847014638E+02  0.10935447419E+03  0.55694272285E+02  0.13787675743E+03  0.00000000000E+00 0.  1.
         11    1    4    4    0    0 -0.63273040730E+01  0.10618409659E+03  0.12075376231E+03  0.16092410714E+03  0.00000000000E+00 0. -1.
</event>
<event>
 8    1  0.3528896E-009  0.9923768E+02  0.7561462E-02  0.1281907E+00
          1   -1    0    0  501    0  0.00000000000E+00  0.00000000000E+00  0.42374492287E+03  0.42374492287E+03  0.00000000000E+00 0. -1.
         -1   -1    0    0    0  501 -0.00000000000E+00 -0.00000000000E+00 -0.43485718731E+02  0.43485718731E+02  0.00000000000E+00 0.  1.
         25    2    1    2    0    0 -0.76285162806E+02  0.15057790332E+02  0.17445132036E+03  0.22831552927E+03  0.12509418299E+03 0.  0.
         23    2    1    2    0    0  0.76285162806E+02 -0.15057790332E+02  0.20580788377E+03  0.23891511232E+03  0.93152470493E+02 0.  0.
          5    1    3    3  502    0  0.84304827734E+01  0.51869249083E+01  0.13293200213E+03  0.13336553835E+03  0.41800000000E+01 0. -1.
         -5    1    3    3    0  502 -0.84715645579E+02  0.98708654232E+01  0.41519318235E+02  0.94949990926E+02  0.41800000000E+01 0. -1.
        -11    1    4    4    0    0 -0.76685317393E+01 -0.16692678981E+02  0.10997690123E+03  0.11150054132E+03  0.00000000000E+00 0. -1.
         11    1    4    4    0    0  0.83953694545E+02  0.16348886490E+01  0.95830982547E+02  0.12741457101E+03  0.00000000000E+00 0.  1.
</event>
<event>
 8    1  0.3528896E-009  0.9082923E+02  0.7561462E-02  0.1300856E+00
          1   -1    0    0  501    0  0.00000000000E+00  0.00000000000E+00  0.38086252344E+03  0.38086252344E+03  0.00000000000E+00 0. -1.
         -1   -1    0    0    0  501 -0.00000000000E+00 -0.00000000000E+00 -0.37921853791E+02  0.37921853791E+02  0.00000000000E+00 0.  1.
         25    2    1    2    0    0  0.11056233513E+02  0.36912305748E+02  0.24923410911E+03  0.28151399007E+03  0.12509087437E+03 0.  0.
         23    2    1    2    0    0 -0.11056233513E+02 -0.36912305748E+02  0.93706560539E+02  0.13727038715E+03  0.92614691526E+02 0.  0.
          5    1    3    3  502    0  0.29811626234E+01  0.60972443709E+02  0.24835118138E+03  0.25577784876E+03  0.41800000000E+01 0. -1.
         -5    1    3    3    0  502  0.80750708900E+01 -0.24060137961E+02  0.88292772889E+00  0.25736141318E+02  0.41800000000E+01 0. -1.
        -11    1    4    4    0    0 -0.40284234384E+02 -0.48727630738E+02  0.39456456600E+02  0.74525254141E+02  0.00000000000E+00 0.  1.
         11    1    4    4    0    0  0.29228000871E+02  0.11815324990E+02  0.54250103939E+02  0.62745133014E+02  0.00000000000E+00 0. -1.
</event>
<event>
 8    1  0.3528896E-009  0.9819769E+02  0.7561462E-02  0.1284132E+00
         -1   -1    0    0    0  501 -0.00000000000E+00  0.00000000000E+00  0.32478110866E+03  0.32478110866E+03  0.00000000000E+00 0.  1.
          1   -1    0    0  501    0  0.00000000000E+00 -0.00000000000E+00 -0.42452667343E+02  0.42452667343E+02  0.00000000000E+00 0. -1.
         25    2    1    2    0    0 -0.35367726028E+02  0.96045224259E+01  0.19665645308E+03  0.23593254068E+03  0.12508908952E+03 0.  0.
         23    2    1    2    0    0  0.35367726028E+02 -0.96045224259E+01  0.85671988233E+02  0.13130123532E+03  0.92505145448E+02 0.  0.
          5    1    3    3  502    0 -0.80651575171E+02  0.72324188922E+01  0.15131783671E+03  0.17167278342E+03  0.41800000000E+01 0.  1.
         -5    1    3    3    0  502  0.45283849142E+02  0.23721035337E+01  0.45338616372E+02  0.64259757257E+02  0.41800000000E+01 0.  1.
        -11    1    4    4    0    0  0.25980808635E+02  0.23703322222E+02  0.89809023714E+02  0.96449523805E+02  0.00000000000E+00 0.  1.
         11    1    4    4    0    0  0.93869173935E+01 -0.33307844648E+02 -0.41370354808E+01  0.34851711520E+02  0.00000000000E+00 0. -1.
</event>
<event>
 8    1  0.3528896E-009  0.8067448E+02  0.7561462E-02  0.1327148E+00
          3   -1    0    0  501    0  0.00000000000E+00  0.00000000000E+00  0.34891017610E+03  0.34891017610E+03  0.00000000000E+00 0. -1.
         -3   -1    0    0    0  501 -0.00000000000E+00 -0.00000000000E+00 -0.34713397285E+02  0.34713397285E+02  0.00000000000E+00 0.  1.
         25    2    1    2    0    0 -0.43637079544E+01  0.19000778059E+02  0.18639124985E+03  0.22532034157E+03  0.12508991482E+03 0.  0.
         23    2    1    2    0    0  0.43637079544E+01 -0.19000778059E+02  0.12780552897E+03  0.15830323182E+03  0.91354192326E+02 0.  0.
          5    1    3    3  502    0  0.20073950313E+02  0.43601559988E+02  0.15083027196E+02  0.50487915623E+02  0.41800000000E+01 0. -1.
         -5    1    3    3    0  502 -0.24437658268E+02 -0.24600781929E+02  0.17130822265E+03  0.17483242595E+03  0.41800000000E+01 0. -1.
        -11    1    4    4    0    0  0.19759486962E+01  0.29557307329E+02  0.10682068981E+02  0.31490401514E+02  0.00000000000E+00 0.  1.
         11    1    4    4    0    0  0.23877592582E+01 -0.48558085388E+02  0.11712345999E+03  0.12681283030E+03  0.00000000000E+00 0. -1.
</event>
<event>
 8    1  0.3528896E-009  0.1774940E+03  0.7561462E-02  0.1170251E+00
          2   -1    0    0  501    0  0.00000000000E+00  0.00000000000E+00  0.62148561448E+03  0.62148561448E+03  0.00000000000E+00 0. -1.
         -2   -1    0    0    0  501 -0.00000000000E+00 -0.00000000000E+00 -0.53360742233E+02  0.53360742233E+02  0.00000000000E+00 0.  1.
         25    2    1    2    0    0  0.15435203946E+02  0.14312716485E+03  0.35663867666E+03  0.40442878015E+03  0.12509141329E+03 0.  0.
         23    2    1    2    0    0 -0.15435203946E+02 -0.14312716485E+03  0.21148619558E+03  0.27041757656E+03  0.87610638347E+02 0.  0.
          5    1    3    3  502    0  0.12892288099E+02  0.16428235647E+03  0.28146879196E+03  0.32618561739E+03  0.41800000000E+01 0. -1.
         -5    1    3    3    0  502  0.25429158464E+01 -0.21155191616E+02  0.75169884700E+02  0.78243162763E+02  0.41800000000E+01 0. -1.
        -11    1    4    4    0    0  0.35301269748E+02 -0.80018015797E+02  0.11414641038E+03  0.14380008867E+03  0.00000000000E+00 0. -1.
         11    1    4    4    0    0 -0.50736473694E+02 -0.63109149057E+02  0.97339785197E+02  0.12661748789E+03  0.00000000000E+00 0.  1.
</event>
<event>
 8    1  0.3528896E-009  0.9900191E+02  0.7561462E-02  0.1282409E+00
          1   -1    0    0  501    0  0.00000000000E+00  0.00000000000E+00  0.36894303136E+03  0.36894303136E+03  0.00000000000E+00 0. -1.
         -1   -1    0    0    0  501 -0.00000000000E+00 -0.00000000000E+00 -0.51065787475E+02  0.51065787475E+02  0.00000000000E+00 0.  1.
         25    2    1    2    0    0  0.77118131672E+02  0.17230503173E+02  0.21660655453E+03  0.26231736660E+03  0.12509158598E+03 0.  0.
         23    2    1    2    0    0 -0.77118131672E+02 -0.17230503173E+02  0.10127068935E+03  0.15769145223E+03  0.91469913700E+02 0.  0.
          5    1    3    3  502    0  0.68892374062E+02  0.30759436624E+02  0.41039907824E+02  0.85988653783E+02  0.41800000000E+01 0. -1.
         -5    1    3    3    0  502  0.82257576100E+01 -0.13528933451E+02  0.17556664671E+03  0.17632871282E+03  0.41800000000E+01 0. -1.
        -11    1    4    4    0    0 -0.38919100938E+02  0.27191869090E+02  0.88951919324E+01  0.48303401557E+02  0.00000000000E+00 0.  1.
         11    1    4    4    0    0 -0.38199030734E+02 -0.44422372263E+02  0.92375497419E+02  0.10938805067E+03  0.00000000000E+00 0. -1.
</event>
<event>
 8    1  0.3528896E-009  0.7509171E+02  0.7561462E-02  0.1343587E+00
         -2   -1    0    0    0  501 -0.00000000000E+00  0.00000000000E+00  0.13508006341E+03  0.13508006341E+03  0.00000000000E+00 0.  1.
          2   -1    0    0  501    0  0.00000000000E+00 -0.00000000000E+00 -0.11033825483E+03  0.11033825483E+03  0.00000000000E+00 0. -1.
         25    2    1    2    0    0  0.31614034396E+02  0.11217968104E+02 -0.30978990994E+02  0.13316433081E+03  0.12509097144E+03 0.  0.
         23    2    1    2    0    0 -0.31614034396E+02 -0.11217968104E+02  0.55720799577E+02  0.11225398743E+03  0.91492405201E+02 0.  0.
          5    1    3    3  502    0  0.15105297748E+02 -0.36012899911E+02 -0.62548108740E+02  0.73856870276E+02  0.41800000000E+01 0. -1.
         -5    1    3    3    0  502  0.16508736648E+02  0.47230868015E+02  0.31569117746E+02  0.59307460529E+02  0.41800000000E+01 0. -1.
        -11    1    4    4    0    0  0.63081832851E+01  0.13865695762E+02  0.64217463537E+02  0.65999494835E+02  0.00000000000E+00 0.  1.
         11    1    4    4    0    0 -0.37922217681E+02 -0.25083663866E+02 -0.84966639604E+01  0.46254492595E+02  0.00000000000E+00 0. -1.
</event>
<event>
 8    1  0.3528896E-009  0.2368395E+03  0.7561462E-02  0.1121916E+00
          1   -1    0    0  501    0  0.00000000000E+00  0.00000000000E+00  0.28816877253E+03  0.28816877253E+03  0.00000000000E+00 0. -1.
         -1   -1    0    0    0  501 -0.00000000000E+00 -0.00000000000E+00 -0.23018410939E+03  0.23018410939E+03  0.00000000000E+00 0.  1.
         25    2    1    2    0    0 -0.16223074566E+03  0.15208644820E+03  0.99943462982E+02  0.27400951073E+03  0.12507363275E+03 0.  0.
         23    2    1    2    0    0  0.16223074566E+03 -0.15208644820E+03 -0.41958799842E+02  0.24434337120E+03  0.92163114105E+02 0.  0.
          5    1    3    3  502    0 -0.14597559992E+03  0.15922611397E+03  0.51302642992E+02  0.22206139854E+03  0.41800000000E+01 0.  1.
         -5    1    3    3    0  502 -0.16255145748E+02 -0.71396657740E+01  0.48640819990E+02  0.51948112189E+02  0.41800000000E+01 0.  1.
        -11    1    4    4    0    0  0.26500489899E+02 -0.82912850402E+02 -0.29840336022E+01  0.87096045738E+02  0.00000000000E+00 0.  1.
         11    1    4    4    0    0  0.13573025577E+03 -0.69173597798E+02 -0.38974766239E+02  0.15724732546E+03  0.00000000000E+00 0. -1.
</event>
<event>
 8    1  0.3528896E-009  0.1056546E+03  0.7561462E-02  0.1268835E+00
          3   -1    0    0  501    0  0.00000000000E+00  0.00000000000E+00  0.11317851610E+03  0.11317851610E+03  0.00000000000E+00 0. -1.
         -3   -1    0    0    0  501 -0.00000000000E+00 -0.00000000000E+00 -0.14413564692E+03  0.14413564692E+03  0.00000000000E+00 0.  1.
         25    2    1    2    0    0  0.29454321106E+02 -0.59844453460E+02 -0.69147095778E+01  0.14194147978E+03  0.12510257724E+03 0.  0.
         23    2    1    2    0    0 -0.29454321106E+02  0.59844453460E+02 -0.24042421241E+02  0.11537268324E+03  0.91015945736E+02 0.  0.
          5    1    3    3  502    0  0.38598353198E+02 -0.75351766813E+02 -0.47628048327E+02  0.97229753773E+02  0.41800000000E+01 0.  1.
         -5    1    3    3    0  502 -0.91440320917E+01  0.15507313353E+02  0.40713338750E+02  0.44711726006E+02  0.41800000000E+01 0.  1.
        -11    1    4    4    0    0 -0.59713826374E+02  0.39184468627E+02  0.22936633360E+00  0.71422799235E+02  0.00000000000E+00 0.  1.
         11    1    4    4    0    0  0.30259505267E+02  0.20659984833E+02 -0.24271787574E+02  0.43949884009E+02  0.00000000000E+00 0. -1.
</event>
<event>
 8    1  0.3528896E-009  0.3974932E+03  0.7561462E-02  0.1044651E+00
          2   -1    0    0  501    0  0.00000000000E+00  0.00000000000E+00  0.10952138057E+04  0.10952138057E+04  0.00000000000E+00 0.  1.
         -2   -1    0    0    0  501 -0.00000000000E+00 -0.00000000000E+00 -0.16075615513E+03  0.16075615513E+03  0.00000000000E+00 0. -1.
         25    2    1    2    0    0  0.27493843748E+03 -0.27255954574E+03  0.65071318484E+03  0.76744171970E+03  0.12513710017E+03 0.  0.
         23    2    1    2    0    0 -0.27493843748E+03  0.27255954574E+03  0.28374446569E+03  0.48852824108E+03  0.90934427706E+02 0.  0.
          5    1    3    3  502    0  0.27522231338E+03 -0.21846783602E+03  0.54221034648E+03  0.64613082993E+03  0.41800000000E+01 0.  1.
         -5    1    3    3    0  502 -0.28387589306E+00 -0.54091709717E+02  0.10850283836E+03  0.12131088977E+03  0.41800000000E+01 0.  1.
        -11    1    4    4    0    0 -0.16341355401E+03  0.13317572588E+03  0.20281644633E+03  0.29253080949E+03  0.00000000000E+00 0.  1.
         11    1    4    4    0    0 -0.11152488347E+03  0.13938381986E+03  0.80928019359E+02  0.19599743159E+03  0.00000000000E+00 0. -1.
</event>
<event>
 8    1  0.3528896E-009  0.1055745E+03  0.7561462E-02  0.1268992E+00
         -1   -1    0    0    0  501 -0.00000000000E+00  0.00000000000E+00  0.88718016207E+02  0.88718016207E+02  0.00000000000E+00 0.  1.
          1   -1    0    0  501    0  0.00000000000E+00 -0.00000000000E+00 -0.22857508650E+03  0.22857508650E+03  0.00000000000E+00 0. -1.
         25    2    1    2    0    0 -0.53626450997E+02 -0.51293970773E+02 -0.16297291869E+02  0.14635697236E+03  0.12509154229E+03 0.  0.
         23    2    1    2    0    0  0.53626450997E+02  0.51293970773E+02 -0.12355977842E+03  0.17093613034E+03  0.91898172605E+02 0.  0.
          5    1    3    3  502    0 -0.87293379121E+02 -0.17660271586E+02 -0.33982618018E+02  0.95416507787E+02  0.41800000000E+01 0.  1.
         -5    1    3    3    0  502  0.33666928124E+02 -0.33633699187E+02  0.17685326149E+02  0.50940464577E+02  0.41800000000E+01 0.  1.
        -11    1    4    4    0    0  0.32135436152E+02  0.31513362734E+02 -0.13286481508E+03  0.14028127949E+03  0.00000000000E+00 0. -1.
         11    1    4    4    0    0  0.21491014845E+02  0.19780608039E+02  0.93050366631E+01  0.30654850852E+02  0.00000000000E+00 0.  1.
</event>
<event>
 8    1  0.3528896E-009  0.9219646E+02  0.7561462E-02  0.1297618E+00
          2   -1    0    0  501    0  0.00000000000E+00  0.00000000000E+00  0.70353815793E+03  0.70353815793E+03  0.00000000000E+00 0.  1.
         -2   -1    0    0    0  501 -0.00000000000E+00 -0.00000000000E+00 -0.31222434066E+02  0.31222434066E+02  0.00000000000E+00 0. -1.
         25    2    1    2    0    0  0.38493610434E+02  0.44955101441E+02  0.56541632898E+03  0.58210450803E+03  0.12508922419E+03 0.  0.
         23    2    1    2    0    0 -0.38493610434E+02 -0.44955101441E+02  0.10689939489E+03  0.15265608396E+03  0.91507814716E+02 0.  0.
          5    1    3    3  502    0 -0.20857742932E+02 -0.90788359566E+01  0.19351717614E+02  0.30156791559E+02  0.41800000000E+01 0. -1.
         -5    1    3    3    0  502  0.59351353366E+02  0.54033937397E+02  0.54606461136E+03  0.55194771647E+03  0.41800000000E+01 0. -1.
        -11    1    4    4    0    0 -0.12324336856E+02  0.12625397718E+02  0.83300786342E+02  0.85148757781E+02  0.00000000000E+00 0.  1.
         11    1    4    4    0    0 -0.26169273579E+02 -0.57580499159E+02  0.23598608544E+02  0.67507326182E+02  0.00000000000E+00 0. -1.
</event>
<event>
 8    1  0.3528896E-009  0.1190016E+03  0.7561462E-02  0.1244753E+00
          1   -1    0    0  501    0  0.00000000000E+00  0.00000000000E+00  0.17979472692E+04  0.17979472692E+04  0.00000000000E+00 0. -1.
         -1   -1    0    0    0  501 -0.00000000000E+00 -0.00000000000E+00 -0.93400189578E+01  0.93400189578E+01  0.00000000000E+00 0.  1.
         25    2    1    2    0    0 -0.27171239903E+02  0.43998277189E+02  0.13335258817E+04  0.13403777117E+04  0.12508800156E+03 0.  0.
         23    2    1    2    0    0  0.27171239903E+02 -0.43998277189E+02  0.45508136859E+03  0.46690957653E+03  0.90726930616E+02 0.  0.
          5    1    3    3  502    0  0.15322849433E+02 -0.38200039988E+02  0.32915745027E+03  0.33174709078E+03  0.41800000000E+01 0. -1.
         -5    1    3    3    0  502 -0.42494089336E+02  0.82198317177E+02  0.10043684314E+04  0.10086306209E+04  0.41800000000E+01 0. -1.
        -11    1    4    4    0    0  0.18258515791E+02  0.26920998568E+02  0.12352961522E+03  0.12774067245E+03  0.00000000000E+00 0.  1.
         11    1    4    4    0    0  0.89127241116E+01 -0.70919275758E+02  0.33155175337E+03  0.33916890407E+03  0.00000000000E+00 0. -1.
</event>
<event>
 8    1  0.3528896E-009  0.4856609E+02  0.7561462E-02  0.1453233E+00
         -2   -1    0    0    0  501 -0.00000000000E+00  0.00000000000E+00  0.59599042528E+02  0.59599042528E+02  0.00000000000E+00 0.  1.
          2   -1    0    0  501    0  0.00000000000E+00 -0.00000000000E+00 -0.21472421802E+03  0.21472421802E+03  0.00000000000E+00 0. -1.
         25    2    1    2    0    0 -0.25506886201E+02 -0.12262696718E+01 -0.65147641688E+02  0.14332887963E+03  0.12508735963E+03 0.  0.
         23    2    1    2    0    0  0.25506886201E+02  0.12262696718E+01 -0.89977533804E+02  0.13099438091E+03  0.91714046147E+02 0.  0.
          5    1    3    3  502    0  0.25332765162E+01 -0.99070166853E+01  0.36140095003E+02  0.37790810210E+02  0.41800000000E+01 0. -1.
         -5    1    3    3    0  502 -0.28040162718E+02  0.86807470134E+01 -0.10128773669E+03  0.10553806942E+03  0.41800000000E+01 0. -1.
        -11    1    4    4    0    0  0.23199540638E+02  0.24096558877E+02 -0.10034859785E+03  0.10577667005E+03  0.00000000000E+00 0. -1.
         11    1    4    4    0    0  0.23073455633E+01 -0.22870289205E+02  0.10371064048E+02  0.25217710867E+02  0.00000000000E+00 0.  1.
</event>
<event>
 8    1  0.3528896E-009  0.9962836E+02  0.7561462E-02  0.1281079E+00
          2   -1    0    0  501    0  0.00000000000E+00  0.00000000000E+00  0.17270203731E+04  0.17270203731E+04  0.00000000000E+00 0. -1.
         -2   -1    0    0    0  501 -0.00000000000E+00 -0.00000000000E+00 -0.74684549547E+01  0.74684549547E+01  0.00000000000E+00 0.  1.
         25    2    1    2    0    0  0.15732925622E+02 -0.24111123877E+02  0.12659617234E+04  0.12724522340E+04  0.12508689519E+03 0.  0.
         23    2    1    2    0    0 -0.15732925622E+02  0.24111123877E+02  0.45359019476E+03  0.46203659411E+03  0.83095597187E+02 0.  0.
          5    1    3    3  502    0  0.62070402461E+02 -0.18830721465E+02  0.10202727408E+04  0.10223410728E+04  0.41800000000E+01 0.  1.
         -5    1    3    3    0  502 -0.46337476839E+02 -0.52804024124E+01  0.24568898259E+03  0.25011116124E+03  0.41800000000E+01 0.  1.
        -11    1    4    4    0    0 -0.47189699657E+01  0.54710016204E+02  0.26023598218E+03  0.26596657867E+03  0.00000000000E+00 0.  1.
         11    1    4    4    0    0 -0.11013955657E+02 -0.30598892327E+02  0.19335421258E+03  0.19607001544E+03  0.00000000000E+00 0. -1.
</event>
<event>
 8    1  0.3528896E-009  0.8460334E+02  0.7561462E-02  0.1316473E+00
         -1   -1    0    0    0  501 -0.00000000000E+00  0.00000000000E+00  0.46159794505E+02  0.46159794505E+02  0.00000000000E+00 0.  1.
          1   -1    0    0  501    0  0.00000000000E+00 -0.00000000000E+00 -0.35670554358E+03  0.35670554358E+03  0.00000000000E+00 0. -1.
         25    2    1    2    0    0  0.63332905077E+02  0.32150449813E+02 -0.19350499819E+03  0.24111560874E+03  0.12509134328E+03 0.  0.
         23    2    1    2    0    0 -0.63332905077E+02 -0.32150449813E+02 -0.11704075088E+03  0.16174972934E+03  0.86137850490E+02 0.  0.
          5    1    3    3  502    0  0.51199459930E+02  0.21099979870E+02 -0.95098647441E+01  0.56342734892E+02  0.41800000000E+01 0. -1.
         -5    1    3    3    0  502  0.12133445147E+02  0.11050469943E+02 -0.18399513345E+03  0.18477287385E+03  0.41800000000E+01 0. -1.
        -11    1    4    4    0    0 -0.76417960249E+02 -0.33779408743E+02 -0.59132555614E+02  0.10235923132E+03  0.00000000000E+00 0.  1.
         11    1    4    4    0    0  0.13085055172E+02  0.16289589298E+01 -0.57908195264E+02  0.59390498018E+02  0.00000000000E+00 0. -1.
</event>
<event>
 8    1  0.3528896E-009  0.5931207E+02  0.7561462E-02  0.1400742E+00
         -2   -1    0    0    0  501 -0.00000000000E+00  0.00000000000E+00  0.41040468347E+02  0.41040468347E+02  0.00000000000E+00 0.  1.
          2   -1    0    0  501    0  0.00000000000E+00 -0.00000000000E+00 -0.30612460602E+03  0.30612460602E+03  0.00000000000E+00 0. -1.
         25    2    1    2    0    0  0.18985871489E+01  0.16337031340E+02 -0.19479264371E+03  0.23208327573E+03  0.12509184468E+03 0.  0.
         23    2    1    2    0    0 -0.18985871489E+01 -0.16337031340E+02 -0.70291493960E+02  0.11508179863E+03  0.89623786058E+02 0.  0.
          5    1    3    3  502    0 -0.79339770898E+01 -0.19996894503E+01  0.16949829590E+02  0.19279934478E+02  0.41800000000E+01 0. -1.
         -5    1    3    3    0  502  0.98325642387E+01  0.18336720790E+02 -0.21174247330E+03  0.21280334126E+03  0.41800000000E+01 0. -1.
        -11    1    4    4    0    0 -0.11260849147E+02  0.34619226971E+02 -0.15183890715E+02  0.39444240858E+02  0.00000000000E+00 0.  1.
         11    1    4    4    0    0  0.93622619986E+01 -0.50956258311E+02 -0.55107603245E+02  0.75637557775E+02  0.00000000000E+00 0. -1.
</event>
<event>
 8    1  0.3528896E-009  0.1002625E+03  0.7561462E-02  0.1279745E+00
          2   -1    0    0  501    0  0.00000000000E+00  0.00000000000E+00  0.11008573677E+03  0.11008573677E+03  0.00000000000E+00 0. -1.
         -2   -1    0    0    0  501 -0.00000000000E+00 -0.00000000000E+00 -0.11867753771E+03  0.11867753771E+03  0.00000000000E+00 0.  1.
         25    2    1    2    0    0 -0.14372545216E+02 -0.57354915466E+01 -0.29340117110E+02  0.12941211892E+03  0.12508872105E+03 0.  0.
         23    2    1    2    0    0  0.14372545216E+02  0.57354915466E+01  0.20748316173E+02  0.99351155557E+02  0.95920245867E+02 0.  0.
          5    1    3    3  502    0  0.52911475732E+02 -0.45694125986E+01  0.54338706610E+01  0.53549072316E+02  0.41800000000E+01 0.  1.
         -5    1    3    3    0  502 -0.67284020948E+02 -0.11660789480E+01 -0.34773987771E+02  0.75863046607E+02  0.41800000000E+01 0.  1.
        -11    1    4    4    0    0  0.23836319049E+02 -0.32576020219E+02 -0.17862671570E+02  0.44141162590E+02  0.00000000000E+00 0.  1.
         11    1    4    4    0    0 -0.94637738330E+01  0.38311511766E+02  0.38610987743E+02  0.55209992967E+02  0.00000000000E+00 0. -1.
</event>
<event>
 8    1  0.3528896E-009  0.8020275E+02  0.7561462E-02  0.1328477E+00
         -2   -1    0    0    0  501 -0.00000000000E+00  0.00000000000E+00  0.43427015593E+02  0.43427015593E+02  0.00000000000E+00 0. -1.
          2   -1    0    0  501    0  0.00000000000E+00 -0.00000000000E+00 -0.31120233198E+03  0.31120233198E+03  0.00000000000E+00 0.  1.
         25    2    1    2    0    0  0.77582173748E+01 -0.13474531556E+02 -0.20782109776E+03  0.24306148834E+03  0.12509006956E+03 0.  0.
         23    2    1    2    0    0 -0.77582173748E+01  0.13474531556E+02 -0.59954218625E+02  0.11156785923E+03  0.92796152639E+02 0.  0.
          5    1    3    3  502    0 -0.43366070138E+02 -0.14704553599E+02 -0.17772427004E+03  0.18357621986E+03  0.41800000000E+01 0.  1.
         -5    1    3    3    0  502  0.51124287512E+02  0.12300220426E+01 -0.30096827719E+02  0.59485268484E+02  0.41800000000E+01 0.  1.
        -11    1    4    4    0    0  0.66445915042E+01 -0.22978028198E+02 -0.67535827329E+02  0.71646551551E+02  0.00000000000E+00 0.  1.
         11    1    4    4    0    0 -0.14402808879E+02  0.36452559754E+02  0.75816087044E+01  0.39921307679E+02  0.00000000000E+00 0. -1.
</event>
<event>
 8    1  0.3528896E-009  0.9933702E+02  0.7561462E-02  0.1281696E+00
          1   -1    0    0  501    0  0.00000000000E+00  0.00000000000E+00  0.24056933335E+03  0.24056933335E+03  0.00000000000E+00 0. -1.
         -1   -1    0    0    0  501 -0.00000000000E+00 -0.00000000000E+00 -0.55044764997E+02  0.55044764997E+02  0.00000000000E+00 0.  1.
         25    2    1    2    0    0  0.11335449530E+02  0.31314862053E+02  0.11963311911E+03  0.17626473643E+03  0.12509221046E+03 0.  0.
         23    2    1    2    0    0 -0.11335449530E+02 -0.31314862053E+02  0.65891449250E+02  0.11934936192E+03  0.93773525614E+02 0.  0.
          5    1    3    3  502    0 -0.21276993593E+02  0.57152636869E+02  0.14077486712E+02  0.62727843814E+02  0.41800000000E+01 0. -1.
         -5    1    3    3    0  502  0.32612443123E+02 -0.25837774816E+02  0.10555563240E+03  0.11353689261E+03  0.41800000000E+01 0. -1.
        -11    1    4    4    0    0 -0.47528088645E+02 -0.35462360935E+02  0.24370331935E+02  0.64112489672E+02  0.00000000000E+00 0.  1.
         11    1    4    4    0    0  0.36192639115E+02  0.41474988816E+01  0.41521117315E+02  0.55236872252E+02  0.00000000000E+00 0. -1.
</event>
<event>
 8    1  0.3528896E-009  0.1242484E+03  0.7561462E-02  0.1236249E+00
          4   -1    0    0  501    0  0.00000000000E+00  0.00000000000E+00  0.19986863532E+03  0.19986863532E+03  0.00000000000E+00 0.  1.
         -4   -1    0    0    0  501 -0.00000000000E+00 -0.00000000000E+00 -0.11392179255E+03  0.11392179255E+03  0.00000000000E+00 0. -1.
         25    2    1    2    0    0  0.77226495710E+02  0.36642215389E+02 -0.15702522117E+02  0.15231713013E+03  0.12508938941E+03 0.  0.
         23    2    1    2    0    0 -0.77226495710E+02 -0.36642215389E+02  0.10164936489E+03  0.16147329774E+03  0.91839255838E+02 0.  0.
          5    1    3    3  502    0  0.10536036275E+03  0.53319580061E+02 -0.78187512713E+01  0.11841616835E+03  0.41800000000E+01 0.  1.
         -5    1    3    3    0  502 -0.28133867038E+02 -0.16677364672E+02 -0.78837708453E+01  0.33900961781E+02  0.41800000000E+01 0.  1.
        -11    1    4    4    0    0 -0.47108278076E+02  0.34367583241E+01 -0.99045966670E+00  0.47243858664E+02  0.00000000000E+00 0. -1.
         11    1    4    4    0    0 -0.30118217634E+02 -0.40078973713E+02  0.10263982455E+03  0.11422943908E+03  0.00000000000E+00 0.  1.
</event>
<event>
 8    1  0.3528896E-009  0.1115047E+03  0.7561462E-02  0.1257809E+00
         -1   -1    0    0    0  501 -0.00000000000E+00  0.00000000000E+00  0.15231520706E+02  0.15231520706E+02  0.00000000000E+00 0.  1.
          1   -1    0    0  501    0  0.00000000000E+00 -0.00000000000E+00 -0.11324411044E+04  0.11324411044E+04  0.00000000000E+00 0. -1.
         25    2    1    2    0    0  0.95652711264E+01 -0.67187037462E+02 -0.72201585021E+03  0.73590750957E+03  0.12508949705E+03 0.  0.
         23    2    1    2    0    0 -0.95652711264E+01  0.67187037462E+02 -0.39519373349E+03  0.41176511555E+03  0.93631356787E+02 0.  0.
          5    1    3    3  502    0 -0.27667276969E+02  0.31042182818E+01 -0.48596575137E+03  0.48678054428E+03  0.41800000000E+01 0. -1.
         -5    1    3    3    0  502  0.37232548095E+02 -0.70291255743E+02 -0.23605009884E+03  0.24912696529E+03  0.41800000000E+01 0. -1.
        -11    1    4    4    0    0 -0.46805858447E+02  0.11476966565E+02 -0.14794314392E+03  0.15559461103E+03  0.00000000000E+00 0.  1.
         11    1    4    4    0    0  0.37240587321E+02  0.55710070897E+02 -0.24725058957E+03  0.25617050452E+03  0.00000000000E+00 0. -1.
</event>
<event>
 8    1  0.3528896E-009  0.7501822E+02  0.7561462E-02  0.1343815E+00
         -3   -1    0    0    0  501 -0.00000000000E+00  0.00000000000E+00  0.45739064746E+03  0.45739064746E+03  0.00000000000E+00 0.  1.
          3   -1    0    0  501    0  0.00000000000E+00 -0.00000000000E+00 -0.33362288229E+02  0.33362288229E+02  0.00000000000E+00 0. -1.
         25    2    1    2    0    0  0.86540276548E+01  0.21621087045E+02  0.12747774049E+03  0.18010927317E+03  0.12508562013E+03 0.  0.
         23    2    1    2    0    0 -0.86540276548E+01 -0.21621087045E+02  0.29655061874E+03  0.31064366252E+03  0.89525705728E+02 0.  0.
          5    1    3    3  502    0 -0.27919526264E+02 -0.20253940091E+01  0.13302877283E+03  0.13600635635E+03  0.41800000000E+01 0. -1.
         -5    1    3    3    0  502  0.36573553919E+02  0.23646481054E+02 -0.55510323352E+01  0.44102916825E+02  0.41800000000E+01 0. -1.
        -11    1    4    4    0    0 -0.40255789740E+02 -0.22974328715E+02  0.25065217469E+03  0.25490166940E+03  0.00000000000E+00 0.  1.
         11    1    4    4    0    0  0.31601762085E+02  0.13532416705E+01  0.45898444049E+02  0.55741993111E+02  0.00000000000E+00 0. -1.
</event>
<event>
 8    1  0.3528896E-009  0.8545811E+02  0.7561462E-02  0.1314239E+00
         -4   -1    0    0    0  501 -0.00000000000E+00  0.00000000000E+00  0.35743475727E+03  0.35743475727E+03  0.00000000000E+00 0.  1.
          4   -1    0    0  501    0  0.00000000000E+00 -0.00000000000E+00 -0.40187191888E+02  0.40187191888E+02  0.00000000000E+00 0. -1.
         25    2    1    2    0    0  0.13305413515E+02  0.42754861717E+02  0.13661420043E+03  0.19057213380E+03  0.12509710706E+03 0.  0.
         23    2    1    2    0    0 -0.13305413515E+02 -0.42754861717E+02  0.18063336495E+03  0.20704981535E+03  0.90753519353E+02 0.  0.
          5    1    3    3  502    0  0.49353376930E+02  0.35051220390E+02  0.13732480779E+02  0.62212517177E+02  0.41800000000E+01 0. -1.
         -5    1    3    3    0  502 -0.36047963415E+02  0.77036413271E+01  0.12288171965E+03  0.12835961662E+03  0.41800000000E+01 0. -1.
        -11    1    4    4    0    0  0.17713750948E+02 -0.37777275284E+02  0.25789171208E+02  0.49050798690E+02  0.00000000000E+00 0. -1.
         11    1    4    4    0    0 -0.31019164463E+02 -0.49775864333E+01  0.15484419374E+03  0.15799901666E+03  0.00000000000E+00 0.  1.
</event>
<event>
 7    1  0.3528896E-009  0.1641548E+03  0.7561462E-02  0.1184084E+00
          2   -1    0    0  501    0  0.00000000000E+00  0.00000000000E+00  0.94513563825E+03  0.94513563825E+03  0.00000000000E+00 0. -1.
         -2   -1    0    0    0  501 -0.00000000000E+00 -0.00000000000E+00 -0.51884238995E+02  0.51884238995E+02  0.00000000000E+00 0.  1.
         25    2    1    2    0    0  0.11333324493E+03  0.94833417807E+02  0.39102436528E+03  0.43633127701E+03  0.12508847873E+03 0.  0.
          5    1    3    3  502    0  0.49578557784E+02  0.75239280377E+02  0.87972778965E+02  0.12599867040E+03  0.41800000000E+01 0. -1.
         -5    1    3    3    0  502  0.63754687148E+02  0.19594137429E+02  0.30305158632E+03  0.31033260661E+03  0.41800000000E+01 0. -1.
        -11    1    1    2    0    0 -0.99337233457E+02 -0.28301011220E+02  0.47718315864E+03  0.48823416521E+03  0.00000000000E+00 0. -1.
         11    1    1    2    0    0 -0.13996011475E+02 -0.66532406587E+02  0.25043875331E+02  0.72454435027E+02  0.00000000000E+00 0.  1.
</event>
<event>
 8    1  0.3528896E-009  0.6410029E+02  0.7561462E-02  0.1381388E+00
         -1   -1    0    0    0  501 -0.00000000000E+00  0.00000000000E+00  0.16622012027E+03  0.16622012027E+03  0.00000000000E+00 0.  1.
          1   -1    0    0  501    0  0.00000000000E+00 -0.00000000000E+00 -0.74456976817E+02  0.74456976817E+02  0.00000000000E+00 0. -1.
         25    2    1    2    0    0  0.11682864264E+01 -0.25303754730E+02  0.63262644488E+02  0.14245294788E+03  0.12509610416E+03 0.  0.
         23    2    1    2    0    0 -0.11682864264E+01  0.25303754730E+02  0.28500498964E+02  0.98224149209E+02  0.90521048104E+02 0.  0.
          5    1    3    3  502    0  0.10870803905E+02 -0.59689013612E+02  0.81844471767E+02  0.10196539944E+03  0.41800000000E+01 0.  1.
         -5    1    3    3    0  502 -0.97025174782E+01  0.34385258882E+02 -0.18581827279E+02  0.40487548442E+02  0.41800000000E+01 0.  1.
        -11    1    4    4    0    0  0.83819447090E+01  0.76755981644E+01 -0.32280002578E+02  0.34222366527E+02  0.00000000000E+00 0. -1.
         11    1    4    4    0    0 -0.95502311354E+01  0.17628156566E+02  0.60780501542E+02  0.64001782681E+02  0.00000000000E+00 0.  1.
</event>
<event>
 8    1  0.3528896E-009  0.1069972E+03  0.7561462E-02  0.1266234E+00
          2   -1    0    0  501    0  0.00000000000E+00  0.00000000000E+00  0.60250515193E+03  0.60250515193E+03  0.00000000000E+00 0. -1.
         -2   -1    0    0    0  501 -0.00000000000E+00 -0.00000000000E+00 -0.19785665093E+02  0.19785665093E+02  0.00000000000E+00 0.  1.
         25    2    1    2    0    0  0.21283502802E+02 -0.42037564438E+01  0.28340430706E+03  0.31054167081E+03  0.12508984369E+03 0.  0.
         23    2    1    2    0    0 -0.21283502802E+02  0.42037564438E+01  0.29931517978E+03  0.31174914621E+03  0.84423303982E+02 0.  0.
          5    1    3    3  502    0 -0.38298873286E+02 -0.41332068445E+02  0.13315737291E+03  0.14464958326E+03  0.41800000000E+01 0. -1.
         -5    1    3    3    0  502  0.59582376088E+02  0.37128312002E+02  0.15024693415E+03  0.16589208756E+03  0.41800000000E+01 0. -1.
        -11    1    4    4    0    0 -0.30959400324E+02 -0.35032047677E+02  0.16187199169E+03  0.16848819106E+03  0.00000000000E+00 0.  1.
         11    1    4    4    0    0  0.96758975217E+01  0.39235804120E+02  0.13744318809E+03  0.14326095515E+03  0.00000000000E+00 0. -1.
</event>
<event>
 8    1  0.3528896E-009  0.1176221E+03  0.7561462E-02  0.1247072E+00
         -2   -1    0    0    0  501 -0.00000000000E+00  0.00000000000E+00  0.16398585030E+03  0.16398585030E+03  0.00000000000E+00 0.  1.
          2   -1    0    0  501    0  0.00000000000E+00 -0.00000000000E+00 -0.13996879049E+03  0.13996879049E+03  0.00000000000E+00 0. -1.
         25    2    1    2    0    0  0.55734887040E+02 -0.25057169179E+02  0.99195763430E+02  0.17094368641E+03  0.12509078735E+03 0.  0.
         23    2    1    2    0    0 -0.55734887040E+02  0.25057169179E+02 -0.75178703616E+02  0.13301095438E+03  0.91136365673E+02 0.  0.
          5    1    3    3  502    0 -0.28344622047E+02  0.15560601128E+02 -0.26452554942E+01  0.32711155331E+02  0.41800000000E+01 0. -1.
         -5    1    3    3    0  502  0.84079509088E+02 -0.40617770307E+02  0.10184101892E+03  0.13823253108E+03  0.41800000000E+01 0. -1.
        -11    1    4    4    0    0  0.19629375042E+02  0.27475447902E+02 -0.29591614141E+02  0.44898510325E+02  0.00000000000E+00 0. -1.
         11    1    4    4    0    0 -0.75364262082E+02 -0.24182787237E+01 -0.45587089475E+02  0.88112444059E+02  0.00000000000E+00 0.  1.
</event>
<event>
 8    1  0.3528896E-009  0.1286246E+03  0.7561462E-02  0.1229511E+00
         -1   -1    0    0    0  501 -0.00000000000E+00  0.00000000000E+00  0.31366482681E+03  0.31366482681E+03  0.00000000000E+00 0.  1.
          1   -1    0    0  501    0  0.00000000000E+00 -0.00000000000E+00 -0.60249579428E+02  0.60249579428E+02  0.00000000000E+00 0. -1.
         25    2    1    2    0    0  0.75378935727E+02  0.35405042756E+02  0.14845136820E+03  0.21123404531E+03  0.12508601909E+03 0.  0.
         23    2    1    2    0    0 -0.75378935727E+02 -0.35405042756E+02  0.10496387919E+03  0.16268036094E+03  0.92260408066E+02 0.  0.
          5    1    3    3  502    0  0.58248513276E+02  0.80891309723E+02  0.84131046504E+02  0.13050593348E+03  0.41800000000E+01 0.  1.
         -5    1    3    3    0  502  0.17130422451E+02 -0.45486266967E+02  0.64320321696E+02  0.80728111826E+02  0.41800000000E+01 0.  1.
        -11    1    4    4    0    0 -0.38359376520E+02  0.19065779161E+02  0.82741503318E+02  0.93172431939E+02  0.00000000000E+00 0.  1.
         11    1    4    4    0    0 -0.37019559207E+02 -0.54470821917E+02  0.22222375867E+02  0.69507928997E+02  0.00000000000E+00 0. -1.
</event>
<event>
 8    1  0.3528896E-009  0.1789049E+03  0.7561462E-02  0.1168867E+00
          2   -1    0    0  501    0  0.00000000000E+00  0.00000000000E+00  0.30321576832E+03  0.30321576832E+03  0.00000000000E+00 0. -1.
         -2   -1    0    0    0  501 -0.00000000000E+00 -0.00000000000E+00 -0.13561728412E+03  0.13561728412E+03  0.00000000000E+00 0.  1.
         25    2    1    2    0    0 -0.10750443071E+03 -0.98963452039E+02 -0.76933096194E+01  0.19250229781E+03  0.12508788985E+03 0.  0.
         23    2    1    2    0    0  0.10750443071E+03  0.98963452039E+02  0.17529179382E+03  0.24633075463E+03  0.92739744618E+02 0.  0.
          5    1    3    3  502    0 -0.12752812403E+03 -0.10938128568E+03 -0.14145815642E+02  0.16865723992E+03  0.41800000000E+01 0.  1.
         -5    1    3    3    0  502  0.20023693317E+02  0.10417833645E+02  0.64525060224E+01  0.23845057892E+02  0.41800000000E+01 0.  1.
        -11    1    4    4    0    0  0.83216224473E+02  0.21983863662E+02  0.57410894760E+02  0.10346130250E+03  0.00000000000E+00 0. -1.
         11    1    4    4    0    0  0.24288206242E+02  0.76979588376E+02  0.11788089906E+03  0.14286945213E+03  0.00000000000E+00 0.  1.
</event>
<event>
 8    1  0.3528896E-009  0.7569817E+02  0.7561462E-02  0.1341723E+00
          2   -1    0    0  501    0  0.00000000000E+00  0.00000000000E+00  0.47218487450E+02  0.47218487450E+02  0.00000000000E+00 0.  1.
         -2   -1    0    0    0  501 -0.00000000000E+00 -0.00000000000E+00 -0.30198919626E+03  0.30198919626E+03  0.00000000000E+00 0. -1.
         25    2    1    2    0    0 -0.11183657346E+02  0.49866235244E+02 -0.14460551096E+03  0.19791381387E+03  0.12508960113E+03 0.  0.
         23    2    1    2    0    0  0.11183657346E+02 -0.49866235244E+02 -0.11016519785E+03  0.15129386984E+03  0.90231638717E+02 0.  0.
          5    1    3    3  502    0  0.21840439376E+02  0.44495835760E+01 -0.13954712975E+03  0.14137778258E+03  0.41800000000E+01 0.  1.
         -5    1    3    3    0  502 -0.33024096722E+02  0.45416651668E+02 -0.50583812103E+01  0.56536031286E+02  0.41800000000E+01 0.  1.
        -11    1    4    4    0    0  0.28204956579E+02 -0.11541878919E+02 -0.10465174660E+03  0.10899872757E+03  0.00000000000E+00 0. -1.
         11    1    4    4    0    0 -0.17021299233E+02 -0.38324356326E+02 -0.55134512483E+01  0.42295142275E+02  0.00000000000E+00 0.  1.
</event>
<event>
 8    1  0.3528896E-009  0.1090562E+03  0.7561462E-02  0.1262328E+00
          2   -1    0    0  501    0  0.00000000000E+00  0.00000000000E+00  0.24763256129E+03  0.24763256129E+03  0.00000000000E+00 0. -1.
         -2   -1    0    0    0  501 -0.00000000000E+00 -0.00000000000E+00 -0.55094779995E+02  0.55094779995E+02  0.00000000000E+00 0.  1.
         25    2    1    2    0    0 -0.24062963693E+02 -0.24117961795E+02  0.84601045360E+02  0.15480742249E+03  0.12508916372E+03 0.  0.
         23    2    1    2    0    0  0.24062963693E+02  0.24117961795E+02  0.10793673594E+03  0.14791991880E+03  0.95232668286E+02 0.  0.
          5    1    3    3  502    0 -0.68889317924E+02 -0.61053967508E+01  0.80400386444E+02  0.10613533122E+03  0.41800000000E+01 0.  1.
         -5    1    3    3    0  502  0.44826354231E+02 -0.18012565044E+02  0.42006589157E+01  0.48672091268E+02  0.41800000000E+01 0.  1.
        -11    1    4    4    0    0  0.17522988189E+02  0.60697748450E+02  0.58729502440E+02  0.86257905370E+02  0.00000000000E+00 0. -1.
         11    1    4    4    0    0  0.65399755039E+01 -0.36579786655E+02  0.49207233496E+02  0.61662013425E+02  0.00000000000E+00 0.  1.
</event>
<event>
 8    1  0.3528896E-009  0.1770300E+03  0.7561462E-02  0.1170709E+00
         -2   -1    0    0    0  501 -0.00000000000E+00  0.00000000000E+00  0.52342975968E+02  0.52342975968E+02  0.00000000000E+00 0. -1.
          2   -1    0    0  501    0  0.00000000000E+00 -0.00000000000E+00 -0.10362179495E+04  0.10362179495E+04  0.00000000000E+00 0.  1.
         25    2    1    2    0    0 -0.15593602525E+03 -0.75671708048E+02 -0.25169044099E+03  0.33020846404E+03  0.12508916928E+03 0.  0.
         23    2    1    2    0    0  0.15593602525E+03  0.75671708048E+02 -0.73218453258E+03  0.75835246146E+03  0.94667917960E+02 0.  0.
          5    1    3    3  502    0 -0.10684988958E+03 -0.68580060711E+02 -0.76959941609E+02  0.14852753496E+03  0.41800000000E+01 0. -1.
         -5    1    3    3    0  502 -0.49086135670E+02 -0.70916473370E+01 -0.17473049938E+03  0.18168092908E+03  0.41800000000E+01 0. -1.
        -11    1    4    4    0    0  0.72653603421E+02  0.14923249246E+02 -0.15257881739E+03  0.16965124513E+03  0.00000000000E+00 0. -1.
         11    1    4    4    0    0  0.83282421825E+02  0.60748458802E+02 -0.57960571519E+03  0.58870121633E+03  0.00000000000E+00 0.  1.
</event>
<event>
 8    1  0.3528896E-009  0.1315147E+03  0.7561462E-02  0.1225225E+00
          3   -1    0    0  501    0  0.00000000000E+00  0.00000000000E+00  0.98898514266E+02  0.98898514266E+02  0.00000000000E+00 0. -1.
         -3   -1    0    0    0  501 -0.00000000000E+00 -0.00000000000E+00 -0.28842502940E+03  0.28842502940E+03  0.00000000000E+00 0.  1.
         25    2    1    2    0    0 -0.80399448835E+01  0.11687229312E+03 -0.16332346674E+03  0.23673990507E+03  0.12508978477E+03 0.  0.
         23    2    1    2    0    0  0.80399448835E+01 -0.11687229312E+03 -0.26203048398E+02  0.15058363860E+03  0.90912369096E+02 0.  0.
          5    1    3    3  502    0  0.30470369188E+02  0.11610284396E+02 -0.10559199153E+03  0.11059106282E+03  0.41800000000E+01 0.  1.
         -5    1    3    3    0  502 -0.38510314072E+02  0.10526200872E+03 -0.57731475210E+02  0.12614884225E+03  0.41800000000E+01 0.  1.
        -11    1    4    4    0    0  0.16745691875E+01 -0.99099105340E+02  0.19608812133E+02  0.10103436234E+03  0.00000000000E+00 0. -1.
         11    1    4    4    0    0  0.63653756960E+01 -0.17773187779E+02 -0.45811860532E+02  0.49549276250E+02  0.00000000000E+00 0.  1.
</event>
<event>
 8    1  0.3528896E-009  0.1021950E+03  0.7561462E-02  0.1275747E+00
         -2   -1    0    0    0  501 -0.00000000000E+00  0.00000000000E+00  0.29863220814E+02  0.29863220814E+02  0.00000000000E+00 0.  1.
          2   -1    0    0  501    0  0.00000000000E+00 -0.00000000000E+00 -0.43183117455E+03  0.43183117455E+03  0.00000000000E+00 0. -1.
         25    2    1    2    0    0  0.80893183614E+01 -0.27062713520E+02 -0.24788076881E+03  0.27908793477E+03  0.12508945702E+03 0.  0.
         23    2    1    2    0    0 -0.80893183614E+01  0.27062713520E+02 -0.15408718493E+03  0.18260646059E+03  0.93831931426E+02 0.  0.
          5    1    3    3  502    0 -0.57860007826E+02 -0.94118864137E+01 -0.13265908123E+03  0.14509399830E+03  0.41800000000E+01 0.  1.
         -5    1    3    3    0  502  0.65949326187E+02 -0.17650827106E+02 -0.11522168758E+03  0.13399393647E+03  0.41800000000E+01 0.  1.
        -11    1    4    4    0    0  0.51597817295E+01 -0.23959019858E+02 -0.57394828500E+01  0.25171405274E+02  0.00000000000E+00 0.  1.
         11    1    4    4    0    0 -0.13249100091E+02  0.51021733379E+02 -0.14834770208E+03  0.15743505532E+03  0.00000000000E+00 0. -1.
</event>
<event>
 8    1  0.3528896E-009  0.1157780E+03  0.7561462E-02  0.1250229E+00
          2   -1    0    0  501    0  0.00000000000E+00  0.00000000000E+00  0.47896879558E+03  0.47896879558E+03  0.00000000000E+00 0. -1.
         -2   -1    0    0    0  501 -0.00000000000E+00 -0.00000000000E+00 -0.36709989416E+02  0.36709989416E+02  0.00000000000E+00 0.  1.
         25    2    1    2    0    0 -0.56290953643E+02  0.46422065651E+02  0.27433962789E+03  0.31021951306E+03  0.12510090011E+03 0.  0.
         23    2    1    2    0    0  0.56290953643E+02 -0.46422065651E+02  0.16791917828E+03  0.20545927194E+03  0.93236164402E+02 0.  0.
          5    1    3    3  502    0 -0.12315122361E+02 -0.30438033931E+02  0.17051112470E+03  0.17369413403E+03  0.41800000000E+01 0. -1.
         -5    1    3    3    0  502 -0.43975831282E+02  0.76860099582E+02  0.10382850319E+03  0.13652537903E+03  0.41800000000E+01 0. -1.
        -11    1    4    4    0    0  0.76807416627E+02 -0.26613223536E+02  0.15304948745E+03  0.17329682203E+03  0.00000000000E+00 0. -1.
         11    1    4    4    0    0 -0.20516462984E+02 -0.19808842115E+02  0.14869690829E+02  0.32162449917E+02  0.00000000000E+00 0.  1.
</event>
<event>
 8    1  0.3528896E-009  0.1506701E+03  0.7561462E-02  0.1199652E+00
         -4   -1    0    0    0  501 -0.00000000000E+00  0.00000000000E+00  0.56869666254E+02  0.56869666254E+02  0.00000000000E+00 0.  1.
          4   -1    0    0  501    0  0.00000000000E+00 -0.00000000000E+00 -0.61860975525E+03  0.61860975525E+03  0.00000000000E+00 0. -1.
         25    2    1    2    0    0  0.13266786750E+03 -0.30679263625E+02 -0.35749752788E+03  0.40248542256E+03  0.12509217659E+03 0.  0.
         23    2    1    2    0    0 -0.13266786750E+03  0.30679263625E+02 -0.20424256112E+03  0.27299399895E+03  0.11945174510E+03 0.  0.
          5    1    3    3  502    0  0.13377091604E+02  0.26211480867E+02 -0.11133613065E+02  0.31739849541E+02  0.41800000000E+01 0. -1.
         -5    1    3    3    0  502  0.11929077590E+03 -0.56890744492E+02 -0.34636391482E+03  0.37074557301E+03  0.41800000000E+01 0. -1.
        -11    1    4    4    0    0 -0.62190890232E+02  0.29667261838E+02 -0.18860260345E+03  0.20079540652E+03  0.00000000000E+00 0. -1.
         11    1    4    4    0    0 -0.70476977271E+02  0.10120017871E+01 -0.15639957671E+02  0.72198592430E+02  0.00000000000E+00 0.  1.
</event>
<event>
 8    1  0.3528896E-009  0.1261874E+03  0.7561462E-02  0.1233225E+00
         -1   -1    0    0    0  501 -0.00000000000E+00  0.00000000000E+00  0.35333756215E+02  0.35333756215E+02  0.00000000000E+00 0.  1.
          1   -1    0    0  501    0  0.00000000000E+00 -0.00000000000E+00 -0.59715342654E+03  0.59715342654E+03  0.00000000000E+00 0. -1.
         25    2    1    2    0    0  0.81688546803E+02  0.10254813019E+02 -0.19401544474E+03  0.24508791476E+03  0.12509161960E+03 0.  0.
         23    2    1    2    0    0 -0.81688546803E+02 -0.10254813019E+02 -0.36780422559E+03  0.38739926800E+03  0.89554813476E+02 0.  0.
          5    1    3    3  502    0  0.68514143204E+02 -0.51258705410E+02 -0.97324642073E+02  0.12965801577E+03  0.41800000000E+01 0.  1.
         -5    1    3    3    0  502  0.13174403599E+02  0.61513518429E+02 -0.96690802668E+02  0.11542989899E+03  0.41800000000E+01 0.  1.
        -11    1    4    4    0    0 -0.11220019694E+02  0.23110798755E+02 -0.25024208917E+02  0.35863754585E+02  0.00000000000E+00 0.  1.
         11    1    4    4    0    0 -0.70468527109E+02 -0.33365611774E+02 -0.34278001667E+03  0.35153551341E+03  0.00000000000E+00 0. -1.
</event>
<event>
 8    1  0.3528896E-009  0.2868066E+03  0.7561462E-02  0.1092028E+00
          1   -1    0    0  501    0  0.00000000000E+00  0.00000000000E+00  0.11346332653E+04  0.11346332653E+04  0.00000000000E+00 0. -1.
         -1   -1    0    0    0  501 -0.00000000000E+00 -0.00000000000E+00 -0.76585046855E+02  0.76585046855E+02  0.00000000000E+00 0.  1.
         25    2    1    2    0    0  0.27258507575E+03 -0.17341534219E+02  0.58705249353E+03  0.65945555627E+03  0.12509056006E+03 0.  0.
         23    2    1    2    0    0 -0.27258507575E+03  0.17341534219E+02  0.47099572491E+03  0.55176275587E+03  0.89452856587E+02 0.  0.
          5    1    3    3  502    0  0.11390404937E+03 -0.60060026195E+02  0.33086798829E+03  0.35506680679E+03  0.41800000000E+01 0. -1.
         -5    1    3    3    0  502  0.15868102638E+03  0.42718491976E+02  0.25618450524E+03  0.30438874948E+03  0.41800000000E+01 0. -1.
        -11    1    4    4    0    0 -0.18422180772E+03  0.41393523438E+02  0.37024601025E+03  0.41561184575E+03  0.00000000000E+00 0. -1.
         11    1    4    4    0    0 -0.88363268032E+02 -0.24051989220E+02  0.10074971466E+03  0.13615091012E+03  0.00000000000E+00 0.  1.
</event>
<event>
 8    1  0.3528896E-009  0.2048010E+03  0.7561462E-02  0.1145750E+00
         -1   -1    0    0    0  501 -0.00000000000E+00  0.00000000000E+00  0.96272284867E+02  0.96272284867E+02  0.00000000000E+00 0.  1.
          1   -1    0    0  501    0  0.00000000000E+00 -0.00000000000E+00 -0.50087167687E+03  0.50087167687E+03  0.00000000000E+00 0. -1.
         25    2    1    2    0    0 -0.17227308334E+03 -0.74062583362E+02 -0.16520921525E+03  0.27947272855E+03  0.12509052601E+03 0.  0.
         23    2    1    2    0    0  0.17227308334E+03  0.74062583362E+02 -0.23939017676E+03  0.31767123319E+03  0.91891643654E+02 0.  0.
          5    1    3    3  502    0 -0.18368877144E+03 -0.67736013098E+02 -0.17500358080E+03  0.26262798388E+03  0.41800000000E+01 0. -1.
         -5    1    3    3    0  502  0.11415688101E+02 -0.63265702632E+01  0.97943655538E+01  0.16844744661E+02  0.41800000000E+01 0. -1.
        -11    1    4    4    0    0  0.86210131789E+02  0.74603677918E+02 -0.89951431295E+02  0.14522105761E+03  0.00000000000E+00 0. -1.
         11    1    4    4    0    0  0.86062951553E+02 -0.54109455635E+00 -0.14943874546E+03  0.17245017558E+03  0.00000000000E+00 0.  1.
</event>
<event>
 8    1  0.3528896E-009  0.1694459E+03  0.7561462E-02  0.1178427E+00
          2   -1    0    0  501    0  0.00000000000E+00  0.00000000000E+00  0.45538217607E+03  0.45538217607E+03  0.00000000000E+00 0. -1.
         -2   -1    0    0    0  501 -0.00000000000E+00 -0.00000000000E+00 -0.79872919100E+02  0.79872919100E+02  0.00000000000E+00 0.  1.
         25    2    1    2    0    0  0.10465068303E+03  0.10305443584E+03  0.10907027776E+03  0.22161950881E+03  0.12508756528E+03 0.  0.
         23    2    1    2    0    0 -0.10465068303E+03 -0.10305443584E+03  0.26643897920E+03  0.31363558636E+03  0.76194285795E+02 0.  0.
          5    1    3    3  502    0  0.59343293151E+02  0.12689400160E+03  0.91312669044E+02  0.16726981202E+03  0.41800000000E+01 0.  1.
         -5    1    3    3    0  502  0.45307389880E+02 -0.23839565765E+02  0.17757608719E+02  0.54349696789E+02  0.41800000000E+01 0.  1.
        -11    1    4    4    0    0 -0.17411346077E+02 -0.11228198517E+02  0.24863317913E+01  0.20866462564E+02  0.00000000000E+00 0.  1.
         11    1    4    4    0    0 -0.87239336955E+02 -0.91826237320E+02  0.26395264741E+03  0.29276912380E+03  0.00000000000E+00 0. -1.
</event>
<event>
 8    1  0.3528896E-009  0.1490351E+03  0.7561462E-02  0.1201664E+00
          1   -1    0    0  501    0  0.00000000000E+00  0.00000000000E+00  0.15388116453E+04  0.15388116453E+04  0.00000000000E+00 0. -1.
         -1   -1    0    0    0  501 -0.00000000000E+00 -0.00000000000E+00 -0.17277758205E+02  0.17277758205E+02  0.00000000000E+00 0.  1.
         25    2    1    2    0    0 -0.11586715422E+03  0.38109629645E+02  0.80945301724E+03  0.82809372282E+03  0.12508990910E+03 0.  0.
         23    2    1    2    0    0  0.11586715422E+03 -0.38109629645E+02  0.71208086985E+03  0.72799568067E+03  0.89671648702E+02 0.  0.
          5    1    3    3  502    0 -0.12716321888E+02 -0.24087981638E+02  0.36155177591E+02  0.45459927061E+02  0.41800000000E+01 0. -1.
         -5    1    3    3    0  502 -0.10315083233E+03  0.62197611283E+02  0.77329783965E+03  0.78263379576E+03  0.41800000000E+01 0. -1.
        -11    1    4    4    0    0  0.96559723019E+02  0.11034111696E+02  0.41224645164E+03  0.42354771705E+03  0.00000000000E+00 0.  1.
         11    1    4    4    0    0  0.19307431202E+02 -0.49143741341E+02  0.29983441821E+03  0.30444796362E+03  0.00000000000E+00 0. -1.
</event>
<event>
 8    1  0.3528896E-009  0.1174731E+03  0.7561462E-02  0.1247325E+00
          1   -1    0    0  501    0  0.00000000000E+00  0.00000000000E+00  0.36821880569E+03  0.36821880569E+03  0.00000000000E+00 0. -1.
         -1   -1    0    0    0  501 -0.00000000000E+00 -0.00000000000E+00 -0.46216089255E+02  0.46216089255E+02  0.00000000000E+00 0.  1.
         25    2    1    2    0    0 -0.31005040685E+02 -0.48373291920E+02  0.25775812767E+03  0.29221238051E+03  0.12509010763E+03 0.  0.
         23    2    1    2    0    0  0.31005040685E+02  0.48373291920E+02  0.64244588770E+02  0.12222251443E+03  0.86658455611E+02 0.  0.
          5    1    3    3  502    0 -0.69194390648E+02 -0.13118897266E+00  0.18053481312E+03  0.19338606996E+03  0.41800000000E+01 0.  1.
         -5    1    3    3    0  502  0.38189349963E+02 -0.48242102947E+02  0.77223314550E+02  0.98826310553E+02  0.41800000000E+01 0.  1.
        -11    1    4    4    0    0  0.37748564945E+02 -0.14709465459E+02  0.26221587263E+02  0.48258617553E+02  0.00000000000E+00 0. -1.
         11    1    4    4    0    0 -0.67435242600E+01  0.63082757380E+02  0.38023001506E+02  0.73963896879E+02  0.00000000000E+00 0.  1.
</event>
<event>
 8    1  0.3528896E-009  0.1103874E+03  0.7561462E-02  0.1259854E+00
         -3   -1    0    0    0  501 -0.00000000000E+00  0.00000000000E+00  0.61173285597E+03  0.61173285597E+03  0.00000000000E+00 0.  1.
          3   -1    0    0  501    0  0.00000000000E+00 -0.00000000000E+00 -0.22561378085E+02  0.22561378085E+02  0.00000000000E+00 0. -1.
         25    2    1    2    0    0 -0.32801443389E+02  0.16419143158E+02  0.26736004775E+03  0.29744697014E+03  0.12509109466E+03 0.  0.
         23    2    1    2    0    0  0.32801443389E+02 -0.16419143158E+02  0.32181143014E+03  0.33684726392E+03  0.92509241106E+02 0.  0.
          5    1    3    3  502    0 -0.70813006223E+02  0.41267054435E+02  0.14145724322E+03  0.16353921760E+03  0.41800000000E+01 0.  1.
         -5    1    3    3    0  502  0.38011562834E+02 -0.24847911277E+02  0.12590280453E+03  0.13390775254E+03  0.41800000000E+01 0.  1.
        -11    1    4    4    0    0  0.38803233263E+01 -0.49220483891E+02  0.11005663509E+03  0.12062410982E+03  0.00000000000E+00 0. -1.
         11    1    4    4    0    0  0.28921120062E+02  0.32801340733E+02  0.21175479505E+03  0.21622315409E+03  0.00000000000E+00 0.  1.
</event>
<event>
 8    1  0.3528896E-009  0.1310378E+03  0.7561462E-02  0.1225924E+00
          4   -1    0    0  501    0  0.00000000000E+00  0.00000000000E+00  0.27617802411E+02  0.27617802411E+02  0.00000000000E+00 0. -1.
         -4   -1    0    0    0  501 -0.00000000000E+00 -0.00000000000E+00 -0.67138084395E+03  0.67138084395E+03  0.00000000000E+00 0.  1.
         25    2    1    2    0    0 -0.21195734073E+02  0.78832518014E+02 -0.36350378715E+03  0.39299718821E+03  0.12509181280E+03 0.  0.
         23    2    1    2    0    0  0.21195734073E+02 -0.78832518014E+02 -0.28025925439E+03  0.30600145816E+03  0.91803146359E+02 0.  0.
          5    1    3    3  502    0  0.47358348622E+02  0.24813621272E+02 -0.20613578303E+03  0.21299756438E+03  0.41800000000E+01 0. -1.
         -5    1    3    3    0  502 -0.68554082695E+02  0.54018896741E+02 -0.15736800412E+03  0.17999962383E+03  0.41800000000E+01 0. -1.
        -11    1    4    4    0    0  0.55630367613E+02 -0.59993361085E+02 -0.21232486622E+03  0.22754294098E+03  0.00000000000E+00 0.  1.
         11    1    4    4    0    0 -0.34434633540E+02 -0.18839156929E+02 -0.67934388175E+02  0.78458517177E+02  0.00000000000E+00 0. -1.
</event>
<event>
 8    1  0.3528896E-009  0.1162669E+03  0.7561462E-02  0.1249386E+00
          4   -1    0    0  501    0  0.00000000000E+00  0.00000000000E+00  0.14690504071E+03  0.14690504071E+03  0.00000000000E+00 0. -1.
         -4   -1    0    0    0  501 -0.00000000000E+00 -0.00000000000E+00 -0.14124330289E+03  0.14124330289E+03  0.00000000000E+00 0.  1.
         25    2    1    2    0    0 -0.58670870049E+02  0.20427718943E+02  0.74412105559E+02  0.15825151979E+03  0.12508724702E+03 0.  0.
         23    2    1    2    0    0  0.58670870049E+02 -0.20427718943E+02 -0.68750367737E+02  0.12989682381E+03  0.91033010923E+02 0.  0.
          5    1    3    3  502    0 -0.49447832714E+02  0.63187412977E+02  0.10987865042E+02  0.81092187645E+02  0.41800000000E+01 0.  1.
         -5    1    3    3    0  502 -0.92230373348E+01 -0.42759694034E+02  0.63424240517E+02  0.77159332143E+02  0.41800000000E+01 0.  1.
        -11    1    4    4    0    0 -0.35841207898E+01  0.28712243161E+02 -0.29800003634E+02  0.41536478495E+02  0.00000000000E+00 0.  1.
         11    1    4    4    0    0  0.62254990839E+02 -0.49139962104E+02 -0.38950364102E+02  0.88360345312E+02  0.00000000000E+00 0. -1.
</event>
<event>
 8    1  0.3528896E-009  0.1650629E+03  0.7561462E-02  0.1183097E+00
          2   -1    0    0  501    0  0.00000000000E+00  0.00000000000E+00  0.28728398958E+03  0.28728398958E+03  0.00000000000E+00 0.  1.
         -2   -1    0    0    0  501 -0.00000000000E+00 -0.00000000000E+00 -0.12194200392E+03  0.12194200392E+03  0.00000000000E+00 0. -1.
         25    2    1    2    0    0  0.69568255282E+02 -0.12640042649E+03  0.33106409296E+02  0.19380801959E+03  0.12509478071E+03 0.  0.
         23    2    1    2    0    0 -0.69568255282E+02  0.12640042649E+03  0.13223557637E+03  0.21541797392E+03  0.90010254242E+02 0.  0.
          5    1    3    3  502    0  0.29791337182E+02 -0.14012761829E+03  0.57325787600E+01  0.14343503073E+03  0.41800000000E+01 0. -1.
         -5    1    3    3    0  502  0.39776918100E+02  0.13727191808E+02  0.27373830536E+02  0.50372988860E+02  0.41800000000E+01 0. -1.
        -11    1    4    4    0    0 -0.17359134135E+02  0.39417913103E+02  0.10014631205E+03  0.10901557333E+03  0.00000000000E+00 0.  1.
         11    1    4    4    0    0 -0.52209121147E+02  0.86982513383E+02  0.32089264320E+02  0.10640240058E+03  0.00000000000E+00 0. -1.
</event>
<event>
 8    1  0.3528896E-009  0.9327237E+02  0.7561462E-02  0.1295115E+00
          2   -1    0    0  501    0  0.00000000000E+00  0.00000000000E+00  0.11398895033E+03  0.11398895033E+03  0.00000000000E+00 0. -1.
         -2   -1    0    0    0  501 -0.00000000000E+00 -0.00000000000E+00 -0.11612116220E+03  0.11612116220E+03  0.00000000000E+00 0.  1.
         25    2    1    2    0    0 -0.33133080823E+02  0.16647321484E+02  0.30878254420E+01  0.13050602018E+03  0.12508937717E+03 0.  0.
         23    2    1    2    0    0  0.33133080823E+02 -0.16647321484E+02 -0.52200373149E+01  0.99604092341E+02  0.92297302583E+02 0.  0.
          5    1    3    3  502    0 -0.80122210032E+01 -0.45642186807E+02 -0.30158282819E+02  0.55447266160E+02  0.41800000000E+01 0. -1.
         -5    1    3    3    0  502 -0.25120859820E+02  0.62289508292E+02  0.33246108261E+02  0.75058754025E+02  0.41800000000E+01 0. -1.
        -11    1    4    4    0    0  0.11040123359E+02 -0.39453937532E+02  0.31044480356E+02  0.51402891661E+02  0.00000000000E+00 0. -1.
         11    1    4    4    0    0  0.22092957464E+02  0.22806616048E+02 -0.36264517670E+02  0.48201200680E+02  0.00000000000E+00 0.  1.
</event>
<event>
 8    1  0.3528896E-009  0.7956016E+02  0.7561462E-02  0.1330304E+00
          4   -1    0    0  501    0  0.00000000000E+00  0.00000000000E+00  0.36138456295E+02  0.36138456295E+02  0.00000000000E+00 0.  1.
         -4   -1    0    0    0  501 -0.00000000000E+00 -0.00000000000E+00 -0.37976240398E+03  0.37976240398E+03  0.00000000000E+00 0. -1.
         25    2    1    2    0    0  0.29000819040E+02 -0.25948052264E+02 -0.15117147536E+03  0.20003763072E+03  0.12509152577E+03 0.  0.
         23    2    1    2    0    0 -0.29000819040E+02  0.25948052264E+02 -0.19245247233E+03  0.21586322956E+03  0.89691866123E+02 0.  0.
          5    1    3    3  502    0  0.26861364081E+01 -0.46545151781E+02 -0.15875893091E+03  0.16551597212E+03  0.41800000000E+01 0. -1.
         -5    1    3    3    0  502  0.26314682632E+02  0.20597099517E+02  0.75874555525E+01  0.34521658597E+02  0.41800000000E+01 0. -1.
        -11    1    4    4    0    0  0.20958469290E+02  0.18819469970E+02 -0.16126264935E+02  0.32457453777E+02  0.00000000000E+00 0.  1.
         11    1    4    4    0    0 -0.49959288330E+02  0.71285822938E+01 -0.17632620739E+03  0.18340577578E+03  0.00000000000E+00 0. -1.
</event>
<event>
 8    1  0.3528896E-009  0.1186157E+03  0.7561462E-02  0.1245398E+00
          2   -1    0    0  501    0  0.00000000000E+00  0.00000000000E+00  0.52714651859E+03  0.52714651859E+03  0.00000000000E+00 0. -1.
         -2   -1    0    0    0  501 -0.00000000000E+00 -0.00000000000E+00 -0.40102423167E+02  0.40102423167E+02  0.00000000000E+00 0.  1.
         25    2    1    2    0    0  0.67877040878E+02 -0.48044636877E+02  0.16731766824E+03  0.22485009049E+03  0.12508709477E+03 0.  0.
         23    2    1    2    0    0 -0.67877040878E+02  0.48044636877E+02  0.31972642719E+03  0.34239885127E+03  0.89980027213E+02 0.  0.
          5    1    3    3  502    0  0.15564387573E+02  0.42548148356E+02  0.52116145896E+02  0.69182079704E+02  0.41800000000E+01 0.  1.
         -5    1    3    3    0  502  0.52312653305E+02 -0.90592785234E+02  0.11520152234E+03  0.15566801078E+03  0.41800000000E+01 0.  1.
        -11    1    4    4    0    0 -0.34217113372E+02  0.39599471226E+02  0.29544486655E+03  0.30004432696E+03  0.00000000000E+00 0. -1.
         11    1    4    4    0    0 -0.33659927506E+02  0.84451656510E+01  0.24281560636E+02  0.42354524310E+02  0.00000000000E+00 0.  1.
</event>
<event>
 8    1  0.3528896E-009  0.3004291E+03  0.7561462E-02  0.1085026E+00
          2   -1    0    0  501    0  0.00000000000E+00  0.00000000000E+00  0.55647090002E+03  0.55647090002E+03  0.00000000000E+00 0. -1.
         -2   -1    0    0    0  501 -0.00000000000E+00 -0.00000000000E+00 -0.22748990740E+03  0.22748990740E+03  0.00000000000E+00 0.  1.
         25    2    1    2    0    0 -0.20604212942E+03  0.19592987548E+03  0.36976726812E+03  0.48292438524E+03  0.12508498748E+03 0.  0.
         23    2    1    2    0    0  0.20604212942E+03 -0.19592987548E+03 -0.40786275499E+02  0.30103642217E+03  0.90097347393E+02 0.  0.
          5    1    3    3  502    0 -0.16920237051E+03  0.21092671761E+03  0.31625865981E+03  0.41612081742E+03  0.41800000000E+01 0. -1.
         -5    1    3    3    0  502 -0.36839758909E+02 -0.14996842136E+02  0.53508608308E+02  0.66803567821E+02  0.41800000000E+01 0. -1.
        -11    1    4    4    0    0  0.56324160965E+02 -0.20849609744E+02 -0.37191460562E+02  0.70642211698E+02  0.00000000000E+00 0. -1.
         11    1    4    4    0    0  0.14971796845E+03 -0.17508026573E+03 -0.35948149379E+01  0.23039421048E+03  0.00000000000E+00 0.  1.
</event>
<event>
 8    1  0.3528896E-009  0.9299321E+02  0.7561462E-02  0.1295761E+00
         -2   -1    0    0    0  501 -0.00000000000E+00  0.00000000000E+00  0.39159171766E+02  0.39159171766E+02  0.00000000000E+00 0.  1.
          2   -1    0    0  501    0  0.00000000000E+00 -0.00000000000E+00 -0.33107388261E+03  0.33107388261E+03  0.00000000000E+00 0. -1.
         25    2    1    2    0    0 -0.30481150057E+02 -0.15255312868E+02 -0.15299799258E+03  0.20056456348E+03  0.12512367206E+03 0.  0.
         23    2    1    2    0    0  0.30481150057E+02  0.15255312868E+02 -0.13891671826E+03  0.16966849090E+03  0.91256326424E+02 0.  0.
          5    1    3    3  502    0 -0.76415908389E+02  0.93178131261E+01 -0.98086139981E+02  0.12475806969E+03  0.41800000000E+01 0. -1.
         -5    1    3    3    0  502  0.45934758332E+02 -0.24573125994E+02 -0.54911852603E+02  0.75806493788E+02  0.41800000000E+01 0. -1.
        -11    1    4    4    0    0  0.55603883012E+01  0.28063901652E+02 -0.13872886292E+03  0.14164814824E+03  0.00000000000E+00 0. -1.
         11    1    4    4    0    0  0.24920761756E+02 -0.12808588785E+02 -0.18785534534E+00  0.28020342660E+02  0.00000000000E+00 0.  1.
</event>
<event>
 8    1  0.3528896E-009  0.9776413E+02  0.7561462E-02  0.1285069E+00
          4   -1    0    0  501    0  0.00000000000E+00  0.00000000000E+00  0.13144620012E+03  0.13144620012E+03  0.00000000000E+00 0. -1.
         -4   -1    0    0    0  501 -0.00000000000E+00 -0.00000000000E+00 -0.10630680941E+03  0.10630680941E+03  0.00000000000E+00 0.  1.
         25    2    1    2    0    0 -0.21457859757E+01 -0.36206883192E+02  0.29220931648E+02  0.13348136390E+03  0.12509144205E+03 0.  0.
         23    2    1    2    0    0  0.21457859757E+01  0.36206883192E+02 -0.40815409339E+01  0.10427164562E+03  0.97674839733E+02 0.  0.
          5    1    3    3  502    0  0.41057566052E+02 -0.46564175934E+02 -0.21587363795E+02  0.65859189839E+02  0.41800000000E+01 0. -1.
         -5    1    3    3    0  502 -0.43203352028E+02  0.10357292742E+02  0.50808295443E+02  0.67622174064E+02  0.41800000000E+01 0. -1.
        -11    1    4    4    0    0 -0.38583552772E+02  0.87479074355E+01  0.25369606374E+02  0.46998227164E+02  0.00000000000E+00 0. -1.
         11    1    4    4    0    0  0.40729338748E+02  0.27458975756E+02 -0.29451147308E+02  0.57273418461E+02  0.00000000000E+00 0.  1.
</event>
<event>
 8    1  0.3528896E-009  0.1429670E+03  0.7561462E-02  0.1209392E+00
         -2   -1    0    0    0  501 -0.00000000000E+00  0.00000000000E+00  0.23999736495E+02  0.23999736495E+02  0.00000000000E+00 0.  1.
          2   -1    0    0  501    0  0.00000000000E+00 -0.00000000000E+00 -0.11672756557E+04  0.11672756557E+04  0.00000000000E+00 0. -1.
         25    2    1    2    0    0  0.57580422774E+02 -0.77824722630E+02 -0.89948530798E+03  0.91328668143E+03  0.12508617298E+03 0.  0.
         23    2    1    2    0    0 -0.57580422774E+02  0.77824722630E+02 -0.24379061120E+03  0.27798871074E+03  0.92041667999E+02 0.  0.
          5    1    3    3  502    0  0.96152033999E+02 -0.40966920116E+02 -0.60685466294E+03  0.61580318001E+03  0.41800000000E+01 0.  1.
         -5    1    3    3    0  502 -0.38571611226E+02 -0.36857802514E+02 -0.29263064504E+03  0.29748350142E+03  0.41800000000E+01 0.  1.
        -11    1    4    4    0    0 -0.79435607155E+02  0.58571349834E+02 -0.21710837176E+03  0.23848828859E+03  0.00000000000E+00 0. -1.
         11    1    4    4    0    0  0.21855184381E+02  0.19253372796E+02 -0.26682239441E+02  0.39500422149E+02  0.00000000000E+00 0.  1.
</event>
<event>
 8    1  0.3528896E-009  0.9791155E+02  0.7561462E-02  0.1284750E+00
         -3   -1    0    0    0  501 -0.00000000000E+00  0.00000000000E+00  0.75058820849E+03  0.75058820849E+03  0.00000000000E+00 0.  1.
          3   -1    0    0  501    0  0.00000000000E+00 -0.00000000000E+00 -0.19723151011E+02  0.19723151011E+02  0.00000000000E+00 0. -1.
         25    2    1    2    0    0 -0.63114596242E+02 -0.13742596384E+02  0.41288915511E+03  0.43622987937E+03  0.12508693791E+03 0.  0.
         23    2    1    2    0    0  0.63114596242E+02  0.13742596384E+02  0.31797590237E+03  0.33408148013E+03  0.79557838479E+02 0.  0.
          5    1    3    3  502    0 -0.44910062454E+02  0.28482951192E+02  0.36795580508E+03  0.37180255393E+03  0.41800000000E+01 0.  1.
         -5    1    3    3    0  502 -0.18204533788E+02 -0.42225547576E+02  0.44933350031E+02  0.64427325441E+02  0.41800000000E+01 0.  1.
        -11    1    4    4    0    0 -0.25937862544E+00 -0.23033136320E+02  0.35979272948E+02  0.42721197641E+02  0.00000000000E+00 0. -1.
         11    1    4    4    0    0  0.63373974867E+02  0.36775732704E+02  0.28199662942E+03  0.29136028249E+03  0.00000000000E+00 0.  1.
</event>
<event>
 8    1  0.3528896E-009  0.1179053E+03  0.7561462E-02  0.1246593E+00
         -2   -1    0    0    0  501 -0.00000000000E+00  0.00000000000E+00  0.20903930215E+03  0.20903930215E+03  0.00000000000E+00 0.  1.
          2   -1    0    0  501    0  0.00000000000E+00 -0.00000000000E+00 -0.84255645346E+02  0.84255645346E+02  0.00000000000E+00 0. -1.
         25    2    1    2    0    0 -0.61085380290E+02  0.44103073419E+02  0.87407509087E+02  0.17018927401E+03  0.12509121301E+03 0.  0.
         23    2    1    2    0    0  0.61085380290E+02 -0.44103073419E+02  0.37376147720E+02  0.12310567349E+03  0.89897306169E+02 0.  0.
          5    1    3    3  502    0 -0.90140828258E+02  0.13240005279E+01  0.73725750508E+02  0.11653360281E+03  0.41800000000E+01 0. -1.
         -5    1    3    3    0  502  0.29055447968E+02  0.42779072891E+02  0.13681758579E+02  0.53655671199E+02  0.41800000000E+01 0. -1.
        -11    1    4    4    0    0 -0.26216042341E+01  0.98528918486E+01  0.38280788530E+02  0.39615288173E+02  0.00000000000E+00 0.  1.
         11    1    4    4    0    0  0.63706984524E+02 -0.53955965268E+02 -0.90464080973E+00  0.83490385315E+02  0.00000000000E+00 0. -1.
</event>
<event>
 8    1  0.3528896E-009  0.1043596E+03  0.7561462E-02  0.1271387E+00
          2   -1    0    0  501    0  0.00000000000E+00  0.00000000000E+00  0.19862761648E+02  0.19862761648E+02  0.00000000000E+00 0. -1.
         -2   -1    0    0    0  501 -0.00000000000E+00 -0.00000000000E+00 -0.65044501121E+03  0.65044501121E+03  0.00000000000E+00 0.  1.
         25    2    1    2    0    0  0.21983150266E+02 -0.36197815088E+02 -0.34751626322E+03  0.37177237291E+03  0.12511436107E+03 0.  0.
         23    2    1    2    0    0 -0.21983150266E+02  0.36197815088E+02 -0.28306598635E+03  0.29853539995E+03  0.84873386199E+02 0.  0.
          5    1    3    3  502    0 -0.29615450281E+02 -0.56624366024E+02 -0.26222157442E+03  0.26992780556E+03  0.41800000000E+01 0. -1.
         -5    1    3    3    0  502  0.51598600547E+02  0.20426550936E+02 -0.85294688801E+02  0.10184456735E+03  0.41800000000E+01 0. -1.
        -11    1    4    4    0    0 -0.33029106353E+02 -0.15270994876E+02 -0.68036846955E+02  0.77156579075E+02  0.00000000000E+00 0.  1.
         11    1    4    4    0    0  0.11045956088E+02  0.51468809964E+02 -0.21502913939E+03  0.22137882088E+03  0.00000000000E+00 0. -1.
</event>
<event>
 8    1  0.3528896E-009  0.1027402E+03  0.7561462E-02  0.1274637E+00
          3   -1    0    0  501    0  0.00000000000E+00  0.00000000000E+00  0.79668582263E+02  0.79668582263E+02  0.00000000000E+00 0. -1.
         -3   -1    0    0    0  501 -0.00000000000E+00 -0.00000000000E+00 -0.18117435258E+03  0.18117435258E+03  0.00000000000E+00 0.  1.
         25    2    1    2    0    0 -0.41906132115E+02 -0.23690251291E+02 -0.93630730983E+02  0.16349673975E+03  0.12508844155E+03 0.  0.
         23    2    1    2    0    0  0.41906132115E+02  0.23690251291E+02 -0.78750393335E+01  0.97346195094E+02  0.84243180969E+02 0.  0.
          5    1    3    3  502    0 -0.33899663550E+02 -0.73381934447E+02 -0.72798688724E+02  0.10886329488E+03  0.41800000000E+01 0. -1.
         -5    1    3    3    0  502 -0.80064685654E+01  0.49691683156E+02 -0.20832042260E+02  0.54633444871E+02  0.41800000000E+01 0. -1.
        -11    1    4    4    0    0  0.19360992177E+02  0.41176538296E+02 -0.35439635145E+02  0.57674284247E+02  0.00000000000E+00 0.  1.
         11    1    4    4    0    0  0.22545139938E+02 -0.17486287005E+02  0.27564595812E+02  0.39671910848E+02  0.00000000000E+00 0. -1.
</event>
<event>
 8    1  0.3528896E-009  0.9166916E+02  0.7561462E-02  0.1298859E+00
         -1   -1    0    0    0  501 -0.00000000000E+00  0.00000000000E+00  0.88644967768E+02  0.88644967768E+02  0.00000000000E+00 0.  1.
          1   -1    0    0  501    0  0.00000000000E+00 -0.00000000000E+00 -0.14502203592E+03  0.14502203592E+03  0.00000000000E+00 0. -1.
         25    2    1    2    0    0 -0.18576832366E+02  0.19651242515E+02 -0.53958437611E+02  0.13888825992E+03  0.12508863146E+03 0.  0.
         23    2    1    2    0    0  0.18576832366E+02 -0.19651242515E+02 -0.24186305419E+01  0.94778743773E+02  0.90806885556E+02 0.  0.
          5    1    3    3  502    0 -0.66058193989E+02 -0.12116497337E+02 -0.44900838738E+02  0.80895316429E+02  0.41800000000E+01 0. -1.
         -5    1    3    3    0  502  0.47481361623E+02  0.31767739852E+02 -0.90575988733E+01  0.57992943486E+02  0.41800000000E+01 0. -1.
        -11    1    4    4    0    0  0.33642760636E+02 -0.25898913547E+02 -0.37145439954E+02  0.56412523215E+02  0.00000000000E+00 0. -1.
         11    1    4    4    0    0 -0.15065928269E+02  0.62476710320E+01  0.34726809413E+02  0.38366220558E+02  0.00000000000E+00 0.  1.
</event>
<event>
 8    1  0.3528896E-009  0.1390641E+03  0.7561462E-02  0.1214594E+00
         -2   -1    0    0    0  501 -0.00000000000E+00  0.00000000000E+00  0.40546754949E+02  0.40546754949E+02  0.00000000000E+00 0.  1.
          2   -1    0    0  501    0  0.00000000000E+00 -0.00000000000E+00 -0.68340763590E+03  0.68340763590E+03  0.00000000000E+00 0. -1.
         25    2    1    2    0    0 -0.34161689082E+02 -0.11783038260E+03 -0.39688677471E+03  0.43384131401E+03  0.12509258065E+03 0.  0.
         23    2    1    2    0    0  0.34161689082E+02  0.11783038260E+03 -0.24597410624E+03  0.29011307684E+03  0.92797178569E+02 0.  0.
          5    1    3    3  502    0 -0.17159737810E+02 -0.12809694155E+03 -0.21547061861E+03  0.25129334038E+03  0.41800000000E+01 0.  1.
         -5    1    3    3    0  502 -0.17001951272E+02  0.10266558952E+02 -0.18141615610E+03  0.18254797363E+03  0.41800000000E+01 0.  1.
        -11    1    4    4    0    0 -0.57006007637E+01  0.46180598337E+02 -0.17685662973E+03  0.18287540018E+03  0.00000000000E+00 0. -1.
         11    1    4    4    0    0  0.39862289846E+02  0.71649784262E+02 -0.69117476507E+02  0.10723767666E+03  0.00000000000E+00 0.  1.
</event>
<event>
 8    1  0.3528896E-009  0.9233214E+02  0.7561462E-02  0.1297300E+00
         -2   -1    0    0    0  501 -0.00000000000E+00  0.00000000000E+00  0.15662662976E+03  0.15662662976E+03  0.00000000000E+00 0.  1.
          2   -1    0    0  501    0  0.00000000000E+00 -0.00000000000E+00 -0.10544808716E+03  0.10544808716E+03  0.00000000000E+00 0. -1.
         25    2    1    2    0    0  0.41371368936E+02 -0.52364437932E+02  0.12524088503E+02  0.14227977196E+03  0.12503222060E+03 0.  0.
         23    2    1    2    0    0 -0.41371368936E+02  0.52364437932E+02  0.38654454100E+02  0.11979494497E+03  0.91668083270E+02 0.  0.
          5    1    3    3  502    0  0.63831714913E+02 -0.45021247843E+02  0.53517744537E+02  0.94778805470E+02  0.41800000000E+01 0. -1.
         -5    1    3    3    0  502 -0.22460345976E+02 -0.73431900890E+01 -0.40993656034E+02  0.47500966486E+02  0.41800000000E+01 0. -1.
        -11    1    4    4    0    0 -0.30248368438E+02  0.14010050762E+01 -0.23733222928E+02  0.38473269668E+02  0.00000000000E+00 0. -1.
         11    1    4    4    0    0 -0.11123000498E+02  0.50963432856E+02  0.62387677028E+02  0.81321675299E+02  0.00000000000E+00 0.  1.
</event>
<event>
 8    1  0.3528896E-009  0.2080382E+03  0.7561462E-02  0.1143129E+00
          1   -1    0    0  501    0  0.00000000000E+00  0.00000000000E+00  0.28239491561E+03  0.28239491561E+03  0.00000000000E+00 0. -1.
         -1   -1    0    0    0  501 -0.00000000000E+00 -0.00000000000E+00 -0.22826039512E+03  0.22826039512E+03  0.00000000000E+00 0.  1.
         25    2    1    2    0    0  0.14929271978E+03 -0.12873928595E+03  0.14504722960E+03  0.27486173586E+03  0.12509258611E+03 0.  0.
         23    2    1    2    0    0 -0.14929271978E+03  0.12873928595E+03 -0.90912709110E+02  0.23579357486E+03  0.92040042057E+02 0.  0.
          5    1    3    3  502    0  0.68779630429E+02 -0.43915774765E+02 -0.81106924743E+01  0.82112657779E+02  0.41800000000E+01 0.  1.
         -5    1    3    3    0  502  0.80513089354E+02 -0.84823511183E+02  0.15315792208E+03  0.19274907808E+03  0.41800000000E+01 0.  1.
        -11    1    4    4    0    0 -0.13966633407E+03  0.67090858752E+02 -0.69596560627E+02  0.16985743861E+03  0.00000000000E+00 0.  1.
         11    1    4    4    0    0 -0.96263857146E+01  0.61648427196E+02 -0.21316148483E+02  0.65936136252E+02  0.00000000000E+00 0. -1.
</event>
<event>
 8    1  0.3528896E-009  0.1109318E+03  0.7561462E-02  0.1258854E+00
          1   -1    0    0  501    0  0.00000000000E+00  0.00000000000E+00  0.33895794524E+03  0.33895794524E+03  0.00000000000E+00 0.  1.
         -1   -1    0    0    0  501 -0.00000000000E+00 -0.00000000000E+00 -0.48075303621E+02  0.48075303621E+02  0.00000000000E+00 0. -1.
         25    2    1    2    0    0 -0.40616665679E+02  0.33266179207E+02  0.97873264109E+02  0.16727852123E+03  0.12508627274E+03 0.  0.
         23    2    1    2    0    0  0.40616665679E+02 -0.33266179207E+02  0.19300937751E+03  0.21975472763E+03  0.91011912954E+02 0.  0.
          5    1    3    3  502    0 -0.31471492111E+02 -0.39940481996E+02  0.73491399811E+02  0.89465944157E+02  0.41800000000E+01 0.  1.
         -5    1    3    3    0  502 -0.91451735687E+01  0.73206661203E+02  0.24381864298E+02  0.77812577073E+02  0.41800000000E+01 0.  1.
        -11    1    4    4    0    0  0.40224994449E+02 -0.58892590557E+02  0.17336916776E+03  0.18746534542E+03  0.00000000000E+00 0.  1.
         11    1    4    4    0    0  0.39167122996E+00  0.25626411349E+02  0.19640209749E+02  0.32289382217E+02  0.00000000000E+00 0. -1.
</event>
<event>
 8    1  0.3528896E-009  0.1082360E+03  0.7561462E-02  0.1263872E+00
         -2   -1    0    0    0  501 -0.00000000000E+00  0.00000000000E+00  0.16506742348E+03  0.16506742348E+03  0.00000000000E+00 0.  1.
          2   -1    0    0  501    0  0.00000000000E+00 -0.00000000000E+00 -0.10589282263E+03  0.10589282263E+03  0.00000000000E+00 0. -1.
         25    2    1    2    0    0 -0.58961102438E+02  0.44418852626E+02  0.50906088921E+02  0.15390919992E+03  0.12508863202E+03 0.  0.
         23    2    1    2    0    0  0.58961102438E+02 -0.44418852626E+02  0.82685119328E+01  0.11705104619E+03  0.90460671321E+02 0.  0.
          5    1    3    3  502    0 -0.88737519615E+02  0.36568235300E+02  0.68694712552E+02  0.11810173222E+03  0.41800000000E+01 0.  1.
         -5    1    3    3    0  502  0.29776417176E+02  0.78506173256E+01 -0.17788623631E+02  0.35807467698E+02  0.41800000000E+01 0.  1.
        -11    1    4    4    0    0  0.57060493219E+02 -0.54597399001E+02 -0.24499355029E+02  0.82686118912E+02  0.00000000000E+00 0. -1.
         11    1    4    4    0    0  0.19006092199E+01  0.10178546375E+02  0.32767866962E+02  0.34364927280E+02  0.00000000000E+00 0.  1.
</event>
<event>
 8    1  0.3528896E-009  0.1768428E+03  0.7561462E-02  0.1170894E+00
          1   -1    0    0  501    0  0.00000000000E+00  0.00000000000E+00  0.63811564784E+03  0.63811564784E+03  0.00000000000E+00 0. -1.
         -1   -1    0    0    0  501 -0.00000000000E+00 -0.00000000000E+00 -0.66014609042E+02  0.66014609042E+02  0.00000000000E+00 0.  1.
         25    2    1    2    0    0  0.16148912502E+03  0.20650174848E+02  0.40418872709E+03  0.45334416111E+03  0.12508890470E+03 0.  0.
         23    2    1    2    0    0 -0.16148912502E+03 -0.20650174848E+02  0.16791231170E+03  0.25078609577E+03  0.90520462824E+02 0.  0.
          5    1    3    3  502    0 -0.50779679862E+01 -0.17253281521E+02  0.12246463684E+03  0.12384878343E+03  0.41800000000E+01 0. -1.
         -5    1    3    3    0  502  0.16656709301E+03  0.37903456370E+02  0.28172409025E+03  0.32949537767E+03  0.41800000000E+01 0. -1.
        -11    1    4    4    0    0 -0.36446944978E+02  0.47308597352E+01 -0.37007156039E+01  0.36938545289E+02  0.00000000000E+00 0.  1.
         11    1    4    4    0    0 -0.12504218004E+03 -0.25381034583E+02  0.17161302731E+03  0.21384755048E+03  0.00000000000E+00 0. -1.
</event>
<event>
 8    1  0.3528896E-009  0.1031939E+03  0.7561462E-02  0.1273720E+00
          1   -1    0    0  501    0  0.00000000000E+00  0.00000000000E+00  0.15258043270E+03  0.15258043270E+03  0.00000000000E+00 0. -1.
         -1   -1    0    0    0  501 -0.00000000000E+00 -0.00000000000E+00 -0.16728925736E+03  0.16728925736E+03  0.00000000000E+00 0.  1.
         25    2    1    2    0    0  0.34028691684E+02 -0.12666834646E+02  0.10282692992E+03  0.16594969622E+03  0.12509006195E+03 0.  0.
         23    2    1    2    0    0 -0.34028691684E+02  0.12666834646E+02 -0.11753575458E+03  0.15391999384E+03  0.92511136306E+02 0.  0.
          5    1    3    3  502    0 -0.40373766006E+02  0.10075314797E+02  0.69301901242E+01  0.42391660558E+02  0.41800000000E+01 0.  1.
         -5    1    3    3    0  502  0.74402457690E+02 -0.22742149443E+02  0.95896739800E+02  0.12355803566E+03  0.41800000000E+01 0.  1.
        -11    1    4    4    0    0 -0.53038211237E+02 -0.13101318084E+02 -0.10712023243E+03  0.12024741404E+03  0.00000000000E+00 0.  1.
         11    1    4    4    0    0  0.19009519553E+02  0.25768152730E+02 -0.10415522149E+02  0.33672579800E+02  0.00000000000E+00 0. -1.
</event>
<event>
 8    1  0.3528896E-009  0.6064122E+02  0.7561462E-02  0.1395160E+00
         -2   -1    0    0    0  501 -0.00000000000E+00  0.00000000000E+00  0.25763369475E+02  0.25763369475E+02  0.00000000000E+00 0.  1.
          2   -1    0    0  501    0  0.00000000000E+00 -0.00000000000E+00 -0.47839747608E+03  0.47839747608E+03  0.00000000000E+00 0. -1.
         25    2    1    2    0    0  0.20929728206E+02 -0.56117878305E+01 -0.22284889089E+03  0.25647356480E+03  0.12509002992E+03 0.  0.
         23    2    1    2    0    0 -0.20929728206E+02  0.56117878305E+01 -0.22978521572E+03  0.24768728075E+03  0.89878796166E+02 0.  0.
          5    1    3    3  502    0  0.26350782292E+01 -0.86856049393E+01  0.14913554812E+02  0.17951876993E+02  0.41800000000E+01 0. -1.
         -5    1    3    3    0  502  0.18294649977E+02  0.30738171088E+01 -0.23776244570E+03  0.23852168781E+03  0.41800000000E+01 0. -1.
        -11    1    4    4    0    0  0.14119354920E+02 -0.35526298386E+02 -0.10289922537E+03  0.10977123778E+03  0.00000000000E+00 0. -1.
         11    1    4    4    0    0 -0.35049083127E+02  0.41138086216E+02 -0.12688599034E+03  0.13791604298E+03  0.00000000000E+00 0.  1.
</event>
<event>
 8    1  0.3528896E-009  0.9971440E+02  0.7561462E-02  0.1280898E+00
          1   -1    0    0  501    0  0.00000000000E+00  0.00000000000E+00  0.73687641617E+02  0.73687641617E+02  0.00000000000E+00 0. -1.
         -1   -1    0    0    0  501 -0.00000000000E+00 -0.00000000000E+00 -0.17445206566E+03  0.17445206566E+03  0.00000000000E+00 0.  1.
         25    2    1    2    0    0  0.16021979307E+02  0.30451514082E+02 -0.60062605011E+02  0.14296502411E+03  0.12508989994E+03 0.  0.
         23    2    1    2    0    0 -0.16021979307E+02 -0.30451514082E+02 -0.40701819035E+02  0.10517468317E+03  0.90670157029E+02 0.  0.
          5    1    3    3  502    0  0.55613482614E+02 -0.73982376027E+01 -0.67121936090E+02  0.87580934413E+02  0.41800000000E+01 0. -1.
         -5    1    3    3    0  502 -0.39591503307E+02  0.37849751684E+02  0.70593310793E+01  0.55384089701E+02  0.41800000000E+01 0. -1.
        -11    1    4    4    0    0 -0.43583698664E+02 -0.39911926356E+02 -0.46823409917E+02  0.75398490508E+02  0.00000000000E+00 0.  1.
         11    1    4    4    0    0  0.27561719357E+02  0.94604122745E+01  0.61215908814E+01  0.29776192658E+02  0.00000000000E+00 0. -1.
</event>
<event>
 8    1  0.3528896E-009  0.1635698E+03  0.7561462E-02  0.1184724E+00
          2   -1    0    0  501    0  0.00000000000E+00  0.00000000000E+00  0.39327486953E+03  0.39327486953E+03  0.00000000000E+00 0. -1.
         -2   -1    0    0    0  501 -0.00000000000E+00 -0.00000000000E+00 -0.86063050034E+02  0.86063050034E+02  0.00000000000E+00 0.  1.
         25    2    1    2    0    0  0.14455793103E+02 -0.13717705480E+03  0.22192958460E+03  0.28970147767E+03  0.12509073238E+03 0.  0.
         23    2    1    2    0    0 -0.14455793103E+02  0.13717705480E+03  0.85282234896E+02  0.18963644189E+03  0.98297539062E+02 0.  0.
          5    1    3    3  502    0  0.52116626807E+02 -0.13754430472E+03  0.16253270827E+03  0.21924628208E+03  0.41800000000E+01 0.  1.
         -5    1    3    3    0  502 -0.37660833704E+02  0.36724992083E+00  0.59396876328E+02  0.70455195588E+02  0.41800000000E+01 0.  1.
        -11    1    4    4    0    0 -0.13854794500E+02  0.17044369867E+02 -0.20143217291E+02  0.29802937400E+02  0.00000000000E+00 0.  1.
         11    1    4    4    0    0 -0.60099860296E+00  0.12013268493E+03  0.10542545219E+03  0.15983350449E+03  0.00000000000E+00 0. -1.
</event>
<event>
 8    1  0.3528896E-009  0.1279326E+03  0.7561462E-02  0.1230556E+00
         -1   -1    0    0    0  501 -0.00000000000E+00  0.00000000000E+00  0.42859512524E+03  0.42859512524E+03  0.00000000000E+00 0.  1.
          1   -1    0    0  501    0  0.00000000000E+00 -0.00000000000E+00 -0.52419553255E+02  0.52419553255E+02  0.00000000000E+00 0. -1.
         25    2    1    2    0    0  0.96205019067E+01  0.10028702753E+03  0.20469659442E+03  0.26019125060E+03  0.12509496063E+03 0.  0.
         23    2    1    2    0    0 -0.96205019067E+01 -0.10028702753E+03  0.17147897756E+03  0.22082342789E+03  0.95957827259E+02 0.  0.
          5    1    3    3  502    0  0.44404622974E+02  0.12217779081E+02  0.13455073764E+03  0.14227585202E+03  0.41800000000E+01 0.  1.
         -5    1    3    3    0  502 -0.34784121067E+02  0.88069248446E+02  0.70145856776E+02  0.11791539858E+03  0.41800000000E+01 0.  1.
        -11    1    4    4    0    0  0.18253412646E+02 -0.75049931096E+02  0.46149220923E+02  0.89974606543E+02  0.00000000000E+00 0. -1.
         11    1    4    4    0    0 -0.27873914553E+02 -0.25237096431E+02  0.12532975664E+03  0.13084882135E+03  0.00000000000E+00 0.  1.
</event>
<event>
 8    1  0.3528896E-009  0.1229934E+03  0.7561462E-02  0.1238239E+00
         -2   -1    0    0    0  501 -0.00000000000E+00  0.00000000000E+00  0.27586405624E+02  0.27586405624E+02  0.00000000000E+00 0.  1.
          2   -1    0    0  501    0  0.00000000000E+00 -0.00000000000E+00 -0.67148430443E+03  0.67148430443E+03  0.00000000000E+00 0. -1.
         25    2    1    2    0    0 -0.73897759437E+02  0.39106188676E+02 -0.32887557936E+03  0.36165835923E+03  0.12508976481E+03 0.  0.
         23    2    1    2    0    0  0.73897759437E+02 -0.39106188676E+02 -0.31502231944E+03  0.33741235082E+03  0.87280352286E+02 0.  0.
          5    1    3    3  502    0 -0.72361922468E+02 -0.14058789470E+02 -0.27907215096E+03  0.28867392544E+03  0.41800000000E+01 0. -1.
         -5    1    3    3    0  502 -0.15358369685E+01  0.53164978145E+02 -0.49803428400E+02  0.72984433798E+02  0.41800000000E+01 0. -1.
        -11    1    4    4    0    0  0.73709849457E+02  0.57609597092E+01 -0.22486146882E+03  0.23670447973E+03  0.00000000000E+00 0. -1.
         11    1    4    4    0    0  0.18790997939E+00 -0.44867148385E+02 -0.90160850619E+02  0.10070787109E+03  0.00000000000E+00 0.  1.
</event>
<event>
 8    1  0.3528896E-009  0.1236414E+03  0.7561462E-02  0.1237208E+00
          2   -1    0    0  501    0  0.00000000000E+00  0.00000000000E+00  0.43841931077E+03  0.43841931077E+03  0.00000000000E+00 0. -1.
         -2   -1    0    0    0  501 -0.00000000000E+00 -0.00000000000E+00 -0.49220974920E+02  0.49220974920E+02  0.00000000000E+00 0.  1.
         25    2    1    2    0    0 -0.78239423773E+02  0.59826077962E+02  0.20281435762E+03  0.25784084402E+03  0.12509064775E+03 0.  0.
         23    2    1    2    0    0  0.78239423773E+02 -0.59826077962E+02  0.18638397823E+03  0.22979944167E+03  0.91478024745E+02 0.  0.
          5    1    3    3  502    0 -0.69109345593E+02  0.89889567331E+02  0.10344977232E+03  0.15354336116E+03  0.41800000000E+01 0.  1.
         -5    1    3    3    0  502 -0.91300781799E+01 -0.30063489369E+02  0.99364585294E+02  0.10429748286E+03  0.41800000000E+01 0.  1.
        -11    1    4    4    0    0  0.67878074408E+02 -0.61540046584E+02  0.19549228926E+03  0.21589776627E+03  0.00000000000E+00 0. -1.
         11    1    4    4    0    0  0.10361349365E+02  0.17139686216E+01 -0.91083110278E+01  0.13901675398E+02  0.00000000000E+00 0.  1.
</event>
<event>
 8    1  0.3528896E-009  0.8999158E+02  0.7561462E-02  0.1302872E+00
          1   -1    0    0  501    0  0.00000000000E+00  0.00000000000E+00  0.85546271556E+03  0.85546271556E+03  0.00000000000E+00 0. -1.
         -1   -1    0    0    0  501 -0.00000000000E+00 -0.00000000000E+00 -0.18028194497E+02  0.18028194497E+02  0.00000000000E+00 0.  1.
         25    2    1    2    0    0 -0.24820442577E+02 -0.84938385912E+01  0.66085707688E+03  0.67309838022E+03  0.12506459825E+03 0.  0.
         23    2    1    2    0    0  0.24820442577E+02  0.84938385912E+01  0.17657744419E+03  0.20039252984E+03  0.91045991431E+02 0.  0.
          5    1    3    3  502    0 -0.48464020219E+02 -0.50168314378E+02  0.50986032522E+03  0.51462670419E+03  0.41800000000E+01 0. -1.
         -5    1    3    3    0  502  0.23643577641E+02  0.41674475787E+02  0.15099675165E+03  0.15847167604E+03  0.41800000000E+01 0. -1.
        -11    1    4    4    0    0 -0.17225938802E+02  0.10030122690E+02  0.11241880613E+01  0.19964972516E+02  0.00000000000E+00 0.  1.
         11    1    4    4    0    0  0.42046381379E+02 -0.15362840988E+01  0.17545325613E+03  0.18042755732E+03  0.00000000000E+00 0. -1.
</event>
<event>
 8    1  0.3528896E-009  0.1037271E+03  0.7561462E-02  0.1272648E+00
         -2   -1    0    0    0  501 -0.00000000000E+00  0.00000000000E+00  0.85247472672E+02  0.85247472672E+02  0.00000000000E+00 0.  1.
          2   -1    0    0  501    0  0.00000000000E+00 -0.00000000000E+00 -0.19425506686E+03  0.19425506686E+03  0.00000000000E+00 0. -1.
         25    2    1    2    0    0  0.71059665056E+02  0.12353643625E+02 -0.89130454392E+02  0.16968542443E+03  0.12508723698E+03 0.  0.
         23    2    1    2    0    0 -0.71059665056E+02 -0.12353643625E+02 -0.19877139798E+02  0.10981711510E+03  0.80390357471E+02 0.  0.
          5    1    3    3  502    0  0.66626507769E+02 -0.35766221787E+02 -0.94253922535E+02  0.12091149024E+03  0.41800000000E+01 0. -1.
         -5    1    3    3    0  502  0.44331572868E+01  0.48119865413E+02  0.51234681430E+01  0.48773934193E+02  0.41800000000E+01 0. -1.
        -11    1    4    4    0    0 -0.56395009452E+02 -0.26968380094E+02 -0.45175707128E+02  0.77126747179E+02  0.00000000000E+00 0. -1.
         11    1    4    4    0    0 -0.14664655604E+02  0.14614736468E+02  0.25298567330E+02  0.32690367924E+02  0.00000000000E+00 0.  1.
</event>
<event>
 8    1  0.3528896E-009  0.1308880E+03  0.7561462E-02  0.1226144E+00
         -2   -1    0    0    0  501 -0.00000000000E+00  0.00000000000E+00  0.16945728057E+02  0.16945728057E+02  0.00000000000E+00 0. -1.
          2   -1    0    0  501    0  0.00000000000E+00 -0.00000000000E+00 -0.11929301749E+04  0.11929301749E+04  0.00000000000E+00 0.  1.
         25    2    1    2    0    0  0.33756168295E+02 -0.86795565370E+02 -0.63206907791E+03  0.65102223077E+03  0.12508267918E+03 0.  0.
         23    2    1    2    0    0 -0.33756168295E+02  0.86795565370E+02 -0.54391536891E+03  0.55885367217E+03  0.88320718386E+02 0.  0.
          5    1    3    3  502    0  0.46430567896E+02 -0.98487476757E+00 -0.83635159813E+02  0.95755313014E+02  0.41800000000E+01 0.  1.
         -5    1    3    3    0  502 -0.12674399601E+02 -0.85810690602E+02 -0.54843391810E+03  0.55526691775E+03  0.41800000000E+01 0.  1.
        -11    1    4    4    0    0 -0.38592629174E+02 -0.26923901286E+01 -0.15734924718E+03  0.16203526029E+03  0.00000000000E+00 0. -1.
         11    1    4    4    0    0  0.48364608784E+01  0.89487955498E+02 -0.38656612173E+03  0.39681841187E+03  0.00000000000E+00 0.  1.
</event>
<event>
 8    1  0.3528896E-009  0.8579803E+02  0.7561462E-02  0.1313359E+00
         -1   -1    0    0    0  501 -0.00000000000E+00  0.00000000000E+00  0.44304315387E+02  0.44304315387E+02  0.00000000000E+00 0.  1.
          1   -1    0    0  501    0  0.00000000000E+00 -0.00000000000E+00 -0.36419506709E+03  0.36419506709E+03  0.00000000000E+00 0. -1.
         25    2    1    2    0    0  0.15134648120E+02 -0.42480266363E+02 -0.25536864404E+03  0.28791388026E+03  0.12509047718E+03 0.  0.
         23    2    1    2    0    0 -0.15134648120E+02  0.42480266363E+02 -0.64522107657E+02  0.12058550222E+03  0.91346211548E+02 0.  0.
          5    1    3    3  502    0  0.13094149924E+02  0.11047315311E+02 -0.22599024339E+03  0.22667722083E+03  0.41800000000E+01 0.  1.
         -5    1    3    3    0  502  0.20404981956E+01 -0.53527581674E+02 -0.29378400657E+02  0.61236659428E+02  0.41800000000E+01 0.  1.
        -11    1    4    4    0    0 -0.50507184634E+02  0.85661981707E+01 -0.22185099437E+02  0.55825926663E+02  0.00000000000E+00 0.  1.
         11    1    4    4    0    0  0.35372536514E+02  0.33914068192E+02 -0.42337008219E+02  0.64759575552E+02  0.00000000000E+00 0. -1.
</event>
<event>
 8    1  0.3528896E-009  0.8697733E+02  0.7561462E-02  0.1310341E+00
          1   -1    0    0  501    0  0.00000000000E+00  0.00000000000E+00  0.25435255102E+03  0.25435255102E+03  0.00000000000E+00 0. -1.
         -1   -1    0    0    0  501 -0.00000000000E+00 -0.00000000000E+00 -0.54859317170E+02  0.54859317170E+02  0.00000000000E+00 0.  1.
         25    2    1    2    0    0  0.32190960526E+02  0.29926357521E+02  0.12572280259E+03  0.18271895879E+03  0.12509256572E+03 0.  0.
         23    2    1    2    0    0 -0.32190960526E+02 -0.29926357521E+02  0.73770431263E+02  0.12649290940E+03  0.92879140744E+02 0.  0.
          5    1    3    3  502    0  0.11193141144E+02  0.76162170168E+02  0.98076786549E+02  0.12474971356E+03  0.41800000000E+01 0. -1.
         -5    1    3    3    0  502  0.20997819381E+02 -0.46235812648E+02  0.27646016037E+02  0.57969245231E+02  0.41800000000E+01 0. -1.
        -11    1    4    4    0    0 -0.98656151670E+01 -0.18173833686E+02 -0.20372084277E+02  0.29028269174E+02  0.00000000000E+00 0.  1.
         11    1    4    4    0    0 -0.22325345359E+02 -0.11752523835E+02  0.94142515540E+02  0.97464640225E+02  0.00000000000E+00 0. -1.
</event>
<event>
 8    1  0.3528896E-009  0.8551276E+02  0.7561462E-02  0.1314097E+00
         -2   -1    0    0    0  501 -0.00000000000E+00  0.00000000000E+00  0.41071634615E+02  0.41071634615E+02  0.00000000000E+00 0.  1.
          2   -1    0    0  501    0  0.00000000000E+00 -0.00000000000E+00 -0.37657478533E+03  0.37657478533E+03  0.00000000000E+00 0. -1.
         25    2    1    2    0    0 -0.62207332415E+02  0.14387335019E+02 -0.16330822797E+03  0.21538648469E+03  0.12508002577E+03 0.  0.
         23    2    1    2    0    0  0.62207332415E+02 -0.14387335019E+02 -0.17219492275E+03  0.20225993526E+03  0.84742211301E+02 0.  0.
          5    1    3    3  502    0 -0.38066097285E+02  0.35279735816E+02 -0.33028161887E+01  0.52173446470E+02  0.41800000000E+01 0. -1.
         -5    1    3    3    0  502 -0.24141235129E+02 -0.20892400797E+02 -0.16000541178E+03  0.16321303822E+03  0.41800000000E+01 0. -1.
        -11    1    4    4    0    0  0.11864298774E+02 -0.31440835494E+02 -0.15904843182E+02  0.37178646541E+02  0.00000000000E+00 0.  1.
         11    1    4    4    0    0  0.50343033641E+02  0.17053500475E+02 -0.15629007956E+03  0.16508128872E+03  0.00000000000E+00 0. -1.
</event>
<event>
 8    1  0.3528896E-009  0.1191499E+03  0.7561462E-02  0.1244506E+00
          1   -1    0    0  501    0  0.00000000000E+00  0.00000000000E+00  0.63192374919E+03  0.63192374919E+03  0.00000000000E+00 0. -1.
         -1   -1    0    0    0  501 -0.00000000000E+00 -0.00000000000E+00 -0.31592908564E+02  0.31592908564E+02  0.00000000000E+00 0.  1.
         25    2    1    2    0    0 -0.19012208959E+02 -0.82244189252E+02  0.40389208770E+03  0.43116222330E+03  0.12508586465E+03 0.  0.
         23    2    1    2    0    0  0.19012208959E+02  0.82244189252E+02  0.19643875292E+03  0.23235443445E+03  0.90966086025E+02 0.  0.
          5    1    3    3  502    0 -0.15344917319E+02 -0.98493753132E+02  0.17357365010E+03  0.20020432139E+03  0.41800000000E+01 0.  1.
         -5    1    3    3    0  502 -0.36672916401E+01  0.16249563880E+02  0.23031843760E+03  0.23095790191E+03  0.41800000000E+01 0.  1.
        -11    1    4    4    0    0 -0.15825777929E+02  0.84950999096E+02  0.16015823969E+03  0.18198293666E+03  0.00000000000E+00 0. -1.
         11    1    4    4    0    0  0.34837986888E+02 -0.27068098435E+01  0.36280513230E+02  0.50371497795E+02  0.00000000000E+00 0.  1.
</event>
<event>
 8    1  0.3528896E-009  0.1379602E+03  0.7561462E-02  0.1216100E+00
         -3   -1    0    0    0  501 -0.00000000000E+00  0.00000000000E+00  0.84172286643E+03  0.84172286643E+03  0.00000000000E+00 0.  1.
          3   -1    0    0  501    0  0.00000000000E+00 -0.00000000000E+00 -0.31866852737E+02  0.31866852737E+02  0.00000000000E+00 0. -1.
         25    2    1    2    0    0 -0.78230243889E+02 -0.66728799267E+02  0.61006375719E+03  0.63118791253E+03  0.12509072456E+03 0.  0.
         23    2    1    2    0    0  0.78230243889E+02  0.66728799267E+02  0.19979225650E+03  0.24240180664E+03  0.90933967216E+02 0.  0.
          5    1    3    3  502    0 -0.10408509029E+03 -0.77945848685E+02  0.54210105537E+03  0.55749465287E+03  0.41800000000E+01 0.  1.
         -5    1    3    3    0  502  0.25854846397E+02  0.11217049418E+02  0.67962701826E+02  0.73693259660E+02  0.41800000000E+01 0.  1.
        -11    1    4    4    0    0  0.11929270217E+02  0.46503025382E+02  0.24493982524E+02  0.53896141211E+02  0.00000000000E+00 0. -1.
         11    1    4    4    0    0  0.66300973672E+02  0.20225773885E+02  0.17529827398E+03  0.18850566543E+03  0.00000000000E+00 0.  1.
</event>
<event>
 8    1  0.3528896E-009  0.1249884E+03  0.7561462E-02  0.1235087E+00
         -2   -1    0    0    0  501 -0.00000000000E+00  0.00000000000E+00  0.12491091535E+03  0.12491091535E+03  0.00000000000E+00 0.  1.
          2   -1    0    0  501    0  0.00000000000E+00 -0.00000000000E+00 -0.16949550386E+03  0.16949550386E+03  0.00000000000E+00 0. -1.
         25    2    1    2    0    0  0.66519239512E+02  0.57162753335E+02  0.14627551498E+02  0.15347086588E+03  0.12508777644E+03 0.  0.
         23    2    1    2    0    0 -0.66519239512E+02 -0.57162753335E+02 -0.59212140008E+02  0.14093555333E+03  0.93082560518E+02 0.  0.
          5    1    3    3  502    0 -0.32426162307E+02  0.40976001564E+02  0.45322469854E+01  0.52616559834E+02  0.41800000000E+01 0.  1.
         -5    1    3    3    0  502  0.98945401819E+02  0.16186751771E+02  0.10095304512E+02  0.10085430604E+03  0.41800000000E+01 0.  1.
        -11    1    4    4    0    0 -0.38403561886E+02 -0.57434604210E+02  0.65637733820E+01  0.69402092528E+02  0.00000000000E+00 0.  1.
         11    1    4    4    0    0 -0.28115677627E+02  0.27185087556E+00 -0.65775913390E+02  0.71533460797E+02  0.00000000000E+00 0. -1.
</event>
<event>
 8    1  0.3528896E-009  0.1545471E+03  0.7561462E-02  0.1194994E+00
          1   -1    0    0  501    0  0.00000000000E+00  0.00000000000E+00  0.13090777506E+04  0.13090777506E+04  0.00000000000E+00 0. -1.
         -1   -1    0    0    0  501 -0.00000000000E+00 -0.00000000000E+00 -0.32135892703E+02  0.32135892703E+02  0.00000000000E+00 0.  1.
         25    2    1    2    0    0 -0.56039802204E+02  0.10768631090E+03  0.10536611674E+04  0.10679826545E+04  0.12509313986E+03 0.  0.
         23    2    1    2    0    0  0.56039802204E+02 -0.10768631090E+03  0.22328069056E+03  0.27323098886E+03  0.10032001551E+03 0.  0.
          5    1    3    3  502    0 -0.44500004056E+01  0.12036579563E+03  0.76685288816E+03  0.77626577390E+03  0.41800000000E+01 0. -1.
         -5    1    3    3    0  502 -0.51589801799E+02 -0.12679484725E+02  0.28680827923E+03  0.29171688058E+03  0.41800000000E+01 0. -1.
        -11    1    4    4    0    0  0.67996550292E+02 -0.79165400839E+02  0.94492812036E+02  0.14078204100E+03  0.00000000000E+00 0. -1.
         11    1    4    4    0    0 -0.11956748087E+02 -0.28520910065E+02  0.12878787852E+03  0.13244894786E+03  0.00000000000E+00 0.  1.
</event>
<event>
 8    1  0.3528896E-009  0.1160834E+03  0.7561462E-02  0.1249702E+00
          2   -1    0    0  501    0  0.00000000000E+00  0.00000000000E+00  0.15611214721E+03  0.15611214721E+03  0.00000000000E+00 0.  1.
         -2   -1    0    0    0  501 -0.00000000000E+00 -0.00000000000E+00 -0.12610692197E+03  0.12610692197E+03  0.00000000000E+00 0. -1.
         25    2    1    2    0    0 -0.42536400924E+02 -0.53789088189E+01 -0.61495228268E+02  0.14584413990E+03  0.12510224611E+03 0.  0.
         23    2    1    2    0    0  0.42536400924E+02  0.53789088189E+01  0.91500453507E+02  0.13637492927E+03  0.91583351533E+02 0.  0.
          5    1    3    3  502    0  0.44411715695E+02  0.33436859500E+01 -0.19394419657E+02  0.48756503571E+02  0.41800000000E+01 0.  1.
         -5    1    3    3    0  502 -0.86948116618E+02 -0.87225947688E+01 -0.42100808611E+02  0.97087636333E+02  0.41800000000E+01 0.  1.
        -11    1    4    4    0    0 -0.28629101952E+02  0.21729673879E+01  0.17336116528E+02  0.33539353036E+02  0.00000000000E+00 0. -1.
         11    1    4    4    0    0  0.71165502875E+02  0.32059414309E+01  0.74164336979E+02  0.10283557623E+03  0.00000000000E+00 0.  1.
</event>
<event>
 8    1  0.3528896E-009  0.7729515E+02  0.7561462E-02  0.1336907E+00
         -1   -1    0    0    0  501 -0.00000000000E+00  0.00000000000E+00  0.49085935787E+02  0.49085935787E+02  0.00000000000E+00 0.  1.
          1   -1    0    0  501    0  0.00000000000E+00 -0.00000000000E+00 -0.23691939657E+03  0.23691939657E+03  0.00000000000E+00 0. -1.
         25    2    1    2    0    0  0.72725391414E+01 -0.27456259872E+01 -0.11749761974E+03  0.17179490308E+03  0.12508944717E+03 0.  0.
         23    2    1    2    0    0 -0.72725391414E+01  0.27456259872E+01 -0.70335841048E+02  0.11421042928E+03  0.89646323588E+02 0.  0.
          5    1    3    3  502    0 -0.52437251653E+02  0.23411355969E+02 -0.38385182164E+02  0.69200083519E+02  0.41800000000E+01 0. -1.
         -5    1    3    3    0  502  0.59709790794E+02 -0.26156981956E+02 -0.79112437571E+02  0.10259481956E+03  0.41800000000E+01 0. -1.
        -11    1    4    4    0    0 -0.13707430492E+02 -0.10298874772E+02 -0.88949969389E+02  0.90587292302E+02  0.00000000000E+00 0. -1.
         11    1    4    4    0    0  0.64348913505E+01  0.13044500760E+02  0.18614128341E+02  0.23623136978E+02  0.00000000000E+00 0.  1.
</event>
<event>
 8    1  0.3528896E-009  0.7378562E+02  0.7561462E-02  0.1347673E+00
         -2   -1    0    0    0  501 -0.00000000000E+00  0.00000000000E+00  0.98510901192E+02  0.98510901192E+02  0.00000000000E+00 0.  1.
          2   -1    0    0  501    0  0.00000000000E+00 -0.00000000000E+00 -0.13934257295E+03  0.13934257295E+03  0.00000000000E+00 0. -1.
         25    2    1    2    0    0  0.11301558823E+02  0.30856028074E+02  0.65458597232E+01  0.12950169389E+03  0.12509204907E+03 0.  0.
         23    2    1    2    0    0 -0.11301558823E+02 -0.30856028074E+02 -0.47377531478E+02  0.10835178024E+03  0.91736896028E+02 0.  0.
          5    1    3    3  502    0 -0.33371133601E+02  0.22858979625E+02 -0.45030498590E+02  0.60674407377E+02  0.41800000000E+01 0.  1.
         -5    1    3    3    0  502  0.44672692424E+02  0.79970484494E+01  0.51576358314E+02  0.68827286516E+02  0.41800000000E+01 0.  1.
        -11    1    4    4    0    0 -0.29345216944E+02 -0.49483407265E+01 -0.65503430428E+02  0.71946697153E+02  0.00000000000E+00 0. -1.
         11    1    4    4    0    0  0.18043658121E+02 -0.25907687348E+02  0.18125898950E+02  0.36405083091E+02  0.00000000000E+00 0.  1.
</event>
<event>
 8    1  0.3528896E-009  0.9151262E+02  0.7561462E-02  0.1299229E+00
         -1   -1    0    0    0  501 -0.00000000000E+00  0.00000000000E+00  0.52432122811E+03  0.52432122811E+03  0.00000000000E+00 0.  1.
          1   -1    0    0  501    0  0.00000000000E+00 -0.00000000000E+00 -0.38530638843E+02  0.38530638843E+02  0.00000000000E+00 0. -1.
         25    2    1    2    0    0 -0.20859531996E+02 -0.42405162017E+02  0.10615299282E+03  0.17073202657E+03  0.12509056388E+03 0.  0.
         23    2    1    2    0    0  0.20859531996E+02  0.42405162017E+02  0.37963759644E+03  0.39211984038E+03  0.86022943145E+02 0.  0.
          5    1    3    3  502    0 -0.19749908178E+02  0.20944242742E+02  0.10314006084E+03  0.10716372860E+03  0.41800000000E+01 0. -1.
         -5    1    3    3    0  502 -0.11096238188E+01 -0.63349404759E+02  0.30129319866E+01  0.63568297975E+02  0.41800000000E+01 0. -1.
        -11    1    4    4    0    0  0.48216877755E+02  0.12301147192E+02  0.28185076569E+03  0.28620978258E+03  0.00000000000E+00 0.  1.
         11    1    4    4    0    0 -0.27357345758E+02  0.30104014826E+02  0.97786830751E+02  0.10591005780E+03  0.00000000000E+00 0. -1.
</event>
<event>
 8    1  0.3528896E-009  0.8135543E+02  0.7561462E-02  0.1325248E+00
          1   -1    0    0  501    0  0.00000000000E+00  0.00000000000E+00  0.17550237513E+03  0.17550237513E+03  0.00000000000E+00 0. -1.
         -1   -1    0    0    0  501 -0.00000000000E+00 -0.00000000000E+00 -0.88046123365E+02  0.88046123365E+02  0.00000000000E+00 0.  1.
         25    2    1    2    0    0  0.35786699592E+02 -0.52068814806E+02  0.65334471843E+02  0.15461955119E+03  0.12508702193E+03 0.  0.
         23    2    1    2    0    0 -0.35786699592E+02  0.52068814806E+02  0.22121779925E+02  0.10892894731E+03  0.85931909509E+02 0.  0.
          5    1    3    3  502    0  0.43012243041E+02  0.32841869375E+01 -0.23739927091E+02  0.49415538786E+02  0.41800000000E+01 0. -1.
         -5    1    3    3    0  502 -0.72255434484E+01 -0.55353001743E+02  0.89074398933E+02  0.10520401240E+03  0.41800000000E+01 0. -1.
        -11    1    4    4    0    0 -0.25938420016E+02  0.41560998513E+02  0.54626388406E+02  0.73376839266E+02  0.00000000000E+00 0.  1.
         11    1    4    4    0    0 -0.98482795758E+01  0.10507816293E+02 -0.32504608481E+02  0.35552108044E+02  0.00000000000E+00 0. -1.
</event>
<event>
 8    1  0.3528896E-009  0.9410122E+02  0.7561462E-02  0.1293213E+00
          1   -1    0    0  501    0  0.00000000000E+00  0.00000000000E+00  0.26138546120E+03  0.26138546120E+03  0.00000000000E+00 0. -1.
         -1   -1    0    0    0  501 -0.00000000000E+00 -0.00000000000E+00 -0.60015629028E+02  0.60015629028E+02  0.00000000000E+00 0.  1.
         25    2    1    2    0    0 -0.29604787096E+02  0.52898123124E+02  0.94290779852E+02  0.16796856292E+03  0.12509209453E+03 0.  0.
         23    2    1    2    0    0  0.29604787096E+02 -0.52898123124E+02  0.10707905232E+03  0.15343252731E+03  0.91656762668E+02 0.  0.
          5    1    3    3  502    0 -0.29999241778E+02  0.87443701430E+02  0.95719826353E+02  0.13313944939E+03  0.41800000000E+01 0. -1.
         -5    1    3    3    0  502  0.39445468210E+00 -0.34545578306E+02 -0.14290465012E+01  0.34829113524E+02  0.41800000000E+01 0. -1.
        -11    1    4    4    0    0  0.11872445687E+02 -0.26769696071E+02 -0.10940730573E+02  0.31261336820E+02  0.00000000000E+00 0.  1.
         11    1    4    4    0    0  0.17732341409E+02 -0.26128427053E+02  0.11801978289E+03  0.12217119049E+03  0.00000000000E+00 0. -1.
</event>
<event>
 8    1  0.3528896E-009  0.2399250E+03  0.7561462E-02  0.1119843E+00
          2   -1    0    0  501    0  0.00000000000E+00  0.00000000000E+00  0.11488764374E+04  0.11488764374E+04  0.00000000000E+00 0.  1.
         -2   -1    0    0    0  501 -0.00000000000E+00 -0.00000000000E+00 -0.57320537463E+02  0.57320537463E+02  0.00000000000E+00 0. -1.
         25    2    1    2    0    0  0.20490287463E+03  0.63946119417E+02  0.77116475522E+03  0.81019495262E+03  0.12508591978E+03 0.  0.
         23    2    1    2    0    0 -0.20490287463E+03 -0.63946119417E+02  0.32039114471E+03  0.39600202224E+03  0.89960112207E+02 0.  0.
          5    1    3    3  502    0  0.76041555053E+01 -0.28922116360E+02  0.10294624413E+03  0.10728333317E+03  0.41800000000E+01 0. -1.
         -5    1    3    3    0  502  0.19729871913E+03  0.92868235778E+02  0.66821851109E+03  0.70291161944E+03  0.41800000000E+01 0. -1.
        -11    1    4    4    0    0 -0.95185831175E+02  0.15031694749E+02  0.11392216742E+03  0.14921311783E+03  0.00000000000E+00 0. -1.
         11    1    4    4    0    0 -0.10971704346E+03 -0.78977814167E+02  0.20646897729E+03  0.24678890441E+03  0.00000000000E+00 0.  1.
</event>
<event>
 8    1  0.3528896E-009  0.1060728E+03  0.7561462E-02  0.1268020E+00
         -2   -1    0    0    0  501 -0.00000000000E+00  0.00000000000E+00  0.41096471134E+02  0.41096471134E+02  0.00000000000E+00 0.  1.
          2   -1    0    0  501    0  0.00000000000E+00 -0.00000000000E+00 -0.38184775708E+03  0.38184775708E+03  0.00000000000E+00 0. -1.
         25    2    1    2    0    0  0.31973640068E+02  0.18549283178E+02 -0.27294650680E+03  0.30251235557E+03  0.12509012805E+03 0.  0.
         23    2    1    2    0    0 -0.31973640068E+02 -0.18549283178E+02 -0.67804779152E+02  0.12043187264E+03  0.92411894834E+02 0.  0.
          5    1    3    3  502    0 -0.44185918519E+02  0.25004921718E+02 -0.78933932967E+02  0.93945088638E+02  0.41800000000E+01 0. -1.
         -5    1    3    3    0  502  0.76159558587E+02 -0.64556385398E+01 -0.19401257383E+03  0.20856726694E+03  0.41800000000E+01 0. -1.
        -11    1    4    4    0    0 -0.65791209017E+01  0.29545497328E+02 -0.57637555641E+02  0.65102296921E+02  0.00000000000E+00 0. -1.
         11    1    4    4    0    0 -0.25394519167E+02 -0.48094780506E+02 -0.10167223511E+02  0.55329575722E+02  0.00000000000E+00 0.  1.
</event>
<event>
 8    1  0.3528896E-009  0.9225202E+02  0.7561462E-02  0.1297488E+00
         -1   -1    0    0    0  501 -0.00000000000E+00  0.00000000000E+00  0.67356432035E+03  0.67356432035E+03  0.00000000000E+00 0. -1.
          1   -1    0    0  501    0  0.00000000000E+00 -0.00000000000E+00 -0.24845307483E+02  0.24845307483E+02  0.00000000000E+00 0.  1.
         25    2    1    2    0    0  0.49277682986E+02  0.22220560204E+02  0.48409979521E+03  0.50291404155E+03  0.12509147904E+03 0.  0.
         23    2    1    2    0    0 -0.49277682986E+02 -0.22220560204E+02  0.16461921766E+03  0.19549558628E+03  0.90537252545E+02 0.  0.
          5    1    3    3  502    0  0.29987632428E+02  0.49728467962E+02  0.45367515977E+03  0.45739567294E+03  0.41800000000E+01 0. -1.
         -5    1    3    3    0  502  0.19290050558E+02 -0.27507907758E+02  0.30424635436E+02  0.45518368613E+02  0.41800000000E+01 0. -1.
        -11    1    4    4    0    0  0.19957940021E+02 -0.92049639868E+01  0.73604537273E+01  0.23178158058E+02  0.00000000000E+00 0.  1.
         11    1    4    4    0    0 -0.69235623006E+02 -0.13015596217E+02  0.15725876393E+03  0.17231742823E+03  0.00000000000E+00 0. -1.
</event>
<event>
 8    1  0.3528896E-009  0.1554705E+03  0.7561462E-02  0.1193908E+00
         -2   -1    0    0    0  501 -0.00000000000E+00  0.00000000000E+00  0.30547370505E+02  0.30547370505E+02  0.00000000000E+00 0.  1.
          2   -1    0    0  501    0  0.00000000000E+00 -0.00000000000E+00 -0.98778383294E+03  0.98778383294E+03  0.00000000000E+00 0. -1.
         25    2    1    2    0    0 -0.11692521482E+03  0.62268378533E+02 -0.42215001663E+03  0.45978839489E+03  0.12508347095E+03 0.  0.
         23    2    1    2    0    0  0.11692521482E+03 -0.62268378533E+02 -0.53508644580E+03  0.55854280856E+03  0.90020595881E+02 0.  0.
          5    1    3    3  502    0  0.11507438253E+02 -0.21345989390E+02 -0.10052314118E+03  0.10349128809E+03  0.41800000000E+01 0.  1.
         -5    1    3    3    0  502 -0.12843265307E+03  0.83614367922E+02 -0.32162687546E+03  0.35629710680E+03  0.41800000000E+01 0.  1.
        -11    1    4    4    0    0  0.20209180595E+02 -0.57794442897E+01 -0.13307216442E+02  0.24877599685E+02  0.00000000000E+00 0.  1.
         11    1    4    4    0    0  0.96716034226E+02 -0.56488934243E+02 -0.52177922936E+03  0.53366520887E+03  0.00000000000E+00 0. -1.
</event>
<event>
 8    1  0.3528896E-009  0.6809269E+02  0.7561462E-02  0.1366702E+00
          3   -1    0    0  501    0  0.00000000000E+00  0.00000000000E+00  0.19410589888E+03  0.19410589888E+03  0.00000000000E+00 0. -1.
         -3   -1    0    0    0  501 -0.00000000000E+00 -0.00000000000E+00 -0.87874571950E+02  0.87874571950E+02  0.00000000000E+00 0.  1.
         25    2    1    2    0    0  0.62768322997E+02 -0.10967560498E+02  0.22168301806E+02  0.14212601186E+03  0.12509284507E+03 0.  0.
         23    2    1    2    0    0 -0.62768322997E+02  0.10967560498E+02  0.84063025129E+02  0.13985445897E+03  0.91828795841E+02 0.  0.
          5    1    3    3  502    0  0.43684623244E+02 -0.71145139544E+01 -0.50207254981E+02  0.67061191978E+02  0.41800000000E+01 0.  1.
         -5    1    3    3    0  502  0.19083699753E+02 -0.38530465434E+01  0.72375556787E+02  0.75064819884E+02  0.41800000000E+01 0.  1.
        -11    1    4    4    0    0 -0.52725046890E+01  0.13264650963E+02  0.80981968089E+02  0.82230343708E+02  0.00000000000E+00 0. -1.
         11    1    4    4    0    0 -0.57495818308E+02 -0.22970904648E+01  0.30810570400E+01  0.57624115265E+02  0.00000000000E+00 0.  1.
</event>
<event>
 8    1  0.3528896E-009  0.1600902E+03  0.7561462E-02  0.1188595E+00
         -1   -1    0    0    0  501 -0.00000000000E+00  0.00000000000E+00  0.34667897276E+02  0.34667897276E+02  0.00000000000E+00 0.  1.
          1   -1    0    0  501    0  0.00000000000E+00 -0.00000000000E+00 -0.87820368261E+03  0.87820368261E+03  0.00000000000E+00 0. -1.
         25    2    1    2    0    0 -0.12651755372E+03 -0.31566600860E+02 -0.34271569719E+03  0.38743314543E+03  0.12508897388E+03 0.  0.
         23    2    1    2    0    0  0.12651755372E+03  0.31566600860E+02 -0.50082008814E+03  0.52543843446E+03  0.90893597286E+02 0.  0.
          5    1    3    3  502    0 -0.86638517340E+02 -0.73545142161E+02 -0.16435356251E+03  0.19986166849E+03  0.41800000000E+01 0.  1.
         -5    1    3    3    0  502 -0.39879036384E+02  0.41978541301E+02 -0.17836213468E+03  0.18757147694E+03  0.41800000000E+01 0.  1.
        -11    1    4    4    0    0  0.16455988661E+02 -0.20800118839E+02 -0.34869124061E+02  0.43809819896E+02  0.00000000000E+00 0.  1.
         11    1    4    4    0    0  0.11006156506E+03  0.52366719699E+02 -0.46595096408E+03  0.48162861456E+03  0.00000000000E+00 0. -1.
</event>
<event>
 8    1  0.3528896E-009  0.1036927E+03  0.7561462E-02  0.1272717E+00
          1   -1    0    0  501    0  0.00000000000E+00  0.00000000000E+00  0.27926018844E+03  0.27926018844E+03  0.00000000000E+00 0. -1.
         -1   -1    0    0    0  501 -0.00000000000E+00 -0.00000000000E+00 -0.50911627765E+02  0.50911627765E+02  0.00000000000E+00 0.  1.
         25    2    1    2    0    0  0.40184928293E+02  0.19977614419E+02  0.99938949725E+02  0.16627908647E+03  0.12508799857E+03 0.  0.
         23    2    1    2    0    0 -0.40184928293E+02 -0.19977614419E+02  0.12840961095E+03  0.16389272973E+03  0.91421360387E+02 0.  0.
          5    1    3    3  502    0 -0.23696514519E+02  0.34582123561E+02 -0.50665713878E+01  0.42433366776E+02  0.41800000000E+01 0. -1.
         -5    1    3    3    0  502  0.63881442812E+02 -0.14604509142E+02  0.10500552111E+03  0.12384571970E+03  0.41800000000E+01 0. -1.
        -11    1    4    4    0    0 -0.41331153778E+02 -0.52630659924E+02  0.69188752158E+02  0.96256605289E+02  0.00000000000E+00 0.  1.
         11    1    4    4    0    0  0.11462254856E+01  0.32653045504E+02  0.59220858791E+02  0.67636124442E+02  0.00000000000E+00 0. -1.
</event>
<event>
 8    1  0.3528896E-009  0.1925602E+03  0.7561462E-02  0.1156172E+00
          1   -1    0    0  501    0  0.00000000000E+00  0.00000000000E+00  0.56546650410E+02  0.56546650410E+02  0.00000000000E+00 0. -1.
         -1   -1    0    0    0  501 -0.00000000000E+00 -0.00000000000E+00 -0.10388554336E+04  0.10388554336E+04  0.00000000000E+00 0.  1.
         25    2    1    2    0    0  0.10754742540E+03 -0.15460874372E+03 -0.74811152210E+03  0.78153027137E+03  0.12509357789E+03 0.  0.
         23    2    1    2    0    0 -0.10754742540E+03  0.15460874372E+03 -0.23419726109E+03  0.31387181263E+03  0.90536430899E+02 0.  0.
          5    1    3    3  502    0  0.45574671256E+02 -0.70228943307E+02 -0.13055887193E+03  0.15515233346E+03  0.41800000000E+01 0. -1.
         -5    1    3    3    0  502  0.61972754147E+02 -0.84379800412E+02 -0.61755265016E+03  0.62637793791E+03  0.41800000000E+01 0. -1.
        -11    1    4    4    0    0 -0.73900480509E+02  0.57164394023E+02 -0.58709539347E+02  0.11034427477E+03  0.00000000000E+00 0. -1.
         11    1    4    4    0    0 -0.33646944894E+02  0.97444349696E+02 -0.17548772174E+03  0.20352753787E+03  0.00000000000E+00 0.  1.
</event>
<event>
 8    1  0.3528896E-009  0.1337494E+03  0.7561462E-02  0.1221996E+00
         -2   -1    0    0    0  501 -0.00000000000E+00  0.00000000000E+00  0.17500940934E+02  0.17500940934E+02  0.00000000000E+00 0. -1.
          2   -1    0    0  501    0  0.00000000000E+00 -0.00000000000E+00 -0.12588222192E+04  0.12588222192E+04  0.00000000000E+00 0.  1.
         25    2    1    2    0    0  0.18774483822E+02  0.99612164787E+02 -0.64861741663E+03  0.66830187823E+03  0.12509109748E+03 0.  0.
         23    2    1    2    0    0 -0.18774483822E+02 -0.99612164787E+02 -0.59270386161E+03  0.60802128188E+03  0.90094101009E+02 0.  0.
          5    1    3    3  502    0 -0.89292512883E+01  0.10593053734E+03 -0.61478602845E+03  0.62392334742E+03  0.41800000000E+01 0.  1.
         -5    1    3    3    0  502  0.27703735111E+02 -0.63183725555E+01 -0.33831388176E+02  0.44378530809E+02  0.41800000000E+01 0.  1.
        -11    1    4    4    0    0 -0.52015567054E+02 -0.73871495066E+02 -0.46100346765E+03  0.46977315183E+03  0.00000000000E+00 0. -1.
         11    1    4    4    0    0  0.33241083232E+02 -0.25740669721E+02 -0.13170039396E+03  0.13824813005E+03  0.00000000000E+00 0.  1.
</event>
<event>
 8    1  0.3528896E-009  0.1092318E+03  0.7561462E-02  0.1261999E+00
          1   -1    0    0  501    0  0.00000000000E+00  0.00000000000E+00  0.61005300031E+03  0.61005300031E+03  0.00000000000E+00 0. -1.
         -1   -1    0    0    0  501 -0.00000000000E+00 -0.00000000000E+00 -0.43454546097E+02  0.43454546097E+02  0.00000000000E+00 0.  1.
         25    2    1    2    0    0 -0.36484776215E+02 -0.65544752759E+02  0.49248250191E+03  0.51362825191E+03  0.12509081884E+03 0.  0.
         23    2    1    2    0    0  0.36484776215E+02  0.65544752759E+02  0.74115952301E+02  0.13987929450E+03  0.91900974614E+02 0.  0.
          5    1    3    3  502    0 -0.51746065631E+02 -0.90381712977E+02  0.45015246443E+03  0.46206192549E+03  0.41800000000E+01 0.  1.
         -5    1    3    3    0  502  0.15261289416E+02  0.24836960218E+02  0.42330037480E+02  0.51566326421E+02  0.41800000000E+01 0.  1.
        -11    1    4    4    0    0  0.45068727299E+02  0.52816926982E+02  0.55922691792E+01  0.69656955365E+02  0.00000000000E+00 0.  1.
         11    1    4    4    0    0 -0.85839510835E+01  0.12727825777E+02  0.68523683122E+02  0.70222339137E+02  0.00000000000E+00 0. -1.
</event>
<event>
 8    1  0.3528896E-009  0.7826869E+02  0.7561462E-02  0.1334038E+00
          2   -1    0    0  501    0  0.00000000000E+00  0.00000000000E+00  0.22983335868E+03  0.22983335868E+03  0.00000000000E+00 0.  1.
         -2   -1    0    0    0  501 -0.00000000000E+00 -0.00000000000E+00 -0.56510327541E+02  0.56510327541E+02  0.00000000000E+00 0. -1.
         25    2    1    2    0    0  0.14973377025E+02 -0.16472454094E+02  0.63110805799E+02  0.14187005289E+03  0.12509434174E+03 0.  0.
         23    2    1    2    0    0 -0.14973377025E+02  0.16472454094E+02  0.11021222534E+03  0.14447363332E+03  0.90721289392E+02 0.  0.
          5    1    3    3  502    0  0.16028099017E+02 -0.49618651103E+02  0.86490795907E+02  0.10107937807E+03  0.41800000000E+01 0.  1.
         -5    1    3    3    0  502 -0.10547219917E+01  0.33146197009E+02 -0.23379990108E+02  0.40790674818E+02  0.41800000000E+01 0.  1.
        -11    1    4    4    0    0  0.67007782477E+00 -0.25758048917E+02  0.38275267987E+00  0.25769605894E+02  0.00000000000E+00 0. -1.
         11    1    4    4    0    0 -0.15643454850E+02  0.42230503011E+02  0.10982947266E+03  0.11870402743E+03  0.00000000000E+00 0.  1.
</event>
<event>
 8    1  0.3528896E-009  0.1365100E+03  0.7561462E-02  0.1218104E+00
          1   -1    0    0  501    0  0.00000000000E+00  0.00000000000E+00  0.80549059206E+03  0.80549059206E+03  0.00000000000E+00 0. -1.
         -1   -1    0    0    0  501 -0.00000000000E+00 -0.00000000000E+00 -0.34393879615E+02  0.34393879615E+02  0.00000000000E+00 0.  1.
         25    2    1    2    0    0 -0.92661896626E+02  0.84958330372E+02  0.43121161912E+03  0.46625456943E+03  0.12508284482E+03 0.  0.
         23    2    1    2    0    0  0.92661896626E+02 -0.84958330372E+02  0.33988509332E+03  0.37362990224E+03  0.90957584610E+02 0.  0.
          5    1    3    3  502    0 -0.10534431419E+03  0.67800886881E+02  0.21438052976E+03  0.24833620101E+03  0.41800000000E+01 0. -1.
         -5    1    3    3    0  502  0.12682417560E+02  0.17157443491E+02  0.21683108936E+03  0.21791836842E+03  0.41800000000E+01 0. -1.
        -11    1    4    4    0    0  0.66239113645E+02 -0.56093391398E+02  0.10844251316E+03  0.13890236642E+03  0.00000000000E+00 0.  1.
         11    1    4    4    0    0  0.26422782982E+02 -0.28864938974E+02  0.23144258016E+03  0.23472753582E+03  0.00000000000E+00 0. -1.
</event>
<event>
 8    1  0.3528896E-009  0.7815260E+02  0.7561462E-02  0.1334377E+00
         -2   -1    0    0    0  501 -0.00000000000E+00  0.00000000000E+00  0.64799808623E+02  0.64799808623E+02  0.00000000000E+00 0.  1.
          2   -1    0    0  501    0  0.00000000000E+00 -0.00000000000E+00 -0.25159652513E+03  0.25159652513E+03  0.00000000000E+00 0. -1.
         25    2    1    2    0    0 -0.48842343472E+02  0.24311664105E+02 -0.56325409851E+02  0.14763729676E+03  0.12509031966E+03 0.  0.
         23    2    1    2    0    0  0.48842343472E+02 -0.24311664105E+02 -0.13047130665E+03  0.16875903699E+03  0.92088105519E+02 0.  0.
          5    1    3    3  502    0 -0.37067560688E+02  0.18899871392E+02  0.35471943262E+02  0.54835575612E+02  0.41800000000E+01 0.  1.
         -5    1    3    3    0  502 -0.11774782784E+02  0.54117927127E+01 -0.91797353113E+02  0.92801721151E+02  0.41800000000E+01 0.  1.
        -11    1    4    4    0    0  0.30144920472E+02 -0.56275491154E+02 -0.53310638698E+02  0.83172539538E+02  0.00000000000E+00 0.  1.
         11    1    4    4    0    0  0.18697423000E+02  0.31963827049E+02 -0.77160667957E+02  0.85586497451E+02  0.00000000000E+00 0. -1.
</event>
<event>
 8    1  0.3528896E-009  0.7522213E+02  0.7561462E-02  0.1343185E+00
         -1   -1    0    0    0  501 -0.00000000000E+00  0.00000000000E+00  0.41440106577E+03  0.41440106577E+03  0.00000000000E+00 0.  1.
          1   -1    0    0  501    0  0.00000000000E+00 -0.00000000000E+00 -0.31570201827E+02  0.31570201827E+02  0.00000000000E+00 0. -1.
         25    2    1    2    0    0  0.18846605764E+02  0.83504612210E+01  0.27817570130E+03  0.30570251504E+03  0.12508949661E+03 0.  0.
         23    2    1    2    0    0 -0.18846605764E+02 -0.83504612210E+01  0.10465516264E+03  0.14026875255E+03  0.91091685254E+02 0.  0.
          5    1    3    3  502    0 -0.16781538077E+02 -0.62084300097E+01  0.26374781451E+03  0.26438711520E+03  0.41800000000E+01 0.  1.
         -5    1    3    3    0  502  0.35628143842E+02  0.14558891231E+02  0.14427886788E+02  0.41315399848E+02  0.41800000000E+01 0.  1.
        -11    1    4    4    0    0 -0.74510590930E+01 -0.49806775061E+02  0.58497788796E+02  0.77189535674E+02  0.00000000000E+00 0. -1.
         11    1    4    4    0    0 -0.11395546671E+02  0.41456313840E+02  0.46157373846E+02  0.63079216874E+02  0.00000000000E+00 0.  1.
</event>
<event>
 8    1  0.3528896E-009  0.5770947E+02  0.7561462E-02  0.1407703E+00
         -1   -1    0    0    0  501 -0.00000000000E+00  0.00000000000E+00  0.83856273141E+02  0.83856273141E+02  0.00000000000E+00 0.  1.
          1   -1    0    0  501    0  0.00000000000E+00 -0.00000000000E+00 -0.14108122680E+03  0.14108122680E+03  0.00000000000E+00 0. -1.
         25    2    1    2    0    0  0.50515975978E+01 -0.17871660385E+01 -0.33301734713E+02  0.12955775606E+03  0.12508994372E+03 0.  0.
         23    2    1    2    0    0 -0.50515975978E+01  0.17871660385E+01 -0.23923218943E+02  0.95379743882E+02  0.92175173109E+02 0.  0.
          5    1    3    3  502    0  0.29268494782E+02 -0.24272912189E+02 -0.70139867783E+02  0.79893006613E+02  0.41800000000E+01 0.  1.
         -5    1    3    3    0  502 -0.24216897185E+02  0.22485746151E+02  0.36838133070E+02  0.49664749444E+02  0.41800000000E+01 0.  1.
        -11    1    4    4    0    0 -0.22676877619E+02  0.95390819193E+01  0.29605609096E+02  0.38493206574E+02  0.00000000000E+00 0.  1.
         11    1    4    4    0    0  0.17625280022E+02 -0.77519158808E+01 -0.53528828038E+02  0.56886537307E+02  0.00000000000E+00 0. -1.
</event>
<event>
 8    1  0.3528896E-009  0.9293029E+02  0.7561462E-02  0.1295907E+00
         -2   -1    0    0    0  501 -0.00000000000E+00  0.00000000000E+00  0.45777934258E+02  0.45777934258E+02  0.00000000000E+00 0. -1.
          2   -1    0    0  501    0  0.00000000000E+00 -0.00000000000E+00 -0.43685353384E+03  0.43685353384E+03  0.00000000000E+00 0.  1.
         25    2    1    2    0    0  0.58133275240E+02  0.28655992990E+02 -0.32019726239E+03  0.34982073083E+03  0.12509042030E+03 0.  0.
         23    2    1    2    0    0 -0.58133275240E+02 -0.28655992990E+02 -0.70878337186E+02  0.13281073726E+03  0.91729546089E+02 0.  0.
          5    1    3    3  502    0  0.56848885620E+02  0.51289497167E+02 -0.31748009869E+03  0.32660908404E+03  0.41800000000E+01 0.  1.
         -5    1    3    3    0  502  0.12843896196E+01 -0.22633504177E+02 -0.27171637035E+01  0.23211646789E+02  0.41800000000E+01 0.  1.
        -11    1    4    4    0    0 -0.47132804610E+01 -0.32245067302E+02  0.11504185662E+02  0.34558727780E+02  0.00000000000E+00 0. -1.
         11    1    4    4    0    0 -0.53419994779E+02  0.35890743121E+01 -0.82382522849E+02  0.98252009483E+02  0.00000000000E+00 0.  1.
</event>
<event>
 8    1  0.3528896E-009  0.9509802E+02  0.7561462E-02  0.1290955E+00
          3   -1    0    0  501    0  0.00000000000E+00  0.00000000000E+00  0.53056280406E+02  0.53056280406E+02  0.00000000000E+00 0. -1.
         -3   -1    0    0    0  501 -0.00000000000E+00 -0.00000000000E+00 -0.30163958504E+03  0.30163958504E+03  0.00000000000E+00 0.  1.
         25    2    1    2    0    0  0.41459496838E+02 -0.26303451767E+01 -0.20716383614E+03  0.24554293904E+03  0.12509464943E+03 0.  0.
         23    2    1    2    0    0 -0.41459496838E+02  0.26303451767E+01 -0.41419468496E+02  0.10915292640E+03  0.92048793465E+02 0.  0.
          5    1    3    3  502    0  0.60057445143E+02  0.16714401524E+02 -0.20917819205E+03  0.21831000061E+03  0.41800000000E+01 0.  1.
         -5    1    3    3    0  502 -0.18597948305E+02 -0.19344746700E+02  0.20143559130E+01  0.27232938435E+02  0.41800000000E+01 0.  1.
        -11    1    4    4    0    0  0.20387224685E+02  0.27214610304E+02 -0.92937896799E+01  0.35251219426E+02  0.00000000000E+00 0. -1.
         11    1    4    4    0    0 -0.61846721523E+02 -0.24584265127E+02 -0.32125678816E+02  0.73901706979E+02  0.00000000000E+00 0.  1.
</event>
<event>
 8    1  0.3528896E-009  0.2565096E+03  0.7561462E-02  0.1109259E+00
          2   -1    0    0  501    0  0.00000000000E+00  0.00000000000E+00  0.29047838707E+03  0.29047838707E+03  0.00000000000E+00 0. -1.
         -2   -1    0    0    0  501 -0.00000000000E+00 -0.00000000000E+00 -0.24521873887E+03  0.24521873887E+03  0.00000000000E+00 0.  1.
         25    2    1    2    0    0  0.17004125356E+03 -0.17070961099E+03  0.56547005717E+02  0.27731022346E+03  0.12509035527E+03 0.  0.
         23    2    1    2    0    0 -0.17004125356E+03  0.17070961099E+03 -0.11287357514E+02  0.25838690248E+03  0.92631461902E+02 0.  0.
          5    1    3    3  502    0  0.13276921580E+03 -0.69334830578E+02  0.75150377129E+02  0.16763065047E+03  0.41800000000E+01 0.  1.
         -5    1    3    3    0  502  0.37272037763E+02 -0.10137478041E+03 -0.18603371412E+02  0.10967957299E+03  0.41800000000E+01 0.  1.
        -11    1    4    4    0    0 -0.20499696795E+02  0.74502823979E+02 -0.21717551764E+02  0.80265561756E+02  0.00000000000E+00 0.  1.
         11    1    4    4    0    0 -0.14954155677E+03  0.96206787012E+02  0.10430194249E+02  0.17812134072E+03  0.00000000000E+00 0. -1.
</event>
<event>
 8    1  0.3528896E-009  0.6382612E+02  0.7561462E-02  0.1382442E+00
          2   -1    0    0  501    0  0.00000000000E+00  0.00000000000E+00  0.26061228319E+03  0.26061228319E+03  0.00000000000E+00 0. -1.
         -2   -1    0    0    0  501 -0.00000000000E+00 -0.00000000000E+00 -0.52622078324E+02  0.52622078324E+02  0.00000000000E+00 0.  1.
         25    2    1    2    0    0 -0.18256645949E+02  0.10205492371E+02  0.65060181803E+02  0.14253839149E+03  0.12508760369E+03 0.  0.
         23    2    1    2    0    0  0.18256645949E+02 -0.10205492371E+02  0.14293002307E+03  0.17069597002E+03  0.90943199267E+02 0.  0.
          5    1    3    3  502    0  0.21996957436E+02  0.16777278086E+02 -0.28776210739E+02  0.40135843094E+02  0.41800000000E+01 0.  1.
         -5    1    3    3    0  502 -0.40253603385E+02 -0.65717857144E+01  0.93836392542E+02  0.10240254840E+03  0.41800000000E+01 0.  1.
        -11    1    4    4    0    0  0.35309836065E+02  0.52015264310E+01  0.11835436650E+02  0.37602100484E+02  0.00000000000E+00 0.  1.
         11    1    4    4    0    0 -0.17053190116E+02 -0.15407018802E+02  0.13109458642E+03  0.13309386954E+03  0.00000000000E+00 0. -1.
</event>
<event>
 8    1  0.3528896E-009  0.1790707E+03  0.7561462E-02  0.1168705E+00
         -1   -1    0    0    0  501 -0.00000000000E+00  0.00000000000E+00  0.92542662180E+02  0.92542662180E+02  0.00000000000E+00 0.  1.
          1   -1    0    0  501    0  0.00000000000E+00 -0.00000000000E+00 -0.56358143872E+03  0.56358143872E+03  0.00000000000E+00 0. -1.
         25    2    1    2    0    0  0.16869681707E+03  0.39085403644E+02 -0.98231052868E+02  0.23512392259E+03  0.12509050468E+03 0.  0.
         23    2    1    2    0    0 -0.16869681707E+03 -0.39085403644E+02 -0.37280772367E+03  0.42100017831E+03  0.90935507036E+02 0.  0.
          5    1    3    3  502    0  0.48686552605E+02  0.34376447768E+02 -0.98201755913E+02  0.11494858777E+03  0.41800000000E+01 0.  1.
         -5    1    3    3    0  502  0.12001026446E+03  0.47089558760E+01 -0.29296954409E-01  0.12017533482E+03  0.41800000000E+01 0.  1.
        -11    1    4    4    0    0 -0.86300410846E+02  0.16239363203E+01 -0.94863354784E+02  0.12825542547E+03  0.00000000000E+00 0.  1.
         11    1    4    4    0    0 -0.82396406219E+02 -0.40709339964E+02 -0.27794436889E+03  0.29274475284E+03  0.00000000000E+00 0. -1.
</event>
<event>
 8    1  0.3528896E-009  0.7207940E+02  0.7561462E-02  0.1353161E+00
          2   -1    0    0  501    0  0.00000000000E+00  0.00000000000E+00  0.59998808595E+02  0.59998808595E+02  0.00000000000E+00 0. -1.
         -2   -1    0    0    0  501 -0.00000000000E+00 -0.00000000000E+00 -0.21489307784E+03  0.21489307784E+03  0.00000000000E+00 0.  1.
         25    2    1    2    0    0  0.41068876165E+02  0.31676713034E+01 -0.87497249460E+02  0.15811451800E+03  0.12509094854E+03 0.  0.
         23    2    1    2    0    0 -0.41068876165E+02 -0.31676713034E+01 -0.67397019786E+02  0.11677736844E+03  0.86011096799E+02 0.  0.
          5    1    3    3  502    0  0.32107481392E+01 -0.28994316706E+02  0.22678534662E+02  0.37185583755E+02  0.41800000000E+01 0. -1.
         -5    1    3    3    0  502  0.37858128025E+02  0.32161988009E+02 -0.11017578412E+03  0.12092893424E+03  0.41800000000E+01 0. -1.
        -11    1    4    4    0    0 -0.31110172860E+02  0.21780072479E+02 -0.78894006041E+02  0.87558429645E+02  0.00000000000E+00 0.  1.
         11    1    4    4    0    0 -0.99587033040E+01 -0.24947743782E+02  0.11496986255E+02  0.29218938794E+02  0.00000000000E+00 0. -1.
</event>
<event>
 8    1  0.3528896E-009  0.2633419E+03  0.7561462E-02  0.1105152E+00
         -2   -1    0    0    0  501 -0.00000000000E+00  0.00000000000E+00  0.75993805243E+02  0.75993805243E+02  0.00000000000E+00 0.  1.
          2   -1    0    0  501    0  0.00000000000E+00 -0.00000000000E+00 -0.11554618019E+04  0.11554618019E+04  0.00000000000E+00 0. -1.
         25    2    1    2    0    0 -0.14584875473E+03  0.20073064471E+03 -0.79740277968E+03  0.84442872675E+03  0.12507609898E+03 0.  0.
         23    2    1    2    0    0  0.14584875473E+03 -0.20073064471E+03 -0.28206521699E+03  0.38702688041E+03  0.93082589886E+02 0.  0.
          5    1    3    3  502    0 -0.50119388969E+01  0.10142597687E+03 -0.36634994441E+03  0.38018693097E+03  0.41800000000E+01 0. -1.
         -5    1    3    3    0  502 -0.14083681584E+03  0.99304667838E+02 -0.43105283527E+03  0.46424179577E+03  0.41800000000E+01 0. -1.
        -11    1    4    4    0    0  0.40549927508E+02 -0.95741739968E+02 -0.60822144319E+02  0.12045792059E+03  0.00000000000E+00 0. -1.
         11    1    4    4    0    0  0.10529882723E+03 -0.10498890474E+03 -0.22124307267E+03  0.26656895982E+03  0.00000000000E+00 0.  1.
</event>
<event>
 8    1  0.3528896E-009  0.9144627E+02  0.7561462E-02  0.1299387E+00
         -2   -1    0    0    0  501 -0.00000000000E+00  0.00000000000E+00  0.80364924687E+02  0.80364924687E+02  0.00000000000E+00 0.  1.
          2   -1    0    0  501    0  0.00000000000E+00 -0.00000000000E+00 -0.21025299335E+03  0.21025299335E+03  0.00000000000E+00 0. -1.
         25    2    1    2    0    0 -0.11024586529E+02  0.47747982822E+02 -0.13037168004E+03  0.18720448995E+03  0.12508930701E+03 0.  0.
         23    2    1    2    0    0  0.11024586529E+02 -0.47747982822E+02  0.48361137908E+00  0.10341342809E+03  0.91064218312E+02 0.  0.
          5    1    3    3  502    0 -0.25741521065E+01 -0.19499256041E+02  0.16099186375E+02  0.25758560657E+02  0.41800000000E+01 0. -1.
         -5    1    3    3    0  502 -0.84504344223E+01  0.67247238862E+02 -0.14647086642E+03  0.16144592929E+03  0.41800000000E+01 0. -1.
        -11    1    4    4    0    0  0.25892044328E+02 -0.66258613572E+02 -0.17935822944E+02  0.73364130041E+02  0.00000000000E+00 0. -1.
         11    1    4    4    0    0 -0.14867457799E+02  0.18510630751E+02  0.18419434323E+02  0.30049298044E+02  0.00000000000E+00 0.  1.
</event>
<event>
 8    1  0.3528896E-009  0.1128635E+03  0.7561462E-02  0.1255357E+00
          2   -1    0    0  501    0  0.00000000000E+00  0.00000000000E+00  0.91535758152E+02  0.91535758152E+02  0.00000000000E+00 0. -1.
         -2   -1    0    0    0  501 -0.00000000000E+00 -0.00000000000E+00 -0.20675278923E+03  0.20675278923E+03  0.00000000000E+00 0.  1.
         25    2    1    2    0    0  0.82654982523E+02 -0.86009081492E+01 -0.53103144531E+02  0.15929190702E+03  0.12509254944E+03 0.  0.
         23    2    1    2    0    0 -0.82654982523E+02  0.86009081492E+01 -0.62113886548E+02  0.13899664036E+03  0.92499239853E+02 0.  0.
          5    1    3    3  502    0 -0.23317922090E+02 -0.19385473715E+02 -0.42200977623E+02  0.52133645510E+02  0.41800000000E+01 0.  1.
         -5    1    3    3    0  502  0.10597290461E+03  0.10784565565E+02 -0.10902166908E+02  0.10715826151E+03  0.41800000000E+01 0.  1.
        -11    1    4    4    0    0 -0.30418202258E+02 -0.11533911497E+02 -0.74823100942E+02  0.81589181744E+02  0.00000000000E+00 0.  1.
         11    1    4    4    0    0 -0.52236780265E+02  0.20134819646E+02  0.12709214394E+02  0.57407458619E+02  0.00000000000E+00 0. -1.
</event>
<event>
 8    1  0.3528896E-009  0.9689449E+02  0.7561462E-02  0.1286965E+00
          1   -1    0    0  501    0  0.00000000000E+00  0.00000000000E+00  0.10763741547E+03  0.10763741547E+03  0.00000000000E+00 0. -1.
         -1   -1    0    0    0  501 -0.00000000000E+00 -0.00000000000E+00 -0.12204233041E+03  0.12204233041E+03  0.00000000000E+00 0.  1.
         25    2    1    2    0    0 -0.10820422510E+02  0.24522363965E+02  0.18239494411E+02  0.12922422136E+03  0.12509113619E+03 0.  0.
         23    2    1    2    0    0  0.10820422510E+02 -0.24522363965E+02 -0.32644409350E+02  0.10045552452E+03  0.91143990841E+02 0.  0.
          5    1    3    3  502    0  0.15905047350E+02 -0.41651194589E+02 -0.18968590549E+02  0.48632009720E+02  0.41800000000E+01 0.  1.
         -5    1    3    3    0  502 -0.26725469860E+02  0.66173558555E+02  0.37208084961E+02  0.80592211643E+02  0.41800000000E+01 0.  1.
        -11    1    4    4    0    0 -0.24226310980E+02 -0.33499556040E+02 -0.46039575254E+02  0.61877111182E+02  0.00000000000E+00 0.  1.
         11    1    4    4    0    0  0.35046733490E+02  0.89771920751E+01  0.13395165904E+02  0.38578413336E+02  0.00000000000E+00 0. -1.
</event>
<event>
 8    1  0.3528896E-009  0.3183815E+03  0.7561462E-02  0.1076397E+00
         -2   -1    0    0    0  501 -0.00000000000E+00  0.00000000000E+00  0.12643601137E+03  0.12643601137E+03  0.00000000000E+00 0. -1.
          2   -1    0    0  501    0  0.00000000000E+00 -0.00000000000E+00 -0.90367608639E+03  0.90367608639E+03  0.00000000000E+00 0.  1.
         25    2    1    2    0    0 -0.26728409931E+03  0.16242411288E+03 -0.49602813796E+03  0.59959520584E+03  0.12509242596E+03 0.  0.
         23    2    1    2    0    0  0.26728409931E+03 -0.16242411288E+03 -0.28121193706E+03  0.43051689193E+03  0.91881763716E+02 0.  0.
          5    1    3    3  502    0 -0.12834289083E+03  0.90889640557E+02 -0.13935809958E+03  0.21016892421E+03  0.41800000000E+01 0.  1.
         -5    1    3    3    0  502 -0.13894120848E+03  0.71534472325E+02 -0.35667003838E+03  0.38942628163E+03  0.41800000000E+01 0.  1.
        -11    1    4    4    0    0  0.57293308005E+02  0.55129860673E+00 -0.73375717588E+02  0.93095773287E+02  0.00000000000E+00 0.  1.
         11    1    4    4    0    0  0.20999079130E+03 -0.16297541149E+03 -0.20783621947E+03  0.33742111864E+03  0.00000000000E+00 0. -1.
</event>
<event>
 7    1  0.3528896E-009  0.1135213E+03  0.7561462E-02  0.1254185E+00
          1   -1    0    0  501    0  0.00000000000E+00  0.00000000000E+00  0.87904568479E+02  0.87904568479E+02  0.00000000000E+00 0. -1.
         -1   -1    0    0    0  501 -0.00000000000E+00 -0.00000000000E+00 -0.25461027777E+03  0.25461027777E+03  0.00000000000E+00 0.  1.
         25    2    1    2    0    0 -0.58726204302E+02 -0.23623769950E+02 -0.12384965459E+03  0.18706259186E+03  0.12508727653E+03 0.  0.
          5    1    3    3  502    0  0.32938914738E+02 -0.34308801704E+02 -0.39483750585E+02  0.61955669141E+02  0.41800000000E+01 0.  1.
         -5    1    3    3    0  502 -0.91665119040E+02  0.10685031753E+02 -0.84365904009E+02  0.12510692272E+03  0.41800000000E+01 0.  1.
        -11    1    1    2    0    0  0.23472178197E+02 -0.19994480211E+02  0.42993382609E+02  0.52907025397E+02  0.00000000000E+00 0. -1.
         11    1    1    2    0    0  0.35254026105E+02  0.43618250162E+02 -0.85849437306E+02  0.10254522899E+03  0.00000000000E+00 0.  1.
</event>
<event>
 8    1  0.3528896E-009  0.1590639E+03  0.7561462E-02  0.1189758E+00
         -3   -1    0    0    0  501 -0.00000000000E+00  0.00000000000E+00  0.21067982588E+03  0.21067982588E+03  0.00000000000E+00 0.  1.
          3   -1    0    0  501    0  0.00000000000E+00 -0.00000000000E+00 -0.31272679473E+03  0.31272679473E+03  0.00000000000E+00 0. -1.
         25    2    1    2    0    0  0.97779532757E+02  0.79886251688E+02 -0.25091256879E+03  0.30748611107E+03  0.12509173069E+03 0.  0.
         23    2    1    2    0    0 -0.97779532757E+02 -0.79886251688E+02  0.14886559995E+03  0.21592050955E+03  0.92293279063E+02 0.  0.
          5    1    3    3  502    0  0.75026913963E+02 -0.59688518284E+01 -0.58145461152E+02  0.95199958317E+02  0.41800000000E+01 0.  1.
         -5    1    3    3    0  502  0.22752618794E+02  0.85855103517E+02 -0.19276710764E+03  0.21228615275E+03  0.41800000000E+01 0.  1.
        -11    1    4    4    0    0 -0.68520634997E+02  0.24903595904E+00  0.47201658318E+02  0.83205384364E+02  0.00000000000E+00 0.  1.
         11    1    4    4    0    0 -0.29258897760E+02 -0.80135287647E+02  0.10166394163E+03  0.13271512518E+03  0.00000000000E+00 0. -1.
</event>
<event>
 8    1  0.3528896E-009  0.1202099E+03  0.7561462E-02  0.1242751E+00
         -1   -1    0    0    0  501 -0.00000000000E+00  0.00000000000E+00  0.10277522353E+02  0.10277522353E+02  0.00000000000E+00 0.  1.
          1   -1    0    0  501    0  0.00000000000E+00 -0.00000000000E+00 -0.18610232661E+04  0.18610232661E+04  0.00000000000E+00 0. -1.
         25    2    1    2    0    0  0.69942491162E+02 -0.22359454365E+02 -0.13225076276E+04  0.13304361439E+04  0.12506802419E+03 0.  0.
         23    2    1    2    0    0 -0.69942491162E+02  0.22359454365E+02 -0.52823811619E+03  0.54086464459E+03  0.90039764023E+02 0.  0.
          5    1    3    3  502    0  0.43652807941E+01 -0.53167611215E+02 -0.25980505147E+03  0.26525834149E+03  0.41800000000E+01 0. -1.
         -5    1    3    3    0  502  0.65577210368E+02  0.30808156850E+02 -0.10627025761E+04  0.10651778024E+04  0.41800000000E+01 0. -1.
        -11    1    4    4    0    0  0.77025540952E+01 -0.23107846040E+02 -0.77658949908E+02  0.81389276867E+02  0.00000000000E+00 0.  1.
         11    1    4    4    0    0 -0.77645045257E+02  0.45467300405E+02 -0.45057916628E+03  0.45947536773E+03  0.00000000000E+00 0. -1.
</event>
<event>
 8    1  0.3528896E-009  0.1061541E+03  0.7561462E-02  0.1267862E+00
         -2   -1    0    0    0  501 -0.00000000000E+00  0.00000000000E+00  0.39168056585E+03  0.39168056585E+03  0.00000000000E+00 0.  1.
          2   -1    0    0  501    0  0.00000000000E+00 -0.00000000000E+00 -0.54431846800E+02  0.54431846800E+02  0.00000000000E+00 0. -1.
         25    2    1    2    0    0 -0.98012620280E+02  0.66577400979E+01  0.16095709137E+03  0.22628506536E+03  0.12508775443E+03 0.  0.
         23    2    1    2    0    0  0.98012620280E+02 -0.66577400979E+01  0.17629162768E+03  0.21982734729E+03  0.87146574156E+02 0.  0.
          5    1    3    3  502    0 -0.60307292678E+02  0.18703580326E+02  0.17339764677E+03  0.18458334100E+03  0.41800000000E+01 0. -1.
         -5    1    3    3    0  502 -0.37705327602E+02 -0.12045840228E+02 -0.12440555405E+02  0.41701724367E+02  0.41800000000E+01 0. -1.
        -11    1    4    4    0    0  0.70858863633E+02  0.17382277180E+02  0.16722009162E+03  0.18244363831E+03  0.00000000000E+00 0.  1.
         11    1    4    4    0    0  0.27153756647E+02 -0.24040017278E+02  0.90715360578E+01  0.37383708982E+02  0.00000000000E+00 0. -1.
</event>
<event>
 8    1  0.3528896E-009  0.1263648E+03  0.7561462E-02  0.1232952E+00
         -1   -1    0    0    0  501 -0.00000000000E+00  0.00000000000E+00  0.69501924098E+02  0.69501924098E+02  0.00000000000E+00 0.  1.
          1   -1    0    0  501    0  0.00000000000E+00 -0.00000000000E+00 -0.61340728351E+03  0.61340728351E+03  0.00000000000E+00 0. -1.
         25    2    1    2    0    0 -0.13360912670E+02  0.98875390641E+02 -0.49594528749E+03  0.52112277281E+03  0.12510938933E+03 0.  0.
         23    2    1    2    0    0  0.13360912670E+02 -0.98875390641E+02 -0.47960071917E+02  0.16178643479E+03  0.11798230851E+03 0.  0.
          5    1    3    3  502    0 -0.57755679696E+02  0.39697210605E+02 -0.35511829891E+03  0.36199180334E+03  0.41800000000E+01 0. -1.
         -5    1    3    3    0  502  0.44394767026E+02  0.59178180036E+02 -0.14082698858E+03  0.15913096947E+03  0.41800000000E+01 0. -1.
        -11    1    4    4    0    0  0.27421258335E+02 -0.44578839769E+02 -0.81187742294E+02  0.96595278677E+02  0.00000000000E+00 0. -1.
         11    1    4    4    0    0 -0.14060345665E+02 -0.54296550872E+02  0.33227670377E+02  0.65191156114E+02  0.00000000000E+00 0.  1.
</event>
<event>
 8    1  0.3528896E-009  0.1446392E+03  0.7561462E-02  0.1207219E+00
          2   -1    0    0  501    0  0.00000000000E+00  0.00000000000E+00  0.38247184994E+03  0.38247184994E+03  0.00000000000E+00 0. -1.
         -2   -1    0    0    0  501 -0.00000000000E+00 -0.00000000000E+00 -0.75120558161E+02  0.75120558161E+02  0.00000000000E+00 0.  1.
         25    2    1    2    0    0  0.52710142134E+02 -0.11033032918E+03  0.22557451456E+03  0.28545204417E+03  0.12509143568E+03 0.  0.
         23    2    1    2    0    0 -0.52710142134E+02  0.11033032918E+03  0.81776777222E+02  0.17214036393E+03  0.89407622610E+02 0.  0.
          5    1    3    3  502    0 -0.97062501060E+01 -0.51534030642E+02  0.10184503085E+02  0.53583244661E+02  0.41800000000E+01 0. -1.
         -5    1    3    3    0  502  0.62416392240E+02 -0.58796298542E+02  0.21539001147E+03  0.23186879951E+03  0.41800000000E+01 0. -1.
        -11    1    4    4    0    0  0.21611799252E+02  0.52100550460E+02  0.38406518560E+02  0.68239269436E+02  0.00000000000E+00 0.  1.
         11    1    4    4    0    0 -0.74321941386E+02  0.58229778723E+02  0.43370258661E+02  0.10390109450E+03  0.00000000000E+00 0. -1.
</event>
<event>
 8    1  0.3528896E-009  0.1655410E+03  0.7561462E-02  0.1182579E+00
          1   -1    0    0  501    0  0.00000000000E+00  0.00000000000E+00  0.13413988390E+04  0.13413988390E+04  0.00000000000E+00 0. -1.
         -1   -1    0    0    0  501 -0.00000000000E+00 -0.00000000000E+00 -0.22035865881E+02  0.22035865881E+02  0.00000000000E+00 0.  1.
         25    2    1    2    0    0 -0.68777942108E+02  0.10608094945E+03  0.53526148363E+03  0.56403561851E+03  0.12509096665E+03 0.  0.
         23    2    1    2    0    0  0.68777942108E+02 -0.10608094945E+03  0.78410148949E+03  0.79939908637E+03  0.90775438922E+02 0.  0.
          5    1    3    3  502    0  0.26626772473E+02  0.70245074349E+02  0.20433969650E+03  0.21775109517E+03  0.41800000000E+01 0.  1.
         -5    1    3    3    0  502 -0.95404714581E+02  0.35835875101E+02  0.33092178713E+03  0.34628452334E+03  0.41800000000E+01 0.  1.
        -11    1    4    4    0    0  0.61423991366E+02 -0.16012748430E+02  0.26547539587E+03  0.27295878927E+03  0.00000000000E+00 0.  1.
         11    1    4    4    0    0  0.73539507420E+01 -0.90068201021E+02  0.51862609362E+03  0.52644029710E+03  0.00000000000E+00 0. -1.
</event>
<event>
 8    1  0.3528896E-009  0.8735032E+02  0.7561462E-02  0.1309398E+00
          2   -1    0    0  501    0  0.00000000000E+00  0.00000000000E+00  0.10614274864E+04  0.10614274864E+04  0.00000000000E+00 0. -1.
         -2   -1    0    0    0  501 -0.00000000000E+00 -0.00000000000E+00 -0.16683252631E+02  0.16683252631E+02  0.00000000000E+00 0.  1.
         25    2    1    2    0    0  0.18866137078E+01  0.71429842807E+02  0.69463496370E+03  0.70941571017E+03  0.12508850983E+03 0.  0.
         23    2    1    2    0    0 -0.18866137078E+01 -0.71429842807E+02  0.35010927009E+03  0.36869502888E+03  0.90850104909E+02 0.  0.
          5    1    3    3  502    0  0.17366144905E+02  0.35917148283E+02  0.52358405099E+02  0.65958316489E+02  0.41800000000E+01 0. -1.
         -5    1    3    3    0  502 -0.15479531197E+02  0.35512694524E+02  0.64227655860E+03  0.64345739368E+03  0.41800000000E+01 0. -1.
        -11    1    4    4    0    0 -0.32712148434E+02 -0.35197276204E+02  0.72098905934E+02  0.86644013897E+02  0.00000000000E+00 0.  1.
         11    1    4    4    0    0  0.30825534726E+02 -0.36232566602E+02  0.27801036416E+03  0.28205101498E+03  0.00000000000E+00 0. -1.
</event>
<event>
 8    1  0.3528896E-009  0.1560805E+03  0.7561462E-02  0.1193194E+00
          2   -1    0    0  501    0  0.00000000000E+00  0.00000000000E+00  0.41645319397E+02  0.41645319397E+02  0.00000000000E+00 0. -1.
         -2   -1    0    0    0  501 -0.00000000000E+00 -0.00000000000E+00 -0.81064857745E+03  0.81064857745E+03  0.00000000000E+00 0.  1.
         25    2    1    2    0    0 -0.98312727669E+02  0.10956878082E+03 -0.37552410106E+03  0.42229955510E+03  0.12509138103E+03 0.  0.
         23    2    1    2    0    0  0.98312727669E+02 -0.10956878082E+03 -0.39347915699E+03  0.42999434175E+03  0.91643749348E+02 0.  0.
          5    1    3    3  502    0 -0.65699967032E+02  0.11141512120E+03 -0.36571778379E+03  0.38793915074E+03  0.41800000000E+01 0.  1.
         -5    1    3    3    0  502 -0.32612760637E+02 -0.18463403758E+01 -0.98063172712E+01  0.34360404357E+02  0.41800000000E+01 0.  1.
        -11    1    4    4    0    0  0.42076780428E+02 -0.67690045952E+02 -0.98044342896E+02  0.12635304091E+03  0.00000000000E+00 0. -1.
         11    1    4    4    0    0  0.56235947242E+02 -0.41878734868E+02 -0.29543481410E+03  0.30364130084E+03  0.00000000000E+00 0.  1.
</event>
<event>
 7    1  0.3528896E-009  0.1122038E+03  0.7561462E-02  0.1256542E+00
          2   -1    0    0  501    0  0.00000000000E+00  0.00000000000E+00  0.16920085686E+03  0.16920085686E+03  0.00000000000E+00 0. -1.
         -2   -1    0    0    0  501 -0.00000000000E+00 -0.00000000000E+00 -0.87617306877E+02  0.87617306877E+02  0.00000000000E+00 0.  1.
         23    2    1    2    0    0 -0.29378389033E+02 -0.45563514678E+02  0.24469080156E+02  0.10872939658E+03  0.91017702596E+02 0.  0.
          5    1    1    2  502    0 -0.43630497955E+01  0.74707849612E+02 -0.70578155999E+00  0.74955116735E+02  0.41800000000E+01 0. -1.
         -5    1    1    2    0  502  0.33741438828E+02 -0.29144334934E+02  0.57820251387E+02  0.73133650418E+02  0.41800000000E+01 0. -1.
        -11    1    3    3    0    0 -0.57024136933E+02 -0.50995579890E+02  0.25204487446E+02  0.80545437789E+02  0.00000000000E+00 0.  1.
         11    1    3    3    0    0  0.27645747900E+02  0.54320652122E+01 -0.73540728961E+00  0.28183958794E+02  0.00000000000E+00 0. -1.
</event>
<event>
 8    1  0.3528896E-009  0.1075835E+03  0.7561462E-02  0.1265111E+00
         -1   -1    0    0    0  501 -0.00000000000E+00  0.00000000000E+00  0.10762310527E+03  0.10762310527E+03  0.00000000000E+00 0.  1.
          1   -1    0    0  501    0  0.00000000000E+00 -0.00000000000E+00 -0.11552633894E+03  0.11552633894E+03  0.00000000000E+00 0. -1.
         25    2    1    2    0    0 -0.14909411430E+02 -0.17821218833E+02  0.93173111414E+01  0.12759183790E+03  0.12511186363E+03 0.  0.
         23    2    1    2    0    0  0.14909411430E+02  0.17821218833E+02 -0.17220544812E+02  0.95557606313E+02  0.91075916525E+02 0.  0.
          5    1    3    3  502    0  0.47595138887E+02  0.15552029289E+02  0.23075878859E+02  0.55291332465E+02  0.41800000000E+01 0. -1.
         -5    1    3    3    0  502 -0.62504550316E+02 -0.33373248122E+02 -0.13758567718E+02  0.72300505435E+02  0.41800000000E+01 0. -1.
        -11    1    4    4    0    0 -0.37772469829E+02  0.16564929135E+02 -0.91268191728E+01  0.42242812199E+02  0.00000000000E+00 0.  1.
         11    1    4    4    0    0  0.52681881259E+02  0.12562896977E+01 -0.80937256391E+01  0.53314794115E+02  0.00000000000E+00 0. -1.
</event>
<event>
 8    1  0.3528896E-009  0.8301198E+02  0.7561462E-02  0.1320715E+00
          1   -1    0    0  501    0  0.00000000000E+00  0.00000000000E+00  0.68546232585E+02  0.68546232585E+02  0.00000000000E+00 0. -1.
         -1   -1    0    0    0  501 -0.00000000000E+00 -0.00000000000E+00 -0.21057138608E+03  0.21057138608E+03  0.00000000000E+00 0.  1.
         25    2    1    2    0    0  0.35880023110E+02 -0.92653306650E+01 -0.38623734859E+02  0.13605694629E+03  0.12508587981E+03 0.  0.
         23    2    1    2    0    0 -0.35880023110E+02  0.92653306650E+01 -0.10340141863E+03  0.14306067238E+03  0.91658497666E+02 0.  0.
          5    1    3    3  502    0  0.38590329546E+02  0.16730771621E+02  0.36850149358E+02  0.56076181764E+02  0.41800000000E+01 0.  1.
         -5    1    3    3    0  502 -0.27103064368E+01 -0.25996102286E+02 -0.75473884217E+02  0.79980764524E+02  0.41800000000E+01 0.  1.
        -11    1    4    4    0    0  0.23122670518E+02 -0.20767931040E+02 -0.45529301421E+02  0.55126056810E+02  0.00000000000E+00 0. -1.
         11    1    4    4    0    0 -0.59002693628E+02  0.30033261705E+02 -0.57872117213E+02  0.87934615566E+02  0.00000000000E+00 0.  1.
</event>
<event>
 8    1  0.3528896E-009  0.1062345E+03  0.7561462E-02  0.1267706E+00
          1   -1    0    0  501    0  0.00000000000E+00  0.00000000000E+00  0.21004762788E+04  0.21004762788E+04  0.00000000000E+00 0. -1.
         -1   -1    0    0    0  501 -0.00000000000E+00 -0.00000000000E+00 -0.10967543826E+02  0.10967543826E+02  0.00000000000E+00 0.  1.
         25    2    1    2    0    0  0.31190813485E+02  0.72498815475E+00  0.18358821997E+04  0.18404029759E+04  0.12508505116E+03 0.  0.
         23    2    1    2    0    0 -0.31190813485E+02 -0.72498815475E+00  0.25362653527E+03  0.27104084674E+03  0.90351141403E+02 0.  0.
          5    1    3    3  502    0  0.34295990922E+02 -0.56685396512E+02  0.72743059470E+03  0.73045341513E+03  0.41800000000E+01 0. -1.
         -5    1    3    3    0  502 -0.31051774372E+01  0.57410384666E+02  0.11084516050E+04  0.11099495608E+04  0.41800000000E+01 0. -1.
        -11    1    4    4    0    0 -0.56213959742E+02 -0.16831384420E+02  0.11330286570E+03  0.12759641119E+03  0.00000000000E+00 0. -1.
         11    1    4    4    0    0  0.25023146257E+02  0.16106396265E+02  0.14032366957E+03  0.14344443555E+03  0.00000000000E+00 0.  1.
</event>
<event>
 8    1  0.3528896E-009  0.1184072E+03  0.7561462E-02  0.1245748E+00
          1   -1    0    0  501    0  0.00000000000E+00  0.00000000000E+00  0.23554469815E+03  0.23554469815E+03  0.00000000000E+00 0. -1.
         -1   -1    0    0    0  501 -0.00000000000E+00 -0.00000000000E+00 -0.65853052925E+02  0.65853052925E+02  0.00000000000E+00 0.  1.
         25    2    1    2    0    0 -0.39349150855E+02  0.44873361830E+02  0.10583948008E+03  0.17439965878E+03  0.12510504052E+03 0.  0.
         23    2    1    2    0    0  0.39349150855E+02 -0.44873361830E+02  0.63852165150E+02  0.12699809230E+03  0.92138168950E+02 0.  0.
          5    1    3    3  502    0  0.39687605294E+02  0.41971696112E+02  0.32255984573E+02  0.66292158128E+02  0.41800000000E+01 0. -1.
         -5    1    3    3    0  502 -0.79036756150E+02  0.29016657186E+01  0.73583495503E+02  0.10810750065E+03  0.41800000000E+01 0. -1.
        -11    1    4    4    0    0  0.41755759335E+01 -0.60901974894E+02  0.63861351772E+02  0.88344542732E+02  0.00000000000E+00 0. -1.
         11    1    4    4    0    0  0.35173574922E+02  0.16028613064E+02 -0.91866220834E-02  0.38653549564E+02  0.00000000000E+00 0.  1.
</event>
<event>
 8    1  0.3528896E-009  0.1426113E+03  0.7561462E-02  0.1209858E+00
          3   -1    0    0  501    0  0.00000000000E+00  0.00000000000E+00  0.79926548005E+03  0.79926548005E+03  0.00000000000E+00 0. -1.
         -3   -1    0    0    0  501 -0.00000000000E+00 -0.00000000000E+00 -0.34155582399E+02  0.34155582399E+02  0.00000000000E+00 0.  1.
         25    2    1    2    0    0 -0.59663341437E+02 -0.89700473893E+02  0.23965907956E+03  0.29101543446E+03  0.12509044468E+03 0.  0.
         23    2    1    2    0    0  0.59663341437E+02  0.89700473893E+02  0.52545081810E+03  0.54240562799E+03  0.80618941392E+02 0.  0.
          5    1    3    3  502    0  0.29168115111E+02 -0.18438003323E+01  0.13192358460E+02  0.32337118928E+02  0.41800000000E+01 0.  1.
         -5    1    3    3    0  502 -0.88831456548E+02 -0.87856673561E+02  0.22646672110E+03  0.25867831553E+03  0.41800000000E+01 0.  1.
        -11    1    4    4    0    0  0.76550762761E+02  0.63213183859E+02  0.44715898654E+03  0.45804703376E+03  0.00000000000E+00 0.  1.
         11    1    4    4    0    0 -0.16887421324E+02  0.26487290034E+02  0.78291831557E+02  0.84358594233E+02  0.00000000000E+00 0. -1.
</event>
<event>
 8    1  0.3528896E-009  0.2245692E+03  0.7561462E-02  0.1130522E+00
          1   -1    0    0  501    0  0.00000000000E+00  0.00000000000E+00  0.15427461211E+03  0.15427461211E+03  0.00000000000E+00 0. -1.
         -1   -1    0    0    0  501 -0.00000000000E+00 -0.00000000000E+00 -0.36919949300E+03  0.36919949300E+03  0.00000000000E+00 0.  1.
         25    2    1    2    0    0  0.14629380469E+02  0.20102069338E+03 -0.18343109678E+03  0.29986726796E+03  0.12510025254E+03 0.  0.
         23    2    1    2    0    0 -0.14629380469E+02 -0.20102069338E+03 -0.31493784115E+02  0.22360683715E+03  0.91568669543E+02 0.  0.
          5    1    3    3  502    0  0.14623530192E+02 -0.13175586839E+02 -0.42271186034E+01  0.20561727931E+02  0.41800000000E+01 0. -1.
         -5    1    3    3    0  502  0.58502769079E-02  0.21419628022E+03 -0.17920397817E+03  0.27930554002E+03  0.41800000000E+01 0. -1.
        -11    1    4    4    0    0 -0.43820861373E+02 -0.91773799924E+02  0.12097327447E+02  0.10241603183E+03  0.00000000000E+00 0. -1.
         11    1    4    4    0    0  0.29191480904E+02 -0.10924689346E+03 -0.43591111562E+02  0.12119080532E+03  0.00000000000E+00 0.  1.
</event>
<event>
 8    1  0.3528896E-009  0.1075629E+03  0.7561462E-02  0.1265151E+00
          2   -1    0    0  501    0  0.00000000000E+00  0.00000000000E+00  0.99075983152E+02  0.99075983152E+02  0.00000000000E+00 0. -1.
         -2   -1    0    0    0  501 -0.00000000000E+00 -0.00000000000E+00 -0.22040644567E+03  0.22040644567E+03  0.00000000000E+00 0.  1.
         25    2    1    2    0    0  0.62147485217E+02  0.67014889509E+02 -0.22033785842E+02  0.15647735977E+03  0.12508545506E+03 0.  0.
         23    2    1    2    0    0 -0.62147485217E+02 -0.67014889509E+02 -0.99296676671E+02  0.16300506905E+03  0.91419457459E+02 0.  0.
          5    1    3    3  502    0  0.37813434816E+02  0.43055518009E+02 -0.74288092862E+02  0.93913932005E+02  0.41800000000E+01 0. -1.
         -5    1    3    3    0  502  0.24334050401E+02  0.23959371500E+02  0.52254307020E+02  0.62563427766E+02  0.41800000000E+01 0. -1.
        -11    1    4    4    0    0 -0.28642804745E+02  0.16657918735E+02 -0.67390257493E+01  0.33812881987E+02  0.00000000000E+00 0. -1.
         11    1    4    4    0    0 -0.33504680472E+02 -0.83672808244E+02 -0.92557650922E+02  0.12919218706E+03  0.00000000000E+00 0.  1.
</event>
<event>
 8    1  0.3528896E-009  0.1717428E+03  0.7561462E-02  0.1176042E+00
          1   -1    0    0  501    0  0.00000000000E+00  0.00000000000E+00  0.61427777961E+03  0.61427777961E+03  0.00000000000E+00 0. -1.
         -1   -1    0    0    0  501 -0.00000000000E+00 -0.00000000000E+00 -0.57606982347E+02  0.57606982347E+02  0.00000000000E+00 0.  1.
         25    2    1    2    0    0 -0.88588146351E+02 -0.10594149969E+03  0.17977448646E+03  0.25891706551E+03  0.12509084618E+03 0.  0.
         23    2    1    2    0    0  0.88588146351E+02  0.10594149969E+03  0.37689631080E+03  0.41296769645E+03  0.97056829658E+02 0.  0.
          5    1    3    3  502    0 -0.31348846031E+02 -0.11268847979E+03  0.74253710290E+02  0.13860926923E+03  0.41800000000E+01 0. -1.
         -5    1    3    3    0  502 -0.57239300320E+02  0.67469800974E+01  0.10552077617E+03  0.12030779628E+03  0.41800000000E+01 0. -1.
        -11    1    4    4    0    0  0.30127954462E+02 -0.15496376426E+02  0.82584575033E+02  0.89263897270E+02  0.00000000000E+00 0. -1.
         11    1    4    4    0    0  0.58460191889E+02  0.12143787612E+03  0.29431173577E+03  0.32370379918E+03  0.00000000000E+00 0.  1.
</event>
<event>
 8    1  0.3528896E-009  0.8573508E+02  0.7561462E-02  0.1313521E+00
         -1   -1    0    0    0  501 -0.00000000000E+00  0.00000000000E+00  0.81249663593E+02  0.81249663593E+02  0.00000000000E+00 0.  1.
          1   -1    0    0  501    0  0.00000000000E+00 -0.00000000000E+00 -0.17600786145E+03  0.17600786145E+03  0.00000000000E+00 0. -1.
         25    2    1    2    0    0 -0.46461347603E+02 -0.10363789229E+02 -0.68636584471E+02  0.15041700379E+03  0.12509288291E+03 0.  0.
         23    2    1    2    0    0  0.46461347603E+02  0.10363789229E+02 -0.26121613390E+02  0.10684052126E+03  0.92013549805E+02 0.  0.
          5    1    3    3  502    0 -0.57778813523E+02  0.60246545848E+01  0.18363401757E+02  0.61068606330E+02  0.41800000000E+01 0.  1.
         -5    1    3    3    0  502  0.11317465920E+02 -0.16388443814E+02 -0.86999986228E+02  0.89348397463E+02  0.41800000000E+01 0.  1.
        -11    1    4    4    0    0  0.46196279462E+02 -0.28324500625E+02 -0.38211837744E+02  0.66306244922E+02  0.00000000000E+00 0. -1.
         11    1    4    4    0    0  0.26506814101E+00  0.38688289854E+02  0.12090224354E+02  0.40534276334E+02  0.00000000000E+00 0.  1.
</event>
<event>
 8    1  0.3528896E-009  0.9531404E+02  0.7561462E-02  0.1290470E+00
         -2   -1    0    0    0  501 -0.00000000000E+00  0.00000000000E+00  0.18951561752E+02  0.18951561752E+02  0.00000000000E+00 0.  1.
          2   -1    0    0  501    0  0.00000000000E+00 -0.00000000000E+00 -0.79215330498E+03  0.79215330498E+03  0.00000000000E+00 0. -1.
         25    2    1    2    0    0 -0.47518311422E+02 -0.42097542607E+02 -0.53087281082E+03  0.54909345400E+03  0.12508991545E+03 0.  0.
         23    2    1    2    0    0  0.47518311422E+02  0.42097542607E+02 -0.24232893241E+03  0.26201141273E+03  0.76788514147E+02 0.  0.
          5    1    3    3  502    0 -0.34355864199E+02  0.12807288103E+02 -0.44317468983E+03  0.44470847770E+03  0.41800000000E+01 0. -1.
         -5    1    3    3    0  502 -0.13162447224E+02 -0.54904830710E+02 -0.87698120991E+02  0.10438497630E+03  0.41800000000E+01 0. -1.
        -11    1    4    4    0    0 -0.14104236358E+02 -0.92765624020E+01 -0.68687061546E+02  0.70731156621E+02  0.00000000000E+00 0.  1.
         11    1    4    4    0    0  0.61622547781E+02  0.51374105009E+02 -0.17364187086E+03  0.19128025611E+03  0.00000000000E+00 0. -1.
</event>
<event>
 8    1  0.3528896E-009  0.6906237E+02  0.7561462E-02  0.1363311E+00
         -2   -1    0    0    0  501 -0.00000000000E+00  0.00000000000E+00  0.29738547465E+02  0.29738547465E+02  0.00000000000E+00 0.  1.
          2   -1    0    0  501    0  0.00000000000E+00 -0.00000000000E+00 -0.43269781330E+03  0.43269781330E+03  0.00000000000E+00 0. -1.
         25    2    1    2    0    0  0.10847254074E+02  0.12663203716E+02 -0.29626246696E+03  0.32201981262E+03  0.12508913119E+03 0.  0.
         23    2    1    2    0    0 -0.10847254074E+02 -0.12663203716E+02 -0.10669679888E+03  0.14041654814E+03  0.89747314462E+02 0.  0.
          5    1    3    3  502    0  0.47697822119E+02  0.15252366746E+02 -0.27424749176E+03  0.27881333552E+03  0.41800000000E+01 0.  1.
         -5    1    3    3    0  502 -0.36850568045E+02 -0.25891630301E+01 -0.22014975196E+02  0.43206477099E+02  0.41800000000E+01 0.  1.
        -11    1    4    4    0    0  0.16852414308E+02 -0.15442342816E+02 -0.11002985187E+03  0.11237899324E+03  0.00000000000E+00 0. -1.
         11    1    4    4    0    0 -0.27699668382E+02  0.27791391005E+01  0.33330529941E+01  0.28037554902E+02  0.00000000000E+00 0.  1.
</event>
<event>
 8    1  0.3528896E-009  0.8628758E+02  0.7561462E-02  0.1312099E+00
          1   -1    0    0  501    0  0.00000000000E+00  0.00000000000E+00  0.54305747005E+03  0.54305747005E+03  0.00000000000E+00 0. -1.
         -1   -1    0    0    0  501 -0.00000000000E+00 -0.00000000000E+00 -0.24042035710E+02  0.24042035710E+02  0.00000000000E+00 0.  1.
         25    2    1    2    0    0 -0.27416295277E+02  0.19484331691E+02  0.28220941320E+03  0.31051456354E+03  0.12508336756E+03 0.  0.
         23    2    1    2    0    0  0.27416295277E+02 -0.19484331691E+02  0.23680602113E+03  0.25658494222E+03  0.92884059450E+02 0.  0.
          5    1    3    3  502    0 -0.25571503628E+02 -0.21720092000E+02  0.10130537436E+02  0.35295387560E+02  0.41800000000E+01 0. -1.
         -5    1    3    3    0  502 -0.18447916497E+01  0.41204423690E+02  0.27207887577E+03  0.27521917598E+03  0.41800000000E+01 0. -1.
        -11    1    4    4    0    0 -0.28007745907E+02 -0.29839608155E+02  0.12199254901E+03  0.12867407687E+03  0.00000000000E+00 0.  1.
         11    1    4    4    0    0  0.55424041185E+02  0.10355276465E+02  0.11481347213E+03  0.12791086535E+03  0.00000000000E+00 0. -1.
</event>
<event>
 8    1  0.3528896E-009  0.1660870E+03  0.7561462E-02  0.1181991E+00
          2   -1    0    0  501    0  0.00000000000E+00  0.00000000000E+00  0.96944586213E+03  0.96944586213E+03  0.00000000000E+00 0. -1.
         -2   -1    0    0    0  501 -0.00000000000E+00 -0.00000000000E+00 -0.30899913512E+02  0.30899913512E+02  0.00000000000E+00 0.  1.
         25    2    1    2    0    0  0.53700033011E+01 -0.13373875336E+03  0.52221847205E+03  0.55342071861E+03  0.12508984030E+03 0.  0.
         23    2    1    2    0    0 -0.53700033011E+01  0.13373875336E+03  0.41632747656E+03  0.44692505703E+03  0.92187568438E+02 0.  0.
          5    1    3    3  502    0  0.40796327938E+02  0.36138128773E+01  0.10918011676E+03  0.11668406194E+03  0.41800000000E+01 0.  1.
         -5    1    3    3    0  502 -0.35426324637E+02 -0.13735256624E+03  0.41303835529E+03  0.43673665666E+03  0.41800000000E+01 0.  1.
        -11    1    4    4    0    0 -0.34418866742E+02  0.92137297372E+02  0.17908033528E+03  0.20431276622E+03  0.00000000000E+00 0.  1.
         11    1    4    4    0    0  0.29048863441E+02  0.41601455989E+02  0.23724714128E+03  0.24261229081E+03  0.00000000000E+00 0. -1.
</event>
<event>
 8    1  0.3528896E-009  0.7814633E+02  0.7561462E-02  0.1334396E+00
          2   -1    0    0  501    0  0.00000000000E+00  0.00000000000E+00  0.15739707080E+03  0.15739707080E+03  0.00000000000E+00 0. -1.
         -2   -1    0    0    0  501 -0.00000000000E+00 -0.00000000000E+00 -0.74780817997E+02  0.74780817997E+02  0.00000000000E+00 0.  1.
         25    2    1    2    0    0 -0.10728677488E+02 -0.10555907920E+02  0.38156828648E+02  0.13164521387E+03  0.12509191440E+03 0.  0.
         23    2    1    2    0    0  0.10728677488E+02  0.10555907920E+02  0.44459424153E+02  0.10053267493E+03  0.88902455641E+02 0.  0.
          5    1    3    3  502    0 -0.21528043381E+02 -0.33779562452E+02 -0.35415297673E+02  0.53630506249E+02  0.41800000000E+01 0.  1.
         -5    1    3    3    0  502  0.10799365893E+02  0.23223654532E+02  0.73572126321E+02  0.78014707619E+02  0.41800000000E+01 0.  1.
        -11    1    4    4    0    0  0.44564322249E+02 -0.15690727339E+02  0.20962118288E+02  0.51687407993E+02  0.00000000000E+00 0.  1.
         11    1    4    4    0    0 -0.33835644761E+02  0.26246635259E+02  0.23497305864E+02  0.48845266932E+02  0.00000000000E+00 0. -1.
</event>
<event>
 8    1  0.3528896E-009  0.1038253E+03  0.7561462E-02  0.1272451E+00
         -2   -1    0    0    0  501 -0.00000000000E+00  0.00000000000E+00  0.16034141716E+02  0.16034141716E+02  0.00000000000E+00 0.  1.
          2   -1    0    0  501    0  0.00000000000E+00 -0.00000000000E+00 -0.81538280075E+03  0.81538280075E+03  0.00000000000E+00 0. -1.
         25    2    1    2    0    0  0.33864873006E+02 -0.88203434955E+01 -0.43141358271E+03  0.45054601012E+03  0.12509756114E+03 0.  0.
         23    2    1    2    0    0 -0.33864873006E+02  0.88203434955E+01 -0.36793507633E+03  0.38087093235E+03  0.91988143990E+02 0.  0.
          5    1    3    3  502    0  0.39131644480E+02 -0.56942149422E+02 -0.34048252227E+03  0.34744713893E+03  0.41800000000E+01 0. -1.
         -5    1    3    3    0  502 -0.52667714740E+01  0.48121805926E+02 -0.90931060439E+02  0.10309887119E+03  0.41800000000E+01 0. -1.
        -11    1    4    4    0    0 -0.45349990973E+02 -0.26621791519E+02 -0.28692754110E+03  0.29170662541E+03  0.00000000000E+00 0. -1.
         11    1    4    4    0    0  0.11485117967E+02  0.35442135014E+02 -0.81007535229E+02  0.89164306945E+02  0.00000000000E+00 0.  1.
</event>
<event>
 8    1  0.3528896E-009  0.1323166E+03  0.7561462E-02  0.1224058E+00
         -2   -1    0    0    0  501 -0.00000000000E+00  0.00000000000E+00  0.90954904382E+02  0.90954904382E+02  0.00000000000E+00 0.  1.
          2   -1    0    0  501    0  0.00000000000E+00 -0.00000000000E+00 -0.26699837679E+03  0.26699837679E+03  0.00000000000E+00 0. -1.
         25    2    1    2    0    0 -0.99576063538E+02  0.26131221814E+02 -0.43981382650E+02  0.16786917422E+03  0.12508982553E+03 0.  0.
         23    2    1    2    0    0  0.99576063538E+02 -0.26131221814E+02 -0.13206208976E+03  0.19008410695E+03  0.89962986732E+02 0.  0.
          5    1    3    3  502    0 -0.10650818930E+03  0.38383135858E+02 -0.73399480731E+02  0.13498968730E+03  0.41800000000E+01 0. -1.
         -5    1    3    3    0  502  0.69321257600E+01 -0.12251914044E+02  0.29418098082E+02  0.32879486919E+02  0.41800000000E+01 0. -1.
        -11    1    4    4    0    0  0.48301293941E+02 -0.58620828571E+02 -0.76168132785E+02  0.10756858738E+03  0.00000000000E+00 0. -1.
         11    1    4    4    0    0  0.51274769597E+02  0.32489606758E+02 -0.55893956971E+02  0.82515519573E+02  0.00000000000E+00 0.  1.
</event>
<event>
 8    1  0.3528896E-009  0.1636568E+03  0.7561462E-02  0.1184629E+00
          2   -1    0    0  501    0  0.00000000000E+00  0.00000000000E+00  0.47005211575E+03  0.47005211575E+03  0.00000000000E+00 0. -1.
         -2   -1    0    0    0  501 -0.00000000000E+00 -0.00000000000E+00 -0.82524109391E+02  0.82524109391E+02  0.00000000000E+00 0.  1.
         25    2    1    2    0    0  0.21742381963E+02  0.13678179820E+03  0.32629250778E+03  0.37589766043E+03  0.12510099518E+03 0.  0.
         23    2    1    2    0    0 -0.21742381963E+02 -0.13678179820E+03  0.61235498583E+02  0.17667856471E+03  0.91013940950E+02 0.  0.
          5    1    3    3  502    0  0.12029614794E+01  0.14480547023E+03  0.32194271170E+03  0.35303633430E+03  0.41800000000E+01 0. -1.
         -5    1    3    3    0  502  0.20539420484E+02 -0.80236720212E+01  0.43497960797E+01  0.22861326130E+02  0.41800000000E+01 0. -1.
        -11    1    4    4    0    0 -0.49503086544E+02 -0.56841139038E+02  0.59795861050E+01  0.75612341020E+02  0.00000000000E+00 0.  1.
         11    1    4    4    0    0  0.27760704581E+02 -0.79940659166E+02  0.55255912478E+02  0.10106622369E+03  0.00000000000E+00 0. -1.
</event>
<event>
 8    1  0.3528896E-009  0.2728600E+03  0.7561462E-02  0.1099654E+00
          1   -1    0    0  501    0  0.00000000000E+00  0.00000000000E+00  0.52013649109E+03  0.52013649109E+03  0.00000000000E+00 0. -1.
         -1   -1    0    0    0  501 -0.00000000000E+00 -0.00000000000E+00 -0.26883765097E+03  0.26883765097E+03  0.00000000000E+00 0.  1.
         25    2    1    2    0    0  0.17031166476E+01 -0.25395663592E+03  0.39345989275E+03  0.48472160034E+03  0.12508984410E+03 0.  0.
         23    2    1    2    0    0 -0.17031166476E+01  0.25395663592E+03 -0.14216105264E+03  0.30425254172E+03  0.88673393556E+02 0.  0.
          5    1    3    3  502    0  0.13175678630E+02  0.11115128329E+02  0.25515378683E+02  0.31074934183E+02  0.41800000000E+01 0. -1.
         -5    1    3    3    0  502 -0.11472561983E+02 -0.26507176424E+03  0.36794451407E+03  0.45364666616E+03  0.41800000000E+01 0. -1.
        -11    1    4    4    0    0  0.32511519759E+02  0.11338755660E+03 -0.96930842072E+02  0.15267391740E+03  0.00000000000E+00 0.  1.
         11    1    4    4    0    0 -0.34214636407E+02  0.14056907932E+03 -0.45230210569E+02  0.15157862433E+03  0.00000000000E+00 0. -1.
</event>
<event>
 8    1  0.3528896E-009  0.1479212E+03  0.7561462E-02  0.1203051E+00
         -2   -1    0    0    0  501 -0.00000000000E+00  0.00000000000E+00  0.32356501428E+02  0.32356501428E+02  0.00000000000E+00 0.  1.
          2   -1    0    0  501    0  0.00000000000E+00 -0.00000000000E+00 -0.89203378685E+03  0.89203378685E+03  0.00000000000E+00 0. -1.
         25    2    1    2    0    0  0.12481739756E+03  0.31780958770E+02 -0.52229887166E+03  0.55229826249E+03  0.12509135598E+03 0.  0.
         23    2    1    2    0    0 -0.12481739756E+03 -0.31780958770E+02 -0.33737841376E+03  0.37209202578E+03  0.89659742957E+02 0.  0.
          5    1    3    3  502    0  0.58414572517E+02 -0.11338916881E+02 -0.41291847247E+03  0.41720495038E+03  0.41800000000E+01 0. -1.
         -5    1    3    3    0  502  0.66402825041E+02  0.43119875651E+02 -0.10938039919E+03  0.13509331211E+03  0.41800000000E+01 0. -1.
        -11    1    4    4    0    0 -0.12496428047E+02  0.27278150880E+02 -0.67329299768E+02  0.73712229899E+02  0.00000000000E+00 0.  1.
         11    1    4    4    0    0 -0.11232096951E+03 -0.59059109650E+02 -0.27004911399E+03  0.29837979589E+03  0.00000000000E+00 0. -1.
</event>
<event>
 8    1  0.3528896E-009  0.1069831E+03  0.7561462E-02  0.1266261E+00
          1   -1    0    0  501    0  0.00000000000E+00  0.00000000000E+00  0.90305079877E+03  0.90305079877E+03  0.00000000000E+00 0. -1.
         -1   -1    0    0    0  501 -0.00000000000E+00 -0.00000000000E+00 -0.17946104907E+02  0.17946104907E+02  0.00000000000E+00 0.  1.
         25    2    1    2    0    0 -0.57472531948E+02  0.19493499645E+02  0.58452753380E+03  0.60083537602E+03  0.12509045871E+03 0.  0.
         23    2    1    2    0    0  0.57472531948E+02 -0.19493499645E+02  0.30057716007E+03  0.32016152765E+03  0.92052627217E+02 0.  0.
          5    1    3    3  502    0 -0.17985991213E+02  0.50692472860E+02  0.49593957761E+03  0.49886547257E+03  0.41800000000E+01 0. -1.
         -5    1    3    3    0  502 -0.39486540736E+02 -0.31198973215E+02  0.88587956187E+02  0.10196990345E+03  0.41800000000E+01 0. -1.
        -11    1    4    4    0    0  0.76494727836E+02 -0.35804742881E+02  0.24631436179E+03  0.26039237282E+03  0.00000000000E+00 0.  1.
         11    1    4    4    0    0 -0.19022195888E+02  0.16311243236E+02  0.54262798275E+02  0.59769154828E+02  0.00000000000E+00 0. -1.
</event>
<event>
 8    1  0.3528896E-009  0.1332749E+03  0.7561462E-02  0.1222676E+00
         -1   -1    0    0    0  501 -0.00000000000E+00  0.00000000000E+00  0.90750236194E+02  0.90750236194E+02  0.00000000000E+00 0.  1.
          1   -1    0    0  501    0  0.00000000000E+00 -0.00000000000E+00 -0.36133016674E+03  0.36133016674E+03  0.00000000000E+00 0. -1.
         25    2    1    2    0    0 -0.88250431298E+02  0.18153221912E+02 -0.12007528416E+01  0.15416831678E+03  0.12509496394E+03 0.  0.
         23    2    1    2    0    0  0.88250431298E+02 -0.18153221912E+02 -0.26937917771E+03  0.29791208615E+03  0.89826452693E+02 0.  0.
          5    1    3    3  502    0 -0.98924310459E+02 -0.22984953949E+02 -0.25821470498E+02  0.10487396267E+03  0.41800000000E+01 0. -1.
         -5    1    3    3    0  502  0.10673879161E+02  0.41138175861E+02  0.24620717656E+02  0.49294354113E+02  0.41800000000E+01 0. -1.
        -11    1    4    4    0    0  0.15040440920E+02 -0.42471293499E+02 -0.14217997353E+03  0.14914814953E+03  0.00000000000E+00 0. -1.
         11    1    4    4    0    0  0.73209990378E+02  0.24318071587E+02 -0.12719920418E+03  0.14876393663E+03  0.00000000000E+00 0.  1.
</event>
<event>
 8    1  0.3528896E-009  0.1201305E+03  0.7561462E-02  0.1242882E+00
         -1   -1    0    0    0  501 -0.00000000000E+00  0.00000000000E+00  0.14362393849E+03  0.14362393849E+03  0.00000000000E+00 0.  1.
          1   -1    0    0  501    0  0.00000000000E+00 -0.00000000000E+00 -0.10836714348E+03  0.10836714348E+03  0.00000000000E+00 0. -1.
         25    2    1    2    0    0  0.26817897775E+02  0.55113236632E+02  0.13835060636E+02  0.13995901238E+03  0.12506177574E+03 0.  0.
         23    2    1    2    0    0 -0.26817897775E+02 -0.55113236632E+02  0.21421734373E+02  0.11203206958E+03  0.91299646316E+02 0.  0.
          5    1    3    3  502    0 -0.51713851544E+01  0.85918265173E+02 -0.14108865664E+02  0.87322528623E+02  0.41800000000E+01 0. -1.
         -5    1    3    3    0  502  0.31989282929E+02 -0.30805028540E+02  0.27943926301E+02  0.52636483762E+02  0.41800000000E+01 0. -1.
        -11    1    4    4    0    0 -0.53685661970E+02 -0.61729544619E+02  0.11383289342E+02  0.82597011182E+02  0.00000000000E+00 0.  1.
         11    1    4    4    0    0  0.26867764195E+02  0.66163079864E+01  0.10038445031E+02  0.29435058397E+02  0.00000000000E+00 0. -1.
</event>
<event>
 8    1  0.3528896E-009  0.1174931E+03  0.7561462E-02  0.1247291E+00
         -3   -1    0    0    0  501 -0.00000000000E+00  0.00000000000E+00  0.56331585240E+02  0.56331585240E+02  0.00000000000E+00 0.  1.
          3   -1    0    0  501    0  0.00000000000E+00 -0.00000000000E+00 -0.32235844882E+03  0.32235844882E+03  0.00000000000E+00 0. -1.
         25    2    1    2    0    0 -0.52933162288E+02  0.31993142357E+01 -0.21288818409E+03  0.25254880103E+03  0.12508941880E+03 0.  0.
         23    2    1    2    0    0  0.52933162288E+02 -0.31993142357E+01 -0.53138679488E+02  0.12614123303E+03  0.10136930566E+03 0.  0.
          5    1    3    3  502    0  0.97071327687E+01  0.44589043535E+02 -0.29909607385E+02  0.54721734657E+02  0.41800000000E+01 0.  1.
         -5    1    3    3    0  502 -0.62640295057E+02 -0.41389729299E+02 -0.18297857671E+03  0.19782706637E+03  0.41800000000E+01 0.  1.
        -11    1    4    4    0    0  0.45352578001E+02 -0.49450039985E+02 -0.25833365453E+02  0.71899412769E+02  0.00000000000E+00 0.  1.
         11    1    4    4    0    0  0.75805842872E+01  0.46250725750E+02 -0.27305314034E+02  0.54241820259E+02  0.00000000000E+00 0. -1.
</event>
<event>
 8    1  0.3528896E-009  0.8516430E+02  0.7561462E-02  0.1315003E+00
          2   -1    0    0  501    0  0.00000000000E+00  0.00000000000E+00  0.14481961262E+04  0.14481961262E+04  0.00000000000E+00 0.  1.
         -2   -1    0    0    0  501 -0.00000000000E+00 -0.00000000000E+00 -0.10578587856E+02  0.10578587856E+02  0.00000000000E+00 0. -1.
         25    2    1    2    0    0 -0.36599187084E+02  0.37609067453E+02  0.96560089662E+03  0.97508379110E+03  0.12509742470E+03 0.  0.
         23    2    1    2    0    0  0.36599187084E+02 -0.37609067453E+02  0.47201664171E+03  0.48369092294E+03  0.91669277480E+02 0.  0.
          5    1    3    3  502    0 -0.62515995774E+01  0.33976900875E+02  0.91607734780E+03  0.91673807156E+03  0.41800000000E+01 0.  1.
         -5    1    3    3    0  502 -0.30347587506E+02  0.36321665786E+01  0.49523548820E+02  0.58345719545E+02  0.41800000000E+01 0.  1.
        -11    1    4    4    0    0 -0.20140378851E+02 -0.43202162553E+02  0.24749191849E+03  0.25204029723E+03  0.00000000000E+00 0.  1.
         11    1    4    4    0    0  0.56739565935E+02  0.55930950996E+01  0.22452472322E+03  0.23165062571E+03  0.00000000000E+00 0. -1.
</event>
<event>
 8    1  0.3528896E-009  0.1586383E+03  0.7561462E-02  0.1190243E+00
          1   -1    0    0  501    0  0.00000000000E+00  0.00000000000E+00  0.56445988996E+03  0.56445988996E+03  0.00000000000E+00 0. -1.
         -1   -1    0    0    0  501 -0.00000000000E+00 -0.00000000000E+00 -0.76904420880E+02  0.76904420880E+02  0.00000000000E+00 0.  1.
         25    2    1    2    0    0  0.13198672598E+03  0.22158314599E+02  0.75008218136E+02  0.19795620075E+03  0.12509571491E+03 0.  0.
         23    2    1    2    0    0 -0.13198672598E+03 -0.22158314599E+02  0.41254725094E+03  0.44340811009E+03  0.92217303632E+02 0.  0.
          5    1    3    3  502    0  0.15620726963E+02  0.55171831270E+02  0.45659600770E+02  0.73418046957E+02  0.41800000000E+01 0.  1.
         -5    1    3    3    0  502  0.11636599902E+03 -0.33013516671E+02  0.29348617367E+02  0.12453815380E+03  0.41800000000E+01 0.  1.
        -11    1    4    4    0    0 -0.42777110859E+02 -0.24909769477E+02  0.27514718796E+03  0.27956457729E+03  0.00000000000E+00 0. -1.
         11    1    4    4    0    0 -0.89209615120E+02  0.27514548787E+01  0.13740006298E+03  0.16384353280E+03  0.00000000000E+00 0.  1.
</event>
<event>
 8    1  0.3528896E-009  0.2756654E+03  0.7561462E-02  0.1098080E+00
          2   -1    0    0  501    0  0.00000000000E+00  0.00000000000E+00  0.10271865950E+04  0.10271865950E+04  0.00000000000E+00 0. -1.
         -2   -1    0    0    0  501 -0.00000000000E+00 -0.00000000000E+00 -0.76758285325E+02  0.76758285325E+02  0.00000000000E+00 0.  1.
         25    2    1    2    0    0 -0.20917597182E+03 -0.14556050881E+03  0.39795561744E+03  0.48883369314E+03  0.12508899705E+03 0.  0.
         23    2    1    2    0    0  0.20917597182E+03  0.14556050881E+03  0.55247269219E+03  0.61511118714E+03  0.90516562146E+02 0.  0.
          5    1    3    3  502    0 -0.18034703303E+02 -0.74853884561E+02  0.79717180695E+02  0.11090832185E+03  0.41800000000E+01 0. -1.
         -5    1    3    3    0  502 -0.19114126852E+03 -0.70706624246E+02  0.31823843675E+03  0.37792537129E+03  0.41800000000E+01 0. -1.
        -11    1    4    4    0    0  0.98778802308E+02  0.12290720087E+03  0.31593370316E+03  0.35309706399E+03  0.00000000000E+00 0. -1.
         11    1    4    4    0    0  0.11039716951E+03  0.22653307936E+02  0.23653898903E+03  0.26201412315E+03  0.00000000000E+00 0.  1.
</event>
<event>
 8    1  0.3528896E-009  0.7483703E+02  0.7561462E-02  0.1344376E+00
         -3   -1    0    0    0  501 -0.00000000000E+00  0.00000000000E+00  0.76323819555E+02  0.76323819555E+02  0.00000000000E+00 0.  1.
          3   -1    0    0  501    0  0.00000000000E+00 -0.00000000000E+00 -0.17503892505E+03  0.17503892505E+03  0.00000000000E+00 0. -1.
         25    2    1    2    0    0 -0.32926416057E+02 -0.13142719183E+02 -0.77241765244E+02  0.15123130303E+03  0.12509091405E+03 0.  0.
         23    2    1    2    0    0  0.32926416057E+02  0.13142719183E+02 -0.21473340251E+02  0.10013144157E+03  0.91149993462E+02 0.  0.
          5    1    3    3  502    0 -0.34724486567E+02  0.28165622210E+02  0.17170748999E+02  0.48077013873E+02  0.41800000000E+01 0. -1.
         -5    1    3    3    0  502  0.17980705097E+01 -0.41308341393E+02 -0.94412514243E+02  0.10315428916E+03  0.41800000000E+01 0. -1.
        -11    1    4    4    0    0  0.32262600645E+02  0.31352807352E+02  0.24109996805E+02  0.51040825573E+02  0.00000000000E+00 0.  1.
         11    1    4    4    0    0  0.66381541174E+00 -0.18210088170E+02 -0.45583337056E+02  0.49090616000E+02  0.00000000000E+00 0. -1.
</event>
<event>
 8    1  0.3528896E-009  0.1536338E+03  0.7561462E-02  0.1196078E+00
         -2   -1    0    0    0  501 -0.00000000000E+00  0.00000000000E+00  0.11896002383E+03  0.11896002383E+03  0.00000000000E+00 0. -1.
          2   -1    0    0  501    0  0.00000000000E+00 -0.00000000000E+00 -0.26164096283E+03  0.26164096283E+03  0.00000000000E+00 0.  1.
         25    2    1    2    0    0 -0.13778408625E+03 -0.12703680277E+02 -0.77574523261E+02  0.20201977014E+03  0.12509333697E+03 0.  0.
         23    2    1    2    0    0  0.13778408625E+03  0.12703680277E+02 -0.65106415736E+02  0.17858121652E+03  0.92231055549E+02 0.  0.
          5    1    3    3  502    0 -0.81215741108E+02 -0.43105151561E+02  0.10825231150E+02  0.92675286480E+02  0.41800000000E+01 0.  1.
         -5    1    3    3    0  502 -0.56568345138E+02  0.30401471284E+02 -0.88399754412E+02  0.10934448366E+03  0.41800000000E+01 0.  1.
        -11    1    4    4    0    0  0.55077074482E+02 -0.24378457002E+02  0.97646711305E+01  0.61017555683E+02  0.00000000000E+00 0. -1.
         11    1    4    4    0    0  0.82707011763E+02  0.37082137280E+02 -0.74871086866E+02  0.11756366083E+03  0.00000000000E+00 0.  1.
</event>
<event>
 8    1  0.3528896E-009  0.1005811E+03  0.7561462E-02  0.1279079E+00
          2   -1    0    0  501    0  0.00000000000E+00  0.00000000000E+00  0.83032698993E+03  0.83032698993E+03  0.00000000000E+00 0. -1.
         -2   -1    0    0    0  501 -0.00000000000E+00 -0.00000000000E+00 -0.20982988255E+02  0.20982988255E+02  0.00000000000E+00 0.  1.
         25    2    1    2    0    0 -0.31818276783E+02 -0.45466818690E+02  0.61438013495E+03  0.62943705221E+03  0.12509363745E+03 0.  0.
         23    2    1    2    0    0  0.31818276783E+02  0.45466818690E+02  0.19496386673E+03  0.22187292598E+03  0.90205607447E+02 0.  0.
          5    1    3    3  502    0 -0.92718177287E+01 -0.73524597120E+02  0.19753449399E+03  0.21101938702E+03  0.41800000000E+01 0.  1.
         -5    1    3    3    0  502 -0.22546459054E+02  0.28057778430E+02  0.41684564096E+03  0.41841766518E+03  0.41800000000E+01 0.  1.
        -11    1    4    4    0    0 -0.51692863110E+01  0.52750837441E+02  0.16622150580E+03  0.17446765133E+03  0.00000000000E+00 0.  1.
         11    1    4    4    0    0  0.36987563094E+02 -0.72840187510E+01  0.28742360932E+02  0.47405274651E+02  0.00000000000E+00 0. -1.
</event>
<event>
 8    1  0.3528896E-009  0.1496420E+03  0.7561462E-02  0.1200914E+00
          4   -1    0    0  501    0  0.00000000000E+00  0.00000000000E+00  0.13351685020E+03  0.13351685020E+03  0.00000000000E+00 0. -1.
         -4   -1    0    0    0  501 -0.00000000000E+00 -0.00000000000E+00 -0.26316397490E+03  0.26316397490E+03  0.00000000000E+00 0.  1.
         25    2    1    2    0    0  0.86403367861E+02  0.87292292595E+02  0.26153787932E+02  0.17724870327E+03  0.12509035080E+03 0.  0.
         23    2    1    2    0    0 -0.86403367861E+02 -0.87292292595E+02 -0.15580091264E+03  0.21943212183E+03  0.93760574799E+02 0.  0.
          5    1    3    3  502    0  0.82275498401E+02  0.24119304873E+02 -0.31582228922E+02  0.91465338179E+02  0.41800000000E+01 0. -1.
         -5    1    3    3    0  502  0.41278694600E+01  0.63172987722E+02  0.57736016854E+02  0.85783365090E+02  0.41800000000E+01 0. -1.
        -11    1    4    4    0    0  0.84716418995E+01  0.10670245358E+02 -0.18239803360E+01  0.13745899634E+02  0.00000000000E+00 0. -1.
         11    1    4    4    0    0 -0.94875009760E+02 -0.97962537953E+02 -0.15397693230E+03  0.20568622219E+03  0.00000000000E+00 0.  1.
</event>
<event>
 8    1  0.3528896E-009  0.1166037E+03  0.7561462E-02  0.1248807E+00
          4   -1    0    0  501    0  0.00000000000E+00  0.00000000000E+00  0.41202662769E+02  0.41202662769E+02  0.00000000000E+00 0. -1.
         -4   -1    0    0    0  501 -0.00000000000E+00 -0.00000000000E+00 -0.35015427625E+03  0.35015427625E+03  0.00000000000E+00 0.  1.
         25    2    1    2    0    0 -0.48738905300E+02  0.76976602614E+01 -0.14567441104E+03  0.19824888840E+03  0.12508738088E+03 0.  0.
         23    2    1    2    0    0  0.48738905300E+02 -0.76976602614E+01 -0.16327720243E+03  0.19310805062E+03  0.90534742032E+02 0.  0.
          5    1    3    3  502    0  0.38262014222E+02  0.24625968178E+02 -0.47150099738E+02  0.65658391286E+02  0.41800000000E+01 0.  1.
         -5    1    3    3    0  502 -0.87000919522E+02 -0.16928307916E+02 -0.98524311306E+02  0.13259049711E+03  0.41800000000E+01 0.  1.
        -11    1    4    4    0    0 -0.20773741792E+02 -0.19244340337E+02 -0.24412605199E+02  0.37388076651E+02  0.00000000000E+00 0. -1.
         11    1    4    4    0    0  0.69512647092E+02  0.11546680076E+02 -0.13886459723E+03  0.15571997397E+03  0.00000000000E+00 0.  1.
</event>
<event>
 8    1  0.3528896E-009  0.7552792E+02  0.7561462E-02  0.1342244E+00
         -2   -1    0    0    0  501 -0.00000000000E+00  0.00000000000E+00  0.51472142359E+03  0.51472142359E+03  0.00000000000E+00 0.  1.
          2   -1    0    0  501    0  0.00000000000E+00 -0.00000000000E+00 -0.28103258142E+02  0.28103258142E+02  0.00000000000E+00 0. -1.
         25    2    1    2    0    0  0.33396405609E+02 -0.15231474004E+02  0.35902558658E+03  0.38196259718E+03  0.12509490842E+03 0.  0.
         23    2    1    2    0    0 -0.33396405609E+02  0.15231474004E+02  0.12759257887E+03  0.16086208456E+03  0.90826352774E+02 0.  0.
          5    1    3    3  502    0  0.51402951061E+02 -0.54586208015E+01  0.35723123375E+03  0.36097601954E+03  0.41800000000E+01 0. -1.
         -5    1    3    3    0  502 -0.18006545453E+02 -0.97728532027E+01  0.17943528383E+01  0.20986577638E+02  0.41800000000E+01 0. -1.
        -11    1    4    4    0    0  0.34762475214E+01 -0.24113660456E+02  0.94510808813E+02  0.97600440060E+02  0.00000000000E+00 0.  1.
         11    1    4    4    0    0 -0.36872653130E+02  0.39345134461E+02  0.33081770054E+02  0.63261644497E+02  0.00000000000E+00 0. -1.
</event>
<event>
 8    1  0.3528896E-009  0.1144767E+03  0.7561462E-02  0.1252497E+00
          1   -1    0    0  501    0  0.00000000000E+00  0.00000000000E+00  0.45491990780E+03  0.45491990780E+03  0.00000000000E+00 0. -1.
         -1   -1    0    0    0  501 -0.00000000000E+00 -0.00000000000E+00 -0.40123817862E+02  0.40123817862E+02  0.00000000000E+00 0.  1.
         25    2    1    2    0    0 -0.41811600222E+02  0.51127221071E+02  0.30697029041E+03  0.33799693107E+03  0.12509581754E+03 0.  0.
         23    2    1    2    0    0  0.41811600222E+02 -0.51127221071E+02  0.10782579953E+03  0.15704679460E+03  0.93140163205E+02 0.  0.
          5    1    3    3  502    0 -0.72238576492E+02  0.84872171075E+01  0.25040740313E+03  0.26079069142E+03  0.41800000000E+01 0. -1.
         -5    1    3    3    0  502  0.30426976270E+02  0.42640003964E+02  0.56562887282E+02  0.77206239649E+02  0.41800000000E+01 0. -1.
        -11    1    4    4    0    0  0.65585853959E+02 -0.31694416660E+02  0.41202576405E+02  0.83688067186E+02  0.00000000000E+00 0. -1.
         11    1    4    4    0    0 -0.23774253738E+02 -0.19432804411E+02  0.66623223123E+02  0.73358727411E+02  0.00000000000E+00 0.  1.
</event>
<event>
 8    1  0.3528896E-009  0.1540633E+03  0.7561462E-02  0.1195567E+00
          3   -1    0    0  501    0  0.00000000000E+00  0.00000000000E+00  0.83720455481E+02  0.83720455481E+02  0.00000000000E+00 0. -1.
         -3   -1    0    0    0  501 -0.00000000000E+00 -0.00000000000E+00 -0.50338561374E+03  0.50338561374E+03  0.00000000000E+00 0.  1.
         25    2    1    2    0    0  0.11002644849E+03 -0.62187271594E+02 -0.39254957024E+03  0.43094790411E+03  0.12509138597E+03 0.  0.
         23    2    1    2    0    0 -0.11002644849E+03  0.62187271594E+02 -0.27115588009E+02  0.15615816510E+03  0.87618726875E+02 0.  0.
          5    1    3    3  502    0  0.94498765341E+02  0.65658690760E+01 -0.14283120139E+03  0.17143906142E+03  0.41800000000E+01 0. -1.
         -5    1    3    3    0  502  0.15527683152E+02 -0.68753140670E+02 -0.24971836885E+03  0.25950884270E+03  0.41800000000E+01 0. -1.
        -11    1    4    4    0    0 -0.50017318781E+02 -0.76744990147E+01 -0.38192508371E+02  0.63397932212E+02  0.00000000000E+00 0.  1.
         11    1    4    4    0    0 -0.60009129712E+02  0.69861770609E+02  0.11076920361E+02  0.92760232892E+02  0.00000000000E+00 0. -1.
</event>
<event>
 8    1  0.3528896E-009  0.8576064E+02  0.7561462E-02  0.1313455E+00
          2   -1    0    0  501    0  0.00000000000E+00  0.00000000000E+00  0.65691030087E+02  0.65691030087E+02  0.00000000000E+00 0.  1.
         -2   -1    0    0    0  501 -0.00000000000E+00 -0.00000000000E+00 -0.23137388308E+03  0.23137388308E+03  0.00000000000E+00 0. -1.
         25    2    1    2    0    0 -0.30480573450E+02 -0.28199691519E+02 -0.14104806681E+03  0.19304396709E+03  0.12508848116E+03 0.  0.
         23    2    1    2    0    0  0.30480573450E+02  0.28199691519E+02 -0.24634786180E+02  0.10402094608E+03  0.92136836137E+02 0.  0.
          5    1    3    3  502    0  0.28499057675E+02 -0.30974240713E+02 -0.24886824508E+01  0.42370577250E+02  0.41800000000E+01 0. -1.
         -5    1    3    3    0  502 -0.58979631125E+02  0.27745491940E+01 -0.13855938436E+03  0.15067338984E+03  0.41800000000E+01 0. -1.
        -11    1    4    4    0    0 -0.80976772770E+01 -0.11895654611E+02  0.25399147427E+02  0.29192390549E+02  0.00000000000E+00 0.  1.
         11    1    4    4    0    0  0.38578250727E+02  0.40095346130E+02 -0.50033933607E+02  0.74828555530E+02  0.00000000000E+00 0. -1.
</event>
<event>
 8    1  0.3528896E-009  0.1614231E+03  0.7561462E-02  0.1187099E+00
         -2   -1    0    0    0  501 -0.00000000000E+00  0.00000000000E+00  0.20464859065E+03  0.20464859065E+03  0.00000000000E+00 0.  1.
          2   -1    0    0  501    0  0.00000000000E+00 -0.00000000000E+00 -0.18257582136E+03  0.18257582136E+03  0.00000000000E+00 0. -1.
         25    2    1    2    0    0 -0.78178737662E+02 -0.11791016672E+03  0.84135101259E+02  0.20673799214E+03  0.12508860736E+03 0.  0.
         23    2    1    2    0    0  0.78178737662E+02  0.11791016672E+03 -0.62062331970E+02  0.18048641987E+03  0.93321445921E+02 0.  0.
          5    1    3    3  502    0 -0.12015754194E+02 -0.94953261261E+02  0.95954471376E+02  0.13559215741E+03  0.41800000000E+01 0.  1.
         -5    1    3    3    0  502 -0.66162983468E+02 -0.22956905460E+02 -0.11819370116E+02  0.71145834732E+02  0.41800000000E+01 0.  1.
        -11    1    4    4    0    0 -0.12610276327E+02  0.16648967982E+02  0.13533418431E+02  0.24886956791E+02  0.00000000000E+00 0.  1.
         11    1    4    4    0    0  0.90789013989E+02  0.10126119874E+03 -0.75595750401E+02  0.15559946308E+03  0.00000000000E+00 0. -1.
</event>
<event>
 8    1  0.3528896E-009  0.1334709E+03  0.7561462E-02  0.1222395E+00
          1   -1    0    0  501    0  0.00000000000E+00  0.00000000000E+00  0.32865258063E+03  0.32865258063E+03  0.00000000000E+00 0. -1.
         -1   -1    0    0    0  501 -0.00000000000E+00 -0.00000000000E+00 -0.73430686697E+02  0.73430686697E+02  0.00000000000E+00 0.  1.
         25    2    1    2    0    0 -0.66563198752E+02  0.73627873934E+02  0.20206229714E+03  0.25754489951E+03  0.12509388509E+03 0.  0.
         23    2    1    2    0    0  0.66563198752E+02 -0.73627873934E+02  0.53159596792E+02  0.14453836782E+03  0.90629320831E+02 0.  0.
          5    1    3    3  502    0 -0.94054675712E+02  0.86674961022E+02  0.17359810445E+03  0.21566781206E+03  0.41800000000E+01 0.  1.
         -5    1    3    3    0  502  0.27491476961E+02 -0.13047087088E+02  0.28464192693E+02  0.41877087442E+02  0.41800000000E+01 0.  1.
        -11    1    4    4    0    0 -0.30289108764E+01 -0.20446604399E+02 -0.21226036475E+02  0.29627395379E+02  0.00000000000E+00 0.  1.
         11    1    4    4    0    0  0.69592109628E+02 -0.53181269535E+02  0.74385633267E+02  0.11491097245E+03  0.00000000000E+00 0. -1.
</event>
<event>
 8    1  0.3528896E-009  0.1092312E+03  0.7561462E-02  0.1262000E+00
         -2   -1    0    0    0  501 -0.00000000000E+00  0.00000000000E+00  0.14094291158E+02  0.14094291158E+02  0.00000000000E+00 0.  1.
          2   -1    0    0  501    0  0.00000000000E+00 -0.00000000000E+00 -0.10322202784E+04  0.10322202784E+04  0.00000000000E+00 0. -1.
         25    2    1    2    0    0 -0.12256261718E+02 -0.30114936605E+02 -0.74578756325E+03  0.75690388676E+03  0.12508908402E+03 0.  0.
         23    2    1    2    0    0  0.12256261718E+02  0.30114936605E+02 -0.27233842401E+03  0.28941068281E+03  0.92375325583E+02 0.  0.
          5    1    3    3  502    0 -0.21066424626E+02  0.43644291887E+02 -0.18863900875E+03  0.19480956466E+03  0.41800000000E+01 0.  1.
         -5    1    3    3    0  502  0.88101629078E+01 -0.73759228492E+02 -0.55714855450E+03  0.56209432210E+03  0.41800000000E+01 0.  1.
        -11    1    4    4    0    0 -0.31022824173E+02  0.40397588297E+02 -0.11241983200E+03  0.12342041722E+03  0.00000000000E+00 0.  1.
         11    1    4    4    0    0  0.43279085891E+02 -0.10282651692E+02 -0.15991859201E+03  0.16599026559E+03  0.00000000000E+00 0. -1.
</event>
<event>
 8    1  0.3528896E-009  0.9354828E+02  0.7561462E-02  0.1294480E+00
         -1   -1    0    0    0  501 -0.00000000000E+00  0.00000000000E+00  0.25731761671E+03  0.25731761671E+03  0.00000000000E+00 0.  1.
          1   -1    0    0  501    0  0.00000000000E+00 -0.00000000000E+00 -0.48080942164E+02  0.48080942164E+02  0.00000000000E+00 0. -1.
         25    2    1    2    0    0  0.74314453921E+01  0.20812388701E+02  0.12831566540E+03  0.18055832418E+03  0.12509203227E+03 0.  0.
         23    2    1    2    0    0 -0.74314453921E+01 -0.20812388701E+02  0.80921009137E+02  0.12484023469E+03  0.92458058461E+02 0.  0.
          5    1    3    3  502    0  0.44665636894E+02  0.29497715892E+02  0.80472668715E+01  0.54289642347E+02  0.41800000000E+01 0. -1.
         -5    1    3    3    0  502 -0.37234191502E+02 -0.86853271908E+01  0.12026839853E+03  0.12626868183E+03  0.41800000000E+01 0. -1.
        -11    1    4    4    0    0 -0.44451907418E+02 -0.33660575516E+02  0.44451353471E+02  0.71308689811E+02  0.00000000000E+00 0. -1.
         11    1    4    4    0    0  0.37020462026E+02  0.12848186815E+02  0.36469655666E+02  0.53531544882E+02  0.00000000000E+00 0.  1.
</event>
<event>
 8    1  0.3528896E-009  0.1247606E+03  0.7561462E-02  0.1235444E+00
         -2   -1    0    0    0  501 -0.00000000000E+00  0.00000000000E+00  0.13774797191E+02  0.13774797191E+02  0.00000000000E+00 0.  1.
          2   -1    0    0  501    0  0.00000000000E+00 -0.00000000000E+00 -0.12268988088E+04  0.12268988088E+04  0.00000000000E+00 0. -1.
         25    2    1    2    0    0  0.59919323730E+02 -0.18219442015E+02 -0.82887221324E+03  0.84059443823E+03  0.12509032851E+03 0.  0.
         23    2    1    2    0    0 -0.59919323730E+02  0.18219442015E+02 -0.38425179836E+03  0.40007916774E+03  0.92149999991E+02 0.  0.
          5    1    3    3  502    0 -0.50893141931E+00 -0.62857751353E+02 -0.31447350077E+03  0.32072170335E+03  0.41800000000E+01 0. -1.
         -5    1    3    3    0  502  0.60428255149E+02  0.44638309338E+02 -0.51439871247E+03  0.51987273488E+03  0.41800000000E+01 0. -1.
        -11    1    4    4    0    0  0.33755367850E+01  0.43127485656E+02 -0.15921561741E+03  0.16498783923E+03  0.00000000000E+00 0.  1.
         11    1    4    4    0    0 -0.63294860515E+02 -0.24908043642E+02 -0.22503618095E+03  0.23509132851E+03  0.00000000000E+00 0. -1.
</event>
<event>
 8    1  0.3528896E-009  0.9983350E+02  0.7561462E-02  0.1280646E+00
         -2   -1    0    0    0  501 -0.00000000000E+00  0.00000000000E+00  0.63479566571E+02  0.63479566571E+02  0.00000000000E+00 0.  1.
          2   -1    0    0  501    0  0.00000000000E+00 -0.00000000000E+00 -0.35772193344E+03  0.35772193344E+03  0.00000000000E+00 0. -1.
         25    2    1    2    0    0 -0.82598655996E+02  0.28174849888E+01 -0.24705364341E+03  0.28898703406E+03  0.12509007531E+03 0.  0.
         23    2    1    2    0    0  0.82598655996E+02 -0.28174849888E+01 -0.47188723456E+02  0.13221446594E+03  0.91779154439E+02 0.  0.
          5    1    3    3  502    0 -0.75855679432E+02  0.24307198309E+02 -0.25303680561E+03  0.26531117840E+03  0.41800000000E+01 0. -1.
         -5    1    3    3    0  502 -0.67429765642E+01 -0.21489713320E+02  0.59831621979E+01  0.23675855663E+02  0.41800000000E+01 0. -1.
        -11    1    4    4    0    0  0.77210739281E+02  0.14761232072E+02  0.30999093446E+01  0.78670208278E+02  0.00000000000E+00 0.  1.
         11    1    4    4    0    0  0.53879167148E+01 -0.17578717061E+02 -0.50288632801E+02  0.53544257666E+02  0.00000000000E+00 0. -1.
</event>
<event>
 8    1  0.3528896E-009  0.1515399E+03  0.7561462E-02  0.1198593E+00
         -3   -1    0    0    0  501 -0.00000000000E+00  0.00000000000E+00  0.33396843528E+03  0.33396843528E+03  0.00000000000E+00 0.  1.
          3   -1    0    0  501    0  0.00000000000E+00 -0.00000000000E+00 -0.10827171030E+03  0.10827171030E+03  0.00000000000E+00 0. -1.
         25    2    1    2    0    0 -0.40279851127E+02 -0.11900529574E+03  0.30193342083E+01  0.17731456663E+03  0.12508641948E+03 0.  0.
         23    2    1    2    0    0  0.40279851127E+02  0.11900529574E+03  0.22267739077E+03  0.26492557895E+03  0.69394633784E+02 0.  0.
          5    1    3    3  502    0 -0.73040457066E+02 -0.88867318851E+02  0.37271968308E+02  0.12099165570E+03  0.41800000000E+01 0. -1.
         -5    1    3    3    0  502  0.32760605939E+02 -0.30137976893E+02 -0.34252634100E+02  0.56322910928E+02  0.41800000000E+01 0. -1.
        -11    1    4    4    0    0  0.54824291029E+02  0.55124091793E+02  0.11276673777E+03  0.13696972487E+03  0.00000000000E+00 0. -1.
         11    1    4    4    0    0 -0.14544439902E+02  0.63881203951E+02  0.10991065300E+03  0.12795585408E+03  0.00000000000E+00 0.  1.
</event>
<event>
 8    1  0.3528896E-009  0.1008930E+03  0.7561462E-02  0.1278429E+00
         -3   -1    0    0    0  501 -0.00000000000E+00  0.00000000000E+00  0.32750578013E+03  0.32750578013E+03  0.00000000000E+00 0.  1.
          3   -1    0    0  501    0  0.00000000000E+00 -0.00000000000E+00 -0.45552014250E+02  0.45552014250E+02  0.00000000000E+00 0. -1.
         25    2    1    2    0    0  0.43436079529E+02 -0.13491239580E+02  0.20840593521E+03  0.24727125550E+03  0.12506531659E+03 0.  0.
         23    2    1    2    0    0 -0.43436079529E+02  0.13491239580E+02  0.73547830677E+02  0.12578653889E+03  0.91346939839E+02 0.  0.
          5    1    3    3  502    0  0.67020063321E+00 -0.57934650867E+02  0.15517797095E+03  0.16569413993E+03  0.41800000000E+01 0. -1.
         -5    1    3    3    0  502  0.42765878896E+02  0.44443411288E+02  0.53227964260E+02  0.81577115565E+02  0.41800000000E+01 0. -1.
        -11    1    4    4    0    0  0.18410211944E+02 -0.70219445117E+00  0.57436583151E+02  0.60319068833E+02  0.00000000000E+00 0.  1.
         11    1    4    4    0    0 -0.61846291473E+02  0.14193434031E+02  0.16111247526E+02  0.65467470055E+02  0.00000000000E+00 0. -1.
</event>
<event>
 8    1  0.3528896E-009  0.2812489E+03  0.7561462E-02  0.1095009E+00
         -2   -1    0    0    0  501 -0.00000000000E+00  0.00000000000E+00  0.71016894052E+03  0.71016894052E+03  0.00000000000E+00 0.  1.
          2   -1    0    0  501    0  0.00000000000E+00 -0.00000000000E+00 -0.13332448841E+03  0.13332448841E+03  0.00000000000E+00 0. -1.
         25    2    1    2    0    0  0.13587476387E+03  0.24012838324E+03  0.18409605147E+03  0.35449340326E+03  0.12510245760E+03 0.  0.
         23    2    1    2    0    0 -0.13587476387E+03 -0.24012838324E+03  0.39274840064E+03  0.48900002567E+03  0.93520730338E+02 0.  0.
          5    1    3    3  502    0  0.76324147097E+02  0.19883202417E+03  0.79910901540E+02  0.22751433768E+03  0.41800000000E+01 0. -1.
         -5    1    3    3    0  502  0.59550616770E+02  0.41296359065E+02  0.10418514993E+03  0.12697906558E+03  0.41800000000E+01 0. -1.
        -11    1    4    4    0    0 -0.87204230321E+02 -0.13063719761E+03  0.14485544336E+03  0.21366739259E+03  0.00000000000E+00 0. -1.
         11    1    4    4    0    0 -0.48670533546E+02 -0.10949118563E+03  0.24789295729E+03  0.27533263308E+03  0.00000000000E+00 0.  1.
</event>
<event>
 8    1  0.3528896E-009  0.9523814E+02  0.7561462E-02  0.1290641E+00
          2   -1    0    0  501    0  0.00000000000E+00  0.00000000000E+00  0.77444706052E+03  0.77444706052E+03  0.00000000000E+00 0. -1.
         -2   -1    0    0    0  501 -0.00000000000E+00 -0.00000000000E+00 -0.17785861235E+02  0.17785861235E+02  0.00000000000E+00 0.  1.
         25    2    1    2    0    0  0.44257055261E+02 -0.98065078333E+01  0.46379462943E+03  0.48250161843E+03  0.12508996348E+03 0.  0.
         23    2    1    2    0    0 -0.44257055261E+02  0.98065078333E+01  0.29286656985E+03  0.30973130332E+03  0.90043311716E+02 0.  0.
          5    1    3    3  502    0  0.38515568386E+02 -0.41795216363E+02  0.43548662160E+03  0.43919968023E+03  0.41800000000E+01 0.  1.
         -5    1    3    3    0  502  0.57414868752E+01  0.31988708529E+02  0.28308007832E+02  0.43301938205E+02  0.41800000000E+01 0.  1.
        -11    1    4    4    0    0 -0.48235092287E+02  0.44602855484E+02  0.18470212420E+03  0.19603804102E+03  0.00000000000E+00 0.  1.
         11    1    4    4    0    0  0.39780370257E+01 -0.34796347651E+02  0.10816444566E+03  0.11369326230E+03  0.00000000000E+00 0. -1.
</event>
<event>
 8    1  0.3528896E-009  0.1002190E+03  0.7561462E-02  0.1279836E+00
          2   -1    0    0  501    0  0.00000000000E+00  0.00000000000E+00  0.85502290173E+02  0.85502290173E+02  0.00000000000E+00 0.  1.
         -2   -1    0    0    0  501 -0.00000000000E+00 -0.00000000000E+00 -0.17987704859E+03  0.17987704859E+03  0.00000000000E+00 0. -1.
         25    2    1    2    0    0  0.24257050604E+02 -0.21386016617E+02  0.86698087086E+00  0.12920187966E+03  0.12508640150E+03 0.  0.
         23    2    1    2    0    0 -0.24257050604E+02  0.21386016617E+02 -0.95241739288E+02  0.13617745911E+03  0.91801662598E+02 0.  0.
          5    1    3    3  502    0  0.30426348881E+02  0.34810290441E+02  0.39208955700E+02  0.60764575485E+02  0.41800000000E+01 0. -1.
         -5    1    3    3    0  502 -0.61692982770E+01 -0.56196307058E+02 -0.38341974829E+02  0.68437304170E+02  0.41800000000E+01 0. -1.
        -11    1    4    4    0    0 -0.58266962179E+02  0.22641488189E+01 -0.57591742433E+02  0.81957147631E+02  0.00000000000E+00 0.  1.
         11    1    4    4    0    0  0.34009911575E+02  0.19121867799E+02 -0.37649996855E+02  0.54220311477E+02  0.00000000000E+00 0. -1.
</event>
<event>
 8    1  0.3528896E-009  0.1093407E+03  0.7561462E-02  0.1261796E+00
         -1   -1    0    0    0  501 -0.00000000000E+00  0.00000000000E+00  0.89832462102E+02  0.89832462102E+02  0.00000000000E+00 0.  1.
          1   -1    0    0  501    0  0.00000000000E+00 -0.00000000000E+00 -0.18357359068E+03  0.18357359068E+03  0.00000000000E+00 0. -1.
         25    2    1    2    0    0  0.22818818868E+02 -0.21125403181E+02  0.12236597289E+02  0.12947741981E+03  0.12509071418E+03 0.  0.
         23    2    1    2    0    0 -0.22818818868E+02  0.21125403181E+02 -0.10597772587E+03  0.14392863296E+03  0.92288633392E+02 0.  0.
          5    1    3    3  502    0  0.27717390572E+02 -0.71154043693E+02 -0.37360720100E+01  0.76567501645E+02  0.41800000000E+01 0.  1.
         -5    1    3    3    0  502 -0.48985717046E+01  0.50028640512E+02  0.15972669299E+02  0.52909918170E+02  0.41800000000E+01 0.  1.
        -11    1    4    4    0    0 -0.55685732856E+02  0.75165380161E+01 -0.40006307416E+02  0.68977560268E+02  0.00000000000E+00 0.  1.
         11    1    4    4    0    0  0.32866913988E+02  0.13608865165E+02 -0.65971418450E+02  0.74951072697E+02  0.00000000000E+00 0. -1.
</event>
<event>
 8    1  0.3528896E-009  0.1058830E+03  0.7561462E-02  0.1268390E+00
          2   -1    0    0  501    0  0.00000000000E+00  0.00000000000E+00  0.74348418645E+02  0.74348418645E+02  0.00000000000E+00 0.  1.
         -2   -1    0    0    0  501 -0.00000000000E+00 -0.00000000000E+00 -0.17402101269E+03  0.17402101269E+03  0.00000000000E+00 0. -1.
         25    2    1    2    0    0 -0.34519395667E+02 -0.97125780637E+01 -0.57306131082E+02  0.14219354329E+03  0.12509631587E+03 0.  0.
         23    2    1    2    0    0  0.34519395667E+02  0.97125780637E+01 -0.42366462962E+02  0.10617588805E+03  0.90512315012E+02 0.  0.
          5    1    3    3  502    0 -0.27377621591E+02  0.48559819738E+02 -0.61594867912E+02  0.83180468922E+02  0.41800000000E+01 0. -1.
         -5    1    3    3    0  502 -0.71417740756E+01 -0.58272397801E+02  0.42887368302E+01  0.59013074365E+02  0.41800000000E+01 0. -1.
        -11    1    4    4    0    0 -0.21666549848E+02 -0.23318475548E+02 -0.97259238280E+01  0.33283393434E+02  0.00000000000E+00 0.  1.
         11    1    4    4    0    0  0.56185945514E+02  0.33031053612E+02 -0.32640539134E+02  0.72892494613E+02  0.00000000000E+00 0. -1.
</event>
<event>
 8    1  0.3528896E-009  0.1033694E+03  0.7561462E-02  0.1273366E+00
         -1   -1    0    0    0  501 -0.00000000000E+00  0.00000000000E+00  0.23639075653E+03  0.23639075653E+03  0.00000000000E+00 0.  1.
          1   -1    0    0  501    0  0.00000000000E+00 -0.00000000000E+00 -0.86966204395E+02  0.86966204395E+02  0.00000000000E+00 0. -1.
         25    2    1    2    0    0 -0.20902829064E+02 -0.33603094537E+02 -0.18830980445E+02  0.13254429503E+03  0.12508912061E+03 0.  0.
         23    2    1    2    0    0  0.20902829064E+02  0.33603094537E+02  0.16825553258E+03  0.19081266589E+03  0.80829777905E+02 0.  0.
          5    1    3    3  502    0  0.42647078252E+02  0.13918518486E+02  0.13076644266E+02  0.46914490997E+02  0.41800000000E+01 0.  1.
         -5    1    3    3    0  502 -0.63549907316E+02 -0.47521613023E+02 -0.31907624711E+02  0.85629804034E+02  0.41800000000E+01 0.  1.
        -11    1    4    4    0    0  0.40613962458E+02 -0.29191166721E+01  0.44664146794E+02  0.60439235580E+02  0.00000000000E+00 0. -1.
         11    1    4    4    0    0 -0.19711133393E+02  0.36522211209E+02  0.12359138578E+03  0.13037343031E+03  0.00000000000E+00 0.  1.
</event>
<event>
 8    1  0.3528896E-009  0.1240144E+03  0.7561462E-02  0.1236618E+00
          1   -1    0    0  501    0  0.00000000000E+00  0.00000000000E+00  0.80052738756E+03  0.80052738756E+03  0.00000000000E+00 0. -1.
         -1   -1    0    0    0  501 -0.00000000000E+00 -0.00000000000E+00 -0.24721910300E+02  0.24721910300E+02  0.00000000000E+00 0.  1.
         25    2    1    2    0    0 -0.54224239647E+02  0.37471860521E+02  0.24712175880E+03  0.28471174787E+03  0.12508879730E+03 0.  0.
         23    2    1    2    0    0  0.54224239647E+02 -0.37471860521E+02  0.52868371847E+03  0.54053754999E+03  0.91268616078E+02 0.  0.
          5    1    3    3  502    0  0.40827346663E+02  0.13786477956E+02  0.72242052700E+02  0.84221884260E+02  0.41800000000E+01 0. -1.
         -5    1    3    3    0  502 -0.95051586310E+02  0.23685382565E+02  0.17487970610E+03  0.20048986361E+03  0.41800000000E+01 0. -1.
        -11    1    4    4    0    0 -0.22752355404E+02 -0.11122858475E+02  0.64806628965E+02  0.69579356240E+02  0.00000000000E+00 0.  1.
         11    1    4    4    0    0  0.76976595051E+02 -0.26349002046E+02  0.46387708950E+03  0.47095819375E+03  0.00000000000E+00 0. -1.
</event>
<event>
 8    1  0.3528896E-009  0.9915724E+02  0.7561462E-02  0.1282078E+00
         -1   -1    0    0    0  501 -0.00000000000E+00  0.00000000000E+00  0.11405293604E+03  0.11405293604E+03  0.00000000000E+00 0.  1.
          1   -1    0    0  501    0  0.00000000000E+00 -0.00000000000E+00 -0.10977711189E+03  0.10977711189E+03  0.00000000000E+00 0. -1.
         25    2    1    2    0    0 -0.66622198103E+01  0.29655477329E+01 -0.25747775108E+02  0.12791907003E+03  0.12508861223E+03 0.  0.
         23    2    1    2    0    0  0.66622198103E+01 -0.29655477329E+01  0.30023599258E+02  0.95910977886E+02  0.90798235227E+02 0.  0.
          5    1    3    3  502    0  0.50458665251E+02  0.25198685376E+02 -0.33908688934E+02  0.65941809414E+02  0.41800000000E+01 0.  1.
         -5    1    3    3    0  502 -0.57120885061E+02 -0.22233137643E+02  0.81609138265E+01  0.61977260621E+02  0.41800000000E+01 0.  1.
        -11    1    4    4    0    0 -0.29436641263E+02  0.21725833930E+02  0.36522289333E+02  0.51695312427E+02  0.00000000000E+00 0.  1.
         11    1    4    4    0    0  0.36098861074E+02 -0.24691381663E+02 -0.64986900746E+01  0.44215665458E+02  0.00000000000E+00 0. -1.
</event>
<event>
 8    1  0.3528896E-009  0.1083495E+03  0.7561462E-02  0.1263657E+00
         -2   -1    0    0    0  501 -0.00000000000E+00  0.00000000000E+00  0.86550627472E+02  0.86550627472E+02  0.00000000000E+00 0.  1.
          2   -1    0    0  501    0  0.00000000000E+00 -0.00000000000E+00 -0.23008965371E+03  0.23008965371E+03  0.00000000000E+00 0. -1.
         25    2    1    2    0    0 -0.10489975521E+02  0.71445613722E+02 -0.13737601102E+03  0.19933324496E+03  0.12508820422E+03 0.  0.
         23    2    1    2    0    0  0.10489975521E+02 -0.71445613722E+02 -0.61630152173E+01  0.11730703622E+03  0.92241220093E+02 0.  0.
          5    1    3    3  502    0 -0.59033783548E+02  0.43788157657E+02 -0.11980446212E+03  0.14061639981E+03  0.41800000000E+01 0. -1.
         -5    1    3    3    0  502  0.48543808028E+02  0.27657456065E+02 -0.17571548901E+02  0.58716845152E+02  0.41800000000E+01 0. -1.
        -11    1    4    4    0    0  0.30096558431E+02 -0.41676702856E+02  0.35501710519E+02  0.62474969708E+02  0.00000000000E+00 0.  1.
         11    1    4    4    0    0 -0.19606582911E+02 -0.29768910867E+02 -0.41664725736E+02  0.54832066515E+02  0.00000000000E+00 0. -1.
</event>
<event>
 8    1  0.3528896E-009  0.1122196E+03  0.7561462E-02  0.1256514E+00
         -1   -1    0    0    0  501 -0.00000000000E+00  0.00000000000E+00  0.41026073136E+02  0.41026073136E+02  0.00000000000E+00 0.  1.
          1   -1    0    0  501    0  0.00000000000E+00 -0.00000000000E+00 -0.57072328389E+03  0.57072328389E+03  0.00000000000E+00 0. -1.
         25    2    1    2    0    0 -0.40284039199E+01 -0.89155796164E+02 -0.40159177972E+03  0.42998603586E+03  0.12508816676E+03 0.  0.
         23    2    1    2    0    0  0.40284039199E+01  0.89155796164E+02 -0.12810543103E+03  0.18176332117E+03  0.93069433411E+02 0.  0.
          5    1    3    3  502    0  0.26911335733E+02  0.80961797274E+01 -0.19455690860E+02  0.34434930288E+02  0.41800000000E+01 0.  1.
         -5    1    3    3    0  502 -0.30939739653E+02 -0.97251975892E+02 -0.38213608886E+03  0.39555110557E+03  0.41800000000E+01 0.  1.
        -11    1    4    4    0    0 -0.11823802714E+02  0.23037965733E+02  0.10055297521E+02  0.27778754183E+02  0.00000000000E+00 0.  1.
         11    1    4    4    0    0  0.15852206634E+02  0.66117830431E+02 -0.13816072856E+03  0.15398456699E+03  0.00000000000E+00 0. -1.
</event>
<event>
 8    1  0.3528896E-009  0.1602591E+03  0.7561462E-02  0.1188405E+00
         -1   -1    0    0    0  501 -0.00000000000E+00  0.00000000000E+00  0.39366579796E+02  0.39366579796E+02  0.00000000000E+00 0.  1.
          1   -1    0    0  501    0  0.00000000000E+00 -0.00000000000E+00 -0.87142082072E+03  0.87142082072E+03  0.00000000000E+00 0. -1.
         25    2    1    2    0    0 -0.66549726889E+02 -0.13466326273E+03 -0.38718742334E+03  0.43373357210E+03  0.12509056838E+03 0.  0.
         23    2    1    2    0    0  0.66549726889E+02  0.13466326273E+03 -0.44486681758E+03  0.47705382841E+03  0.84325614957E+02 0.  0.
          5    1    3    3  502    0 -0.12728071390E+02 -0.15003765422E+02 -0.22118829160E+03  0.22210098946E+03  0.41800000000E+01 0. -1.
         -5    1    3    3    0  502 -0.53821655499E+02 -0.11965949731E+03 -0.16599913174E+03  0.21163258264E+03  0.41800000000E+01 0. -1.
        -11    1    4    4    0    0  0.48283683128E+02  0.18765305463E+02 -0.18122361181E+03  0.18848195729E+03  0.00000000000E+00 0. -1.
         11    1    4    4    0    0  0.18266043760E+02  0.11589795727E+03 -0.26364320577E+03  0.28857187112E+03  0.00000000000E+00 0.  1.
</event>
<event>
 8    1  0.3528896E-009  0.1168769E+03  0.7561462E-02  0.1248340E+00
          2   -1    0    0  501    0  0.00000000000E+00  0.00000000000E+00  0.16199600979E+04  0.16199600979E+04  0.00000000000E+00 0. -1.
         -2   -1    0    0    0  501 -0.00000000000E+00 -0.00000000000E+00 -0.11536776501E+02  0.11536776501E+02  0.00000000000E+00 0.  1.
         25    2    1    2    0    0  0.66712335232E+02  0.10594928866E+02  0.10840946837E+04  0.10933763751E+04  0.12509127191E+03 0.  0.
         23    2    1    2    0    0 -0.66712335232E+02 -0.10594928866E+02  0.52432863770E+03  0.53812049926E+03  0.10045079999E+03 0.  0.
          5    1    3    3  502    0  0.67627508379E+02  0.42953752163E+02  0.99932033335E+03  0.10025353389E+04  0.41800000000E+01 0. -1.
         -5    1    3    3    0  502 -0.91517314651E+00 -0.32358823297E+02  0.84774350349E+02  0.90841036234E+02  0.41800000000E+01 0. -1.
        -11    1    4    4    0    0 -0.77943398226E+02  0.26347969577E+02  0.34364295220E+03  0.35335515763E+03  0.00000000000E+00 0.  1.
         11    1    4    4    0    0  0.11231062994E+02 -0.36942898444E+02  0.18068568550E+03  0.18476534163E+03  0.00000000000E+00 0. -1.
</event>
<event>
 8    1  0.3528896E-009  0.1451054E+03  0.7561462E-02  0.1206620E+00
         -2   -1    0    0    0  501 -0.00000000000E+00  0.00000000000E+00  0.57967832136E+02  0.57967832136E+02  0.00000000000E+00 0.  1.
          2   -1    0    0  501    0  0.00000000000E+00 -0.00000000000E+00 -0.55977610154E+03  0.55977610154E+03  0.00000000000E+00 0. -1.
         25    2    1    2    0    0 -0.65063273985E+02  0.11196597326E+03 -0.16172239701E+03  0.24201150919E+03  0.12508328465E+03 0.  0.
         23    2    1    2    0    0  0.65063273985E+02 -0.11196597326E+03 -0.34008587240E+03  0.37573242449E+03  0.93524571189E+02 0.  0.
          5    1    3    3  502    0 -0.35213888726E+02  0.10420594940E+03 -0.17614394284E+03  0.20770907262E+03  0.41800000000E+01 0.  1.
         -5    1    3    3    0  502 -0.29849385259E+02  0.77600238577E+01  0.14421545832E+02  0.34302436572E+02  0.41800000000E+01 0.  1.
        -11    1    4    4    0    0  0.15709775225E+02 -0.95799424353E+02 -0.27979407628E+03  0.29615714049E+03  0.00000000000E+00 0. -1.
         11    1    4    4    0    0  0.49353498760E+02 -0.16166548905E+02 -0.60291796119E+02  0.79575283993E+02  0.00000000000E+00 0.  1.
</event>
<event>
 8    1  0.3528896E-009  0.2006642E+03  0.7561462E-02  0.1149180E+00
          1   -1    0    0  501    0  0.00000000000E+00  0.00000000000E+00  0.12444962343E+04  0.12444962343E+04  0.00000000000E+00 0. -1.
         -1   -1    0    0    0  501 -0.00000000000E+00 -0.00000000000E+00 -0.42051154731E+02  0.42051154731E+02  0.00000000000E+00 0.  1.
         25    2    1    2    0    0  0.19624795286E+03 -0.36809408484E+02  0.55461084773E+03  0.60258475950E+03  0.12508800267E+03 0.  0.
         23    2    1    2    0    0 -0.19624795286E+03  0.36809408484E+02  0.64783423180E+03  0.68396262948E+03  0.90815720478E+02 0.  0.
          5    1    3    3  502    0  0.43612481420E+02 -0.17842745318E+02  0.30335687727E+02  0.56197317071E+02  0.41800000000E+01 0. -1.
         -5    1    3    3    0  502  0.15263547144E+03 -0.18966663166E+02  0.52427516000E+03  0.54638744243E+03  0.41800000000E+01 0. -1.
        -11    1    4    4    0    0 -0.26179760743E+02  0.98133158715E+01  0.24154161949E+02  0.36947321695E+02  0.00000000000E+00 0.  1.
         11    1    4    4    0    0 -0.17006819212E+03  0.26996092612E+02  0.62368006985E+03  0.64701530779E+03  0.00000000000E+00 0. -1.
</event>
<event>
 8    1  0.3528896E-009  0.1267563E+03  0.7561462E-02  0.1232350E+00
         -2   -1    0    0    0  501 -0.00000000000E+00  0.00000000000E+00  0.15777052272E+03  0.15777052272E+03  0.00000000000E+00 0.  1.
          2   -1    0    0  501    0  0.00000000000E+00 -0.00000000000E+00 -0.17174382057E+03  0.17174382057E+03  0.00000000000E+00 0. -1.
         25    2    1    2    0    0 -0.11622356589E+02 -0.91683364652E+02  0.65247459592E+02  0.16864578154E+03  0.12507297918E+03 0.  0.
         23    2    1    2    0    0  0.11622356589E+02  0.91683364652E+02 -0.79220757446E+02  0.16086856175E+03  0.10517531661E+03 0.  0.
          5    1    3    3  502    0  0.41619866789E+02 -0.26464873668E+02  0.68235188756E+02  0.84297783093E+02  0.41800000000E+01 0.  1.
         -5    1    3    3    0  502 -0.53242223378E+02 -0.65218490984E+02 -0.29877291645E+01  0.84347998447E+02  0.41800000000E+01 0.  1.
        -11    1    4    4    0    0  0.36934014344E+02  0.86258066223E+02 -0.92512277908E+02  0.13176910476E+03  0.00000000000E+00 0. -1.
         11    1    4    4    0    0 -0.25311657756E+02  0.54252984287E+01  0.13291520462E+02  0.29099456998E+02  0.00000000000E+00 0.  1.
</event>
<event>
 8    1  0.3528896E-009  0.1058333E+03  0.7561462E-02  0.1268486E+00
          1   -1    0    0  501    0  0.00000000000E+00  0.00000000000E+00  0.60102187189E+02  0.60102187189E+02  0.00000000000E+00 0. -1.
         -1   -1    0    0    0  501 -0.00000000000E+00 -0.00000000000E+00 -0.29886846771E+03  0.29886846771E+03  0.00000000000E+00 0.  1.
         25    2    1    2    0    0  0.38072269204E+02  0.29348443814E+02 -0.15442981484E+03  0.20446857289E+03  0.12509196918E+03 0.  0.
         23    2    1    2    0    0 -0.38072269204E+02 -0.29348443814E+02 -0.84336465687E+02  0.15450208201E+03  0.12019744200E+03 0.  0.
          5    1    3    3  502    0  0.55876999352E+02  0.68663680688E+02 -0.11956445647E+03  0.14882900172E+03  0.41800000000E+01 0. -1.
         -5    1    3    3    0  502 -0.17804730148E+02 -0.39315236875E+02 -0.34865358362E+02  0.55639571169E+02  0.41800000000E+01 0. -1.
        -11    1    4    4    0    0  0.12107809380E+02 -0.26832167181E+02 -0.98088803914E+02  0.10241082803E+03  0.00000000000E+00 0.  1.
         11    1    4    4    0    0 -0.50180078584E+02 -0.25162766323E+01  0.13752338227E+02  0.52091253982E+02  0.00000000000E+00 0. -1.
</event>
<event>
 8    1  0.3528896E-009  0.9711347E+02  0.7561462E-02  0.1286486E+00
         -1   -1    0    0    0  501 -0.00000000000E+00  0.00000000000E+00  0.34425424262E+03  0.34425424262E+03  0.00000000000E+00 0.  1.
          1   -1    0    0  501    0  0.00000000000E+00 -0.00000000000E+00 -0.38403769358E+02  0.38403769358E+02  0.00000000000E+00 0. -1.
         25    2    1    2    0    0 -0.34104937088E+02 -0.66931722597E+01  0.17080638937E+03  0.21454663700E+03  0.12508993368E+03 0.  0.
         23    2    1    2    0    0  0.34104937088E+02  0.66931722597E+01  0.13504408388E+03  0.16811137497E+03  0.93896669346E+02 0.  0.
          5    1    3    3  502    0 -0.38389950129E+02 -0.46029493787E+02  0.16337041780E+03  0.17406857379E+03  0.41800000000E+01 0. -1.
         -5    1    3    3    0  502  0.42850130410E+01  0.39336321527E+02  0.74359715722E+01  0.40478063210E+02  0.41800000000E+01 0. -1.
        -11    1    4    4    0    0 -0.28340013012E+02  0.13773197172E+02  0.74312107051E+02  0.80716457753E+02  0.00000000000E+00 0.  1.
         11    1    4    4    0    0  0.62444950099E+02 -0.70800249122E+01  0.60731976833E+02  0.87394917219E+02  0.00000000000E+00 0. -1.
</event>
<event>
 8    1  0.3528896E-009  0.9785474E+02  0.7561462E-02  0.1284873E+00
          2   -1    0    0  501    0  0.00000000000E+00  0.00000000000E+00  0.37154179933E+03  0.37154179933E+03  0.00000000000E+00 0. -1.
         -2   -1    0    0    0  501 -0.00000000000E+00 -0.00000000000E+00 -0.50102597932E+02  0.50102597932E+02  0.00000000000E+00 0.  1.
         25    2    1    2    0    0 -0.35376675763E+02 -0.31602359557E+02  0.27848818827E+03  0.30895597479E+03  0.12509158660E+03 0.  0.
         23    2    1    2    0    0  0.35376675763E+02  0.31602359557E+02  0.42951013137E+02  0.11268842247E+03  0.92755984781E+02 0.  0.
          5    1    3    3  502    0  0.41493588038E+02  0.95018006025E+01  0.60013074067E+02  0.73695613994E+02  0.41800000000E+01 0. -1.
         -5    1    3    3    0  502 -0.76870263801E+02 -0.41104160159E+02  0.21847511420E+03  0.23526036080E+03  0.41800000000E+01 0. -1.
        -11    1    4    4    0    0  0.14041532221E+02 -0.11121482335E+02 -0.24311345742E+02  0.30197574873E+02  0.00000000000E+00 0.  1.
         11    1    4    4    0    0  0.21335143542E+02  0.42723841892E+02  0.67262358879E+02  0.82490847601E+02  0.00000000000E+00 0. -1.
</event>
<event>
 8    1  0.3528896E-009  0.1027926E+03  0.7561462E-02  0.1274531E+00
         -2   -1    0    0    0  501 -0.00000000000E+00  0.00000000000E+00  0.23573181221E+02  0.23573181221E+02  0.00000000000E+00 0.  1.
          2   -1    0    0  501    0  0.00000000000E+00 -0.00000000000E+00 -0.52742453217E+03  0.52742453217E+03  0.00000000000E+00 0. -1.
         25    2    1    2    0    0 -0.15517255133E+02 -0.10617511056E+02 -0.26954732608E+03  0.29774869144E+03  0.12507999643E+03 0.  0.
         23    2    1    2    0    0  0.15517255133E+02  0.10617511056E+02 -0.23430402486E+03  0.25324902195E+03  0.94250593122E+02 0.  0.
          5    1    3    3  502    0  0.66281717854E+01  0.47371026593E+02 -0.49036038670E+02  0.68629092301E+02  0.41800000000E+01 0.  1.
         -5    1    3    3    0  502 -0.22145426919E+02 -0.57988537649E+02 -0.22051128741E+03  0.22911959914E+03  0.41800000000E+01 0.  1.
        -11    1    4    4    0    0 -0.39438946331E+02  0.29940017869E+00 -0.11279172364E+03  0.11948846408E+03  0.00000000000E+00 0. -1.
         11    1    4    4    0    0  0.54956201464E+02  0.10318110877E+02 -0.12151230122E+03  0.13376055787E+03  0.00000000000E+00 0.  1.
</event>
<event>
 8    1  0.3528896E-009  0.1116058E+03  0.7561462E-02  0.1257625E+00
         -3   -1    0    0    0  501 -0.00000000000E+00  0.00000000000E+00  0.40826956622E+03  0.40826956622E+03  0.00000000000E+00 0.  1.
          3   -1    0    0  501    0  0.00000000000E+00 -0.00000000000E+00 -0.35254861103E+02  0.35254861103E+02  0.00000000000E+00 0. -1.
         25    2    1    2    0    0 -0.72348482859E+01 -0.46966156261E+02  0.17314324374E+03  0.21882547646E+03  0.12509134035E+03 0.  0.
         23    2    1    2    0    0  0.72348482859E+01  0.46966156261E+02  0.19987146138E+03  0.22469895087E+03  0.91010189444E+02 0.  0.
          5    1    3    3  502    0 -0.47228132115E+02  0.14415146064E+02  0.29890788036E+02  0.57872484900E+02  0.41800000000E+01 0. -1.
         -5    1    3    3    0  502  0.39993283829E+02 -0.61381302325E+02  0.14325245570E+03  0.16095299156E+03  0.41800000000E+01 0. -1.
        -11    1    4    4    0    0 -0.30753139137E+02  0.53520438392E+02  0.14546496453E+03  0.15801977344E+03  0.00000000000E+00 0.  1.
         11    1    4    4    0    0  0.37987987423E+02 -0.65542821311E+01  0.54406496849E+02  0.66679177425E+02  0.00000000000E+00 0. -1.
</event>
<event>
 8    1  0.3528896E-009  0.2034396E+03  0.7561462E-02  0.1146869E+00
         -2   -1    0    0    0  501 -0.00000000000E+00  0.00000000000E+00  0.10012139034E+03  0.10012139034E+03  0.00000000000E+00 0.  1.
          2   -1    0    0  501    0  0.00000000000E+00 -0.00000000000E+00 -0.54001371739E+03  0.54001371739E+03  0.00000000000E+00 0. -1.
         25    2    1    2    0    0  0.18841813659E+03  0.60890540783E+01 -0.33791970533E+03  0.40666434437E+03  0.12509073087E+03 0.  0.
         23    2    1    2    0    0 -0.18841813659E+03 -0.60890540783E+01 -0.10197262172E+03  0.23347076337E+03  0.92583535197E+02 0.  0.
          5    1    3    3  502    0  0.10110795779E+03 -0.49950283942E+02 -0.23385097994E+03  0.25965670261E+03  0.41800000000E+01 0.  1.
         -5    1    3    3    0  502  0.87310178804E+02  0.56039338020E+02 -0.10406872540E+03  0.14700764175E+03  0.41800000000E+01 0.  1.
        -11    1    4    4    0    0 -0.16109048916E+03  0.37996355629E+01 -0.41524924886E+02  0.16639982667E+03  0.00000000000E+00 0.  1.
         11    1    4    4    0    0 -0.27327647430E+02 -0.98886896412E+01 -0.60447696831E+02  0.67070936694E+02  0.00000000000E+00 0. -1.
</event>
<event>
 8    1  0.3528896E-009  0.8161895E+02  0.7561462E-02  0.1324519E+00
          2   -1    0    0  501    0  0.00000000000E+00  0.00000000000E+00  0.98680405743E+02  0.98680405743E+02  0.00000000000E+00 0. -1.
         -2   -1    0    0    0  501 -0.00000000000E+00 -0.00000000000E+00 -0.16031424707E+03  0.16031424707E+03  0.00000000000E+00 0.  1.
         25    2    1    2    0    0  0.48813997664E+02  0.23772349214E+02 -0.63939472818E+02  0.15061124959E+03  0.12509021290E+03 0.  0.
         23    2    1    2    0    0 -0.48813997664E+02 -0.23772349214E+02  0.23056314939E+01  0.10838340322E+03  0.93774811128E+02 0.  0.
          5    1    3    3  502    0  0.48102438725E+02 -0.53375523292E+01  0.26620190906E+02  0.55393510811E+02  0.41800000000E+01 0.  1.
         -5    1    3    3    0  502  0.71155893948E+00  0.29109901543E+02 -0.90559663724E+02  0.95217738777E+02  0.41800000000E+01 0.  1.
        -11    1    4    4    0    0 -0.63410972128E+02 -0.29013867267E+02 -0.27359468413E+02  0.74908586903E+02  0.00000000000E+00 0.  1.
         11    1    4    4    0    0  0.14596974464E+02  0.52415180528E+01  0.29665099907E+02  0.33474816318E+02  0.00000000000E+00 0. -1.
</event>
<event>
 7    1  0.3528896E-009  0.1839065E+03  0.7561462E-02  0.1164075E+00
         -1   -1    0    0    0  501 -0.00000000000E+00  0.00000000000E+00  0.39506823540E+03  0.39506823540E+03  0.00000000000E+00 0.  1.
          1   -1    0    0  501    0  0.00000000000E+00 -0.00000000000E+00 -0.91918097117E+02  0.91918097117E+02  0.00000000000E+00 0. -1.
         23    2    1    2    0    0 -0.74097062502E+02 -0.13565695304E+03  0.17599153064E+03  0.25099082755E+03  0.90167583290E+02 0.  0.
          5    1    1    2  502    0 -0.28355314751E+02  0.41308346659E+02  0.47100110015E+01  0.50498118598E+02  0.41800000000E+01 0. -1.
         -5    1    1    2    0  502  0.10245237725E+03  0.94348606381E+02  0.12244859664E+03  0.18549738637E+03  0.41800000000E+01 0. -1.
        -11    1    3    3    0    0  0.12187182654E+02 -0.66524820895E+02  0.78158235043E+02  0.10335757796E+03  0.00000000000E+00 0.  1.
         11    1    3    3    0    0 -0.86284245156E+02 -0.69132132145E+02  0.97833295594E+02  0.14763324959E+03  0.00000000000E+00 0. -1.
</event>
<event>
 8    1  0.3528896E-009  0.1618118E+03  0.7561462E-02  0.1186666E+00
          2   -1    0    0  501    0  0.00000000000E+00  0.00000000000E+00  0.12931041280E+04  0.12931041280E+04  0.00000000000E+00 0. -1.
         -2   -1    0    0    0  501 -0.00000000000E+00 -0.00000000000E+00 -0.29555788068E+02  0.29555788068E+02  0.00000000000E+00 0.  1.
         25    2    1    2    0    0 -0.12220266123E+03 -0.16353943059E+02  0.10173035257E+04  0.10323543832E+04  0.12509263387E+03 0.  0.
         23    2    1    2    0    0  0.12220266123E+03  0.16353943059E+02  0.24624481415E+03  0.29030553288E+03  0.91868667459E+02 0.  0.
          5    1    3    3  502    0 -0.82298942109E+02  0.48040057851E+02  0.44987626540E+03  0.45987725493E+03  0.41800000000E+01 0. -1.
         -5    1    3    3    0  502 -0.39903719123E+02 -0.64394000910E+02  0.56742726035E+03  0.57247712822E+03  0.41800000000E+01 0. -1.
        -11    1    4    4    0    0  0.72082063301E+02  0.53680401106E+02  0.12569855641E+03  0.15452357877E+03  0.00000000000E+00 0.  1.
         11    1    4    4    0    0  0.50120597931E+02 -0.37326458047E+02  0.12054625774E+03  0.13578195411E+03  0.00000000000E+00 0. -1.
</event>
<event>
 8    1  0.3528896E-009  0.2133977E+03  0.7561462E-02  0.1138903E+00
          2   -1    0    0  501    0  0.00000000000E+00  0.00000000000E+00  0.11153432101E+04  0.11153432101E+04  0.00000000000E+00 0. -1.
         -2   -1    0    0    0  501 -0.00000000000E+00 -0.00000000000E+00 -0.51851682413E+02  0.51851682413E+02  0.00000000000E+00 0.  1.
         25    2    1    2    0    0  0.71714754909E+01 -0.20663410263E+03  0.41198701646E+03  0.47763020120E+03  0.12509286526E+03 0.  0.
         23    2    1    2    0    0 -0.71714754909E+01  0.20663410263E+03  0.65150451124E+03  0.68956469132E+03  0.91061808223E+02 0.  0.
          5    1    3    3  502    0 -0.34539933914E+01 -0.52844174741E+02  0.24348514737E+03  0.24921261257E+03  0.41800000000E+01 0.  1.
         -5    1    3    3    0  502  0.10625468882E+02 -0.15378992789E+03  0.16850186908E+03  0.22841758863E+03  0.41800000000E+01 0.  1.
        -11    1    4    4    0    0 -0.40197919310E+02  0.12827037801E+03  0.47481575731E+03  0.49347661138E+03  0.00000000000E+00 0.  1.
         11    1    4    4    0    0  0.33026443819E+02  0.78363724621E+02  0.17668875393E+03  0.19608807993E+03  0.00000000000E+00 0. -1.
</event>
<event>
 8    1  0.3528896E-009  0.2039471E+03  0.7561462E-02  0.1146451E+00
          2   -1    0    0  501    0  0.00000000000E+00  0.00000000000E+00  0.94115330057E+03  0.94115330057E+03  0.00000000000E+00 0. -1.
         -2   -1    0    0    0  501 -0.00000000000E+00 -0.00000000000E+00 -0.52012118283E+02  0.52012118283E+02  0.00000000000E+00 0.  1.
         25    2    1    2    0    0  0.15566715286E+03  0.10039295569E+03  0.34550021941E+03  0.41149670366E+03  0.12509247571E+03 0.  0.
         23    2    1    2    0    0 -0.15566715286E+03 -0.10039295569E+03  0.54364096288E+03  0.58166871519E+03  0.92097718114E+02 0.  0.
          5    1    3    3  502    0  0.54293783159E+02  0.94325714918E+02  0.24704920684E+03  0.26999247839E+03  0.41800000000E+01 0.  1.
         -5    1    3    3    0  502  0.10137336970E+03  0.60672407753E+01  0.98451012566E+02  0.14150422527E+03  0.41800000000E+01 0.  1.
        -11    1    4    4    0    0 -0.41592981147E+02 -0.66320063921E+02  0.13518242040E+03  0.15621335969E+03  0.00000000000E+00 0.  1.
         11    1    4    4    0    0 -0.11407417171E+03 -0.34072891772E+02  0.40845854247E+03  0.42545535550E+03  0.00000000000E+00 0. -1.
</event>
<event>
 8    1  0.3528896E-009  0.8933521E+02  0.7561462E-02  0.1304470E+00
         -1   -1    0    0    0  501 -0.00000000000E+00  0.00000000000E+00  0.20182158503E+03  0.20182158503E+03  0.00000000000E+00 0.  1.
          1   -1    0    0  501    0  0.00000000000E+00 -0.00000000000E+00 -0.68272847160E+02  0.68272847160E+02  0.00000000000E+00 0. -1.
         25    2    1    2    0    0  0.23818222003E+02 -0.15883253536E+02  0.32229892515E+02  0.13227041196E+03  0.12504843248E+03 0.  0.
         23    2    1    2    0    0 -0.23818222003E+02  0.15883253536E+02  0.10131884535E+03  0.13782402023E+03  0.88940242217E+02 0.  0.
          5    1    3    3  502    0 -0.27908952319E+02 -0.50500176112E+02  0.38627935652E+02  0.69561247973E+02  0.41800000000E+01 0. -1.
         -5    1    3    3    0  502  0.51727174322E+02  0.34616922575E+02 -0.63980431364E+01  0.62709163987E+02  0.41800000000E+01 0. -1.
        -11    1    4    4    0    0 -0.73121993201E+00  0.30892567003E+02  0.10553506562E+03  0.10996606501E+03  0.00000000000E+00 0.  1.
         11    1    4    4    0    0 -0.23087002071E+02 -0.15009313467E+02 -0.42162202690E+01  0.27857955214E+02  0.00000000000E+00 0. -1.
</event>
<event>
 8    1  0.3528896E-009  0.2278277E+03  0.7561462E-02  0.1128178E+00
          1   -1    0    0  501    0  0.00000000000E+00  0.00000000000E+00  0.88059378331E+03  0.88059378331E+03  0.00000000000E+00 0. -1.
         -1   -1    0    0    0  501 -0.00000000000E+00 -0.00000000000E+00 -0.70331131400E+02  0.70331131400E+02  0.00000000000E+00 0.  1.
         25    2    1    2    0    0  0.19090874052E+03  0.65894184873E+02  0.59941301776E+03  0.64477281750E+03  0.12509128476E+03 0.  0.
         23    2    1    2    0    0 -0.19090874052E+03 -0.65894184873E+02  0.21084963415E+03  0.30615209721E+03  0.92105089959E+02 0.  0.
          5    1    3    3  502    0  0.14626523147E+03 -0.12097758262E+02  0.34593003858E+03  0.37579906557E+03  0.41800000000E+01 0.  1.
         -5    1    3    3    0  502  0.44643509050E+02  0.77991943135E+02  0.25348297917E+03  0.26897375193E+03  0.41800000000E+01 0.  1.
        -11    1    4    4    0    0 -0.59975081209E+02 -0.64294931804E+02  0.11030251665E+03  0.14105847653E+03  0.00000000000E+00 0.  1.
         11    1    4    4    0    0 -0.13093365931E+03 -0.15992530694E+01  0.10054711750E+03  0.16509362068E+03  0.00000000000E+00 0. -1.
</event>
<event>
 8    1  0.3528896E-009  0.1671388E+03  0.7561462E-02  0.1180865E+00
          2   -1    0    0  501    0  0.00000000000E+00  0.00000000000E+00  0.43053409395E+03  0.43053409395E+03  0.00000000000E+00 0. -1.
         -2   -1    0    0    0  501 -0.00000000000E+00 -0.00000000000E+00 -0.72325834967E+02  0.72325834967E+02  0.00000000000E+00 0.  1.
         25    2    1    2    0    0  0.11369891553E+03 -0.75029639901E+02  0.15295033863E+03  0.23999451237E+03  0.12508664847E+03 0.  0.
         23    2    1    2    0    0 -0.11369891553E+03  0.75029639901E+02  0.20525792036E+03  0.26286541654E+03  0.91708904094E+02 0.  0.
          5    1    3    3  502    0 -0.20974509438E+02 -0.29452820940E+02  0.87258898939E+01  0.37430098342E+02  0.41800000000E+01 0.  1.
         -5    1    3    3    0  502  0.13467342497E+03 -0.45576818961E+02  0.14422444873E+03  0.20256441403E+03  0.41800000000E+01 0.  1.
        -11    1    4    4    0    0 -0.25227059680E-01 -0.12296516629E+02 -0.25573621065E+00  0.12299201544E+02  0.00000000000E+00 0.  1.
         11    1    4    4    0    0 -0.11367368847E+03  0.87326156529E+02  0.20551365657E+03  0.25056621500E+03  0.00000000000E+00 0. -1.
</event>
<event>
 8    1  0.3528896E-009  0.9614598E+02  0.7561462E-02  0.1288616E+00
          4   -1    0    0  501    0  0.00000000000E+00  0.00000000000E+00  0.45603497566E+02  0.45603497566E+02  0.00000000000E+00 0.  1.
         -4   -1    0    0    0  501 -0.00000000000E+00 -0.00000000000E+00 -0.33947722274E+03  0.33947722274E+03  0.00000000000E+00 0. -1.
         25    2    1    2    0    0 -0.28375486898E+02  0.53558086754E+02 -0.16691207510E+03  0.21721372988E+03  0.12509407149E+03 0.  0.
         23    2    1    2    0    0  0.28375486898E+02 -0.53558086754E+02 -0.12696165007E+03  0.16786699042E+03  0.91577447935E+02 0.  0.
          5    1    3    3  502    0 -0.46577634417E+02  0.46949604454E+02 -0.20352456631E+02  0.69321254152E+02  0.41800000000E+01 0. -1.
         -5    1    3    3    0  502  0.18202147519E+02  0.66084823002E+01 -0.14655961847E+03  0.14789247573E+03  0.41800000000E+01 0. -1.
        -11    1    4    4    0    0  0.84875066750E+01  0.24361370294E+02 -0.14444081990E+02  0.29565954013E+02  0.00000000000E+00 0.  1.
         11    1    4    4    0    0  0.19887980223E+02 -0.77919457049E+02 -0.11251756808E+03  0.13830103641E+03  0.00000000000E+00 0. -1.
</event>
<event>
 8    1  0.3528896E-009  0.1071844E+03  0.7561462E-02  0.1265875E+00
         -1   -1    0    0    0  501 -0.00000000000E+00  0.00000000000E+00  0.24604248492E+03  0.24604248492E+03  0.00000000000E+00 0.  1.
          1   -1    0    0  501    0  0.00000000000E+00 -0.00000000000E+00 -0.60383496815E+02  0.60383496815E+02  0.00000000000E+00 0. -1.
         25    2    1    2    0    0  0.44827031978E+02 -0.26913370957E+02  0.12678284657E+03  0.18562481193E+03  0.12509551666E+03 0.  0.
         23    2    1    2    0    0 -0.44827031978E+02  0.26913370957E+02  0.58876141539E+02  0.12080116981E+03  0.91611845588E+02 0.  0.
          5    1    3    3  502    0  0.50162516541E+02 -0.70409462137E+02  0.58807166684E+02  0.10463998126E+03  0.41800000000E+01 0.  1.
         -5    1    3    3    0  502 -0.53354845628E+01  0.43496091180E+02  0.67975679883E+02  0.80984830672E+02  0.41800000000E+01 0.  1.
        -11    1    4    4    0    0 -0.58180535578E+02  0.35276397786E+02  0.91666975737E+01  0.68654404850E+02  0.00000000000E+00 0. -1.
         11    1    4    4    0    0  0.13353503600E+02 -0.83630268292E+01  0.49709443965E+02  0.52146764957E+02  0.00000000000E+00 0.  1.
</event>
<event>
 8    1  0.3528896E-009  0.1057432E+03  0.7561462E-02  0.1268662E+00
          2   -1    0    0  501    0  0.00000000000E+00  0.00000000000E+00  0.19661479028E+03  0.19661479028E+03  0.00000000000E+00 0. -1.
         -2   -1    0    0    0  501 -0.00000000000E+00 -0.00000000000E+00 -0.91119526716E+02  0.91119526716E+02  0.00000000000E+00 0.  1.
         25    2    1    2    0    0 -0.37169117897E+02 -0.21553621818E+02  0.13015184786E+03  0.18556255269E+03  0.12509138868E+03 0.  0.
         23    2    1    2    0    0  0.37169117897E+02  0.21553621818E+02 -0.24656584296E+02  0.10217176430E+03  0.89358940977E+02 0.  0.
          5    1    3    3  502    0  0.22303716038E+02  0.34628114442E+02  0.14561891842E+02  0.43887163874E+02  0.41800000000E+01 0. -1.
         -5    1    3    3    0  502 -0.59472833935E+02 -0.56181736259E+02  0.11558995602E+03  0.14167538882E+03  0.41800000000E+01 0. -1.
        -11    1    4    4    0    0  0.40915692376E+02 -0.20625497819E+02 -0.36071322069E+02  0.58315052248E+02  0.00000000000E+00 0.  1.
         11    1    4    4    0    0 -0.37465744794E+01  0.42179119637E+02  0.11414737773E+02  0.43856712053E+02  0.00000000000E+00 0. -1.
</event>
<event>
 8    1  0.3528896E-009  0.1305929E+03  0.7561462E-02  0.1226579E+00
         -1   -1    0    0    0  501 -0.00000000000E+00  0.00000000000E+00  0.69027469968E+02  0.69027469968E+02  0.00000000000E+00 0.  1.
          1   -1    0    0  501    0  0.00000000000E+00 -0.00000000000E+00 -0.33244900474E+03  0.33244900474E+03  0.00000000000E+00 0. -1.
         25    2    1    2    0    0  0.59455500725E+02  0.75059996088E+02 -0.91753488158E+02  0.18229819969E+03  0.12507986026E+03 0.  0.
         23    2    1    2    0    0 -0.59455500725E+02 -0.75059996088E+02 -0.17166804662E+03  0.21917827502E+03  0.96954826767E+02 0.  0.
          5    1    3    3  502    0  0.53533836876E+02  0.99828430238E+02 -0.32894590653E+02  0.11803013882E+03  0.41800000000E+01 0. -1.
         -5    1    3    3    0  502  0.59216638484E+01 -0.24768434151E+02 -0.58858897504E+02  0.64268060873E+02  0.41800000000E+01 0. -1.
        -11    1    4    4    0    0 -0.86462264600E+01 -0.70481310700E+02 -0.48859542029E+02  0.86195285470E+02  0.00000000000E+00 0.  1.
         11    1    4    4    0    0 -0.50809274265E+02 -0.45786853881E+01 -0.12280850459E+03  0.13298298955E+03  0.00000000000E+00 0. -1.
</event>
<event>
 8    1  0.3528896E-009  0.1502687E+03  0.7561462E-02  0.1200143E+00
          1   -1    0    0  501    0  0.00000000000E+00  0.00000000000E+00  0.12922833466E+04  0.12922833466E+04  0.00000000000E+00 0. -1.
         -1   -1    0    0    0  501 -0.00000000000E+00 -0.00000000000E+00 -0.26003851014E+02  0.26003851014E+02  0.00000000000E+00 0.  1.
         25    2    1    2    0    0  0.52971642902E+02  0.13673328112E+03  0.71245497588E+03  0.73806594083E+03  0.12508898926E+03 0.  0.
         23    2    1    2    0    0 -0.52971642902E+02 -0.13673328112E+03  0.55382451967E+03  0.58022125675E+03  0.91832037325E+02 0.  0.
          5    1    3    3  502    0  0.18827982695E+02  0.99377208804E+01  0.10834329572E+02  0.24250903611E+02  0.41800000000E+01 0.  1.
         -5    1    3    3    0  502  0.34143660207E+02  0.12679556024E+03  0.70162064631E+03  0.71381503722E+03  0.41800000000E+01 0.  1.
        -11    1    4    4    0    0 -0.15521979322E+02 -0.61434312870E+02  0.97979801235E+02  0.11668396672E+03  0.00000000000E+00 0.  1.
         11    1    4    4    0    0 -0.37449663580E+02 -0.75298968253E+02  0.45584471843E+03  0.46353729003E+03  0.00000000000E+00 0. -1.
</event>
<event>
 7    1  0.3528896E-009  0.1124010E+03  0.7561462E-02  0.1256187E+00
         -2   -1    0    0    0  501 -0.00000000000E+00  0.00000000000E+00  0.92382656886E+02  0.92382656886E+02  0.00000000000E+00 0. -1.
          2   -1    0    0  501    0  0.00000000000E+00 -0.00000000000E+00 -0.57045563444E+03  0.57045563444E+03  0.00000000000E+00 0.  1.
         25    2    1    2    0    0 -0.52046797757E+02 -0.49951765908E+02 -0.49299243801E+03  0.51370445599E+03  0.12508667434E+03 0.  0.
          5    1    3    3  502    0 -0.27321364949E+02 -0.64293160760E+02 -0.11507151479E+03  0.13468108041E+03  0.41800000000E+01 0.  1.
         -5    1    3    3    0  502 -0.24725432809E+02  0.14341394853E+02 -0.37792092322E+03  0.37902337559E+03  0.41800000000E+01 0.  1.
        -11    1    1    2    0    0  0.36983499370E+02 -0.28095098439E+02 -0.32398743040E+02  0.56628546975E+02  0.00000000000E+00 0.  1.
         11    1    1    2    0    0  0.15063298388E+02  0.78046864346E+02  0.47318203494E+02  0.92505288360E+02  0.00000000000E+00 0. -1.
</event>
<event>
 8    1  0.3528896E-009  0.1038686E+03  0.7561462E-02  0.1272365E+00
         -2   -1    0    0    0  501 -0.00000000000E+00  0.00000000000E+00  0.10839320507E+02  0.10839320507E+02  0.00000000000E+00 0.  1.
          2   -1    0    0  501    0  0.00000000000E+00 -0.00000000000E+00 -0.12135399545E+04  0.12135399545E+04  0.00000000000E+00 0. -1.
         25    2    1    2    0    0 -0.18006700785E+02 -0.32143980895E+02 -0.73322590894E+03  0.74473160922E+03  0.12508980553E+03 0.  0.
         23    2    1    2    0    0  0.18006700785E+02  0.32143980895E+02 -0.46947472503E+03  0.47964766577E+03  0.91092749714E+02 0.  0.
          5    1    3    3  502    0 -0.45482278237E+02 -0.56739150801E+02 -0.64384788200E+03  0.64795488764E+03  0.41800000000E+01 0. -1.
         -5    1    3    3    0  502  0.27475577452E+02  0.24595169906E+02 -0.89378026947E+02  0.96776721581E+02  0.41800000000E+01 0. -1.
        -11    1    4    4    0    0  0.35036078339E+02  0.57446236602E+02 -0.34403659154E+03  0.35055495033E+03  0.00000000000E+00 0. -1.
         11    1    4    4    0    0 -0.17029377555E+02 -0.25302255707E+02 -0.12543813350E+03  0.12909271544E+03  0.00000000000E+00 0.  1.
</event>
<event>
 8    1  0.3528896E-009  0.9968197E+02  0.7561462E-02  0.1280966E+00
          1   -1    0    0  501    0  0.00000000000E+00  0.00000000000E+00  0.82686977592E+03  0.82686977592E+03  0.00000000000E+00 0. -1.
         -1   -1    0    0    0  501 -0.00000000000E+00 -0.00000000000E+00 -0.15779435060E+02  0.15779435060E+02  0.00000000000E+00 0.  1.
         25    2    1    2    0    0 -0.25017163018E+02  0.21173297178E+02  0.53064192355E+03  0.54617046472E+03  0.12508860277E+03 0.  0.
         23    2    1    2    0    0  0.25017163018E+02 -0.21173297178E+02  0.28044841732E+03  0.29647874627E+03  0.90411090331E+02 0.  0.
          5    1    3    3  502    0  0.27443032211E+02 -0.30786640838E+02  0.32502805868E+03  0.32766087438E+03  0.41800000000E+01 0.  1.
         -5    1    3    3    0  502 -0.52460195229E+02  0.51959938017E+02  0.20561386487E+03  0.21850959034E+03  0.41800000000E+01 0.  1.
        -11    1    4    4    0    0 -0.17894679194E+02  0.18338822904E+02  0.30598899740E+02  0.39910207144E+02  0.00000000000E+00 0.  1.
         11    1    4    4    0    0  0.42911842213E+02 -0.39512120082E+02  0.24984951757E+03  0.25656853912E+03  0.00000000000E+00 0. -1.
</event>
<event>
 8    1  0.3528896E-009  0.1328251E+03  0.7561462E-02  0.1223323E+00
          1   -1    0    0  501    0  0.00000000000E+00  0.00000000000E+00  0.18382569418E+02  0.18382569418E+02  0.00000000000E+00 0. -1.
         -1   -1    0    0    0  501 -0.00000000000E+00 -0.00000000000E+00 -0.10654768781E+04  0.10654768781E+04  0.00000000000E+00 0.  1.
         25    2    1    2    0    0  0.32309232991E+02 -0.82796555805E+02 -0.55694413740E+03  0.57769647045E+03  0.12508910263E+03 0.  0.
         23    2    1    2    0    0 -0.32309232991E+02  0.82796555805E+02 -0.49015017129E+03  0.50616297707E+03  0.89747494428E+02 0.  0.
          5    1    3    3  502    0 -0.27830290754E+02 -0.79658435321E+02 -0.22563692663E+03  0.24093461034E+03  0.41800000000E+01 0. -1.
         -5    1    3    3    0  502  0.60139523745E+02 -0.31381204845E+01 -0.33130721077E+03  0.33676186011E+03  0.41800000000E+01 0. -1.
        -11    1    4    4    0    0  0.22904535932E+02  0.53718634229E+02 -0.31152609274E+03  0.31695238741E+03  0.00000000000E+00 0.  1.
         11    1    4    4    0    0 -0.55213768923E+02  0.29077921576E+02 -0.17862407855E+03  0.18921058966E+03  0.00000000000E+00 0. -1.
</event>
<event>
 8    1  0.3528896E-009  0.1391583E+03  0.7561462E-02  0.1214466E+00
         -2   -1    0    0    0  501 -0.00000000000E+00  0.00000000000E+00  0.66587924053E+02  0.66587924053E+02  0.00000000000E+00 0. -1.
          2   -1    0    0  501    0  0.00000000000E+00 -0.00000000000E+00 -0.54561834286E+03  0.54561834286E+03  0.00000000000E+00 0.  1.
         25    2    1    2    0    0 -0.82544495416E+02 -0.10821640069E+03 -0.37405063793E+03  0.41723551303E+03  0.12508881041E+03 0.  0.
         23    2    1    2    0    0  0.82544495416E+02  0.10821640069E+03 -0.10497978087E+03  0.19497075388E+03  0.92024221694E+02 0.  0.
          5    1    3    3  502    0 -0.80093743528E+02 -0.84314875374E+02 -0.14057925310E+03  0.18249384856E+03  0.41800000000E+01 0. -1.
         -5    1    3    3    0  502 -0.24507518879E+01 -0.23901525311E+02 -0.23347138484E+03  0.23474166446E+03  0.41800000000E+01 0. -1.
        -11    1    4    4    0    0  0.51151457523E+02  0.50617395776E+02 -0.92979221615E+00  0.71968443609E+02  0.00000000000E+00 0. -1.
         11    1    4    4    0    0  0.31393037892E+02  0.57599004909E+02 -0.10404998865E+03  0.12300231028E+03  0.00000000000E+00 0.  1.
</event>
<event>
 8    1  0.3528896E-009  0.1071402E+03  0.7561462E-02  0.1265959E+00
          1   -1    0    0  501    0  0.00000000000E+00  0.00000000000E+00  0.17116332468E+03  0.17116332468E+03  0.00000000000E+00 0. -1.
         -1   -1    0    0    0  501 -0.00000000000E+00 -0.00000000000E+00 -0.85183775220E+02  0.85183775220E+02  0.00000000000E+00 0.  1.
         25    2    1    2    0    0  0.38227072678E+02  0.22299022893E+01  0.97779589718E+01  0.13117888385E+03  0.12508400992E+03 0.  0.
         23    2    1    2    0    0 -0.38227072678E+02 -0.22299022893E+01  0.76201590493E+02  0.12516821605E+03  0.91619421339E+02 0.  0.
          5    1    3    3  502    0 -0.21796603502E+02 -0.42583211607E+02  0.25729267769E+02  0.54478339319E+02  0.41800000000E+01 0.  1.
         -5    1    3    3    0  502  0.60023676180E+02  0.44813113896E+02 -0.15951308797E+02  0.76700544533E+02  0.41800000000E+01 0.  1.
        -11    1    4    4    0    0 -0.16373897487E+02 -0.42430784266E+02  0.62705666467E+02  0.77462743170E+02  0.00000000000E+00 0. -1.
         11    1    4    4    0    0 -0.21853175191E+02  0.40200881977E+02  0.13495924026E+02  0.47705472883E+02  0.00000000000E+00 0.  1.
</event>
<event>
 8    1  0.3528896E-009  0.1733078E+03  0.7561462E-02  0.1174442E+00
          1   -1    0    0  501    0  0.00000000000E+00  0.00000000000E+00  0.55862703492E+02  0.55862703492E+02  0.00000000000E+00 0. -1.
         -1   -1    0    0    0  501 -0.00000000000E+00 -0.00000000000E+00 -0.64133638874E+03  0.64133638874E+03  0.00000000000E+00 0.  1.
         25    2    1    2    0    0 -0.97637528268E+02 -0.11935136274E+03 -0.32900507609E+03  0.38427662656E+03  0.12508537450E+03 0.  0.
         23    2    1    2    0    0  0.97637528268E+02  0.11935136274E+03 -0.25646860915E+03  0.31292246566E+03  0.91468504535E+02 0.  0.
          5    1    3    3  502    0 -0.40347572026E+02 -0.10696485233E+03 -0.11444933654E+03  0.16181943405E+03  0.41800000000E+01 0. -1.
         -5    1    3    3    0  502 -0.57289956242E+02 -0.12386510417E+02 -0.21455573956E+03  0.22245719252E+03  0.41800000000E+01 0. -1.
        -11    1    4    4    0    0  0.71079733776E+02  0.12724253418E+03 -0.18012262492E+03  0.23170487925E+03  0.00000000000E+00 0. -1.
         11    1    4    4    0    0  0.26557794491E+02 -0.78911714407E+01 -0.76345984227E+02  0.81217586411E+02  0.00000000000E+00 0.  1.
</event>
<event>
 8    1  0.3528896E-009  0.8881746E+02  0.7561462E-02  0.1305741E+00
          2   -1    0    0  501    0  0.00000000000E+00  0.00000000000E+00  0.79511357030E+02  0.79511357030E+02  0.00000000000E+00 0. -1.
         -2   -1    0    0    0  501 -0.00000000000E+00 -0.00000000000E+00 -0.15039583377E+03  0.15039583377E+03  0.00000000000E+00 0.  1.
         25    2    1    2    0    0  0.16241091073E+02 -0.23430236863E+02 -0.43870252636E+02  0.13558452633E+03  0.12508323499E+03 0.  0.
         23    2    1    2    0    0 -0.16241091073E+02  0.23430236863E+02 -0.27014224098E+02  0.94322664466E+02  0.85756910449E+02 0.  0.
          5    1    3    3  502    0 -0.23409684062E+01  0.36356863400E+02  0.23472005446E+02  0.43539741490E+02  0.41800000000E+01 0. -1.
         -5    1    3    3    0  502  0.18582059479E+02 -0.59787100263E+02 -0.67342258083E+02  0.92044784839E+02  0.41800000000E+01 0. -1.
        -11    1    4    4    0    0  0.26904279548E+02  0.22480791437E+02  0.11068974493E+02  0.36766131670E+02  0.00000000000E+00 0.  1.
         11    1    4    4    0    0 -0.43145370621E+02  0.94944542657E+00 -0.38083198591E+02  0.57556532797E+02  0.00000000000E+00 0. -1.
</event>
<event>
 8    1  0.3528896E-009  0.3433265E+03  0.7561462E-02  0.1065388E+00
         -2   -1    0    0    0  501 -0.00000000000E+00  0.00000000000E+00  0.40614512360E+02  0.40614512360E+02  0.00000000000E+00 0.  1.
          2   -1    0    0  501    0  0.00000000000E+00 -0.00000000000E+00 -0.32123646212E+04  0.32123646212E+04  0.00000000000E+00 0. -1.
         25    2    1    2    0    0  0.32335315419E+03 -0.92707662420E+02 -0.12843998237E+04  0.13335976830E+04  0.12509156596E+03 0.  0.
         23    2    1    2    0    0 -0.32335315419E+03  0.92707662420E+02 -0.18873502851E+04  0.19193814506E+04  0.93712758457E+02 0.  0.
          5    1    3    3  502    0  0.10761083059E+03 -0.13666313764E+02 -0.22843612449E+03  0.25291776206E+03  0.41800000000E+01 0.  1.
         -5    1    3    3    0  502  0.21574232360E+03 -0.79041348655E+02 -0.10559636992E+04  0.10806799209E+04  0.41800000000E+01 0.  1.
        -11    1    4    4    0    0 -0.14821457008E+03  0.89469022158E+02 -0.10069109624E+04  0.10216858376E+04  0.00000000000E+00 0. -1.
         11    1    4    4    0    0 -0.17513858412E+03  0.32386402614E+01 -0.88043932275E+03  0.89769561293E+03  0.00000000000E+00 0.  1.
</event>
<event>
 8    1  0.3528896E-009  0.9258021E+02  0.7561462E-02  0.1296721E+00
          1   -1    0    0  501    0  0.00000000000E+00  0.00000000000E+00  0.12991735244E+03  0.12991735244E+03  0.00000000000E+00 0. -1.
         -1   -1    0    0    0  501 -0.00000000000E+00 -0.00000000000E+00 -0.14909108869E+03  0.14909108869E+03  0.00000000000E+00 0.  1.
         25    2    1    2    0    0 -0.34901659281E+02  0.14406895875E+02 -0.90093266625E+02  0.15869056205E+03  0.12506083849E+03 0.  0.
         23    2    1    2    0    0  0.34901659281E+02 -0.14406895875E+02  0.70919530368E+02  0.12031787908E+03  0.89560749049E+02 0.  0.
          5    1    3    3  502    0 -0.46717159475E+02 -0.28170137507E+02 -0.99287784581E+02  0.11336483672E+03  0.41800000000E+01 0.  1.
         -5    1    3    3    0  502  0.11815500195E+02  0.42577033382E+02  0.91945179568E+01  0.45325725332E+02  0.41800000000E+01 0.  1.
        -11    1    4    4    0    0 -0.81225884993E+01  0.25878530505E+02  0.51595343786E+02  0.58290258924E+02  0.00000000000E+00 0. -1.
         11    1    4    4    0    0  0.43024247780E+02 -0.40285426380E+02  0.19324186582E+02  0.62027620160E+02  0.00000000000E+00 0.  1.
</event>
<event>
 8    1  0.3528896E-009  0.1032892E+03  0.7561462E-02  0.1273527E+00
          3   -1    0    0  501    0  0.00000000000E+00  0.00000000000E+00  0.74793664885E+02  0.74793664885E+02  0.00000000000E+00 0. -1.
         -3   -1    0    0    0  501 -0.00000000000E+00 -0.00000000000E+00 -0.23393808940E+03  0.23393808940E+03  0.00000000000E+00 0.  1.
         25    2    1    2    0    0 -0.63415459855E+02 -0.36436462864E+02 -0.54989484964E+02  0.15498623855E+03  0.12509098413E+03 0.  0.
         23    2    1    2    0    0  0.63415459855E+02  0.36436462864E+02 -0.10415493955E+03  0.15374551573E+03  0.86257149269E+02 0.  0.
          5    1    3    3  502    0  0.21750510730E+02  0.19551086813E+02  0.13126104983E+02  0.32327956084E+02  0.41800000000E+01 0.  1.
         -5    1    3    3    0  502 -0.85165970585E+02 -0.55987549677E+02 -0.68115589946E+02  0.12265828247E+03  0.41800000000E+01 0.  1.
        -11    1    4    4    0    0  0.51228069906E+02  0.21010426614E+02 -0.11756286079E+03  0.12994914163E+03  0.00000000000E+00 0.  1.
         11    1    4    4    0    0  0.12187389948E+02  0.15426036250E+02  0.13407921245E+02  0.23796374098E+02  0.00000000000E+00 0. -1.
</event>
<event>
 8    1  0.3528896E-009  0.1012084E+03  0.7561462E-02  0.1277775E+00
         -1   -1    0    0    0  501 -0.00000000000E+00  0.00000000000E+00  0.25837054540E+02  0.25837054540E+02  0.00000000000E+00 0.  1.
          1   -1    0    0  501    0  0.00000000000E+00 -0.00000000000E+00 -0.53210553621E+03  0.53210553621E+03  0.00000000000E+00 0. -1.
         25    2    1    2    0    0 -0.10005037900E+02  0.43673868937E+02 -0.29305513372E+03  0.32177064777E+03  0.12509009055E+03 0.  0.
         23    2    1    2    0    0  0.10005037900E+02 -0.43673868937E+02 -0.21321334795E+03  0.23617194298E+03  0.91157815335E+02 0.  0.
          5    1    3    3  502    0 -0.21849171690E+02  0.85225074940E+02 -0.17346777728E+03  0.19454881613E+03  0.41800000000E+01 0.  1.
         -5    1    3    3    0  502  0.11844133790E+02 -0.41551206003E+02 -0.11958735644E+03  0.12722183164E+03  0.41800000000E+01 0.  1.
        -11    1    4    4    0    0  0.30274920117E+02 -0.40259858462E+02 -0.20926301873E+03  0.21524041906E+03  0.00000000000E+00 0. -1.
         11    1    4    4    0    0 -0.20269882217E+02 -0.34140104750E+01 -0.39503292221E+01  0.20931523919E+02  0.00000000000E+00 0.  1.
</event>
<event>
 8    1  0.3528896E-009  0.9654490E+02  0.7561462E-02  0.1287734E+00
         -2   -1    0    0    0  501 -0.00000000000E+00  0.00000000000E+00  0.24514646568E+02  0.24514646568E+02  0.00000000000E+00 0.  1.
          2   -1    0    0  501    0  0.00000000000E+00 -0.00000000000E+00 -0.81139826433E+03  0.81139826433E+03  0.00000000000E+00 0. -1.
         25    2    1    2    0    0 -0.56614998963E+02  0.33702142933E+02 -0.24699597088E+03  0.28459577933E+03  0.12508659175E+03 0.  0.
         23    2    1    2    0    0  0.56614998963E+02 -0.33702142933E+02 -0.53988764688E+03  0.55131713157E+03  0.90171036141E+02 0.  0.
          5    1    3    3  502    0 -0.12118945233E+02  0.34600195013E+02 -0.35378408212E+01  0.37067924762E+02  0.41800000000E+01 0.  1.
         -5    1    3    3    0  502 -0.44496053730E+02 -0.89805207924E+00 -0.24345813006E+03  0.24752785457E+03  0.41800000000E+01 0.  1.
        -11    1    4    4    0    0  0.78576021746E+02 -0.10052563033E+02 -0.36873042029E+03  0.37714369683E+03  0.00000000000E+00 0. -1.
         11    1    4    4    0    0 -0.21961022783E+02 -0.23649579900E+02 -0.17115722659E+03  0.17417343473E+03  0.00000000000E+00 0.  1.
</event>
<event>
 8    1  0.3528896E-009  0.1059012E+03  0.7561462E-02  0.1268354E+00
         -4   -1    0    0    0  501 -0.00000000000E+00  0.00000000000E+00  0.13067007379E+03  0.13067007379E+03  0.00000000000E+00 0.  1.
          4   -1    0    0  501    0  0.00000000000E+00 -0.00000000000E+00 -0.14310633398E+03  0.14310633398E+03  0.00000000000E+00 0. -1.
         25    2    1    2    0    0  0.55511563283E+02  0.54067152351E+02  0.23301055343E+02  0.14898120194E+03  0.12509064206E+03 0.  0.
         23    2    1    2    0    0 -0.55511563283E+02 -0.54067152351E+02 -0.35737315532E+02  0.12479520584E+03  0.91059854254E+02 0.  0.
          5    1    3    3  502    0 -0.22685498929E+02  0.26496794453E+02 -0.33377281234E+02  0.48458510919E+02  0.41800000000E+01 0.  1.
         -5    1    3    3    0  502  0.78197062212E+02  0.27570357898E+02  0.56678336577E+02  0.10052269102E+03  0.41800000000E+01 0.  1.
        -11    1    4    4    0    0 -0.28769016422E+02  0.46391925750E+01  0.23328944971E+02  0.37328515737E+02  0.00000000000E+00 0. -1.
         11    1    4    4    0    0 -0.26742546861E+02 -0.58706344926E+02 -0.59066260503E+02  0.87466690099E+02  0.00000000000E+00 0.  1.
</event>
<event>
 8    1  0.3528896E-009  0.5643991E+02  0.7561462E-02  0.1413410E+00
          1   -1    0    0  501    0  0.00000000000E+00  0.00000000000E+00  0.42687405724E+03  0.42687405724E+03  0.00000000000E+00 0. -1.
         -1   -1    0    0    0  501 -0.00000000000E+00 -0.00000000000E+00 -0.31674203687E+02  0.31674203687E+02  0.00000000000E+00 0.  1.
         25    2    1    2    0    0  0.31434782839E+02  0.11020228498E+02  0.27255080000E+03  0.30172125893E+03  0.12506873511E+03 0.  0.
         23    2    1    2    0    0 -0.31434782839E+02 -0.11020228498E+02  0.12264905356E+03  0.15682700200E+03  0.91882137602E+02 0.  0.
          5    1    3    3  502    0  0.31723867842E+02  0.24576398657E+02  0.28187168953E+03  0.28474466619E+03  0.41800000000E+01 0. -1.
         -5    1    3    3    0  502 -0.28908500222E+00 -0.13556170159E+02 -0.93208895316E+01  0.16976592744E+02  0.41800000000E+01 0. -1.
        -11    1    4    4    0    0 -0.21216001602E+02 -0.30026000221E+02  0.48686340915E+01  0.37086156598E+02  0.00000000000E+00 0.  1.
         11    1    4    4    0    0 -0.10218781237E+02  0.19005771724E+02  0.11778041946E+03  0.11974084540E+03  0.00000000000E+00 0. -1.
</event>
<event>
 8    1  0.3528896E-009  0.7528915E+02  0.7561462E-02  0.1342978E+00
         -2   -1    0    0    0  501 -0.00000000000E+00  0.00000000000E+00  0.59879737975E+03  0.59879737975E+03  0.00000000000E+00 0.  1.
          2   -1    0    0  501    0  0.00000000000E+00 -0.00000000000E+00 -0.33521054121E+02  0.33521054121E+02  0.00000000000E+00 0. -1.
         25    2    1    2    0    0 -0.14678468644E+02 -0.30541766539E+02  0.49426944232E+03  0.51097720035E+03  0.12508861145E+03 0.  0.
         23    2    1    2    0    0  0.14678468644E+02  0.30541766539E+02  0.71006883303E+02  0.12134123352E+03  0.92376731545E+02 0.  0.
          5    1    3    3  502    0  0.28156693716E+02 -0.21098694337E+01  0.22364350119E+02  0.36261377611E+02  0.41800000000E+01 0. -1.
         -5    1    3    3    0  502 -0.42835162360E+02 -0.28431897105E+02  0.47190509220E+03  0.47471582274E+03  0.41800000000E+01 0. -1.
        -11    1    4    4    0    0  0.17190853233E+02 -0.16213343495E+02  0.70671460175E+02  0.74517469263E+02  0.00000000000E+00 0.  1.
         11    1    4    4    0    0 -0.25123845886E+01  0.46755110034E+02  0.33542312821E+00  0.46823764258E+02  0.00000000000E+00 0. -1.
</event>
<event>
 8    1  0.3528896E-009  0.9199443E+02  0.7561462E-02  0.1298093E+00
          1   -1    0    0  501    0  0.00000000000E+00  0.00000000000E+00  0.10335094781E+03  0.10335094781E+03  0.00000000000E+00 0. -1.
         -1   -1    0    0    0  501 -0.00000000000E+00 -0.00000000000E+00 -0.14755882997E+03  0.14755882997E+03  0.00000000000E+00 0.  1.
         25    2    1    2    0    0  0.17047960578E+02 -0.28281084918E+01 -0.82018184855E+02  0.15057697810E+03  0.12509121684E+03 0.  0.
         23    2    1    2    0    0 -0.17047960578E+02  0.28281084918E+01  0.37810302700E+02  0.10033279968E+03  0.91314952465E+02 0.  0.
          5    1    3    3  502    0 -0.35006777361E+02  0.15290336887E+02 -0.86967878370E+02  0.95079719875E+02  0.41800000000E+01 0. -1.
         -5    1    3    3    0  502  0.52054737940E+02 -0.18118445379E+02  0.49496935158E+01  0.55497258228E+02  0.41800000000E+01 0. -1.
        -11    1    4    4    0    0 -0.28224549046E+02 -0.38349870916E+02  0.31763607075E+02  0.57238662655E+02  0.00000000000E+00 0. -1.
         11    1    4    4    0    0  0.11176588467E+02  0.41177979408E+02  0.60466956250E+01  0.43094137024E+02  0.00000000000E+00 0.  1.
</event>
<event>
 8    1  0.3528896E-009  0.9508180E+02  0.7561462E-02  0.1290992E+00
         -3   -1    0    0    0  501 -0.00000000000E+00  0.00000000000E+00  0.30453398793E+02  0.30453398793E+02  0.00000000000E+00 0.  1.
          3   -1    0    0  501    0  0.00000000000E+00 -0.00000000000E+00 -0.52741791828E+03  0.52741791828E+03  0.00000000000E+00 0. -1.
         25    2    1    2    0    0  0.24475834258E+02  0.61187214104E+02 -0.31106629008E+03  0.34169158463E+03  0.12509180850E+03 0.  0.
         23    2    1    2    0    0 -0.24475834258E+02 -0.61187214104E+02 -0.18589822941E+03  0.21617973244E+03  0.88501883525E+02 0.  0.
          5    1    3    3  502    0 -0.20678326603E+01  0.54916120374E+02 -0.30915872911E+03  0.31403287788E+03  0.41800000000E+01 0.  1.
         -5    1    3    3    0  502  0.26543666919E+02  0.62710937293E+01 -0.19075609677E+01  0.27658706746E+02  0.41800000000E+01 0.  1.
        -11    1    4    4    0    0 -0.54419879714E+02 -0.53994576269E+02 -0.10823773285E+03  0.13263613530E+03  0.00000000000E+00 0.  1.
         11    1    4    4    0    0  0.29944045456E+02 -0.71926378347E+01 -0.77660496558E+02  0.83543597139E+02  0.00000000000E+00 0. -1.
</event>
