<event>
 6    1  0.5258538E-006  0.1670154E+03  0.7546771E-02  0.1187869E+00
          1   -1    0    0  501    0  0.00000000000E+00  0.00000000000E+00  0.45276135660E+02  0.45276135660E+02  0.00000000000E+00 0. -1.
         -1   -1    0    0    0  501 -0.00000000000E+00 -0.00000000000E+00 -0.53308537867E+03  0.53308537867E+03  0.00000000000E+00 0.  1.
          5    1    1    2  502    0  0.65443566444E+02 -0.18290996579E+02 -0.21143874983E+03  0.22213927135E+03  0.47000000000E+01 0.  1.
         -5    1    1    2    0  502 -0.85885599799E+01 -0.76777823313E+02 -0.66130619152E+02  0.10180346902E+03  0.47000000000E+01 0.  1.
        -11    1    1    2    0    0 -0.30400680294E+02 -0.14263627202E+00 -0.10812861708E+03  0.11232105563E+03  0.00000000000E+00 0.  1.
         11    1    1    2    0    0 -0.26454326171E+02  0.95211456164E+02 -0.10211125694E+03  0.14209771832E+03  0.00000000000E+00 0. -1.
<mgrwt>
<rscale>  0 0.16073520E+03</rscale>
<asrwt>0</asrwt>
<pdfrwt beam="1">  1        1 0.69655584E-02 0.16701540E+03</pdfrwt>
<pdfrwt beam="2">  1       -1 0.82013146E-01 0.16701540E+03</pdfrwt>
<totfact> 0.16013036E+03</totfact>
</mgrwt>
</event>
<event>
 6    1  0.5258538E-006  0.1352787E+03  0.7546771E-02  0.1231806E+00
         -1   -1    0    0    0  501 -0.00000000000E+00  0.00000000000E+00  0.47332723186E+02  0.47332723186E+02  0.00000000000E+00 0.  1.
          1   -1    0    0  501    0  0.00000000000E+00 -0.00000000000E+00 -0.30936230104E+03  0.30936230104E+03  0.00000000000E+00 0. -1.
          5    1    1    2  502    0 -0.63321838380E+02 -0.32180498640E+01 -0.53411702088E+02  0.83035600682E+02  0.47000000000E+01 0.  1.
         -5    1    1    2    0  502  0.48548974077E+02 -0.46351338552E+02 -0.11189712708E+03  0.13056992961E+03  0.47000000000E+01 0.  1.
        -11    1    1    2    0    0  0.44560397458E+02  0.56984760836E+02 -0.53035070490E+02  0.89697328227E+02  0.00000000000E+00 0. -1.
         11    1    1    2    0    0 -0.29787533155E+02 -0.74153724196E+01 -0.43685678200E+02  0.53392165712E+02  0.00000000000E+00 0.  1.
<mgrwt>
<rscale>  0 0.12711113E+03</rscale>
<asrwt>0</asrwt>
<pdfrwt beam="2">  1        1 0.47594202E-01 0.13527865E+03</pdfrwt>
<pdfrwt beam="1">  1       -1 0.72819572E-02 0.13527865E+03</pdfrwt>
<totfact> 0.79625829E+03</totfact>
</mgrwt>
</event>
<event>
 6    1  0.5258538E-006  0.2283289E+03  0.7546771E-02  0.1147382E+00
         -4   -1    0    0    0  501 -0.00000000000E+00  0.00000000000E+00  0.71647113579E+02  0.71647113579E+02  0.00000000000E+00 0.  1.
          4   -1    0    0  501    0  0.00000000000E+00 -0.00000000000E+00 -0.59799200123E+03  0.59799200123E+03  0.00000000000E+00 0. -1.
          5    1    1    2  502    0 -0.11740331093E+03 -0.31894578775E+02 -0.16566639845E+03  0.20559242970E+03  0.47000000000E+01 0. -1.
         -5    1    1    2    0  502  0.72134583878E+02 -0.55156042549E+02 -0.29265645117E+03  0.30645631929E+03  0.47000000000E+01 0.  1.
        -11    1    1    2    0    0  0.76324349999E+02  0.50061648847E+02 -0.29865713837E+02  0.96039241724E+02  0.00000000000E+00 0.  1.
         11    1    1    2    0    0 -0.31055622944E+02  0.36988972478E+02 -0.38156324184E+02  0.61551124089E+02  0.00000000000E+00 0. -1.
<mgrwt>
<rscale>  0 0.20281980E+03</rscale>
<asrwt>0</asrwt>
<pdfrwt beam="2">  1        4 0.91998768E-01 0.22832890E+03</pdfrwt>
<pdfrwt beam="1">  1       -4 0.11022633E-01 0.22832890E+03</pdfrwt>
<totfact> 0.12058971E+02</totfact>
</mgrwt>
</event>
<event>
 6    1  0.5258538E-006  0.3078671E+03  0.7546771E-02  0.1081373E+00
          1   -1    0    0  501    0  0.00000000000E+00  0.00000000000E+00  0.47559809731E+03  0.47559809731E+03  0.00000000000E+00 0. -1.
         -1   -1    0    0    0  501 -0.00000000000E+00 -0.00000000000E+00 -0.49822618586E+02  0.49822618586E+02  0.00000000000E+00 0.  1.
          5    1    1    2  502    0  0.50349481967E+01  0.72087843771E+02  0.37177460240E+03  0.37876173634E+03  0.47000000000E+01 0. -1.
         -5    1    1    2    0  502 -0.25468237147E+01 -0.29404612350E+02  0.32157253017E+02  0.43900984727E+02  0.47000000000E+01 0.  1.
        -11    1    1    2    0    0  0.41397489601E+02 -0.27716108860E+02 -0.34532330674E+01  0.49938558792E+02  0.00000000000E+00 0.  1.
         11    1    1    2    0    0 -0.43885614083E+02 -0.14967122562E+02  0.25296856376E+02  0.52819436041E+02  0.00000000000E+00 0. -1.
<mgrwt>
<rscale>  0 0.30786713E+03</rscale>
<asrwt>0</asrwt>
<pdfrwt beam="1">  1        1 0.73168935E-01 0.30786713E+03</pdfrwt>
<pdfrwt beam="2">  1       -1 0.76650186E-02 0.30786713E+03</pdfrwt>
<totfact> 0.44371963E+03</totfact>
</mgrwt>
</event>
<event>
 6    1  0.5258538E-006  0.1323975E+03  0.7546771E-02  0.1236619E+00
          2   -1    0    0  501    0  0.00000000000E+00  0.00000000000E+00  0.23156456274E+03  0.23156456274E+03  0.00000000000E+00 0. -1.
         -2   -1    0    0    0  501 -0.00000000000E+00 -0.00000000000E+00 -0.11250091599E+03  0.11250091599E+03  0.00000000000E+00 0.  1.
          5    1    1    2  502    0 -0.55306632973E+02 -0.13477440222E+02  0.34945141245E+02  0.66960570057E+02  0.47000000000E+01 0.  1.
         -5    1    1    2    0  502  0.49815999500E+02 -0.29828591495E+02  0.14647070573E+03  0.15762974438E+03  0.47000000000E+01 0.  1.
        -11    1    1    2    0    0 -0.23823999938E+02  0.17424476344E+02 -0.73172082296E+02  0.78900880708E+02  0.00000000000E+00 0.  1.
         11    1    1    2    0    0  0.29314633411E+02  0.25881555372E+02  0.10819882066E+02  0.40574283585E+02  0.00000000000E+00 0. -1.
<mgrwt>
<rscale>  0 0.12401340E+03</rscale>
<asrwt>0</asrwt>
<pdfrwt beam="1">  1        2 0.35625317E-01 0.13239751E+03</pdfrwt>
<pdfrwt beam="2">  1       -2 0.17307833E-01 0.13239751E+03</pdfrwt>
<totfact> 0.37532555E+03</totfact>
</mgrwt>
</event>
<event>
 6    1  0.5258538E-006  0.1493321E+03  0.7546771E-02  0.1210797E+00
          1   -1    0    0  501    0  0.00000000000E+00  0.00000000000E+00  0.47363818486E+03  0.47363818486E+03  0.00000000000E+00 0. -1.
         -1   -1    0    0    0  501 -0.00000000000E+00 -0.00000000000E+00 -0.44296961556E+02  0.44296961556E+02  0.00000000000E+00 0.  1.
          5    1    1    2  502    0 -0.17103981817E+02  0.27805679452E+02  0.81829389361E+01  0.33981649363E+02  0.47000000000E+01 0. -1.
         -5    1    1    2    0  502  0.44328486024E+02  0.49236343492E+02  0.31653684842E+03  0.32342989750E+03  0.47000000000E+01 0. -1.
        -11    1    1    2    0    0  0.41880806686E+01 -0.41356292961E+02  0.10505503077E+03  0.11297983217E+03  0.00000000000E+00 0. -1.
         11    1    1    2    0    0 -0.31412584875E+02 -0.35685729982E+02 -0.43359480974E+00  0.47543767387E+02  0.00000000000E+00 0.  1.
<mgrwt>
<rscale>  0 0.14189885E+03</rscale>
<asrwt>0</asrwt>
<pdfrwt beam="1">  1        1 0.72867410E-01 0.14933209E+03</pdfrwt>
<pdfrwt beam="2">  1       -1 0.68149175E-02 0.14933209E+03</pdfrwt>
<totfact> 0.51717014E+03</totfact>
</mgrwt>
</event>
<event>
 6    1  0.5258538E-006  0.1514375E+03  0.7546771E-02  0.1213692E+00
         -4   -1    0    0    0  501 -0.00000000000E+00  0.00000000000E+00  0.43636283513E+02  0.43636283513E+02  0.00000000000E+00 0.  1.
          4   -1    0    0  501    0  0.00000000000E+00 -0.00000000000E+00 -0.48978046357E+03  0.48978046357E+03  0.00000000000E+00 0. -1.
          5    1    1    2  502    0  0.10486789445E+02  0.44510264872E+02 -0.20679806467E+03  0.21184585430E+03  0.47000000000E+01 0. -1.
         -5    1    1    2    0  502 -0.61576798879E+02 -0.69835828217E+02 -0.16330004689E+03  0.18803654001E+03  0.47000000000E+01 0.  1.
        -11    1    1    2    0    0  0.64482219575E+02  0.49524276989E+02 -0.63500879248E+02  0.10316478235E+03  0.00000000000E+00 0. -1.
         11    1    1    2    0    0 -0.13392210141E+02 -0.24198713644E+02 -0.12545189242E+02  0.30369570421E+02  0.00000000000E+00 0.  1.
<mgrwt>
<rscale>  0 0.13973054E+03</rscale>
<asrwt>0</asrwt>
<pdfrwt beam="2">  1        4 0.75350842E-01 0.15143750E+03</pdfrwt>
<pdfrwt beam="1">  1       -4 0.67132743E-02 0.15143750E+03</pdfrwt>
<totfact> 0.40666083E+02</totfact>
</mgrwt>
</event>
<event>
 6    1  0.5258538E-006  0.1257118E+03  0.7546771E-02  0.1251914E+00
         -3   -1    0    0    0  501 -0.00000000000E+00  0.00000000000E+00  0.92135191588E+02  0.92135191588E+02  0.00000000000E+00 0.  1.
          3   -1    0    0  501    0  0.00000000000E+00 -0.00000000000E+00 -0.13244654474E+03  0.13244654474E+03  0.00000000000E+00 0. -1.
          5    1    1    2  502    0 -0.23476231719E+02 -0.49047875074E+01 -0.84688655802E+02  0.88144476956E+02  0.47000000000E+01 0. -1.
         -5    1    1    2    0  502  0.35532388606E+02 -0.98751521792E+00  0.32098652371E+02  0.48124207115E+02  0.47000000000E+01 0. -1.
        -11    1    1    2    0    0 -0.49379153929E+02  0.71631049066E+01  0.10078272590E+02  0.50903658936E+02  0.00000000000E+00 0. -1.
         11    1    1    2    0    0  0.37322997042E+02 -0.12708021813E+01  0.22003776938E+01  0.37409393318E+02  0.00000000000E+00 0.  1.
<mgrwt>
<rscale>  0 0.11480967E+03</rscale>
<asrwt>0</asrwt>
<pdfrwt beam="2">  1        3 0.20376392E-01 0.12571176E+03</pdfrwt>
<pdfrwt beam="1">  1       -3 0.14174645E-01 0.12571176E+03</pdfrwt>
<totfact> 0.20085534E+03</totfact>
</mgrwt>
</event>
<event>
 6    1  0.5258538E-006  0.1413057E+03  0.7546771E-02  0.1221705E+00
         -1   -1    0    0    0  501 -0.00000000000E+00  0.00000000000E+00  0.14951792807E+02  0.14951792807E+02  0.00000000000E+00 0.  1.
          1   -1    0    0  501    0  0.00000000000E+00 -0.00000000000E+00 -0.10972436903E+04  0.10972436903E+04  0.00000000000E+00 0. -1.
          5    1    1    2  502    0 -0.50046188631E+02 -0.75375269328E+02 -0.27246941136E+03  0.28713711420E+03  0.47000000000E+01 0. -1.
         -5    1    1    2    0  502  0.18314833352E+02  0.13410772733E+02 -0.36826527328E+03  0.36899415097E+03  0.47000000000E+01 0.  1.
        -11    1    1    2    0    0 -0.28120909854E+02  0.94666171080E+00 -0.12885396169E+03  0.13189020124E+03  0.00000000000E+00 0. -1.
         11    1    1    2    0    0  0.59852265134E+02  0.61017834884E+02 -0.31270325114E+03  0.32417401668E+03  0.00000000000E+00 0.  1.
<mgrwt>
<rscale>  0 0.13395337E+03</rscale>
<asrwt>0</asrwt>
<pdfrwt beam="2">  1        1 0.16880678E+00 0.14130570E+03</pdfrwt>
<pdfrwt beam="1">  1       -1 0.23002750E-02 0.14130570E+03</pdfrwt>
<totfact> 0.73647046E+03</totfact>
</mgrwt>
</event>
<event>
 6    1  0.5258538E-006  0.1277864E+03  0.7546771E-02  0.1245407E+00
         -1   -1    0    0    0  501 -0.00000000000E+00  0.00000000000E+00  0.51565007982E+03  0.51565007982E+03  0.00000000000E+00 0.  1.
          1   -1    0    0  501    0  0.00000000000E+00 -0.00000000000E+00 -0.24047257125E+02  0.24047257125E+02  0.00000000000E+00 0. -1.
          5    1    1    2  502    0 -0.28943216966E+02 -0.52591979611E+02  0.18519868614E+03  0.19474154532E+03  0.47000000000E+01 0. -1.
         -5    1    1    2    0  502  0.49268508938E+02  0.35539837484E+02  0.90091043348E+02  0.10876098617E+03  0.47000000000E+01 0. -1.
        -11    1    1    2    0    0  0.90297398596E+01  0.42751039553E+02  0.17054997161E+03  0.17605817335E+03  0.00000000000E+00 0.  1.
         11    1    1    2    0    0 -0.29355031831E+02 -0.25698897426E+02  0.45763121600E+02  0.60136632108E+02  0.00000000000E+00 0. -1.
<mgrwt>
<rscale>  0 0.11861056E+03</rscale>
<asrwt>0</asrwt>
<pdfrwt beam="2">  1        1 0.36995784E-02 0.12778635E+03</pdfrwt>
<pdfrwt beam="1">  1       -1 0.79330773E-01 0.12778635E+03</pdfrwt>
<totfact> 0.40203975E+03</totfact>
</mgrwt>
</event>
<event>
 6    1  0.5258538E-006  0.1530746E+03  0.7546771E-02  0.1218884E+00
          2   -1    0    0  501    0  0.00000000000E+00  0.00000000000E+00  0.13898964932E+03  0.13898964932E+03  0.00000000000E+00 0. -1.
         -2   -1    0    0    0  501 -0.00000000000E+00 -0.00000000000E+00 -0.11207115955E+03  0.11207115955E+03  0.00000000000E+00 0.  1.
          5    1    1    2  502    0 -0.41844003644E+02 -0.62757592663E+02 -0.93467481689E-01  0.75574696916E+02  0.47000000000E+01 0. -1.
         -5    1    1    2    0  502  0.56480852940E+02  0.48752723781E+02  0.29102491137E+02  0.80224434029E+02  0.47000000000E+01 0.  1.
        -11    1    1    2    0    0 -0.33587947382E+02  0.44730085466E+02  0.10723099514E+02  0.56955382699E+02  0.00000000000E+00 0.  1.
         11    1    1    2    0    0  0.18951098086E+02 -0.30725216584E+02 -0.12813633401E+02  0.38306295223E+02  0.00000000000E+00 0. -1.
<mgrwt>
<rscale>  0 0.13595051E+03</rscale>
<asrwt>0</asrwt>
<pdfrwt beam="1">  1        2 0.21383023E-01 0.15307464E+03</pdfrwt>
<pdfrwt beam="2">  1       -2 0.17241717E-01 0.15307464E+03</pdfrwt>
<totfact> 0.66626208E+03</totfact>
</mgrwt>
</event>
<event>
 6    1  0.5258538E-006  0.1270087E+03  0.7546771E-02  0.1244481E+00
         -1   -1    0    0    0  501 -0.00000000000E+00  0.00000000000E+00  0.19993976549E+03  0.19993976549E+03  0.00000000000E+00 0.  1.
          1   -1    0    0  501    0  0.00000000000E+00 -0.00000000000E+00 -0.67594723270E+02  0.67594723270E+02  0.00000000000E+00 0. -1.
          5    1    1    2  502    0  0.30426345229E+02  0.44549974635E+02  0.86474355265E+01  0.54839136255E+02  0.47000000000E+01 0.  1.
         -5    1    1    2    0  502 -0.52625119297E+02 -0.48312949427E+02  0.32911893007E+02  0.78796110085E+02  0.47000000000E+01 0.  1.
        -11    1    1    2    0    0 -0.18828335723E+02  0.39166472766E+02  0.48814282801E+02  0.65355589052E+02  0.00000000000E+00 0.  1.
         11    1    1    2    0    0  0.41027109790E+02 -0.35403497975E+02  0.41971430888E+02  0.68543653370E+02  0.00000000000E+00 0. -1.
<mgrwt>
<rscale>  0 0.11916493E+03</rscale>
<asrwt>0</asrwt>
<pdfrwt beam="2">  1        1 0.10399188E-01 0.12700867E+03</pdfrwt>
<pdfrwt beam="1">  1       -1 0.30759964E-01 0.12700867E+03</pdfrwt>
<totfact> 0.56393869E+03</totfact>
</mgrwt>
</event>
<event>
 6    1  0.5258538E-006  0.1348472E+03  0.7546771E-02  0.1232212E+00
          3   -1    0    0  501    0  0.00000000000E+00  0.00000000000E+00  0.23274934713E+03  0.23274934713E+03  0.00000000000E+00 0. -1.
         -3   -1    0    0    0  501 -0.00000000000E+00 -0.00000000000E+00 -0.62224948933E+02  0.62224948933E+02  0.00000000000E+00 0.  1.
          5    1    1    2  502    0  0.11945481616E+02 -0.12407194681E+02 -0.28782326618E+02  0.33869534045E+02  0.47000000000E+01 0.  1.
         -5    1    1    2    0  502  0.22149625050E+02 -0.24936794807E+02  0.13121976810E+03  0.13547386156E+03  0.47000000000E+01 0.  1.
        -11    1    1    2    0    0 -0.34947729876E+02 -0.22248130296E+02  0.10460338478E+02  0.42728700030E+02  0.00000000000E+00 0.  1.
         11    1    1    2    0    0  0.85262321059E+00  0.59592119784E+02  0.57626618233E+02  0.82902200427E+02  0.00000000000E+00 0. -1.
<mgrwt>
<rscale>  0 0.12684621E+03</rscale>
<asrwt>0</asrwt>
<pdfrwt beam="1">  1        3 0.35807591E-01 0.13484716E+03</pdfrwt>
<pdfrwt beam="2">  1       -3 0.95730692E-02 0.13484716E+03</pdfrwt>
<totfact> 0.14012120E+03</totfact>
</mgrwt>
</event>
<event>
 6    1  0.5258538E-006  0.1329910E+03  0.7546771E-02  0.1236317E+00
          2   -1    0    0  501    0  0.00000000000E+00  0.00000000000E+00  0.32695528626E+03  0.32695528626E+03  0.00000000000E+00 0. -1.
         -2   -1    0    0    0  501 -0.00000000000E+00 -0.00000000000E+00 -0.42148318869E+02  0.42148318869E+02  0.00000000000E+00 0.  1.
          5    1    1    2  502    0  0.23887435632E+02  0.19289940700E+02 -0.11144015895E+02  0.32999855811E+02  0.47000000000E+01 0.  1.
         -5    1    1    2    0  502  0.14425843558E+02  0.50552012687E+01  0.18599129465E+03  0.18667756080E+03  0.47000000000E+01 0.  1.
        -11    1    1    2    0    0 -0.60180751378E+02 -0.19925723525E+02  0.37600540845E+02  0.73705888274E+02  0.00000000000E+00 0.  1.
         11    1    1    2    0    0  0.21867472188E+02 -0.44194184442E+01  0.72359147789E+02  0.75720300237E+02  0.00000000000E+00 0. -1.
<mgrwt>
<rscale>  0 0.12420483E+03</rscale>
<asrwt>0</asrwt>
<pdfrwt beam="1">  1        2 0.50300812E-01 0.13299096E+03</pdfrwt>
<pdfrwt beam="2">  1       -2 0.64843570E-02 0.13299096E+03</pdfrwt>
<totfact> 0.12308599E+04</totfact>
</mgrwt>
</event>
<event>
 6    1  0.5258538E-006  0.1812001E+03  0.7546771E-02  0.1171918E+00
         -2   -1    0    0    0  501 -0.00000000000E+00  0.00000000000E+00  0.10217968995E+03  0.10217968995E+03  0.00000000000E+00 0.  1.
          2   -1    0    0  501    0  0.00000000000E+00 -0.00000000000E+00 -0.29536963352E+03  0.29536963352E+03  0.00000000000E+00 0. -1.
          5    1    1    2  502    0  0.38827850311E+02  0.61762234564E+02 -0.20211021157E+02  0.75846891527E+02  0.47000000000E+01 0. -1.
         -5    1    1    2    0  502 -0.69784407806E+02  0.65714234267E+02 -0.11769064784E+03  0.15185981281E+03  0.47000000000E+01 0. -1.
        -11    1    1    2    0    0 -0.27499375393E+02 -0.31694257103E+02 -0.37410220128E+02  0.56216244542E+02  0.00000000000E+00 0. -1.
         11    1    1    2    0    0  0.58455932888E+02 -0.95782211728E+02 -0.17878054445E+02  0.11362637460E+03  0.00000000000E+00 0.  1.
<mgrwt>
<rscale>  0 0.17581246E+03</rscale>
<asrwt>0</asrwt>
<pdfrwt beam="2">  1        2 0.45441481E-01 0.18120009E+03</pdfrwt>
<pdfrwt beam="1">  1       -2 0.15719953E-01 0.18120009E+03</pdfrwt>
<totfact> 0.34460167E+03</totfact>
</mgrwt>
</event>
<event>
 6    1  0.5258538E-006  0.1294634E+03  0.7546771E-02  0.1242263E+00
         -1   -1    0    0    0  501 -0.00000000000E+00  0.00000000000E+00  0.16225967527E+02  0.16225967527E+02  0.00000000000E+00 0.  1.
          1   -1    0    0  501    0  0.00000000000E+00 -0.00000000000E+00 -0.80023563633E+03  0.80023563633E+03  0.00000000000E+00 0. -1.
          5    1    1    2  502    0  0.15559365659E+02  0.37754193472E+02 -0.30247922599E+03  0.30525930803E+03  0.47000000000E+01 0. -1.
         -5    1    1    2    0  502 -0.37035504372E+02 -0.63711044843E+02 -0.18700632306E+03  0.20105765513E+03  0.47000000000E+01 0. -1.
        -11    1    1    2    0    0  0.16286496326E+01 -0.30915084381E+02 -0.54512616879E+02  0.62689874309E+02  0.00000000000E+00 0.  1.
         11    1    1    2    0    0  0.19847489080E+02  0.56871935752E+02 -0.24001150287E+03  0.24745476639E+03  0.00000000000E+00 0. -1.
<mgrwt>
<rscale>  0 0.12050687E+03</rscale>
<asrwt>0</asrwt>
<pdfrwt beam="2">  1        1 0.12311318E+00 0.12946337E+03</pdfrwt>
<pdfrwt beam="1">  1       -1 0.24963025E-02 0.12946337E+03</pdfrwt>
<totfact> 0.10896643E+04</totfact>
</mgrwt>
</event>
<event>
 6    1  0.5258538E-006  0.1273491E+03  0.7546771E-02  0.1246514E+00
         -1   -1    0    0    0  501 -0.00000000000E+00  0.00000000000E+00  0.25847771953E+02  0.25847771953E+02  0.00000000000E+00 0.  1.
          1   -1    0    0  501    0  0.00000000000E+00 -0.00000000000E+00 -0.55386671329E+03  0.55386671329E+03  0.00000000000E+00 0. -1.
          5    1    1    2  502    0  0.30077941298E+02 -0.40068076599E+02 -0.35283633583E+03  0.35640665426E+03  0.47000000000E+01 0. -1.
         -5    1    1    2    0  502 -0.40651531853E+02  0.18112536208E+02 -0.55316019512E+02  0.71151690243E+02  0.47000000000E+01 0. -1.
        -11    1    1    2    0    0 -0.39681214767E+01  0.37025981412E+02 -0.76673545815E+01  0.38019174292E+02  0.00000000000E+00 0.  1.
         11    1    1    2    0    0  0.14541712032E+02 -0.15070441022E+02 -0.11219923141E+03  0.11413696645E+03  0.00000000000E+00 0. -1.
<mgrwt>
<rscale>  0 0.11795200E+03</rscale>
<asrwt>0</asrwt>
<pdfrwt beam="2">  1        1 0.85210263E-01 0.12734910E+03</pdfrwt>
<pdfrwt beam="1">  1       -1 0.39765804E-02 0.12734910E+03</pdfrwt>
<totfact> 0.92724358E+03</totfact>
</mgrwt>
</event>
<event>
 6    1  0.5258538E-006  0.1690930E+03  0.7546771E-02  0.1185212E+00
         -2   -1    0    0    0  501 -0.00000000000E+00  0.00000000000E+00  0.70231341787E+02  0.70231341787E+02  0.00000000000E+00 0. -1.
          2   -1    0    0  501    0  0.00000000000E+00 -0.00000000000E+00 -0.73338657517E+03  0.73338657517E+03  0.00000000000E+00 0.  1.
          5    1    1    2  502    0  0.34317457615E+02 -0.48659989485E+02 -0.10739144346E+03  0.12288406976E+03  0.47000000000E+01 0. -1.
         -5    1    1    2    0  502 -0.55782845248E+02 -0.63171372954E+02 -0.52414744985E+03  0.53090016705E+03  0.47000000000E+01 0. -1.
        -11    1    1    2    0    0  0.20354608268E+02  0.85496314741E+02  0.21552338088E+02  0.90489961814E+02  0.00000000000E+00 0. -1.
         11    1    1    2    0    0  0.11107793646E+01  0.26335047698E+02 -0.53168678167E+02  0.59343718337E+02  0.00000000000E+00 0.  1.
<mgrwt>
<rscale>  0 0.16312633E+03</rscale>
<asrwt>0</asrwt>
<pdfrwt beam="2">  1        2 0.11282870E+00 0.16909304E+03</pdfrwt>
<pdfrwt beam="1">  1       -2 0.10804822E-01 0.16909304E+03</pdfrwt>
<totfact> 0.22961427E+03</totfact>
</mgrwt>
</event>
<event>
 6    1  0.5258538E-006  0.2927348E+03  0.7546771E-02  0.1090662E+00
         -2   -1    0    0    0  501 -0.00000000000E+00  0.00000000000E+00  0.73950551242E+02  0.73950551242E+02  0.00000000000E+00 0.  1.
          2   -1    0    0  501    0  0.00000000000E+00 -0.00000000000E+00 -0.12467622418E+04  0.12467622418E+04  0.00000000000E+00 0. -1.
          5    1    1    2  502    0 -0.86994616113E+02  0.22306087872E+02 -0.52941265509E+02  0.10435752193E+03  0.47000000000E+01 0.  1.
         -5    1    1    2    0  502 -0.12643294640E+03  0.13427675911E+03 -0.32473899208E+03  0.37348767175E+03  0.47000000000E+01 0.  1.
        -11    1    1    2    0    0  0.16357145903E+03 -0.66651899041E+02 -0.48817662151E+03  0.51914787069E+03  0.00000000000E+00 0.  1.
         11    1    1    2    0    0  0.49856103483E+02 -0.89930947945E+02 -0.30695481143E+03  0.32371972864E+03  0.00000000000E+00 0. -1.
<mgrwt>
<rscale>  0 0.28940158E+03</rscale>
<asrwt>0</asrwt>
<pdfrwt beam="2">  1        2 0.19180957E+00 0.29273478E+03</pdfrwt>
<pdfrwt beam="1">  1       -2 0.11377008E-01 0.29273478E+03</pdfrwt>
<totfact> 0.10138322E+03</totfact>
</mgrwt>
</event>
<event>
 6    1  0.5258538E-006  0.1710062E+03  0.7546771E-02  0.1183555E+00
          1   -1    0    0  501    0  0.00000000000E+00  0.00000000000E+00  0.10298256458E+03  0.10298256458E+03  0.00000000000E+00 0. -1.
         -1   -1    0    0    0  501 -0.00000000000E+00 -0.00000000000E+00 -0.43214788394E+03  0.43214788394E+03  0.00000000000E+00 0.  1.
          5    1    1    2  502    0 -0.72545955407E+02  0.10171089355E+02 -0.45397305244E+02  0.86309744687E+02  0.47000000000E+01 0. -1.
         -5    1    1    2    0  502 -0.14914371916E+02  0.67095030706E+02  0.49345056653E+02  0.84741998154E+02  0.47000000000E+01 0. -1.
        -11    1    1    2    0    0  0.97730487529E+02 -0.87811542072E+02 -0.28633958234E+03  0.31504360258E+03  0.00000000000E+00 0. -1.
         11    1    1    2    0    0 -0.10270160206E+02  0.10545422011E+02 -0.46773488426E+02  0.49035103096E+02  0.00000000000E+00 0.  1.
<mgrwt>
<rscale>  0 0.16464096E+03</rscale>
<asrwt>0</asrwt>
<pdfrwt beam="1">  1        1 0.15843472E-01 0.17100618E+03</pdfrwt>
<pdfrwt beam="2">  1       -1 0.66484289E-01 0.17100618E+03</pdfrwt>
<totfact> 0.81980371E+02</totfact>
</mgrwt>
</event>
<event>
 6    1  0.5258538E-006  0.1279117E+03  0.7546771E-02  0.1251228E+00
         -2   -1    0    0    0  501 -0.00000000000E+00  0.00000000000E+00  0.75697446313E+02  0.75697446313E+02  0.00000000000E+00 0.  1.
          2   -1    0    0  501    0  0.00000000000E+00 -0.00000000000E+00 -0.15538280452E+03  0.15538280452E+03  0.00000000000E+00 0. -1.
          5    1    1    2  502    0  0.19812862265E+02 -0.18871671482E+02 -0.90328746031E+02  0.94499004519E+02  0.47000000000E+01 0.  1.
         -5    1    1    2    0  502 -0.15491356076E+02  0.45687593132E+02  0.18876238886E+02  0.52016734555E+02  0.47000000000E+01 0.  1.
        -11    1    1    2    0    0 -0.28745155180E+02  0.76905938207E+01  0.18033006049E+02  0.34793943249E+02  0.00000000000E+00 0.  1.
         11    1    1    2    0    0  0.24423648991E+02 -0.34506515471E+02 -0.26265857111E+02  0.49770568509E+02  0.00000000000E+00 0. -1.
<mgrwt>
<rscale>  0 0.11520272E+03</rscale>
<asrwt>0</asrwt>
<pdfrwt beam="2">  1        2 0.23905047E-01 0.12791169E+03</pdfrwt>
<pdfrwt beam="1">  1       -2 0.11645761E-01 0.12791169E+03</pdfrwt>
<totfact> 0.10984845E+04</totfact>
</mgrwt>
</event>
<event>
 6    1  0.5258538E-006  0.1392002E+03  0.7546771E-02  0.1225676E+00
          1   -1    0    0  501    0  0.00000000000E+00  0.00000000000E+00  0.50140891800E+02  0.50140891800E+02  0.00000000000E+00 0. -1.
         -1   -1    0    0    0  501 -0.00000000000E+00 -0.00000000000E+00 -0.36750860634E+03  0.36750860634E+03  0.00000000000E+00 0.  1.
          5    1    1    2  502    0 -0.76539799510E+02  0.37390532438E+02 -0.22201377468E+02  0.88155453526E+02  0.47000000000E+01 0. -1.
         -5    1    1    2    0  502  0.15438792043E+02 -0.32736625056E+02 -0.69602997253E+02  0.78592048875E+02  0.47000000000E+01 0. -1.
        -11    1    1    2    0    0  0.83866251302E+02 -0.32240777380E+01 -0.14898268009E+03  0.17099643783E+03  0.00000000000E+00 0. -1.
         11    1    1    2    0    0 -0.22765243835E+02 -0.14298296442E+01 -0.76580659739E+02  0.79905557915E+02  0.00000000000E+00 0.  1.
<mgrwt>
<rscale>  0 0.13120690E+03</rscale>
<asrwt>0</asrwt>
<pdfrwt beam="1">  1        1 0.77139837E-02 0.13920017E+03</pdfrwt>
<pdfrwt beam="2">  1       -1 0.56539783E-01 0.13920017E+03</pdfrwt>
<totfact> 0.28769761E+03</totfact>
</mgrwt>
</event>
<event>
 6    1  0.5258538E-006  0.3305713E+03  0.7546771E-02  0.1070884E+00
          1   -1    0    0  501    0  0.00000000000E+00  0.00000000000E+00  0.76940381403E+03  0.76940381403E+03  0.00000000000E+00 0. -1.
         -1   -1    0    0    0  501 -0.00000000000E+00 -0.00000000000E+00 -0.35507166077E+02  0.35507166077E+02  0.00000000000E+00 0.  1.
          5    1    1    2  502    0  0.23016000430E+02 -0.66657336236E+01  0.24145694285E+03  0.24268851132E+03  0.47000000000E+01 0. -1.
         -5    1    1    2    0  502  0.95081291206E+01  0.46802709899E+02  0.22595935885E+02  0.53043043764E+02  0.47000000000E+01 0.  1.
        -11    1    1    2    0    0  0.43860124148E+01  0.65887077849E+02  0.81278539641E+02  0.10472127357E+03  0.00000000000E+00 0.  1.
         11    1    1    2    0    0 -0.36910141966E+02 -0.10602405412E+03  0.38856522958E+03  0.40445815145E+03  0.00000000000E+00 0. -1.
<mgrwt>
<rscale>  0 0.33057132E+03</rscale>
<asrwt>0</asrwt>
<pdfrwt beam="1">  1        1 0.11836980E+00 0.33057132E+03</pdfrwt>
<pdfrwt beam="2">  1       -1 0.54626415E-02 0.33057132E+03</pdfrwt>
<totfact> 0.37771408E+03</totfact>
</mgrwt>
</event>
<event>
 6    1  0.5258538E-006  0.1332990E+03  0.7546771E-02  0.1235249E+00
          2   -1    0    0  501    0  0.00000000000E+00  0.00000000000E+00  0.71941514331E+03  0.71941514331E+03  0.00000000000E+00 0. -1.
         -2   -1    0    0    0  501 -0.00000000000E+00 -0.00000000000E+00 -0.26643459629E+02  0.26643459629E+02  0.00000000000E+00 0.  1.
          5    1    1    2  502    0  0.98694465930E+01 -0.71407092066E+02  0.18980185262E+03  0.20308424860E+03  0.47000000000E+01 0. -1.
         -5    1    1    2    0  502 -0.26905280026E+02  0.28387987278E+02  0.38313408901E+03  0.38515398489E+03  0.47000000000E+01 0. -1.
        -11    1    1    2    0    0  0.24294582036E+02 -0.13234578320E+02  0.28530631177E+01  0.27812240988E+02  0.00000000000E+00 0.  1.
         11    1    1    2    0    0 -0.72587486037E+01  0.56253683108E+02  0.11698267894E+03  0.13000812846E+03  0.00000000000E+00 0. -1.
<mgrwt>
<rscale>  0 0.12488480E+03</rscale>
<asrwt>0</asrwt>
<pdfrwt beam="1">  1        2 0.11067924E+00 0.13329901E+03</pdfrwt>
<pdfrwt beam="2">  1       -2 0.40989943E-02 0.13329901E+03</pdfrwt>
<totfact> 0.10274326E+04</totfact>
</mgrwt>
</event>
<event>
 6    1  0.5258538E-006  0.3198016E+03  0.7546771E-02  0.1075741E+00
          2   -1    0    0  501    0  0.00000000000E+00  0.00000000000E+00  0.12997651271E+04  0.12997651271E+04  0.00000000000E+00 0. -1.
         -2   -1    0    0    0  501 -0.00000000000E+00 -0.00000000000E+00 -0.19671451806E+02  0.19671451806E+02  0.00000000000E+00 0.  1.
          5    1    1    2  502    0  0.26644240077E+02  0.10859585304E+02  0.67897487516E+02  0.73891846189E+02  0.47000000000E+01 0. -1.
         -5    1    1    2    0  502 -0.26750054563E+02 -0.97871250639E+02  0.93556840604E+03  0.94106571476E+03  0.47000000000E+01 0. -1.
        -11    1    1    2    0    0  0.35355111465E+02  0.30907843839E+02  0.51016450448E+02  0.69339432748E+02  0.00000000000E+00 0.  1.
         11    1    1    2    0    0 -0.35249296979E+02  0.56103821496E+02  0.22561133125E+03  0.23513958516E+03  0.00000000000E+00 0. -1.
<mgrwt>
<rscale>  0 0.31980161E+03</rscale>
<asrwt>0</asrwt>
<pdfrwt beam="1">  1        2 0.19996380E+00 0.31980161E+03</pdfrwt>
<pdfrwt beam="2">  1       -2 0.30263782E-02 0.31980161E+03</pdfrwt>
<totfact> 0.73575804E+03</totfact>
</mgrwt>
</event>
<event>
 6    1  0.5258538E-006  0.3134787E+03  0.7546771E-02  0.1078690E+00
          2   -1    0    0  501    0  0.00000000000E+00  0.00000000000E+00  0.79823567651E+03  0.79823567651E+03  0.00000000000E+00 0. -1.
         -2   -1    0    0    0  501 -0.00000000000E+00 -0.00000000000E+00 -0.30776897696E+02  0.30776897696E+02  0.00000000000E+00 0.  1.
          5    1    1    2  502    0  0.94805956549E+01  0.11005549464E+02  0.26817724575E+01  0.15501152102E+02  0.47000000000E+01 0.  1.
         -5    1    1    2    0  502 -0.35318343790E+02 -0.11683049743E+03  0.46210392347E+03  0.47797371960E+03  0.47000000000E+01 0.  1.
        -11    1    1    2    0    0  0.23903014232E+02 -0.63894794652E+01  0.10829775656E+03  0.11108817944E+03  0.00000000000E+00 0. -1.
         11    1    1    2    0    0  0.19347339038E+01  0.11221442743E+03  0.19437532633E+03  0.22444952307E+03  0.00000000000E+00 0.  1.
<mgrwt>
<rscale>  0 0.31347866E+03</rscale>
<asrwt>0</asrwt>
<pdfrwt beam="1">  1        2 0.12280547E+00 0.31347866E+03</pdfrwt>
<pdfrwt beam="2">  1       -2 0.47349079E-02 0.31347866E+03</pdfrwt>
<totfact> 0.75826195E+03</totfact>
</mgrwt>
</event>
<event>
 6    1  0.5258538E-006  0.1946332E+03  0.7546771E-02  0.1159298E+00
         -2   -1    0    0    0  501 -0.00000000000E+00  0.00000000000E+00  0.20964512742E+02  0.20964512742E+02  0.00000000000E+00 0.  1.
          2   -1    0    0  501    0  0.00000000000E+00 -0.00000000000E+00 -0.25388800391E+04  0.25388800391E+04  0.00000000000E+00 0. -1.
          5    1    1    2  502    0  0.52394816372E+02 -0.55189431070E+02 -0.48795848556E+03  0.49387919952E+03  0.47000000000E+01 0. -1.
         -5    1    1    2    0  502  0.95060116854E+02  0.32498671007E+02 -0.15887531376E+04  0.15919331681E+04  0.47000000000E+01 0. -1.
        -11    1    1    2    0    0 -0.30475170086E+02  0.10229201812E+02 -0.22816924933E+02  0.39420611676E+02  0.00000000000E+00 0.  1.
         11    1    1    2    0    0 -0.11697976314E+03  0.12461558251E+02 -0.41838697822E+03  0.43461157251E+03  0.00000000000E+00 0. -1.
<mgrwt>
<rscale>  0 0.18907551E+03</rscale>
<asrwt>0</asrwt>
<pdfrwt beam="2">  1        2 0.39059672E+00 0.19463316E+03</pdfrwt>
<pdfrwt beam="1">  1       -2 0.32253114E-02 0.19463316E+03</pdfrwt>
<totfact> 0.14660687E+03</totfact>
</mgrwt>
</event>
<event>
 6    1  0.5258538E-006  0.2534817E+03  0.7546771E-02  0.1111124E+00
          1   -1    0    0  501    0  0.00000000000E+00  0.00000000000E+00  0.80239051499E+02  0.80239051499E+02  0.00000000000E+00 0. -1.
         -1   -1    0    0    0  501 -0.00000000000E+00 -0.00000000000E+00 -0.20019239992E+03  0.20019239992E+03  0.00000000000E+00 0.  1.
          5    1    1    2  502    0 -0.60061691329E+02  0.34669883604E+02  0.17764472007E+02  0.71743111586E+02  0.47000000000E+01 0.  1.
         -5    1    1    2    0  502 -0.30800144456E+01 -0.13094654554E+02 -0.83060382453E+02  0.84273801387E+02  0.47000000000E+01 0.  1.
        -11    1    1    2    0    0  0.54957859519E+02 -0.54433709923E+02 -0.32227981075E+02  0.83797600580E+02  0.00000000000E+00 0.  1.
         11    1    1    2    0    0  0.81838462558E+01  0.32858480873E+02 -0.22429456899E+02  0.40616937866E+02  0.00000000000E+00 0. -1.
<mgrwt>
<rscale>  0 0.25348174E+03</rscale>
<asrwt>0</asrwt>
<pdfrwt beam="1">  1        1 0.12344470E-01 0.25348174E+03</pdfrwt>
<pdfrwt beam="2">  1       -1 0.30798830E-01 0.25348174E+03</pdfrwt>
<totfact> 0.46700130E+03</totfact>
</mgrwt>
</event>
<event>
 6    1  0.5258538E-006  0.1342565E+03  0.7546771E-02  0.1235051E+00
         -2   -1    0    0    0  501 -0.00000000000E+00  0.00000000000E+00  0.16146377120E+02  0.16146377120E+02  0.00000000000E+00 0.  1.
          2   -1    0    0  501    0  0.00000000000E+00 -0.00000000000E+00 -0.17180790264E+04  0.17180790264E+04  0.00000000000E+00 0. -1.
          5    1    1    2  502    0  0.42588282809E+02 -0.24352327625E+01 -0.16318950140E+03  0.16873824569E+03  0.47000000000E+01 0.  1.
         -5    1    1    2    0  502 -0.26892559222E+01  0.30847864326E+02 -0.13588965254E+04  0.13592574001E+04  0.47000000000E+01 0.  1.
        -11    1    1    2    0    0 -0.48812201170E+02  0.10487208421E+02 -0.51105214689E+02  0.71444772320E+02  0.00000000000E+00 0.  1.
         11    1    1    2    0    0  0.89131742837E+01 -0.38899839984E+02 -0.12874140776E+03  0.13478498544E+03  0.00000000000E+00 0. -1.
<mgrwt>
<rscale>  0 0.12501196E+03</rscale>
<asrwt>0</asrwt>
<pdfrwt beam="2">  1        2 0.26431979E+00 0.13425655E+03</pdfrwt>
<pdfrwt beam="1">  1       -2 0.24840586E-02 0.13425655E+03</pdfrwt>
<totfact> 0.57859494E+03</totfact>
</mgrwt>
</event>
<event>
 6    1  0.5258538E-006  0.1522622E+03  0.7546771E-02  0.1205464E+00
          2   -1    0    0  501    0  0.00000000000E+00  0.00000000000E+00  0.53313001940E+02  0.53313001940E+02  0.00000000000E+00 0. -1.
         -2   -1    0    0    0  501 -0.00000000000E+00 -0.00000000000E+00 -0.42378600505E+03  0.42378600505E+03  0.00000000000E+00 0.  1.
          5    1    1    2  502    0  0.11217472565E+03 -0.31355196947E+02 -0.92148028694E+02  0.14859228326E+03  0.47000000000E+01 0. -1.
         -5    1    1    2    0  502 -0.25531415461E+02  0.24131782999E+02 -0.22145763537E+02  0.41793791031E+02  0.47000000000E+01 0. -1.
        -11    1    1    2    0    0 -0.70678590119E+02  0.39992277443E+02 -0.22335821488E+03  0.23766307562E+03  0.00000000000E+00 0.  1.
         11    1    1    2    0    0 -0.15964720074E+02 -0.32768863495E+02 -0.32820995997E+02  0.49049857085E+02  0.00000000000E+00 0. -1.
<mgrwt>
<rscale>  0 0.14600939E+03</rscale>
<asrwt>0</asrwt>
<pdfrwt beam="1">  1        2 0.82020006E-02 0.15226223E+03</pdfrwt>
<pdfrwt beam="2">  1       -2 0.65197844E-01 0.15226223E+03</pdfrwt>
<totfact> 0.17780461E+03</totfact>
</mgrwt>
</event>
<event>
 6    1  0.5258538E-006  0.1623863E+03  0.7546771E-02  0.1193143E+00
          2   -1    0    0  501    0  0.00000000000E+00  0.00000000000E+00  0.51063911178E+03  0.51063911178E+03  0.00000000000E+00 0. -1.
         -2   -1    0    0    0  501 -0.00000000000E+00 -0.00000000000E+00 -0.62548127941E+02  0.62548127941E+02  0.00000000000E+00 0.  1.
          5    1    1    2  502    0  0.26058572136E+02 -0.51687260372E+02  0.85188068728E+02  0.10310052919E+03  0.47000000000E+01 0.  1.
         -5    1    1    2    0  502  0.77540405422E+02  0.55060740959E+02  0.30538668858E+03  0.31988641614E+03  0.47000000000E+01 0.  1.
        -11    1    1    2    0    0 -0.41253908136E+02  0.34484688028E+02 -0.51808869218E+01  0.54017777020E+02  0.00000000000E+00 0.  1.
         11    1    1    2    0    0 -0.62345069423E+02 -0.37858168615E+02  0.62697113455E+02  0.96182517371E+02  0.00000000000E+00 0. -1.
<mgrwt>
<rscale>  0 0.15612469E+03</rscale>
<asrwt>0</asrwt>
<pdfrwt beam="1">  1        2 0.78559861E-01 0.16238631E+03</pdfrwt>
<pdfrwt beam="2">  1       -2 0.96227892E-02 0.16238631E+03</pdfrwt>
<totfact> 0.41853312E+03</totfact>
</mgrwt>
</event>
<event>
 6    1  0.5258538E-006  0.1480941E+03  0.7546771E-02  0.1212325E+00
         -1   -1    0    0    0  501 -0.00000000000E+00  0.00000000000E+00  0.21547381816E+03  0.21547381816E+03  0.00000000000E+00 0.  1.
          1   -1    0    0  501    0  0.00000000000E+00 -0.00000000000E+00 -0.85806289398E+02  0.85806289398E+02  0.00000000000E+00 0. -1.
          5    1    1    2  502    0  0.95159550550E+01 -0.23628418725E+02  0.66628778924E+02  0.71486640381E+02  0.47000000000E+01 0.  1.
         -5    1    1    2    0  502  0.65168154013E+02  0.50570256138E+02 -0.17670654986E+02  0.84490124576E+02  0.47000000000E+01 0.  1.
        -11    1    1    2    0    0 -0.77253216040E+02 -0.45628138816E+02  0.87433948092E+02  0.12527841681E+03  0.00000000000E+00 0.  1.
         11    1    1    2    0    0  0.25691069723E+01  0.18686301403E+02 -0.67245432658E+01  0.20024925790E+02  0.00000000000E+00 0. -1.
<mgrwt>
<rscale>  0 0.14074852E+03</rscale>
<asrwt>0</asrwt>
<pdfrwt beam="2">  1        1 0.13200968E-01 0.14809407E+03</pdfrwt>
<pdfrwt beam="1">  1       -1 0.33149818E-01 0.14809407E+03</pdfrwt>
<totfact> 0.36657175E+03</totfact>
</mgrwt>
</event>
<event>
 6    1  0.5258538E-006  0.1442097E+03  0.7546771E-02  0.1218073E+00
          1   -1    0    0  501    0  0.00000000000E+00  0.00000000000E+00  0.11315733563E+04  0.11315733563E+04  0.00000000000E+00 0. -1.
         -1   -1    0    0    0  501 -0.00000000000E+00 -0.00000000000E+00 -0.15668960288E+02  0.15668960288E+02  0.00000000000E+00 0.  1.
          5    1    1    2  502    0  0.16330208722E+02 -0.47275031287E+01  0.49735407149E+03  0.49766674334E+03  0.47000000000E+01 0. -1.
         -5    1    1    2    0  502 -0.69585013084E+02 -0.43600251718E+02  0.24130170991E+03  0.25493462142E+03  0.47000000000E+01 0. -1.
        -11    1    1    2    0    0  0.63403302105E+02  0.68346945920E+02  0.29461339947E+03  0.30901187498E+03  0.00000000000E+00 0. -1.
         11    1    1    2    0    0 -0.10148497743E+02 -0.20019191073E+02  0.82635215104E+02  0.85629076796E+02  0.00000000000E+00 0.  1.
<mgrwt>
<rscale>  0 0.13653220E+03</rscale>
<asrwt>0</asrwt>
<pdfrwt beam="1">  1        1 0.17408814E+00 0.14420975E+03</pdfrwt>
<pdfrwt beam="2">  1       -1 0.24106102E-02 0.14420975E+03</pdfrwt>
<totfact> 0.65153294E+03</totfact>
</mgrwt>
</event>
<event>
 6    1  0.5258538E-006  0.1476719E+03  0.7546771E-02  0.1212695E+00
         -1   -1    0    0    0  501 -0.00000000000E+00  0.00000000000E+00  0.17449370997E+02  0.17449370997E+02  0.00000000000E+00 0.  1.
          1   -1    0    0  501    0  0.00000000000E+00 -0.00000000000E+00 -0.10543374329E+04  0.10543374329E+04  0.00000000000E+00 0. -1.
          5    1    1    2  502    0 -0.14932834036E+02  0.86232150887E+02 -0.32904980892E+03  0.34052142389E+03  0.47000000000E+01 0. -1.
         -5    1    1    2    0  502 -0.45839571739E+02 -0.36348938090E+02 -0.16509134528E+03  0.17521345246E+03  0.47000000000E+01 0. -1.
        -11    1    1    2    0    0  0.62937190933E+02 -0.73586029323E+02 -0.41982416306E+03  0.43084605325E+03  0.00000000000E+00 0.  1.
         11    1    1    2    0    0 -0.21647851577E+01  0.23702816526E+02 -0.12292274467E+03  0.12520587431E+03  0.00000000000E+00 0. -1.
<mgrwt>
<rscale>  0 0.14047209E+03</rscale>
<asrwt>0</asrwt>
<pdfrwt beam="2">  1        1 0.16220576E+00 0.14767187E+03</pdfrwt>
<pdfrwt beam="1">  1       -1 0.26845186E-02 0.14767187E+03</pdfrwt>
<totfact> 0.63267913E+03</totfact>
</mgrwt>
</event>
<event>
 6    1  0.5258538E-006  0.1371423E+03  0.7546771E-02  0.1229401E+00
          1   -1    0    0  501    0  0.00000000000E+00  0.00000000000E+00  0.27241082313E+03  0.27241082313E+03  0.00000000000E+00 0. -1.
         -1   -1    0    0    0  501 -0.00000000000E+00 -0.00000000000E+00 -0.63724737997E+02  0.63724737997E+02  0.00000000000E+00 0.  1.
          5    1    1    2  502    0 -0.19201407914E+02  0.29963150869E+02  0.18261657942E+02  0.40274838630E+02  0.47000000000E+01 0.  1.
         -5    1    1    2    0  502  0.55037709910E+02 -0.73539365235E+02  0.16114839589E+03  0.18554806183E+03  0.47000000000E+01 0.  1.
        -11    1    1    2    0    0  0.16680141456E+02 -0.18039463940E+02  0.12761373052E+02  0.27685772888E+02  0.00000000000E+00 0. -1.
         11    1    1    2    0    0 -0.52516443453E+02  0.61615678306E+02  0.16514658244E+02  0.82626887772E+02  0.00000000000E+00 0.  1.
<mgrwt>
<rscale>  0 0.12869749E+03</rscale>
<asrwt>0</asrwt>
<pdfrwt beam="1">  1        1 0.41909357E-01 0.13714232E+03</pdfrwt>
<pdfrwt beam="2">  1       -1 0.98038060E-02 0.13714232E+03</pdfrwt>
<totfact> 0.59482118E+03</totfact>
</mgrwt>
</event>
<event>
 6    1  0.5258538E-006  0.1275227E+03  0.7546771E-02  0.1248808E+00
         -1   -1    0    0    0  501 -0.00000000000E+00  0.00000000000E+00  0.34732636894E+03  0.34732636894E+03  0.00000000000E+00 0.  1.
          1   -1    0    0  501    0  0.00000000000E+00 -0.00000000000E+00 -0.34417772452E+02  0.34417772452E+02  0.00000000000E+00 0. -1.
          5    1    1    2  502    0  0.40905654964E+02  0.56403534464E+02  0.50913586188E+02  0.86422882193E+02  0.47000000000E+01 0. -1.
         -5    1    1    2    0  502 -0.21193633883E+02 -0.40651912358E+02  0.10735163709E+03  0.11682556262E+03  0.47000000000E+01 0. -1.
        -11    1    1    2    0    0  0.14684240996E+02 -0.42421855635E+02  0.89855187263E+02  0.10044498717E+03  0.00000000000E+00 0.  1.
         11    1    1    2    0    0 -0.34396262076E+02  0.26670233529E+02  0.64788185949E+02  0.78050709413E+02  0.00000000000E+00 0. -1.
<mgrwt>
<rscale>  0 0.11660314E+03</rscale>
<asrwt>0</asrwt>
<pdfrwt beam="2">  1        1 0.52950422E-02 0.12752274E+03</pdfrwt>
<pdfrwt beam="1">  1       -1 0.53434824E-01 0.12752274E+03</pdfrwt>
<totfact> 0.52890418E+03</totfact>
</mgrwt>
</event>
<event>
 6    1  0.5258538E-006  0.2370166E+03  0.7546771E-02  0.1124600E+00
          1   -1    0    0  501    0  0.00000000000E+00  0.00000000000E+00  0.25219413986E+04  0.25219413986E+04  0.00000000000E+00 0. -1.
         -1   -1    0    0    0  501 -0.00000000000E+00 -0.00000000000E+00 -0.24509088178E+02  0.24509088178E+02  0.00000000000E+00 0.  1.
          5    1    1    2  502    0 -0.21168570178E+02  0.11160876814E+03  0.14323129929E+04  0.14368184385E+04  0.47000000000E+01 0. -1.
         -5    1    1    2    0  502 -0.34765494489E+02  0.81837325036E+02  0.34834973533E+03  0.35954918367E+03  0.47000000000E+01 0. -1.
        -11    1    1    2    0    0 -0.25377009161E+02 -0.51256272295E+02  0.17767151660E+03  0.18665038402E+03  0.00000000000E+00 0. -1.
         11    1    1    2    0    0  0.81311073827E+02 -0.14218982088E+03  0.53909806557E+03  0.56343248060E+03  0.00000000000E+00 0.  1.
<mgrwt>
<rscale>  0 0.23292151E+03</rscale>
<asrwt>0</asrwt>
<pdfrwt beam="1">  1        1 0.38799078E+00 0.23701663E+03</pdfrwt>
<pdfrwt beam="2">  1       -1 0.37706309E-02 0.23701663E+03</pdfrwt>
<totfact> 0.41431020E+02</totfact>
</mgrwt>
</event>
<event>
 6    1  0.5258538E-006  0.1710441E+03  0.7546771E-02  0.1183097E+00
         -2   -1    0    0    0  501 -0.00000000000E+00  0.00000000000E+00  0.33753785289E+02  0.33753785289E+02  0.00000000000E+00 0.  1.
          2   -1    0    0  501    0  0.00000000000E+00 -0.00000000000E+00 -0.81548562202E+03  0.81548562202E+03  0.00000000000E+00 0. -1.
          5    1    1    2  502    0 -0.44887463465E+02  0.11804621238E+03 -0.36768898333E+03  0.38880209760E+03  0.47000000000E+01 0. -1.
         -5    1    1    2    0  502 -0.31596456490E+02 -0.29837321870E+02 -0.16377109758E+03  0.16950417175E+03  0.47000000000E+01 0. -1.
        -11    1    1    2    0    0  0.32047417113E+02  0.13179423954E+02 -0.37313198104E+02  0.50921595734E+02  0.00000000000E+00 0.  1.
         11    1    1    2    0    0  0.44436502842E+02 -0.10138831447E+03 -0.21295855771E+03  0.24001154222E+03  0.00000000000E+00 0. -1.
<mgrwt>
<rscale>  0 0.16506272E+03</rscale>
<asrwt>0</asrwt>
<pdfrwt beam="2">  1        2 0.12545931E+00 0.17104407E+03</pdfrwt>
<pdfrwt beam="1">  1       -2 0.51928906E-02 0.17104407E+03</pdfrwt>
<totfact> 0.62590503E+03</totfact>
</mgrwt>
</event>
<event>
 6    1  0.5258538E-006  0.1310374E+03  0.7546771E-02  0.1239691E+00
         -2   -1    0    0    0  501 -0.00000000000E+00  0.00000000000E+00  0.29126646359E+03  0.29126646359E+03  0.00000000000E+00 0. -1.
          2   -1    0    0  501    0  0.00000000000E+00 -0.00000000000E+00 -0.45323533842E+02  0.45323533842E+02  0.00000000000E+00 0.  1.
          5    1    1    2  502    0 -0.88129546644E+01 -0.64596402420E+02  0.14193449628E+03  0.15626213428E+03  0.47000000000E+01 0. -1.
         -5    1    1    2    0  502  0.20634730087E+02  0.26964877421E+02 -0.33774427525E+01  0.34444067989E+02  0.47000000000E+01 0. -1.
        -11    1    1    2    0    0  0.87723474277E+01 -0.84537687159E+01 -0.11482848061E+02  0.16741448100E+02  0.00000000000E+00 0.  1.
         11    1    1    2    0    0 -0.20594122850E+02  0.46085293715E+02  0.11886872428E+03  0.12914234707E+03  0.00000000000E+00 0. -1.
<mgrwt>
<rscale>  0 0.12208828E+03</rscale>
<asrwt>0</asrwt>
<pdfrwt beam="2">  1        2 0.69728515E-02 0.13103739E+03</pdfrwt>
<pdfrwt beam="1">  1       -2 0.44810224E-01 0.13103739E+03</pdfrwt>
<totfact> 0.45993390E+03</totfact>
</mgrwt>
</event>
<event>
 6    1  0.5258538E-006  0.1304924E+03  0.7546771E-02  0.1239759E+00
          1   -1    0    0  501    0  0.00000000000E+00  0.00000000000E+00  0.30726117524E+02  0.30726117524E+02  0.00000000000E+00 0. -1.
         -1   -1    0    0    0  501 -0.00000000000E+00 -0.00000000000E+00 -0.44330132806E+03  0.44330132806E+03  0.00000000000E+00 0.  1.
          5    1    1    2  502    0  0.54450218013E+02 -0.79234951286E+01 -0.53047351693E+02  0.76574927609E+02  0.47000000000E+01 0. -1.
         -5    1    1    2    0  502 -0.52479800336E+02  0.45344517870E+02 -0.14194672290E+03  0.15805447443E+03  0.47000000000E+01 0. -1.
        -11    1    1    2    0    0  0.21831334571E+02  0.23516016363E+02 -0.97614452085E+02  0.10275306054E+03  0.00000000000E+00 0.  1.
         11    1    1    2    0    0 -0.23801752248E+02 -0.60937039105E+02 -0.11996668385E+03  0.13664498300E+03  0.00000000000E+00 0. -1.
<mgrwt>
<rscale>  0 0.12204644E+03</rscale>
<asrwt>0</asrwt>
<pdfrwt beam="1">  1        1 0.47270951E-02 0.13049240E+03</pdfrwt>
<pdfrwt beam="2">  1       -1 0.68200203E-01 0.13049240E+03</pdfrwt>
<totfact> 0.38897722E+03</totfact>
</mgrwt>
</event>
<event>
 6    1  0.5258538E-006  0.1298044E+03  0.7546771E-02  0.1246720E+00
         -1   -1    0    0    0  501 -0.00000000000E+00  0.00000000000E+00  0.17572750995E+02  0.17572750995E+02  0.00000000000E+00 0.  1.
          1   -1    0    0  501    0  0.00000000000E+00 -0.00000000000E+00 -0.80768621071E+03  0.80768621071E+03  0.00000000000E+00 0. -1.
          5    1    1    2  502    0  0.15884036876E+02 -0.67075617141E+02 -0.39528960930E+03  0.40128220277E+03  0.47000000000E+01 0.  1.
         -5    1    1    2    0  502 -0.40328465590E+02  0.42039404021E+02 -0.22716487794E+03  0.23456271740E+03  0.47000000000E+01 0.  1.
        -11    1    1    2    0    0  0.33544229792E+02 -0.21299898102E+02 -0.61411953224E+02  0.73145943225E+02  0.00000000000E+00 0.  1.
         11    1    1    2    0    0 -0.90998010777E+01  0.46336111222E+02 -0.10624701926E+03  0.11626809831E+03  0.00000000000E+00 0. -1.
<mgrwt>
<rscale>  0 0.11783021E+03</rscale>
<asrwt>0</asrwt>
<pdfrwt beam="2">  1        1 0.12425946E+00 0.12980437E+03</pdfrwt>
<pdfrwt beam="1">  1       -1 0.27034993E-02 0.12980437E+03</pdfrwt>
<totfact> 0.95745642E+03</totfact>
</mgrwt>
</event>
<event>
 6    1  0.5258538E-006  0.1260771E+03  0.7546771E-02  0.1247997E+00
          2   -1    0    0  501    0  0.00000000000E+00  0.00000000000E+00  0.38694343745E+03  0.38694343745E+03  0.00000000000E+00 0. -1.
         -2   -1    0    0    0  501 -0.00000000000E+00 -0.00000000000E+00 -0.37283457101E+02  0.37283457101E+02  0.00000000000E+00 0.  1.
          5    1    1    2  502    0  0.21774955202E+00 -0.51908092037E+02  0.25410572789E+03  0.25939604543E+03  0.47000000000E+01 0. -1.
         -5    1    1    2    0  502 -0.10242042861E+02  0.38913861603E+02  0.26992636857E+02  0.48681418542E+02  0.47000000000E+01 0. -1.
        -11    1    1    2    0    0  0.33072548375E+01 -0.29250402545E+02 -0.61375935208E+01  0.30069819385E+02  0.00000000000E+00 0.  1.
         11    1    1    2    0    0  0.67170384719E+01  0.42244632979E+02  0.74699209122E+02  0.86079611203E+02  0.00000000000E+00 0. -1.
<mgrwt>
<rscale>  0 0.11707811E+03</rscale>
<asrwt>0</asrwt>
<pdfrwt beam="1">  1        2 0.59529757E-01 0.12607709E+03</pdfrwt>
<pdfrwt beam="2">  1       -2 0.57359167E-02 0.12607709E+03</pdfrwt>
<totfact> 0.12343508E+04</totfact>
</mgrwt>
</event>
<event>
 6    1  0.5258538E-006  0.1263452E+03  0.7546771E-02  0.1244976E+00
          1   -1    0    0  501    0  0.00000000000E+00  0.00000000000E+00  0.14244422411E+03  0.14244422411E+03  0.00000000000E+00 0. -1.
         -1   -1    0    0    0  501 -0.00000000000E+00 -0.00000000000E+00 -0.90019509388E+02  0.90019509388E+02  0.00000000000E+00 0.  1.
          5    1    1    2  502    0  0.55123807204E+02  0.32620483732E+01 -0.20291343475E+02  0.59017825275E+02  0.47000000000E+01 0. -1.
         -5    1    1    2    0  502 -0.39040384921E+02 -0.12290574090E+02  0.61219662314E+02  0.73791238776E+02  0.47000000000E+01 0. -1.
        -11    1    1    2    0    0 -0.28120770946E+02 -0.21930583386E+02  0.41623106560E+02  0.54810685509E+02  0.00000000000E+00 0. -1.
         11    1    1    2    0    0  0.12037348663E+02  0.30959109103E+02 -0.30126710677E+02  0.44843983939E+02  0.00000000000E+00 0.  1.
<mgrwt>
<rscale>  0 0.11886836E+03</rscale>
<asrwt>0</asrwt>
<pdfrwt beam="1">  1        1 0.21914496E-01 0.12634524E+03</pdfrwt>
<pdfrwt beam="2">  1       -1 0.13849155E-01 0.12634524E+03</pdfrwt>
<totfact> 0.77886780E+03</totfact>
</mgrwt>
</event>
<event>
 6    1  0.5258538E-006  0.1600884E+03  0.7546771E-02  0.1204745E+00
         -1   -1    0    0    0  501 -0.00000000000E+00  0.00000000000E+00  0.16037320625E+02  0.16037320625E+02  0.00000000000E+00 0.  1.
          1   -1    0    0  501    0  0.00000000000E+00 -0.00000000000E+00 -0.16989608482E+04  0.16989608482E+04  0.00000000000E+00 0. -1.
          5    1    1    2  502    0  0.37344799249E+02  0.25367760862E+02 -0.90458509781E+03  0.90572316218E+03  0.47000000000E+01 0. -1.
         -5    1    1    2    0  502 -0.17309849400E+02 -0.88556349416E+02 -0.51568649132E+03  0.52354226690E+03  0.47000000000E+01 0.  1.
        -11    1    1    2    0    0 -0.33843438719E+02  0.80014464378E+02 -0.17446522119E+03  0.19489947732E+03  0.00000000000E+00 0.  1.
         11    1    1    2    0    0  0.13808488870E+02 -0.16825875824E+02 -0.88186717223E+02  0.90833262392E+02  0.00000000000E+00 0. -1.
<mgrwt>
<rscale>  0 0.14657565E+03</rscale>
<asrwt>0</asrwt>
<pdfrwt beam="2">  1        1 0.26137837E+00 0.16008835E+03</pdfrwt>
<pdfrwt beam="1">  1       -1 0.24672822E-02 0.16008835E+03</pdfrwt>
<totfact> 0.26590016E+03</totfact>
</mgrwt>
</event>
<event>
 6    1  0.5258538E-006  0.1303664E+03  0.7546771E-02  0.1240922E+00
         -4   -1    0    0    0  501 -0.00000000000E+00  0.00000000000E+00  0.83846949524E+02  0.83846949524E+02  0.00000000000E+00 0.  1.
          4   -1    0    0  501    0  0.00000000000E+00 -0.00000000000E+00 -0.43739665607E+03  0.43739665607E+03  0.00000000000E+00 0. -1.
          5    1    1    2  502    0  0.45279886186E+02  0.57507443741E+01 -0.35035965291E+03  0.35335154668E+03  0.47000000000E+01 0. -1.
         -5    1    1    2    0  502 -0.32344622533E+02  0.28941880010E+02 -0.43939194092E+02  0.61939888624E+02  0.47000000000E+01 0. -1.
        -11    1    1    2    0    0  0.30277764592E+01  0.21066733199E+02  0.42925351261E+02  0.47912007460E+02  0.00000000000E+00 0.  1.
         11    1    1    2    0    0 -0.15963040113E+02 -0.55759357583E+02 -0.21762108033E+01  0.58040162829E+02  0.00000000000E+00 0. -1.
<mgrwt>
<rscale>  0 0.12132825E+03</rscale>
<asrwt>0</asrwt>
<pdfrwt beam="2">  1        4 0.67291794E-01 0.13036639E+03</pdfrwt>
<pdfrwt beam="1">  1       -4 0.12899531E-01 0.13036639E+03</pdfrwt>
<totfact> 0.16911616E+02</totfact>
</mgrwt>
</event>
<event>
 6    1  0.5258538E-006  0.1250273E+03  0.7546771E-02  0.1247932E+00
         -1   -1    0    0    0  501 -0.00000000000E+00  0.00000000000E+00  0.38910180924E+02  0.38910180924E+02  0.00000000000E+00 0.  1.
          1   -1    0    0  501    0  0.00000000000E+00 -0.00000000000E+00 -0.35005263575E+03  0.35005263575E+03  0.00000000000E+00 0. -1.
          5    1    1    2  502    0  0.10873548601E+02  0.59191714028E+02 -0.85081883737E+02  0.10432118677E+03  0.47000000000E+01 0.  1.
         -5    1    1    2    0  502 -0.87076469412E+01 -0.60215461532E+02 -0.15006608690E+03  0.16199890543E+03  0.47000000000E+01 0.  1.
        -11    1    1    2    0    0 -0.45415952852E+02 -0.17622902281E+02 -0.32732204108E+02  0.58690481716E+02  0.00000000000E+00 0.  1.
         11    1    1    2    0    0  0.43250051192E+02  0.18646649785E+02 -0.43262280084E+02  0.63952242763E+02  0.00000000000E+00 0. -1.
<mgrwt>
<rscale>  0 0.11711583E+03</rscale>
<asrwt>0</asrwt>
<pdfrwt beam="2">  1        1 0.53854253E-01 0.12502729E+03</pdfrwt>
<pdfrwt beam="1">  1       -1 0.59861815E-02 0.12502729E+03</pdfrwt>
<totfact> 0.91015275E+03</totfact>
</mgrwt>
</event>
<event>
 6    1  0.5258538E-006  0.1455689E+03  0.7546771E-02  0.1215334E+00
          2   -1    0    0  501    0  0.00000000000E+00  0.00000000000E+00  0.39682967430E+03  0.39682967430E+03  0.00000000000E+00 0. -1.
         -2   -1    0    0    0  501 -0.00000000000E+00 -0.00000000000E+00 -0.44483395089E+02  0.44483395089E+02  0.00000000000E+00 0.  1.
          5    1    1    2  502    0 -0.77217299823E+02 -0.49666851235E+02  0.15643499095E+03  0.18144779937E+03  0.47000000000E+01 0. -1.
         -5    1    1    2    0  502  0.47461447201E+02 -0.18715817350E+02  0.54084075664E+02  0.74498644484E+02  0.47000000000E+01 0. -1.
        -11    1    1    2    0    0  0.36024798603E+02 -0.11892198723E+02  0.56415595317E+02  0.67984776971E+02  0.00000000000E+00 0. -1.
         11    1    1    2    0    0 -0.62689459814E+01  0.80274867309E+02  0.85411617280E+02  0.11738184856E+03  0.00000000000E+00 0.  1.
<mgrwt>
<rscale>  0 0.13851998E+03</rscale>
<asrwt>0</asrwt>
<pdfrwt beam="1">  1        2 0.61050717E-01 0.14556890E+03</pdfrwt>
<pdfrwt beam="2">  1       -2 0.68435995E-02 0.14556890E+03</pdfrwt>
<totfact> 0.92849337E+03</totfact>
</mgrwt>
</event>
<event>
 6    1  0.5258538E-006  0.1259807E+03  0.7546771E-02  0.1250443E+00
          2   -1    0    0  501    0  0.00000000000E+00  0.00000000000E+00  0.25580767565E+03  0.25580767565E+03  0.00000000000E+00 0. -1.
         -2   -1    0    0    0  501 -0.00000000000E+00 -0.00000000000E+00 -0.53220986704E+02  0.53220986704E+02  0.00000000000E+00 0.  1.
          5    1    1    2  502    0  0.10161207993E+02 -0.53969773418E+01 -0.17766085325E+02  0.21681819575E+02  0.47000000000E+01 0.  1.
         -5    1    1    2    0  502 -0.20610294286E+02 -0.65564135231E+01  0.19230106116E+03  0.19357055281E+03  0.47000000000E+01 0.  1.
        -11    1    1    2    0    0  0.38994185180E+02 -0.44656269832E+01  0.42468975361E+02  0.57828212582E+02  0.00000000000E+00 0.  1.
         11    1    1    2    0    0 -0.28545098887E+02  0.16419017848E+02 -0.14417262250E+02  0.35948077394E+02  0.00000000000E+00 0. -1.
<mgrwt>
<rscale>  0 0.11565443E+03</rscale>
<asrwt>0</asrwt>
<pdfrwt beam="1">  1        2 0.39355026E-01 0.12598066E+03</pdfrwt>
<pdfrwt beam="2">  1       -2 0.81878443E-02 0.12598066E+03</pdfrwt>
<totfact> 0.11113019E+04</totfact>
</mgrwt>
</event>
<event>
 6    1  0.5258538E-006  0.1679329E+03  0.7546771E-02  0.1186901E+00
         -1   -1    0    0    0  501 -0.00000000000E+00  0.00000000000E+00  0.15871843263E+03  0.15871843263E+03  0.00000000000E+00 0.  1.
          1   -1    0    0  501    0  0.00000000000E+00 -0.00000000000E+00 -0.22953870763E+03  0.22953870763E+03  0.00000000000E+00 0. -1.
          5    1    1    2  502    0  0.60530294174E+02  0.70899970926E+02 -0.14773323243E+03  0.17475102390E+03  0.47000000000E+01 0.  1.
         -5    1    1    2    0  502 -0.32148367530E+02  0.37582747741E+02 -0.11758902608E+01  0.49693592952E+02  0.47000000000E+01 0.  1.
        -11    1    1    2    0    0 -0.49391993543E+02 -0.91096480783E+02  0.28916047034E+02  0.10758380739E+03  0.00000000000E+00 0. -1.
         11    1    1    2    0    0  0.21010066899E+02 -0.17386237884E+02  0.49172800664E+02  0.56228716009E+02  0.00000000000E+00 0.  1.
<mgrwt>
<rscale>  0 0.16160107E+03</rscale>
<asrwt>0</asrwt>
<pdfrwt beam="2">  1        1 0.35313647E-01 0.16793290E+03</pdfrwt>
<pdfrwt beam="1">  1       -1 0.24418220E-01 0.16793290E+03</pdfrwt>
<totfact> 0.17578448E+03</totfact>
</mgrwt>
</event>
<event>
 6    1  0.5258538E-006  0.2259855E+03  0.7546771E-02  0.1165261E+00
         -1   -1    0    0    0  501 -0.00000000000E+00  0.00000000000E+00  0.30773610421E+02  0.30773610421E+02  0.00000000000E+00 0.  1.
          1   -1    0    0  501    0  0.00000000000E+00 -0.00000000000E+00 -0.11687546313E+04  0.11687546313E+04  0.00000000000E+00 0. -1.
          5    1    1    2  502    0  0.37008020996E+02 -0.23826259218E+02 -0.10343086084E+04  0.10352553655E+04  0.47000000000E+01 0. -1.
         -5    1    1    2    0  502 -0.19326484988E+02  0.24608206052E+01  0.32280617204E+01  0.20299730110E+02  0.47000000000E+01 0.  1.
        -11    1    1    2    0    0 -0.15584880502E+02  0.57047586231E+02 -0.53706136303E+02  0.79885322004E+02  0.00000000000E+00 0.  1.
         11    1    1    2    0    0 -0.20966555054E+01 -0.35682147618E+02 -0.53194337886E+02  0.64087824164E+02  0.00000000000E+00 0. -1.
<mgrwt>
<rscale>  0 0.18265186E+03</rscale>
<asrwt>0</asrwt>
<pdfrwt beam="2">  1        1 0.17980844E+00 0.22598554E+03</pdfrwt>
<pdfrwt beam="1">  1       -1 0.47344008E-02 0.22598554E+03</pdfrwt>
<totfact> 0.22977004E+03</totfact>
</mgrwt>
</event>
<event>
 6    1  0.5258538E-006  0.2836689E+03  0.7546771E-02  0.1093702E+00
         -2   -1    0    0    0  501 -0.00000000000E+00  0.00000000000E+00  0.55742621339E+02  0.55742621339E+02  0.00000000000E+00 0.  1.
          2   -1    0    0  501    0  0.00000000000E+00 -0.00000000000E+00 -0.36089094337E+03  0.36089094337E+03  0.00000000000E+00 0. -1.
          5    1    1    2  502    0  0.37243726845E+01 -0.17786298233E+01  0.11783756996E+02  0.13340967164E+02  0.47000000000E+01 0. -1.
         -5    1    1    2    0  502  0.80786023958E+01  0.45034170252E+01 -0.31083527116E+03  0.31100836062E+03  0.47000000000E+01 0. -1.
        -11    1    1    2    0    0  0.11041415294E+02 -0.37148891407E+02  0.19804347667E+02  0.43522007893E+02  0.00000000000E+00 0.  1.
         11    1    1    2    0    0 -0.22844390375E+02  0.34424104206E+02 -0.25901155543E+02  0.48762229034E+02  0.00000000000E+00 0. -1.
<mgrwt>
<rscale>  0 0.28366887E+03</rscale>
<asrwt>0</asrwt>
<pdfrwt beam="2">  1        2 0.55521683E-01 0.28366887E+03</pdfrwt>
<pdfrwt beam="1">  1       -2 0.85757879E-02 0.28366887E+03</pdfrwt>
<totfact> 0.75332186E+03</totfact>
</mgrwt>
</event>
<event>
 6    1  0.5258538E-006  0.1280826E+03  0.7546771E-02  0.1245362E+00
         -3   -1    0    0    0  501 -0.00000000000E+00  0.00000000000E+00  0.33970128168E+02  0.33970128168E+02  0.00000000000E+00 0. -1.
          3   -1    0    0  501    0  0.00000000000E+00 -0.00000000000E+00 -0.44866397329E+03  0.44866397329E+03  0.00000000000E+00 0.  1.
          5    1    1    2  502    0  0.10982105975E+02  0.45514682706E+02 -0.21798767815E+03  0.22300876848E+03  0.47000000000E+01 0. -1.
         -5    1    1    2    0  502 -0.35551642867E+02 -0.58786596636E+02 -0.11883733849E+03  0.13734695582E+03  0.47000000000E+01 0. -1.
        -11    1    1    2    0    0 -0.20896861678E+02  0.26293209926E+02 -0.29957668710E+01  0.33719227976E+02  0.00000000000E+00 0. -1.
         11    1    1    2    0    0  0.45466398569E+02 -0.13021295996E+02 -0.74873061618E+02  0.88559149185E+02  0.00000000000E+00 0.  1.
<mgrwt>
<rscale>  0 0.11863720E+03</rscale>
<asrwt>0</asrwt>
<pdfrwt beam="2">  1        3 0.69025226E-01 0.12808261E+03</pdfrwt>
<pdfrwt beam="1">  1       -3 0.52261736E-02 0.12808261E+03</pdfrwt>
<totfact> 0.99635979E+02</totfact>
</mgrwt>
</event>
<event>
 6    1  0.5258538E-006  0.1361462E+03  0.7546771E-02  0.1230601E+00
          1   -1    0    0  501    0  0.00000000000E+00  0.00000000000E+00  0.22535951860E+03  0.22535951860E+03  0.00000000000E+00 0. -1.
         -1   -1    0    0    0  501 -0.00000000000E+00 -0.00000000000E+00 -0.68952783621E+02  0.68952783621E+02  0.00000000000E+00 0.  1.
          5    1    1    2  502    0 -0.50750853183E+02 -0.52129482255E+01  0.57733703971E+02  0.77188694135E+02  0.47000000000E+01 0.  1.
         -5    1    1    2    0  502  0.59983835551E+02  0.58361723123E+02  0.64295480299E+02  0.10564161131E+03  0.47000000000E+01 0.  1.
        -11    1    1    2    0    0 -0.31287591486E+02  0.12071223629E+02 -0.20364614247E+01  0.33597246852E+02  0.00000000000E+00 0.  1.
         11    1    1    2    0    0  0.22054609118E+02 -0.65219998527E+02  0.36414012133E+02  0.77884749924E+02  0.00000000000E+00 0. -1.
<mgrwt>
<rscale>  0 0.12790309E+03</rscale>
<asrwt>0</asrwt>
<pdfrwt beam="1">  1        1 0.34670695E-01 0.13614624E+03</pdfrwt>
<pdfrwt beam="2">  1       -1 0.10608121E-01 0.13614624E+03</pdfrwt>
<totfact> 0.66637409E+03</totfact>
</mgrwt>
</event>
<event>
 6    1  0.5258538E-006  0.2225744E+03  0.7546771E-02  0.1133852E+00
         -1   -1    0    0    0  501 -0.00000000000E+00  0.00000000000E+00  0.13644645759E+03  0.13644645759E+03  0.00000000000E+00 0.  1.
          1   -1    0    0  501    0  0.00000000000E+00 -0.00000000000E+00 -0.36077911168E+03  0.36077911168E+03  0.00000000000E+00 0. -1.
          5    1    1    2  502    0 -0.15626618345E+02  0.10796976750E+03 -0.47107137952E+01  0.10929749640E+03  0.47000000000E+01 0.  1.
         -5    1    1    2    0  502  0.86377833969E+02  0.62053946745E+02 -0.61352945781E+02  0.12287431165E+03  0.47000000000E+01 0.  1.
        -11    1    1    2    0    0 -0.63460356244E+02 -0.72240079668E+02 -0.24557083523E+02  0.99241605570E+02  0.00000000000E+00 0.  1.
         11    1    1    2    0    0 -0.72908593797E+01 -0.97783634578E+02 -0.13371191099E+03  0.16581215565E+03  0.00000000000E+00 0. -1.
<mgrwt>
<rscale>  0 0.22004117E+03</rscale>
<asrwt>0</asrwt>
<pdfrwt beam="2">  1        1 0.55504479E-01 0.22257435E+03</pdfrwt>
<pdfrwt beam="1">  1       -1 0.20991763E-01 0.22257435E+03</pdfrwt>
<totfact> 0.12859164E+03</totfact>
</mgrwt>
</event>
<event>
 6    1  0.5258538E-006  0.1395588E+03  0.7546771E-02  0.1225271E+00
          2   -1    0    0  501    0  0.00000000000E+00  0.00000000000E+00  0.79842788689E+03  0.79842788689E+03  0.00000000000E+00 0. -1.
         -2   -1    0    0    0  501 -0.00000000000E+00 -0.00000000000E+00 -0.25118869669E+02  0.25118869669E+02  0.00000000000E+00 0.  1.
          5    1    1    2  502    0  0.91081162750E+01 -0.51475545871E+02  0.57371075120E+03  0.57610659226E+03  0.47000000000E+01 0.  1.
         -5    1    1    2    0  502  0.34828095889E+02  0.76496006146E+01  0.42341030202E+02  0.55555067198E+02  0.47000000000E+01 0.  1.
        -11    1    1    2    0    0 -0.72173865928E+02  0.35949686430E+02  0.11632561149E+03  0.14153831554E+03  0.00000000000E+00 0. -1.
         11    1    1    2    0    0  0.28237653763E+02  0.78762588271E+01  0.40931624335E+02  0.50346781564E+02  0.00000000000E+00 0.  1.
<mgrwt>
<rscale>  0 0.13148355E+03</rscale>
<asrwt>0</asrwt>
<pdfrwt beam="1">  1        2 0.12283504E+00 0.13955879E+03</pdfrwt>
<pdfrwt beam="2">  1       -2 0.38644421E-02 0.13955879E+03</pdfrwt>
<totfact> 0.99036127E+03</totfact>
</mgrwt>
</event>
<event>
 6    1  0.5258538E-006  0.1586639E+03  0.7546771E-02  0.1196990E+00
         -2   -1    0    0    0  501 -0.00000000000E+00  0.00000000000E+00  0.19344131394E+03  0.19344131394E+03  0.00000000000E+00 0.  1.
          2   -1    0    0  501    0  0.00000000000E+00 -0.00000000000E+00 -0.11980225670E+03  0.11980225670E+03  0.00000000000E+00 0. -1.
          5    1    1    2  502    0  0.11451100061E+02  0.96588551543E+02 -0.11746179526E+01  0.97385551850E+02  0.47000000000E+01 0.  1.
         -5    1    1    2    0  502  0.55511479634E+02 -0.25395926341E+02  0.27179719620E+01  0.61285845164E+02  0.47000000000E+01 0.  1.
        -11    1    1    2    0    0 -0.88480582348E+02 -0.73446023191E+02  0.58469741181E+02  0.12900326511E+03  0.00000000000E+00 0.  1.
         11    1    1    2    0    0  0.21518002653E+02  0.22533979883E+01  0.13625962058E+02  0.25568908516E+02  0.00000000000E+00 0. -1.
<mgrwt>
<rscale>  0 0.15287046E+03</rscale>
<asrwt>0</asrwt>
<pdfrwt beam="2">  1        2 0.18431116E-01 0.15866389E+03</pdfrwt>
<pdfrwt beam="1">  1       -2 0.29760202E-01 0.15866389E+03</pdfrwt>
<totfact> 0.30765856E+03</totfact>
</mgrwt>
</event>
<event>
 6    1  0.5258538E-006  0.1449695E+03  0.7546771E-02  0.1216402E+00
         -2   -1    0    0    0  501 -0.00000000000E+00  0.00000000000E+00  0.19805782788E+02  0.19805782788E+02  0.00000000000E+00 0.  1.
          2   -1    0    0  501    0  0.00000000000E+00 -0.00000000000E+00 -0.24917873980E+04  0.24917873980E+04  0.00000000000E+00 0. -1.
          5    1    1    2  502    0  0.31568779458E+02  0.74814507831E+02 -0.87923236148E+03  0.88298665556E+03  0.47000000000E+01 0.  1.
         -5    1    1    2    0  502 -0.48045152754E+02 -0.32506620923E+01 -0.14110186809E+04  0.14118479774E+04  0.47000000000E+01 0.  1.
        -11    1    1    2    0    0  0.48421067238E+02 -0.11197434306E+02 -0.81944569396E+02  0.95837856513E+02  0.00000000000E+00 0.  1.
         11    1    1    2    0    0 -0.31944693943E+02 -0.60366411432E+02 -0.99786003418E+02  0.12092069128E+03  0.00000000000E+00 0. -1.
<mgrwt>
<rscale>  0 0.13774042E+03</rscale>
<asrwt>0</asrwt>
<pdfrwt beam="2">  1        2 0.38335193E+00 0.14496950E+03</pdfrwt>
<pdfrwt beam="1">  1       -2 0.30470433E-02 0.14496950E+03</pdfrwt>
<totfact> 0.17048659E+03</totfact>
</mgrwt>
</event>
<event>
 6    1  0.5258538E-006  0.1995376E+03  0.7546771E-02  0.1154255E+00
          2   -1    0    0  501    0  0.00000000000E+00  0.00000000000E+00  0.12013888550E+03  0.12013888550E+03  0.00000000000E+00 0. -1.
         -2   -1    0    0    0  501 -0.00000000000E+00 -0.00000000000E+00 -0.36973724423E+03  0.36973724423E+03  0.00000000000E+00 0.  1.
          5    1    1    2  502    0  0.25388515304E+01  0.58399848416E+02  0.50365631717E+02  0.77303136549E+02  0.47000000000E+01 0. -1.
         -5    1    1    2    0  502 -0.21859497101E+02  0.95924431483E+02 -0.74895258787E+02  0.12373651020E+03  0.47000000000E+01 0. -1.
        -11    1    1    2    0    0  0.27593584871E+02 -0.43449655124E+02 -0.13902720357E+03  0.14824925561E+03  0.00000000000E+00 0. -1.
         11    1    1    2    0    0 -0.82729393012E+01 -0.11087462478E+03 -0.86041528080E+02  0.14058722737E+03  0.00000000000E+00 0.  1.
<mgrwt>
<rscale>  0 0.19473948E+03</rscale>
<asrwt>0</asrwt>
<pdfrwt beam="1">  1        2 0.18482905E-01 0.19953756E+03</pdfrwt>
<pdfrwt beam="2">  1       -2 0.56882653E-01 0.19953756E+03</pdfrwt>
<totfact> 0.89362353E+02</totfact>
</mgrwt>
</event>
<event>
 6    1  0.5258538E-006  0.2697007E+03  0.7546771E-02  0.1103489E+00
         -2   -1    0    0    0  501 -0.00000000000E+00  0.00000000000E+00  0.19389967466E+03  0.19389967466E+03  0.00000000000E+00 0.  1.
          2   -1    0    0  501    0  0.00000000000E+00 -0.00000000000E+00 -0.68658734481E+03  0.68658734481E+03  0.00000000000E+00 0. -1.
          5    1    1    2  502    0  0.26878746485E+02  0.30115159385E+02 -0.39247548148E+02  0.56496458943E+02  0.47000000000E+01 0.  1.
         -5    1    1    2    0  502 -0.89343205455E+02  0.20056270203E+03 -0.51582029102E+03  0.56062489102E+03  0.47000000000E+01 0.  1.
        -11    1    1    2    0    0  0.61774578117E+02 -0.13518341964E+03  0.75948503655E+02  0.16690964818E+03  0.00000000000E+00 0.  1.
         11    1    1    2    0    0  0.68988085265E+00 -0.95494441777E+02 -0.13568334646E+02  0.96456021331E+02  0.00000000000E+00 0. -1.
<mgrwt>
<rscale>  0 0.26617482E+03</rscale>
<asrwt>0</asrwt>
<pdfrwt beam="2">  1        2 0.10562882E+00 0.26970068E+03</pdfrwt>
<pdfrwt beam="1">  1       -2 0.29830719E-01 0.26970068E+03</pdfrwt>
<totfact> 0.44653108E+02</totfact>
</mgrwt>
</event>
<event>
 6    1  0.5258538E-006  0.1264945E+03  0.7546771E-02  0.1246620E+00
         -2   -1    0    0    0  501 -0.00000000000E+00  0.00000000000E+00  0.17644665936E+02  0.17644665936E+02  0.00000000000E+00 0.  1.
          2   -1    0    0  501    0  0.00000000000E+00 -0.00000000000E+00 -0.71796227859E+03  0.71796227859E+03  0.00000000000E+00 0. -1.
          5    1    1    2  502    0  0.53743448466E+02  0.25492705277E+02 -0.15843300854E+03  0.16929661683E+03  0.47000000000E+01 0. -1.
         -5    1    1    2    0  502 -0.60974094938E+02 -0.75007647929E+01 -0.30040641435E+03  0.30665975528E+03  0.47000000000E+01 0. -1.
        -11    1    1    2    0    0 -0.17154843843E+02  0.16292798120E+02 -0.12343456331E+02  0.26685292804E+02  0.00000000000E+00 0.  1.
         11    1    1    2    0    0  0.24385490315E+02 -0.34284738604E+02 -0.22913473343E+03  0.23296527961E+03  0.00000000000E+00 0. -1.
<mgrwt>
<rscale>  0 0.11788914E+03</rscale>
<asrwt>0</asrwt>
<pdfrwt beam="2">  1        2 0.11045571E+00 0.12649447E+03</pdfrwt>
<pdfrwt beam="1">  1       -2 0.27145647E-02 0.12649447E+03</pdfrwt>
<totfact> 0.18833832E+04</totfact>
</mgrwt>
</event>
<event>
 6    1  0.5258538E-006  0.1296091E+03  0.7546771E-02  0.1241879E+00
         -2   -1    0    0    0  501 -0.00000000000E+00  0.00000000000E+00  0.43921979213E+02  0.43921979213E+02  0.00000000000E+00 0.  1.
          2   -1    0    0  501    0  0.00000000000E+00 -0.00000000000E+00 -0.10137076399E+04  0.10137076399E+04  0.00000000000E+00 0. -1.
          5    1    1    2  502    0  0.32210949130E+02 -0.61852204954E+02 -0.80101950931E+03  0.80406317214E+03  0.47000000000E+01 0. -1.
         -5    1    1    2    0  502 -0.24187427519E+01  0.41376613014E+02 -0.14800130855E+03  0.15376719986E+03  0.47000000000E+01 0.  1.
        -11    1    1    2    0    0 -0.55283839952E+02  0.12266555398E+02  0.11586330021E+02  0.57801508497E+02  0.00000000000E+00 0.  1.
         11    1    1    2    0    0  0.25491633574E+02  0.82090365422E+01 -0.32351172819E+02  0.41997738582E+02  0.00000000000E+00 0. -1.
<mgrwt>
<rscale>  0 0.12074129E+03</rscale>
<asrwt>0</asrwt>
<pdfrwt beam="2">  1        2 0.15595500E+00 0.12960906E+03</pdfrwt>
<pdfrwt beam="1">  1       -2 0.67572283E-02 0.12960906E+03</pdfrwt>
<totfact> 0.31180847E+03</totfact>
</mgrwt>
</event>
<event>
 6    1  0.5258538E-006  0.3157688E+03  0.7546771E-02  0.1077613E+00
         -2   -1    0    0    0  501 -0.00000000000E+00  0.00000000000E+00  0.17915725425E+02  0.17915725425E+02  0.00000000000E+00 0.  1.
          2   -1    0    0  501    0  0.00000000000E+00 -0.00000000000E+00 -0.13913741780E+04  0.13913741780E+04  0.00000000000E+00 0. -1.
          5    1    1    2  502    0  0.16695442443E+02  0.18720249695E+02 -0.61985749230E+02  0.67033638232E+02  0.47000000000E+01 0.  1.
         -5    1    1    2    0  502 -0.94171698291E+02 -0.46378302322E+02 -0.98570771895E+03  0.99129261718E+03  0.47000000000E+01 0.  1.
        -11    1    1    2    0    0  0.86091631151E+02 -0.94442710294E+01 -0.17230124263E+03  0.19284367094E+03  0.00000000000E+00 0.  1.
         11    1    1    2    0    0 -0.86153753042E+01  0.37102323656E+02 -0.15346374178E+03  0.15811997709E+03  0.00000000000E+00 0. -1.
<mgrwt>
<rscale>  0 0.31576876E+03</rscale>
<asrwt>0</asrwt>
<pdfrwt beam="2">  1        2 0.21405755E+00 0.31576876E+03</pdfrwt>
<pdfrwt beam="1">  1       -2 0.27562657E-02 0.31576876E+03</pdfrwt>
<totfact> 0.75282588E+03</totfact>
</mgrwt>
</event>
<event>
 6    1  0.5258538E-006  0.1864935E+03  0.7546771E-02  0.1166840E+00
         -1   -1    0    0    0  501 -0.00000000000E+00  0.00000000000E+00  0.25842638919E+03  0.25842638919E+03  0.00000000000E+00 0.  1.
          1   -1    0    0  501    0  0.00000000000E+00 -0.00000000000E+00 -0.11990474363E+03  0.11990474363E+03  0.00000000000E+00 0. -1.
          5    1    1    2  502    0 -0.57319971817E+02  0.13326605918E+03  0.90570918001E+02  0.17108653625E+03  0.47000000000E+01 0.  1.
         -5    1    1    2    0  502  0.16607069455E+02 -0.98680026651E+00 -0.21676207187E+02  0.27725736936E+02  0.47000000000E+01 0.  1.
        -11    1    1    2    0    0  0.17845698281E+02 -0.12578445259E+02 -0.18912501388E+02  0.28885445142E+02  0.00000000000E+00 0.  1.
         11    1    1    2    0    0  0.22867204080E+02 -0.11970081365E+03  0.88539436129E+02  0.15063341449E+03  0.00000000000E+00 0. -1.
<mgrwt>
<rscale>  0 0.18099862E+03</rscale>
<asrwt>0</asrwt>
<pdfrwt beam="2">  1        1 0.18446884E-01 0.18649354E+03</pdfrwt>
<pdfrwt beam="1">  1       -1 0.39757906E-01 0.18649354E+03</pdfrwt>
<totfact> 0.17489662E+03</totfact>
</mgrwt>
</event>
<event>
 6    1  0.5258538E-006  0.1327155E+03  0.7546771E-02  0.1236375E+00
          2   -1    0    0  501    0  0.00000000000E+00  0.00000000000E+00  0.72665654691E+02  0.72665654691E+02  0.00000000000E+00 0. -1.
         -2   -1    0    0    0  501 -0.00000000000E+00 -0.00000000000E+00 -0.19980595259E+03  0.19980595259E+03  0.00000000000E+00 0.  1.
          5    1    1    2  502    0  0.28507722150E+02 -0.80176284157E+02 -0.93087453284E+01  0.85730213478E+02  0.47000000000E+01 0. -1.
         -5    1    1    2    0  502 -0.50161267590E+01  0.42453181064E+02 -0.30854279380E+02  0.52929298750E+02  0.47000000000E+01 0. -1.
        -11    1    1    2    0    0 -0.45499186975E+02 -0.67283183679E+01 -0.64837221192E+02  0.79494097488E+02  0.00000000000E+00 0.  1.
         11    1    1    2    0    0  0.22007591584E+02  0.44451421460E+02 -0.22140052001E+02  0.54317997568E+02  0.00000000000E+00 0. -1.
<mgrwt>
<rscale>  0 0.12416795E+03</rscale>
<asrwt>0</asrwt>
<pdfrwt beam="1">  1        2 0.11179332E-01 0.13271545E+03</pdfrwt>
<pdfrwt beam="2">  1       -2 0.30739377E-01 0.13271545E+03</pdfrwt>
<totfact> 0.51769375E+03</totfact>
</mgrwt>
</event>
<event>
 6    1  0.5258538E-006  0.1697492E+03  0.7546771E-02  0.1184413E+00
         -2   -1    0    0    0  501 -0.00000000000E+00  0.00000000000E+00  0.17431108421E+03  0.17431108421E+03  0.00000000000E+00 0. -1.
          2   -1    0    0  501    0  0.00000000000E+00 -0.00000000000E+00 -0.16302879480E+03  0.16302879480E+03  0.00000000000E+00 0.  1.
          5    1    1    2  502    0  0.66324250462E+02 -0.18012654864E+02  0.81725702694E+01  0.69370331118E+02  0.47000000000E+01 0. -1.
         -5    1    1    2    0  502 -0.21054461482E+02 -0.87530170962E+02 -0.59325936427E+02  0.10791884872E+03  0.47000000000E+01 0. -1.
        -11    1    1    2    0    0  0.84888814938E+00  0.97264791274E+02  0.25965613721E+02  0.10067459128E+03  0.00000000000E+00 0.  1.
         11    1    1    2    0    0 -0.46118677129E+02  0.82780345519E+01  0.36470041849E+02  0.59376107895E+02  0.00000000000E+00 0. -1.
<mgrwt>
<rscale>  0 0.16385447E+03</rscale>
<asrwt>0</asrwt>
<pdfrwt beam="2">  1        2 0.25081353E-01 0.16974919E+03</pdfrwt>
<pdfrwt beam="1">  1       -2 0.26817090E-01 0.16974919E+03</pdfrwt>
<totfact> 0.26265797E+03</totfact>
</mgrwt>
</event>
<event>
 6    1  0.5258538E-006  0.1709754E+03  0.7546771E-02  0.1183599E+00
         -2   -1    0    0    0  501 -0.00000000000E+00  0.00000000000E+00  0.92778305692E+02  0.92778305692E+02  0.00000000000E+00 0.  1.
          2   -1    0    0  501    0  0.00000000000E+00 -0.00000000000E+00 -0.58297422551E+03  0.58297422551E+03  0.00000000000E+00 0. -1.
          5    1    1    2  502    0 -0.25005859176E+02  0.28127822030E+02 -0.12168179494E+03  0.12745593978E+03  0.47000000000E+01 0. -1.
         -5    1    1    2    0  502  0.13126227131E+03  0.19991221782E+02 -0.37845169938E+03  0.40109501565E+03  0.47000000000E+01 0. -1.
        -11    1    1    2    0    0 -0.21186651095E+02 -0.80672415558E+01 -0.36007539763E+02  0.42549941137E+02  0.00000000000E+00 0. -1.
         11    1    1    2    0    0 -0.85069761036E+02 -0.40051802256E+02  0.45945114266E+02  0.10465163463E+03  0.00000000000E+00 0.  1.
<mgrwt>
<rscale>  0 0.16460023E+03</rscale>
<asrwt>0</asrwt>
<pdfrwt beam="2">  1        2 0.89688341E-01 0.17097544E+03</pdfrwt>
<pdfrwt beam="1">  1       -2 0.14273586E-01 0.17097544E+03</pdfrwt>
<totfact> 0.19208148E+03</totfact>
</mgrwt>
</event>
<event>
 6    1  0.5258538E-006  0.1342527E+03  0.7546771E-02  0.1238271E+00
          1   -1    0    0  501    0  0.00000000000E+00  0.00000000000E+00  0.65687651166E+02  0.65687651166E+02  0.00000000000E+00 0. -1.
         -1   -1    0    0    0  501 -0.00000000000E+00 -0.00000000000E+00 -0.20809437493E+03  0.20809437493E+03  0.00000000000E+00 0.  1.
          5    1    1    2  502    0  0.37559632779E+02 -0.65019880681E+02 -0.13572259804E+02  0.76450030310E+02  0.47000000000E+01 0. -1.
         -5    1    1    2    0  502 -0.35338646007E+02  0.41471710337E+02 -0.41533791619E+02  0.68672181458E+02  0.47000000000E+01 0.  1.
        -11    1    1    2    0    0 -0.45698238057E+02  0.20895414018E+01 -0.47322014943E+02  0.65818449108E+02  0.00000000000E+00 0.  1.
         11    1    1    2    0    0  0.43477251285E+02  0.21458628942E+02 -0.39978657397E+02  0.62841365219E+02  0.00000000000E+00 0. -1.
<mgrwt>
<rscale>  0 0.12297319E+03</rscale>
<asrwt>0</asrwt>
<pdfrwt beam="1">  1        1 0.10105793E-01 0.13425267E+03</pdfrwt>
<pdfrwt beam="2">  1       -1 0.32014519E-01 0.13425267E+03</pdfrwt>
<totfact> 0.54960542E+03</totfact>
</mgrwt>
</event>
<event>
 6    1  0.5258538E-006  0.1269743E+03  0.7546771E-02  0.1250152E+00
          1   -1    0    0  501    0  0.00000000000E+00  0.00000000000E+00  0.86726143012E+03  0.86726143012E+03  0.00000000000E+00 0. -1.
         -1   -1    0    0    0  501 -0.00000000000E+00 -0.00000000000E+00 -0.17302891462E+02  0.17302891462E+02  0.00000000000E+00 0.  1.
          5    1    1    2  502    0  0.31608832223E+02 -0.42246098500E+02  0.25635692586E+03  0.26177244803E+03  0.47000000000E+01 0.  1.
         -5    1    1    2    0  502 -0.34998006050E+02  0.64289563552E+02  0.43779078338E+03  0.44389285692E+03  0.47000000000E+01 0.  1.
        -11    1    1    2    0    0 -0.17581737355E+02  0.91034692208E+01  0.12451885136E+01  0.19837871224E+02  0.00000000000E+00 0.  1.
         11    1    1    2    0    0  0.20970911183E+02 -0.31146934272E+02  0.15456564091E+03  0.15906114541E+03  0.00000000000E+00 0. -1.
<mgrwt>
<rscale>  0 0.11582285E+03</rscale>
<asrwt>0</asrwt>
<pdfrwt beam="1">  1        1 0.13342480E+00 0.12697433E+03</pdfrwt>
<pdfrwt beam="2">  1       -1 0.26619840E-02 0.12697433E+03</pdfrwt>
<totfact> 0.87671234E+03</totfact>
</mgrwt>
</event>
<event>
 6    1  0.5258538E-006  0.1280885E+03  0.7546771E-02  0.1246685E+00
          2   -1    0    0  501    0  0.00000000000E+00  0.00000000000E+00  0.96607023528E+03  0.96607023528E+03  0.00000000000E+00 0. -1.
         -2   -1    0    0    0  501 -0.00000000000E+00 -0.00000000000E+00 -0.14564837407E+02  0.14564837407E+02  0.00000000000E+00 0.  1.
          5    1    1    2  502    0  0.30615286760E+02  0.32449104624E+02  0.55189344518E+03  0.55371355862E+03  0.47000000000E+01 0.  1.
         -5    1    1    2    0  502 -0.54698700936E+02 -0.18268089201E+02  0.17326659136E+03  0.18267203576E+03  0.47000000000E+01 0.  1.
        -11    1    1    2    0    0 -0.30972456834E+02 -0.96042386817E+01  0.51268249967E+02  0.60662739286E+02  0.00000000000E+00 0.  1.
         11    1    1    2    0    0  0.55055871009E+02 -0.45767767411E+01  0.17507711136E+03  0.18358673901E+03  0.00000000000E+00 0. -1.
<mgrwt>
<rscale>  0 0.11785082E+03</rscale>
<asrwt>0</asrwt>
<pdfrwt beam="1">  1        2 0.14862614E+00 0.12808850E+03</pdfrwt>
<pdfrwt beam="2">  1       -2 0.22407450E-02 0.12808850E+03</pdfrwt>
<totfact> 0.17137076E+04</totfact>
</mgrwt>
</event>
<event>
 6    1  0.5596273E-006  0.3539243E+03  0.7546771E-02  0.1061016E+00
          1   -1    0    0  501    0  0.00000000000E+00  0.00000000000E+00  0.62064290439E+03  0.62064290439E+03  0.00000000000E+00 0. -1.
         -1   -1    0    0    0  501 -0.00000000000E+00 -0.00000000000E+00 -0.50456714167E+02  0.50456714167E+02  0.00000000000E+00 0.  1.
          5    1    1    2  502    0 -0.68982452871E+02 -0.12439511279E+03  0.25626444955E+03  0.29313184916E+03  0.47000000000E+01 0.  1.
         -5    1    1    2    0  502 -0.83634504603E+01  0.20556483837E+02  0.14341971220E+03  0.14520268654E+03  0.47000000000E+01 0.  1.
        -11    1    1    2    0    0  0.34217079927E+02  0.69936663009E+02  0.32702973531E+02  0.84447793751E+02  0.00000000000E+00 0.  1.
         11    1    1    2    0    0  0.43128823404E+02  0.33901965947E+02  0.13779905494E+03  0.14831728910E+03  0.00000000000E+00 0. -1.
<mgrwt>
<rscale>  0 0.35392429E+03</rscale>
<asrwt>0</asrwt>
<pdfrwt beam="1">  1        1 0.95483519E-01 0.35392429E+03</pdfrwt>
<pdfrwt beam="2">  1       -1 0.77625718E-02 0.35392429E+03</pdfrwt>
<totfact> 0.30335841E+03</totfact>
</mgrwt>
</event>
<event>
 6    1  0.5258538E-006  0.1169293E+03  0.7546771E-02  0.1258277E+00
         -2   -1    0    0    0  501 -0.00000000000E+00  0.00000000000E+00  0.89185971648E+02  0.89185971648E+02  0.00000000000E+00 0.  1.
          2   -1    0    0  501    0  0.00000000000E+00 -0.00000000000E+00 -0.86686137746E+03  0.86686137746E+03  0.00000000000E+00 0. -1.
          5    1    1    2  502    0 -0.36174760726E+02 -0.30267638299E+02 -0.78812607296E+03  0.78955021380E+03  0.47000000000E+01 0. -1.
         -5    1    1    2    0  502  0.85238723881E+01  0.24311713365E+02 -0.47706215623E+02  0.54421400352E+02  0.47000000000E+01 0.  1.
        -11    1    1    2    0    0  0.60639695139E+02  0.11528215571E+02  0.43703267971E+02  0.75630999016E+02  0.00000000000E+00 0.  1.
         11    1    1    2    0    0 -0.32988806801E+02 -0.55722906362E+01  0.14453614794E+02  0.36444735940E+02  0.00000000000E+00 0. -1.
<mgrwt>
<rscale>  0 0.11124758E+03</rscale>
<asrwt>0</asrwt>
<pdfrwt beam="2">  1        2 0.13336329E+00 0.11692934E+03</pdfrwt>
<pdfrwt beam="1">  1       -2 0.13720919E-01 0.11692934E+03</pdfrwt>
<totfact> 0.12647188E+03</totfact>
</mgrwt>
</event>
<event>
 6    1  0.5258538E-006  0.1290338E+03  0.7546771E-02  0.1243656E+00
          2   -1    0    0  501    0  0.00000000000E+00  0.00000000000E+00  0.19292185061E+03  0.19292185061E+03  0.00000000000E+00 0. -1.
         -2   -1    0    0    0  501 -0.00000000000E+00 -0.00000000000E+00 -0.75718263866E+02  0.75718263866E+02  0.00000000000E+00 0.  1.
          5    1    1    2  502    0  0.48696143372E+02  0.17608146538E+02  0.33975038891E+02  0.62110824108E+02  0.47000000000E+01 0. -1.
         -5    1    1    2    0  502 -0.57712876883E+02 -0.48332392889E+02  0.81544898201E+02  0.11107860632E+03  0.47000000000E+01 0. -1.
        -11    1    1    2    0    0  0.37411956333E+02  0.12725764135E+02 -0.29720293385E+02  0.49445883432E+02  0.00000000000E+00 0.  1.
         11    1    1    2    0    0 -0.28395222822E+02  0.17998482216E+02  0.31403943042E+02  0.46004800616E+02  0.00000000000E+00 0. -1.
<mgrwt>
<rscale>  0 0.11966179E+03</rscale>
<asrwt>0</asrwt>
<pdfrwt beam="1">  1        2 0.29680285E-01 0.12903381E+03</pdfrwt>
<pdfrwt beam="2">  1       -2 0.11648964E-01 0.12903381E+03</pdfrwt>
<totfact> 0.86715830E+03</totfact>
</mgrwt>
</event>
<event>
 6    1  0.5258538E-006  0.1456860E+03  0.7546771E-02  0.1216042E+00
         -1   -1    0    0    0  501 -0.00000000000E+00  0.00000000000E+00  0.34055550218E+03  0.34055550218E+03  0.00000000000E+00 0.  1.
          1   -1    0    0  501    0  0.00000000000E+00 -0.00000000000E+00 -0.51626253058E+02  0.51626253058E+02  0.00000000000E+00 0. -1.
          5    1    1    2  502    0  0.12491851518E+02 -0.49037123031E+02  0.79039532683E+02  0.93968204815E+02  0.47000000000E+01 0. -1.
         -5    1    1    2    0  502 -0.85909152390E+02  0.37330183733E+02  0.10585523670E+03  0.14142611576E+03  0.47000000000E+01 0. -1.
        -11    1    1    2    0    0 -0.16918517190E+02  0.17585591844E+02  0.10336732480E+02  0.26501647171E+02  0.00000000000E+00 0. -1.
         11    1    1    2    0    0  0.90335818062E+02 -0.58786525457E+01  0.93697747254E+02  0.13028578749E+03  0.00000000000E+00 0.  1.
<mgrwt>
<rscale>  0 0.13800259E+03</rscale>
<asrwt>0</asrwt>
<pdfrwt beam="2">  1        1 0.79425007E-02 0.14568600E+03</pdfrwt>
<pdfrwt beam="1">  1       -1 0.52393153E-01 0.14568600E+03</pdfrwt>
<totfact> 0.31948732E+03</totfact>
</mgrwt>
</event>
<event>
 6    1  0.5258538E-006  0.1437402E+03  0.7546771E-02  0.1218085E+00
          2   -1    0    0  501    0  0.00000000000E+00  0.00000000000E+00  0.16971897414E+03  0.16971897414E+03  0.00000000000E+00 0. -1.
         -2   -1    0    0    0  501 -0.00000000000E+00 -0.00000000000E+00 -0.13428403139E+03  0.13428403139E+03  0.00000000000E+00 0.  1.
          5    1    1    2  502    0 -0.11611383814E+02  0.79268041426E+02  0.77204880117E+02  0.11135946363E+03  0.47000000000E+01 0.  1.
         -5    1    1    2    0  502 -0.45170906887E+02 -0.36713917434E+02  0.18231282921E+02  0.61178364143E+02  0.47000000000E+01 0.  1.
        -11    1    1    2    0    0  0.32558748932E+02  0.23068048212E+02 -0.44590401529E+02  0.59837370337E+02  0.00000000000E+00 0.  1.
         11    1    1    2    0    0  0.24223541768E+02 -0.65622172204E+02 -0.15410818760E+02  0.71627807417E+02  0.00000000000E+00 0. -1.
<mgrwt>
<rscale>  0 0.13652309E+03</rscale>
<asrwt>0</asrwt>
<pdfrwt beam="1">  1        2 0.26110611E-01 0.14374019E+03</pdfrwt>
<pdfrwt beam="2">  1       -2 0.20659082E-01 0.14374019E+03</pdfrwt>
<totfact> 0.39199162E+03</totfact>
</mgrwt>
</event>
<event>
 6    1  0.5258538E-006  0.3050202E+03  0.7546771E-02  0.1084345E+00
         -4   -1    0    0    0  501 -0.00000000000E+00  0.00000000000E+00  0.43048765438E+03  0.43048765438E+03  0.00000000000E+00 0.  1.
          4   -1    0    0  501    0  0.00000000000E+00 -0.00000000000E+00 -0.44569215936E+03  0.44569215936E+03  0.00000000000E+00 0. -1.
          5    1    1    2  502    0 -0.11013388584E+03 -0.12548825261E+01 -0.85877080271E+02  0.13974265797E+03  0.47000000000E+01 0. -1.
         -5    1    1    2    0  502 -0.12990207405E+03 -0.13943654127E+03 -0.24221362728E+03  0.30823145382E+03  0.47000000000E+01 0. -1.
        -11    1    1    2    0    0  0.67578111894E+02  0.95381855564E+01  0.12035661975E+03  0.13836001629E+03  0.00000000000E+00 0.  1.
         11    1    1    2    0    0  0.17245784800E+03  0.13115323824E+03  0.19252958283E+03  0.28984568567E+03  0.00000000000E+00 0. -1.
<mgrwt>
<rscale>  0 0.30179932E+03</rscale>
<asrwt>0</asrwt>
<pdfrwt beam="2">  1        4 0.68568024E-01 0.30502015E+03</pdfrwt>
<pdfrwt beam="1">  1       -4 0.66228870E-01 0.30502015E+03</pdfrwt>
<totfact> 0.78410489E+00</totfact>
</mgrwt>
</event>
<event>
 6    1  0.5258538E-006  0.3790024E+03  0.7546771E-02  0.1051303E+00
          2   -1    0    0  501    0  0.00000000000E+00  0.00000000000E+00  0.24207404395E+03  0.24207404395E+03  0.00000000000E+00 0. -1.
         -2   -1    0    0    0  501 -0.00000000000E+00 -0.00000000000E+00 -0.14834595160E+03  0.14834595160E+03  0.00000000000E+00 0.  1.
          5    1    1    2  502    0  0.50217503416E+01  0.14723159211E+02  0.33190094328E+02  0.36954861049E+02  0.47000000000E+01 0.  1.
         -5    1    1    2    0  502 -0.43430187652E+02 -0.16354045042E+03  0.37410169635E+02  0.17335879244E+03  0.47000000000E+01 0.  1.
        -11    1    1    2    0    0  0.49391014531E+01  0.12198393006E+03  0.47229965358E+02  0.13090127403E+03  0.00000000000E+00 0. -1.
         11    1    1    2    0    0  0.33469335858E+02  0.26833361150E+02 -0.24102136977E+02  0.49205068034E+02  0.00000000000E+00 0.  1.
<mgrwt>
<rscale>  0 0.37900240E+03</rscale>
<asrwt>0</asrwt>
<pdfrwt beam="1">  1        2 0.37242160E-01 0.37900240E+03</pdfrwt>
<pdfrwt beam="2">  1       -2 0.22822454E-01 0.37900240E+03</pdfrwt>
<totfact> 0.23209741E+03</totfact>
</mgrwt>
</event>
<event>
 6    1  0.5258538E-006  0.2195436E+03  0.7546771E-02  0.1161804E+00
         -2   -1    0    0    0  501 -0.00000000000E+00  0.00000000000E+00  0.50704460061E+03  0.50704460061E+03  0.00000000000E+00 0.  1.
          2   -1    0    0  501    0  0.00000000000E+00 -0.00000000000E+00 -0.63650415146E+02  0.63650415146E+02  0.00000000000E+00 0. -1.
          5    1    1    2  502    0  0.64270984422E+02  0.76460928765E+02  0.22190315120E+02  0.10242818534E+03  0.47000000000E+01 0. -1.
         -5    1    1    2    0  502 -0.88333840201E+02 -0.12113292251E+02  0.15847003738E+03  0.18189129149E+03  0.47000000000E+01 0.  1.
        -11    1    1    2    0    0 -0.86616700136E+01  0.59091731134E+01 -0.18732323599E+01  0.10651378023E+02  0.00000000000E+00 0. -1.
         11    1    1    2    0    0  0.32724525792E+02 -0.70256809628E+02  0.26460706533E+03  0.27572416091E+03  0.00000000000E+00 0.  1.
<mgrwt>
<rscale>  0 0.18634074E+03</rscale>
<asrwt>0</asrwt>
<pdfrwt beam="2">  1        2 0.97923719E-02 0.21954362E+03</pdfrwt>
<pdfrwt beam="1">  1       -2 0.78006859E-01 0.21954362E+03</pdfrwt>
<totfact> 0.98386293E+02</totfact>
</mgrwt>
</event>
<event>
 6    1  0.5258538E-006  0.1516867E+03  0.7546771E-02  0.1207403E+00
         -2   -1    0    0    0  501 -0.00000000000E+00  0.00000000000E+00  0.38733045231E+02  0.38733045231E+02  0.00000000000E+00 0.  1.
          2   -1    0    0  501    0  0.00000000000E+00 -0.00000000000E+00 -0.51489607407E+03  0.51489607407E+03  0.00000000000E+00 0. -1.
          5    1    1    2  502    0  0.17460477321E+02  0.44175014626E+02 -0.84755434376E+02  0.97272163756E+02  0.47000000000E+01 0.  1.
         -5    1    1    2    0  502 -0.10065175525E+03 -0.22542087519E+02 -0.23121499944E+03  0.25322201230E+03  0.47000000000E+01 0.  1.
        -11    1    1    2    0    0  0.30469871547E+02  0.26335764523E+02 -0.10660850910E+03  0.11396209799E+03  0.00000000000E+00 0. -1.
         11    1    1    2    0    0  0.52721406384E+02 -0.47968691631E+02 -0.53584085920E+02  0.89172845260E+02  0.00000000000E+00 0.  1.
<mgrwt>
<rscale>  0 0.14449693E+03</rscale>
<asrwt>0</asrwt>
<pdfrwt beam="2">  1        2 0.79214777E-01 0.15168669E+03</pdfrwt>
<pdfrwt beam="1">  1       -2 0.59589303E-02 0.15168669E+03</pdfrwt>
<totfact> 0.86632670E+03</totfact>
</mgrwt>
</event>
<event>
 6    1  0.5258538E-006  0.1492711E+03  0.7546771E-02  0.1210057E+00
          2   -1    0    0  501    0  0.00000000000E+00  0.00000000000E+00  0.15933445638E+03  0.15933445638E+03  0.00000000000E+00 0. -1.
         -2   -1    0    0    0  501 -0.00000000000E+00 -0.00000000000E+00 -0.11858730073E+03  0.11858730073E+03  0.00000000000E+00 0.  1.
          5    1    1    2  502    0  0.31551080299E+02  0.36759804941E+02 -0.27963813391E+02  0.56132154659E+02  0.47000000000E+01 0. -1.
         -5    1    1    2    0  502 -0.60269614448E+02  0.39615351383E+02  0.66074665222E+02  0.97927288715E+02  0.47000000000E+01 0. -1.
        -11    1    1    2    0    0 -0.57377834417E+01 -0.73875557777E+02 -0.26474649175E+02  0.78685622858E+02  0.00000000000E+00 0.  1.
         11    1    1    2    0    0  0.34456317591E+02 -0.24995985470E+01  0.29110952993E+02  0.45176690881E+02  0.00000000000E+00 0. -1.
<mgrwt>
<rscale>  0 0.14245972E+03</rscale>
<asrwt>0</asrwt>
<pdfrwt beam="1">  1        2 0.24512993E-01 0.14927115E+03</pdfrwt>
<pdfrwt beam="2">  1       -2 0.18244200E-01 0.14927115E+03</pdfrwt>
<totfact> 0.51960762E+03</totfact>
</mgrwt>
</event>
<event>
 6    1  0.5258538E-006  0.1297404E+03  0.7546771E-02  0.1240632E+00
          4   -1    0    0  501    0  0.00000000000E+00  0.00000000000E+00  0.44357107403E+02  0.44357107403E+02  0.00000000000E+00 0. -1.
         -4   -1    0    0    0  501 -0.00000000000E+00 -0.00000000000E+00 -0.29766557428E+03  0.29766557428E+03  0.00000000000E+00 0.  1.
          5    1    1    2  502    0 -0.15267157031E+02  0.37145998447E+02 -0.15218944426E+03  0.15746945173E+03  0.47000000000E+01 0.  1.
         -5    1    1    2    0  502 -0.14389595053E+02 -0.19032335652E+02  0.17179490730E+02  0.29774404241E+02  0.47000000000E+01 0.  1.
        -11    1    1    2    0    0  0.63170467981E+02 -0.19486054147E+02 -0.82559933537E+02  0.10576557548E+03  0.00000000000E+00 0. -1.
         11    1    1    2    0    0 -0.33513715896E+02  0.13723913522E+01 -0.35738579809E+02  0.49013250229E+02  0.00000000000E+00 0.  1.
<mgrwt>
<rscale>  0 0.12150649E+03</rscale>
<asrwt>0</asrwt>
<pdfrwt beam="1">  1        4 0.68241705E-02 0.12974041E+03</pdfrwt>
<pdfrwt beam="2">  1       -4 0.45794703E-01 0.12974041E+03</pdfrwt>
<totfact> 0.10902084E+03</totfact>
</mgrwt>
</event>
<event>
 6    1  0.5258538E-006  0.1360951E+03  0.7546771E-02  0.1289316E+00
          3   -1    0    0  501    0  0.00000000000E+00  0.00000000000E+00  0.41785529512E+03  0.41785529512E+03  0.00000000000E+00 0. -1.
         -3   -1    0    0    0  501 -0.00000000000E+00 -0.00000000000E+00 -0.17779106678E+02  0.17779106678E+02  0.00000000000E+00 0.  1.
          5    1    1    2  502    0 -0.44375289031E+02 -0.25708413045E+02  0.54698873675E+02  0.75127528638E+02  0.47000000000E+01 0.  1.
         -5    1    1    2    0  502  0.55023100237E+02 -0.51045417681E+01  0.29407530192E+03  0.29925903680E+03  0.47000000000E+01 0. -1.
        -11    1    1    2    0    0 -0.56766827538E+01  0.14803698833E+02  0.31785939046E+02  0.35520700264E+02  0.00000000000E+00 0.  1.
         11    1    1    2    0    0 -0.49711284525E+01  0.16009255981E+02  0.19516073795E+02  0.25727136092E+02  0.00000000000E+00 0. -1.
<mgrwt>
<rscale>  0 0.95830789E+02</rscale>
<asrwt>0</asrwt>
<pdfrwt beam="1">  1        3 0.64285423E-01 0.13609509E+03</pdfrwt>
<pdfrwt beam="2">  1       -3 0.27352475E-02 0.13609509E+03</pdfrwt>
<totfact> 0.32098191E+03</totfact>
</mgrwt>
</event>
<event>
 6    1  0.5258538E-006  0.1648715E+03  0.7546771E-02  0.1190050E+00
         -2   -1    0    0    0  501 -0.00000000000E+00  0.00000000000E+00  0.15953495389E+03  0.15953495389E+03  0.00000000000E+00 0.  1.
          2   -1    0    0  501    0  0.00000000000E+00 -0.00000000000E+00 -0.14750147787E+03  0.14750147787E+03  0.00000000000E+00 0. -1.
          5    1    1    2  502    0  0.57307402503E+02  0.31496040587E+02  0.11215726613E+02  0.66513318048E+02  0.47000000000E+01 0.  1.
         -5    1    1    2    0  502 -0.62587437633E+02  0.75881796697E+02 -0.35176385126E+01  0.98537800869E+02  0.47000000000E+01 0.  1.
        -11    1    1    2    0    0 -0.16102427217E+02 -0.11593863322E+03  0.12109394160E+02  0.11767621791E+03  0.00000000000E+00 0. -1.
         11    1    1    2    0    0  0.21382462347E+02  0.85607959344E+01 -0.77740062411E+01  0.24309094925E+02  0.00000000000E+00 0.  1.
<mgrwt>
<rscale>  0 0.15880692E+03</rscale>
<asrwt>0</asrwt>
<pdfrwt beam="2">  1        2 0.22692535E-01 0.16487150E+03</pdfrwt>
<pdfrwt beam="1">  1       -2 0.24543839E-01 0.16487150E+03</pdfrwt>
<totfact> 0.34279353E+03</totfact>
</mgrwt>
</event>
<event>
 6    1  0.5258538E-006  0.1245024E+03  0.7546771E-02  0.1285202E+00
         -2   -1    0    0    0  501 -0.00000000000E+00  0.00000000000E+00  0.12082887214E+02  0.12082887214E+02  0.00000000000E+00 0.  1.
          2   -1    0    0  501    0  0.00000000000E+00 -0.00000000000E+00 -0.98665491127E+03  0.98665491127E+03  0.00000000000E+00 0. -1.
          5    1    1    2  502    0  0.24395822743E+02 -0.76863287857E+02 -0.71470495482E+03  0.71925543699E+03  0.47000000000E+01 0. -1.
         -5    1    1    2    0  502 -0.84530762000E+01  0.38231589031E+02 -0.19672342600E+03  0.20063724788E+03  0.47000000000E+01 0.  1.
        -11    1    1    2    0    0 -0.11484871764E+02  0.10757135432E+02 -0.99284371294E+01  0.18606238362E+02  0.00000000000E+00 0.  1.
         11    1    1    2    0    0 -0.44578747791E+01  0.27874563394E+02 -0.53215206100E+02  0.60238875257E+02  0.00000000000E+00 0. -1.
<mgrwt>
<rscale>  0 0.97702953E+02</rscale>
<asrwt>0</asrwt>
<pdfrwt beam="2">  1        2 0.15179302E+00 0.12450244E+03</pdfrwt>
<pdfrwt beam="1">  1       -2 0.18589062E-02 0.12450244E+03</pdfrwt>
<totfact> 0.21789766E+04</totfact>
</mgrwt>
</event>
<event>
 6    1  0.5258538E-006  0.1339279E+03  0.7546771E-02  0.1236222E+00
         -4   -1    0    0    0  501 -0.00000000000E+00  0.00000000000E+00  0.98087773223E+02  0.98087773223E+02  0.00000000000E+00 0.  1.
          4   -1    0    0  501    0  0.00000000000E+00 -0.00000000000E+00 -0.15452695459E+03  0.15452695459E+03  0.00000000000E+00 0. -1.
          5    1    1    2  502    0 -0.80537552169E+02  0.24384415392E+02 -0.24591897157E+02  0.87793783545E+02  0.47000000000E+01 0.  1.
         -5    1    1    2    0  502  0.32611149698E+02 -0.28138712515E+02 -0.47543294250E+02  0.64325182120E+02  0.47000000000E+01 0.  1.
        -11    1    1    2    0    0  0.15280002336E+01  0.29104427603E+02  0.33781632805E+02  0.44616154090E+02  0.00000000000E+00 0.  1.
         11    1    1    2    0    0  0.46398402238E+02 -0.25350130480E+02 -0.18085622761E+02  0.55879608054E+02  0.00000000000E+00 0. -1.
<mgrwt>
<rscale>  0 0.12426523E+03</rscale>
<asrwt>0</asrwt>
<pdfrwt beam="2">  1        4 0.23773378E-01 0.13392794E+03</pdfrwt>
<pdfrwt beam="1">  1       -4 0.15090427E-01 0.13392794E+03</pdfrwt>
<totfact> 0.10096944E+03</totfact>
</mgrwt>
</event>
<event>
 6    1  0.5258538E-006  0.1896931E+03  0.7546771E-02  0.1162352E+00
          2   -1    0    0  501    0  0.00000000000E+00  0.00000000000E+00  0.73840357680E+02  0.73840357680E+02  0.00000000000E+00 0. -1.
         -2   -1    0    0    0  501 -0.00000000000E+00 -0.00000000000E+00 -0.66125923433E+03  0.66125923433E+03  0.00000000000E+00 0.  1.
          5    1    1    2  502    0  0.62156857933E+02  0.10852675885E+02  0.20991999682E+02  0.66663405348E+02  0.47000000000E+01 0. -1.
         -5    1    1    2    0  502  0.78042647902E+02  0.41395865896E+02 -0.11487210625E+03  0.14498952858E+03  0.47000000000E+01 0.  1.
        -11    1    1    2    0    0 -0.14107633401E+03 -0.27943686591E+02 -0.46040925608E+03  0.48234848888E+03  0.00000000000E+00 0.  1.
         11    1    1    2    0    0  0.87682817357E+00 -0.24304855190E+02 -0.33129514002E+02  0.41098169198E+02  0.00000000000E+00 0. -1.
<mgrwt>
<rscale>  0 0.18574892E+03</rscale>
<asrwt>0</asrwt>
<pdfrwt beam="1">  1        2 0.11360055E-01 0.18969315E+03</pdfrwt>
<pdfrwt beam="2">  1       -2 0.10173219E+00 0.18969315E+03</pdfrwt>
<totfact> 0.44830087E+02</totfact>
</mgrwt>
</event>
<event>
 6    1  0.5933239E-006  0.1654813E+03  0.7546771E-02  0.1189385E+00
         -1   -1    0    0    0  501 -0.00000000000E+00  0.00000000000E+00  0.78087601662E+02  0.78087601662E+02  0.00000000000E+00 0.  1.
          1   -1    0    0  501    0  0.00000000000E+00 -0.00000000000E+00 -0.31143678822E+03  0.31143678822E+03  0.00000000000E+00 0. -1.
          5    1    1    2  502    0 -0.60643654004E+02  0.60128421855E+02 -0.32811869969E+02  0.91606706613E+02  0.47000000000E+01 0.  1.
         -5    1    1    2    0  502 -0.44858930396E+02 -0.35058825553E+02 -0.12329675048E+03  0.13588827603E+03  0.47000000000E+01 0.  1.
        -11    1    1    2    0    0  0.28249381817E+02 -0.14255940356E+02  0.19949444588E+02  0.37406413192E+02  0.00000000000E+00 0.  1.
         11    1    1    2    0    0  0.77253202583E+02 -0.10813655945E+02 -0.97190010696E+02  0.12462299404E+03  0.00000000000E+00 0. -1.
<mgrwt>
<rscale>  0 0.15939147E+03</rscale>
<asrwt>0</asrwt>
<pdfrwt beam="2">  1        1 0.47913351E-01 0.16548132E+03</pdfrwt>
<pdfrwt beam="1">  1       -1 0.12013477E-01 0.16548132E+03</pdfrwt>
<totfact> 0.37229142E+03</totfact>
</mgrwt>
</event>
<event>
 6    1  0.5258538E-006  0.1663591E+03  0.7546771E-02  0.1196164E+00
         -4   -1    0    0    0  501 -0.00000000000E+00  0.00000000000E+00  0.59828844437E+02  0.59828844437E+02  0.00000000000E+00 0.  1.
          4   -1    0    0  501    0  0.00000000000E+00 -0.00000000000E+00 -0.34805459655E+03  0.34805459655E+03  0.00000000000E+00 0. -1.
          5    1    1    2  502    0  0.41537605321E+02 -0.20676309841E+02 -0.14941582147E+02  0.48971658349E+02  0.47000000000E+01 0. -1.
         -5    1    1    2    0  502 -0.49881547464E+02  0.10004243436E+03 -0.13151143199E+03  0.17266732231E+03  0.47000000000E+01 0.  1.
        -11    1    1    2    0    0  0.42435174098E+02 -0.10876347245E+02 -0.43897703377E+02  0.62016508221E+02  0.00000000000E+00 0.  1.
         11    1    1    2    0    0 -0.34091231955E+02 -0.68489777271E+02 -0.97875034601E+02  0.12422795211E+03  0.00000000000E+00 0. -1.
<mgrwt>
<rscale>  0 0.15356156E+03</rscale>
<asrwt>0</asrwt>
<pdfrwt beam="2">  1        4 0.53546860E-01 0.16635911E+03</pdfrwt>
<pdfrwt beam="1">  1       -4 0.92044378E-02 0.16635911E+03</pdfrwt>
<totfact> 0.50682439E+02</totfact>
</mgrwt>
</event>
<event>
 6    1  0.5258538E-006  0.1374826E+03  0.7546771E-02  0.1228688E+00
          3   -1    0    0  501    0  0.00000000000E+00  0.00000000000E+00  0.40224943235E+03  0.40224943235E+03  0.00000000000E+00 0. -1.
         -3   -1    0    0    0  501 -0.00000000000E+00 -0.00000000000E+00 -0.50935764210E+02  0.50935764210E+02  0.00000000000E+00 0.  1.
          5    1    1    2  502    0  0.40364093397E+02 -0.34983098983E+02  0.22691078801E+03  0.23316018735E+03  0.47000000000E+01 0. -1.
         -5    1    1    2    0  502  0.85400568585E+01  0.64729619426E+02  0.81701509033E+02  0.10469041399E+03  0.47000000000E+01 0. -1.
        -11    1    1    2    0    0 -0.60975180750E+01 -0.25293933403E+02 -0.24365775065E+02  0.35646231052E+02  0.00000000000E+00 0.  1.
         11    1    1    2    0    0 -0.42806632180E+02 -0.44525870398E+01  0.67067146158E+02  0.79688364168E+02  0.00000000000E+00 0. -1.
<mgrwt>
<rscale>  0 0.12917317E+03</rscale>
<asrwt>0</asrwt>
<pdfrwt beam="1">  1        3 0.61884526E-01 0.13748265E+03</pdfrwt>
<pdfrwt beam="2">  1       -3 0.78362717E-02 0.13748265E+03</pdfrwt>
<totfact> 0.66093845E+02</totfact>
</mgrwt>
</event>
<event>
 6    1  0.5258538E-006  0.1407558E+03  0.7546771E-02  0.1226363E+00
         -1   -1    0    0    0  501 -0.00000000000E+00  0.00000000000E+00  0.53246625422E+02  0.53246625422E+02  0.00000000000E+00 0.  1.
          1   -1    0    0  501    0  0.00000000000E+00 -0.00000000000E+00 -0.28834615577E+03  0.28834615577E+03  0.00000000000E+00 0. -1.
          5    1    1    2  502    0 -0.28379107752E+02  0.37408593184E+02 -0.16261261904E+02  0.49912876490E+02  0.47000000000E+01 0.  1.
         -5    1    1    2    0  502 -0.25244596173E+02 -0.73616094265E+02 -0.14115241477E+03  0.16125356791E+03  0.47000000000E+01 0.  1.
        -11    1    1    2    0    0 -0.19010502880E+02  0.16151541345E+02 -0.44331193889E+01  0.25336220221E+02  0.00000000000E+00 0.  1.
         11    1    1    2    0    0  0.72634206804E+02  0.20055959737E+02 -0.73252734286E+02  0.10509011656E+03  0.00000000000E+00 0. -1.
<mgrwt>
<rscale>  0 0.13073895E+03</rscale>
<asrwt>0</asrwt>
<pdfrwt beam="2">  1        1 0.44360946E-01 0.14075582E+03</pdfrwt>
<pdfrwt beam="1">  1       -1 0.81917887E-02 0.14075582E+03</pdfrwt>
<totfact> 0.72946920E+03</totfact>
</mgrwt>
</event>
<event>
 6    1  0.5258538E-006  0.2929946E+03  0.7546771E-02  0.1096125E+00
          2   -1    0    0  501    0  0.00000000000E+00  0.00000000000E+00  0.13584345030E+04  0.13584345030E+04  0.00000000000E+00 0. -1.
         -2   -1    0    0    0  501 -0.00000000000E+00 -0.00000000000E+00 -0.57356395349E+02  0.57356395349E+02  0.00000000000E+00 0.  1.
          5    1    1    2  502    0 -0.20020253536E+03  0.66069856132E+02  0.79191853668E+03  0.81951408761E+03  0.47000000000E+01 0. -1.
         -5    1    1    2    0  502 -0.25336887588E+02 -0.63603277360E+02  0.11904941279E+03  0.13741247196E+03  0.47000000000E+01 0.  1.
        -11    1    1    2    0    0  0.90975285073E+02  0.36325999522E+02  0.20041956398E+03  0.22307864613E+03  0.00000000000E+00 0. -1.
         11    1    1    2    0    0  0.13456413788E+03 -0.38792578294E+02  0.18969059424E+03  0.23578569269E+03  0.00000000000E+00 0.  1.
<mgrwt>
<rscale>  0 0.27920226E+03</rscale>
<asrwt>0</asrwt>
<pdfrwt beam="1">  1        2 0.20898990E+00 0.29299460E+03</pdfrwt>
<pdfrwt beam="2">  1       -2 0.88240619E-02 0.29299460E+03</pdfrwt>
<totfact> 0.13191419E+03</totfact>
</mgrwt>
</event>
<event>
 6    1  0.5258538E-006  0.1412925E+03  0.7546771E-02  0.1222843E+00
          1   -1    0    0  501    0  0.00000000000E+00  0.00000000000E+00  0.27169073689E+02  0.27169073689E+02  0.00000000000E+00 0. -1.
         -1   -1    0    0    0  501 -0.00000000000E+00 -0.00000000000E+00 -0.60796021233E+03  0.60796021233E+03  0.00000000000E+00 0.  1.
          5    1    1    2  502    0  0.36960784478E+02 -0.11654138085E+01 -0.13972789722E+03  0.14461477463E+03  0.47000000000E+01 0. -1.
         -5    1    1    2    0  502 -0.77168619734E+02 -0.50988334261E+02 -0.12642113409E+03  0.15671374939E+03  0.47000000000E+01 0. -1.
        -11    1    1    2    0    0  0.66482933711E+02  0.20889718038E+02 -0.21851733384E+03  0.22936038451E+03  0.00000000000E+00 0.  1.
         11    1    1    2    0    0 -0.26275098455E+02  0.31264030031E+02 -0.96124773491E+02  0.10444037749E+03  0.00000000000E+00 0. -1.
<mgrwt>
<rscale>  0 0.13315851E+03</rscale>
<asrwt>0</asrwt>
<pdfrwt beam="1">  1        1 0.41798573E-02 0.14129251E+03</pdfrwt>
<pdfrwt beam="2">  1       -1 0.93532346E-01 0.14129251E+03</pdfrwt>
<totfact> 0.24221974E+03</totfact>
</mgrwt>
</event>
<event>
 6    1  0.5258538E-006  0.2011849E+03  0.7546771E-02  0.1152988E+00
          2   -1    0    0  501    0  0.00000000000E+00  0.00000000000E+00  0.14744746099E+03  0.14744746099E+03  0.00000000000E+00 0. -1.
         -2   -1    0    0    0  501 -0.00000000000E+00 -0.00000000000E+00 -0.27052092203E+03  0.27052092203E+03  0.00000000000E+00 0.  1.
          5    1    1    2  502    0 -0.10536569711E+03  0.52582656243E+02 -0.28131728185E+02  0.12116249418E+03  0.47000000000E+01 0.  1.
         -5    1    1    2    0  502  0.13420545146E+02  0.75464739687E+02  0.22758475622E+02  0.80094170704E+02  0.47000000000E+01 0.  1.
        -11    1    1    2    0    0  0.54057817648E+02 -0.17412367705E+02 -0.70679836707E+02  0.90670157797E+02  0.00000000000E+00 0.  1.
         11    1    1    2    0    0  0.37887334314E+02 -0.11063502823E+03 -0.47020371773E+02  0.12604156034E+03  0.00000000000E+00 0. -1.
<mgrwt>
<rscale>  0 0.19619706E+03</rscale>
<asrwt>0</asrwt>
<pdfrwt beam="1">  1        2 0.22684225E-01 0.20118492E+03</pdfrwt>
<pdfrwt beam="2">  1       -2 0.41618603E-01 0.20118492E+03</pdfrwt>
<totfact> 0.13144578E+03</totfact>
</mgrwt>
</event>
<event>
 6    1  0.5258538E-006  0.1377266E+03  0.7546771E-02  0.1226141E+00
         -2   -1    0    0    0  501 -0.00000000000E+00  0.00000000000E+00  0.37661159125E+02  0.37661159125E+02  0.00000000000E+00 0.  1.
          2   -1    0    0  501    0  0.00000000000E+00 -0.00000000000E+00 -0.42037186145E+03  0.42037186145E+03  0.00000000000E+00 0. -1.
          5    1    1    2  502    0 -0.34023518874E+02  0.42081204659E+02 -0.95818414340E+02  0.11014393378E+03  0.47000000000E+01 0. -1.
         -5    1    1    2    0  502  0.82561242547E+02 -0.10659214909E+02 -0.14012950556E+03  0.16305933264E+03  0.47000000000E+01 0. -1.
        -11    1    1    2    0    0  0.18183347537E+02  0.11420814358E+02 -0.44656129276E+01  0.21931959034E+02  0.00000000000E+00 0.  1.
         11    1    1    2    0    0 -0.66721071210E+02 -0.42842804108E+02 -0.14229716950E+03  0.16289779512E+03  0.00000000000E+00 0. -1.
<mgrwt>
<rscale>  0 0.13089028E+03</rscale>
<asrwt>0</asrwt>
<pdfrwt beam="2">  1        2 0.64672593E-01 0.13772655E+03</pdfrwt>
<pdfrwt beam="1">  1       -2 0.57940245E-02 0.13772655E+03</pdfrwt>
<totfact> 0.11202409E+04</totfact>
</mgrwt>
</event>
<event>
 6    1  0.5258538E-006  0.3055159E+03  0.7546771E-02  0.1084077E+00
         -1   -1    0    0    0  501 -0.00000000000E+00  0.00000000000E+00  0.10727810424E+03  0.10727810424E+03  0.00000000000E+00 0.  1.
          1   -1    0    0  501    0  0.00000000000E+00 -0.00000000000E+00 -0.11563486543E+04  0.11563486543E+04  0.00000000000E+00 0. -1.
          5    1    1    2  502    0 -0.16868125953E+03  0.11927096845E+03 -0.70770049334E+03  0.73725233774E+03  0.47000000000E+01 0.  1.
         -5    1    1    2    0  502 -0.20818944896E+02  0.85188470817E+02 -0.15785514703E+03  0.18064008821E+03  0.47000000000E+01 0.  1.
        -11    1    1    2    0    0  0.86287633486E+02 -0.15748608456E+03 -0.11507144677E+03  0.21328117681E+03  0.00000000000E+00 0. -1.
         11    1    1    2    0    0  0.10321257094E+03 -0.46973354713E+02 -0.68443462919E+02  0.13245315575E+03  0.00000000000E+00 0.  1.
<mgrwt>
<rscale>  0 0.30234007E+03</rscale>
<asrwt>0</asrwt>
<pdfrwt beam="2">  1        1 0.17789980E+00 0.30551586E+03</pdfrwt>
<pdfrwt beam="1">  1       -1 0.16504323E-01 0.30551586E+03</pdfrwt>
<totfact> 0.33933501E+02</totfact>
</mgrwt>
</event>
<event>
 6    1  0.5258538E-006  0.1589127E+03  0.7546771E-02  0.1197739E+00
          2   -1    0    0  501    0  0.00000000000E+00  0.00000000000E+00  0.10233974625E+04  0.10233974625E+04  0.00000000000E+00 0. -1.
         -2   -1    0    0    0  501 -0.00000000000E+00 -0.00000000000E+00 -0.24153071807E+02  0.24153071807E+02  0.00000000000E+00 0.  1.
          5    1    1    2  502    0  0.32067545298E+02 -0.65600341916E+02  0.19505978086E+03  0.20833180370E+03  0.47000000000E+01 0. -1.
         -5    1    1    2    0  502 -0.57255775455E+02 -0.29263909698E+02  0.53197805690E+03  0.53587064042E+03  0.47000000000E+01 0. -1.
        -11    1    1    2    0    0 -0.30988136380E+02  0.30423072365E+02  0.56081257200E+02  0.70929086682E+02  0.00000000000E+00 0.  1.
         11    1    1    2    0    0  0.56176366538E+02  0.64441179249E+02  0.21612529573E+03  0.23241900352E+03  0.00000000000E+00 0. -1.
<mgrwt>
<rscale>  0 0.15224652E+03</rscale>
<asrwt>0</asrwt>
<pdfrwt beam="1">  1        2 0.15744573E+00 0.15891274E+03</pdfrwt>
<pdfrwt beam="2">  1       -2 0.37158580E-02 0.15891274E+03</pdfrwt>
<totfact> 0.76211037E+03</totfact>
</mgrwt>
</event>
<event>
 6    1  0.5258538E-006  0.1325682E+03  0.7546771E-02  0.1236546E+00
         -4   -1    0    0    0  501 -0.00000000000E+00  0.00000000000E+00  0.47704155499E+02  0.47704155499E+02  0.00000000000E+00 0.  1.
          4   -1    0    0  501    0  0.00000000000E+00 -0.00000000000E+00 -0.34764888601E+03  0.34764888601E+03  0.00000000000E+00 0. -1.
          5    1    1    2  502    0  0.26204579303E+01  0.27026591393E+02 -0.25231521978E+03  0.25381560940E+03  0.47000000000E+01 0.  1.
         -5    1    1    2    0  502  0.25657879581E+02  0.68909015248E+01  0.43829405935E+01  0.27333340020E+02  0.47000000000E+01 0.  1.
        -11    1    1    2    0    0 -0.22067670090E+01 -0.16025878776E+02  0.25664689601E+02  0.30337681248E+02  0.00000000000E+00 0.  1.
         11    1    1    2    0    0 -0.26071570502E+02 -0.17891614142E+02 -0.77677140924E+02  0.83866410840E+02  0.00000000000E+00 0. -1.
<mgrwt>
<rscale>  0 0.12405955E+03</rscale>
<asrwt>0</asrwt>
<pdfrwt beam="2">  1        4 0.53484445E-01 0.13256816E+03</pdfrwt>
<pdfrwt beam="1">  1       -4 0.73391007E-02 0.13256816E+03</pdfrwt>
<totfact> 0.70900241E+02</totfact>
</mgrwt>
</event>
<event>
 6    1  0.5258538E-006  0.1328662E+03  0.7546771E-02  0.1237112E+00
          2   -1    0    0  501    0  0.00000000000E+00  0.00000000000E+00  0.34086631391E+03  0.34086631391E+03  0.00000000000E+00 0. -1.
         -2   -1    0    0    0  501 -0.00000000000E+00 -0.00000000000E+00 -0.42821694543E+02  0.42821694543E+02  0.00000000000E+00 0.  1.
          5    1    1    2  502    0  0.60661164529E+02  0.64216034329E+02  0.15706284246E+03  0.18026176086E+03  0.47000000000E+01 0.  1.
         -5    1    1    2    0  502 -0.32762014862E+02 -0.28856604127E+02  0.62784480221E+02  0.76616148273E+02  0.47000000000E+01 0.  1.
        -11    1    1    2    0    0 -0.33000368410E+02  0.99666072128E+01 -0.20200997247E+01  0.34531701050E+02  0.00000000000E+00 0.  1.
         11    1    1    2    0    0  0.51012187422E+01 -0.45326037415E+02  0.80217396412E+02  0.92278398271E+02  0.00000000000E+00 0. -1.
<mgrwt>
<rscale>  0 0.12370174E+03</rscale>
<asrwt>0</asrwt>
<pdfrwt beam="1">  1        2 0.52440970E-01 0.13286615E+03</pdfrwt>
<pdfrwt beam="2">  1       -2 0.65879532E-02 0.13286615E+03</pdfrwt>
<totfact> 0.11494999E+04</totfact>
</mgrwt>
</event>
<event>
 6    1  0.5258538E-006  0.1566667E+03  0.7546771E-02  0.1200838E+00
          2   -1    0    0  501    0  0.00000000000E+00  0.00000000000E+00  0.20035285133E+04  0.20035285133E+04  0.00000000000E+00 0. -1.
         -2   -1    0    0    0  501 -0.00000000000E+00 -0.00000000000E+00 -0.15290743982E+02  0.15290743982E+02  0.00000000000E+00 0.  1.
          5    1    1    2  502    0 -0.10716254468E+03  0.73360300687E+01  0.11912691864E+04  0.11961111958E+04  0.47000000000E+01 0. -1.
         -5    1    1    2    0  502  0.20069637694E+02 -0.43872505615E+02  0.43875324514E+03  0.44142279872E+03  0.47000000000E+01 0. -1.
        -11    1    1    2    0    0  0.19628251026E+02  0.56379241752E+02  0.14650095203E+03  0.15819739595E+03  0.00000000000E+00 0.  1.
         11    1    1    2    0    0  0.67464655961E+02 -0.19842766206E+02  0.21171438571E+03  0.22308786675E+03  0.00000000000E+00 0. -1.
<mgrwt>
<rscale>  0 0.14970304E+03</rscale>
<asrwt>0</asrwt>
<pdfrwt beam="1">  1        2 0.30823495E+00 0.15666670E+03</pdfrwt>
<pdfrwt beam="2">  1       -2 0.23524237E-02 0.15666670E+03</pdfrwt>
<totfact> 0.44847060E+03</totfact>
</mgrwt>
</event>
<event>
 6    1  0.5258538E-006  0.3196763E+03  0.7546771E-02  0.1093797E+00
         -2   -1    0    0    0  501 -0.00000000000E+00  0.00000000000E+00  0.22032918471E+03  0.22032918471E+03  0.00000000000E+00 0.  1.
          2   -1    0    0  501    0  0.00000000000E+00 -0.00000000000E+00 -0.31565237729E+03  0.31565237729E+03  0.00000000000E+00 0. -1.
          5    1    1    2  502    0  0.15103680270E+03 -0.99442899585E+02 -0.16567654469E+03  0.24529943642E+03  0.47000000000E+01 0. -1.
         -5    1    1    2    0  502 -0.55667418312E+02 -0.47289206600E+02  0.56545576499E+02  0.92491203604E+02  0.47000000000E+01 0.  1.
        -11    1    1    2    0    0 -0.82674109754E+02  0.46464229553E+02  0.20040036099E+02  0.96930573599E+02  0.00000000000E+00 0. -1.
         11    1    1    2    0    0 -0.12695274635E+02  0.10026787663E+03 -0.62322604820E+01  0.10126034838E+03  0.00000000000E+00 0.  1.
<mgrwt>
<rscale>  0 0.28349124E+03</rscale>
<asrwt>0</asrwt>
<pdfrwt beam="2">  1        2 0.48561904E-01 0.31967632E+03</pdfrwt>
<pdfrwt beam="1">  1       -2 0.33896798E-01 0.31967632E+03</pdfrwt>
<totfact> 0.84646390E+02</totfact>
</mgrwt>
</event>
<event>
 6    1  0.5258538E-006  0.1463381E+03  0.7546771E-02  0.1216058E+00
          2   -1    0    0  501    0  0.00000000000E+00  0.00000000000E+00  0.14619110416E+03  0.14619110416E+03  0.00000000000E+00 0. -1.
         -2   -1    0    0    0  501 -0.00000000000E+00 -0.00000000000E+00 -0.11751404113E+03  0.11751404113E+03  0.00000000000E+00 0.  1.
          5    1    1    2  502    0 -0.10630040816E+03 -0.71280015119E+00 -0.81708187397E+01  0.10671990038E+03  0.47000000000E+01 0.  1.
         -5    1    1    2    0  502  0.31323327568E+02  0.13679467802E+02  0.20509741831E+02  0.40137491193E+02  0.47000000000E+01 0.  1.
        -11    1    1    2    0    0  0.11360011028E+02 -0.38735709763E+02 -0.12703183843E+02  0.42318742197E+02  0.00000000000E+00 0.  1.
         11    1    1    2    0    0  0.63617069562E+02  0.25769042113E+02  0.29041323780E+02  0.74529011518E+02  0.00000000000E+00 0. -1.
<mgrwt>
<rscale>  0 0.13799118E+03</rscale>
<asrwt>0</asrwt>
<pdfrwt beam="1">  1        2 0.22490939E-01 0.14633812E+03</pdfrwt>
<pdfrwt beam="2">  1       -2 0.18079083E-01 0.14633812E+03</pdfrwt>
<totfact> 0.57990947E+03</totfact>
</mgrwt>
</event>
<event>
 6    1  0.5258538E-006  0.1574054E+03  0.7546771E-02  0.1199577E+00
         -1   -1    0    0    0  501 -0.00000000000E+00  0.00000000000E+00  0.24671671266E+03  0.24671671266E+03  0.00000000000E+00 0.  1.
          1   -1    0    0  501    0  0.00000000000E+00 -0.00000000000E+00 -0.13513860612E+03  0.13513860612E+03  0.00000000000E+00 0. -1.
          5    1    1    2  502    0  0.11535020290E+02  0.17218103638E+02  0.37122269984E+02  0.42774673754E+02  0.47000000000E+01 0. -1.
         -5    1    1    2    0  502 -0.25452455527E+02  0.77420064041E+02 -0.94225747508E+02  0.12466866207E+03  0.47000000000E+01 0. -1.
        -11    1    1    2    0    0  0.74390725693E+01 -0.86669541249E+01 -0.10533560907E+02  0.15537432216E+02  0.00000000000E+00 0. -1.
         11    1    1    2    0    0  0.64783626669E+01 -0.85971213554E+02  0.17921514498E+03  0.19887455074E+03  0.00000000000E+00 0.  1.
<mgrwt>
<rscale>  0 0.15073131E+03</rscale>
<asrwt>0</asrwt>
<pdfrwt beam="2">  1        1 0.20790555E-01 0.15740541E+03</pdfrwt>
<pdfrwt beam="1">  1       -1 0.37956417E-01 0.15740541E+03</pdfrwt>
<totfact> 0.16191877E+03</totfact>
</mgrwt>
</event>
<event>
 6    1  0.5258538E-006  0.1674652E+03  0.7546771E-02  0.1187349E+00
         -2   -1    0    0    0  501 -0.00000000000E+00  0.00000000000E+00  0.28366344607E+03  0.28366344607E+03  0.00000000000E+00 0.  1.
          2   -1    0    0  501    0  0.00000000000E+00 -0.00000000000E+00 -0.15400244134E+03  0.15400244134E+03  0.00000000000E+00 0. -1.
          5    1    1    2  502    0 -0.82825857193E+02  0.98775220518E+02 -0.44482577954E+02  0.13644580078E+03  0.47000000000E+01 0. -1.
         -5    1    1    2    0  502  0.34305683122E+02  0.15490127251E+01 -0.33799979070E+02  0.48412890019E+02  0.47000000000E+01 0. -1.
        -11    1    1    2    0    0  0.64666997792E+02 -0.92951242537E+02  0.20584394286E+03  0.23493293278E+03  0.00000000000E+00 0.  1.
         11    1    1    2    0    0 -0.16146823721E+02 -0.73729907058E+01  0.20996188916E+01  0.17874263837E+02  0.00000000000E+00 0. -1.
<mgrwt>
<rscale>  0 0.16119939E+03</rscale>
<asrwt>0</asrwt>
<pdfrwt beam="2">  1        2 0.23692683E-01 0.16746515E+03</pdfrwt>
<pdfrwt beam="1">  1       -2 0.43640530E-01 0.16746515E+03</pdfrwt>
<totfact> 0.11367245E+03</totfact>
</mgrwt>
</event>
<event>
 6    1  0.5258538E-006  0.1549814E+03  0.7546771E-02  0.1199915E+00
         -1   -1    0    0    0  501 -0.00000000000E+00  0.00000000000E+00  0.45201008772E+02  0.45201008772E+02  0.00000000000E+00 0.  1.
          1   -1    0    0  501    0  0.00000000000E+00 -0.00000000000E+00 -0.85217047076E+03  0.85217047076E+03  0.00000000000E+00 0. -1.
          5    1    1    2  502    0  0.80885446228E+02 -0.48046797194E+02 -0.62339179289E+03  0.63046837159E+03  0.47000000000E+01 0. -1.
         -5    1    1    2    0  502  0.10489799989E+02  0.41371689620E+02 -0.92121525597E+02  0.10163718849E+03  0.47000000000E+01 0. -1.
        -11    1    1    2    0    0 -0.95823070911E+02  0.28000320218E+02 -0.36745978085E+02  0.10637831432E+03  0.00000000000E+00 0.  1.
         11    1    1    2    0    0  0.44478246937E+01 -0.21325212644E+02 -0.54710165415E+02  0.58887605136E+02  0.00000000000E+00 0. -1.
<mgrwt>
<rscale>  0 0.15045509E+03</rscale>
<asrwt>0</asrwt>
<pdfrwt beam="2">  1        1 0.13110314E+00 0.15498143E+03</pdfrwt>
<pdfrwt beam="1">  1       -1 0.69540017E-02 0.15498143E+03</pdfrwt>
<totfact> 0.22048070E+03</totfact>
</mgrwt>
</event>
<event>
 6    1  0.5258538E-006  0.1311482E+03  0.7546771E-02  0.1238655E+00
         -1   -1    0    0    0  501 -0.00000000000E+00  0.00000000000E+00  0.85031652532E+02  0.85031652532E+02  0.00000000000E+00 0.  1.
          1   -1    0    0  501    0  0.00000000000E+00 -0.00000000000E+00 -0.15799836267E+03  0.15799836267E+03  0.00000000000E+00 0. -1.
          5    1    1    2  502    0  0.57554062158E+02 -0.74036393262E+00 -0.28336055016E+02  0.64327600791E+02  0.47000000000E+01 0.  1.
         -5    1    1    2    0  502 -0.60912976822E+02 -0.38797423607E+02 -0.16072658591E+02  0.74135357138E+02  0.47000000000E+01 0.  1.
        -11    1    1    2    0    0  0.16921044068E+02  0.39323887451E+02 -0.58036665228E+02  0.72117573221E+02  0.00000000000E+00 0. -1.
         11    1    1    2    0    0 -0.13562129404E+02  0.21390008843E+00  0.29478668695E+02  0.32449484052E+02  0.00000000000E+00 0.  1.
<mgrwt>
<rscale>  0 0.12273331E+03</rscale>
<asrwt>0</asrwt>
<pdfrwt beam="2">  1        1 0.24307440E-01 0.13114822E+03</pdfrwt>
<pdfrwt beam="1">  1       -1 0.13081793E-01 0.13114822E+03</pdfrwt>
<totfact> 0.74900243E+03</totfact>
</mgrwt>
</event>
<event>
 6    1  0.5258538E-006  0.2507468E+03  0.7546771E-02  0.1112834E+00
          1   -1    0    0  501    0  0.00000000000E+00  0.00000000000E+00  0.71428324688E+03  0.71428324688E+03  0.00000000000E+00 0. -1.
         -1   -1    0    0    0  501 -0.00000000000E+00 -0.00000000000E+00 -0.22005953993E+02  0.22005953993E+02  0.00000000000E+00 0.  1.
          5    1    1    2  502    0  0.14204825124E-01 -0.64075474405E+01 -0.69805945514E+01  0.10577124669E+02  0.47000000000E+01 0.  1.
         -5    1    1    2    0  502 -0.42751997951E+02  0.49654670238E+02  0.42256006196E+03  0.42763584457E+03  0.47000000000E+01 0.  1.
        -11    1    1    2    0    0  0.32830077890E+02  0.25136337179E+02  0.11616144313E+03  0.12330097457E+03  0.00000000000E+00 0. -1.
         11    1    1    2    0    0  0.99077152364E+01 -0.68383459976E+02  0.16053638236E+03  0.17477525706E+03  0.00000000000E+00 0.  1.
<mgrwt>
<rscale>  0 0.25074676E+03</rscale>
<asrwt>0</asrwt>
<pdfrwt beam="1">  1        1 0.10988971E+00 0.25074676E+03</pdfrwt>
<pdfrwt beam="2">  1       -1 0.33855319E-02 0.25074676E+03</pdfrwt>
<totfact> 0.85673775E+03</totfact>
</mgrwt>
</event>
<event>
 6    1  0.5258538E-006  0.1853033E+03  0.7546771E-02  0.1166424E+00
          1   -1    0    0  501    0  0.00000000000E+00  0.00000000000E+00  0.17691353104E+04  0.17691353104E+04  0.00000000000E+00 0. -1.
         -1   -1    0    0    0  501 -0.00000000000E+00 -0.00000000000E+00 -0.17956463793E+02  0.17956463793E+02  0.00000000000E+00 0.  1.
          5    1    1    2  502    0 -0.31211571596E+02  0.95597844806E+02  0.43834036912E+03  0.44975268686E+03  0.47000000000E+01 0. -1.
         -5    1    1    2    0  502  0.77339193830E+02  0.33319839235E+02  0.41176306603E+03  0.42031235425E+03  0.47000000000E+01 0. -1.
        -11    1    1    2    0    0  0.25813854324E+02 -0.15406029770E+02  0.89863226089E+02  0.94758114330E+02  0.00000000000E+00 0.  1.
         11    1    1    2    0    0 -0.71941476558E+02 -0.11351165427E+03  0.81121218541E+03  0.82226861880E+03  0.00000000000E+00 0. -1.
<mgrwt>
<rscale>  0 0.18143217E+03</rscale>
<asrwt>0</asrwt>
<pdfrwt beam="1">  1        1 0.27217453E+00 0.18530333E+03</pdfrwt>
<pdfrwt beam="2">  1       -1 0.27625343E-02 0.18530333E+03</pdfrwt>
<totfact> 0.20331607E+03</totfact>
</mgrwt>
</event>
<event>
 6    1  0.5258538E-006  0.1273909E+03  0.7546771E-02  0.1236745E+00
          1   -1    0    0  501    0  0.00000000000E+00  0.00000000000E+00  0.11147352285E+03  0.11147352285E+03  0.00000000000E+00 0. -1.
         -1   -1    0    0    0  501 -0.00000000000E+00 -0.00000000000E+00 -0.15908293790E+03  0.15908293790E+03  0.00000000000E+00 0.  1.
          5    1    1    2  502    0  0.14694558471E+02 -0.44761461270E+02  0.70836556797E+02  0.85202266652E+02  0.47000000000E+01 0. -1.
         -5    1    1    2    0  502 -0.19490761543E+02  0.15085906351E+02 -0.38753059336E+02  0.46166697563E+02  0.47000000000E+01 0.  1.
        -11    1    1    2    0    0 -0.22550763922E+02  0.61529327665E+02 -0.70417657922E+02  0.96192731864E+02  0.00000000000E+00 0.  1.
         11    1    1    2    0    0  0.27346966994E+02 -0.31853772746E+02 -0.92752545844E+01  0.42994764675E+02  0.00000000000E+00 0. -1.
<mgrwt>
<rscale>  0 0.12393372E+03</rscale>
<asrwt>0</asrwt>
<pdfrwt beam="1">  1        1 0.17149773E-01 0.12739095E+03</pdfrwt>
<pdfrwt beam="2">  1       -1 0.24474298E-01 0.12739095E+03</pdfrwt>
<totfact> 0.42983291E+03</totfact>
</mgrwt>
</event>
<event>
 6    1  0.5258538E-006  0.1920655E+03  0.7546771E-02  0.1161269E+00
         -1   -1    0    0    0  501 -0.00000000000E+00  0.00000000000E+00  0.14910373147E+03  0.14910373147E+03  0.00000000000E+00 0.  1.
          1   -1    0    0  501    0  0.00000000000E+00 -0.00000000000E+00 -0.23068229010E+03  0.23068229010E+03  0.00000000000E+00 0. -1.
          5    1    1    2  502    0  0.77733596960E+02 -0.44590289187E+02 -0.51116846629E+02  0.10327549562E+03  0.47000000000E+01 0. -1.
         -5    1    1    2    0  502  0.64437665158E+02  0.77034647929E+02 -0.27306615743E+02  0.10418392840E+03  0.47000000000E+01 0. -1.
        -11    1    1    2    0    0 -0.70798103555E+02 -0.20420281104E+02  0.44113511422E+02  0.85879923366E+02  0.00000000000E+00 0.  1.
         11    1    1    2    0    0 -0.71373158564E+02 -0.12024077638E+02 -0.47268607680E+02  0.86446674189E+02  0.00000000000E+00 0. -1.
<mgrwt>
<rscale>  0 0.18692052E+03</rscale>
<asrwt>0</asrwt>
<pdfrwt beam="2">  1        1 0.35489583E-01 0.19206554E+03</pdfrwt>
<pdfrwt beam="1">  1       -1 0.22939036E-01 0.19206554E+03</pdfrwt>
<totfact> 0.19436699E+03</totfact>
</mgrwt>
</event>
<event>
 6    1  0.5258538E-006  0.2291441E+03  0.7546771E-02  0.1131655E+00
         -1   -1    0    0    0  501 -0.00000000000E+00  0.00000000000E+00  0.29255495114E+03  0.29255495114E+03  0.00000000000E+00 0.  1.
          1   -1    0    0  501    0  0.00000000000E+00 -0.00000000000E+00 -0.17092699772E+03  0.17092699772E+03  0.00000000000E+00 0. -1.
          5    1    1    2  502    0  0.88033859269E+02 -0.44193910367E+02 -0.11965624469E+02  0.99339459734E+02  0.47000000000E+01 0.  1.
         -5    1    1    2    0  502 -0.31498140341E+01 -0.12807966679E+03  0.21565267184E+02  0.13000566573E+03  0.47000000000E+01 0.  1.
        -11    1    1    2    0    0  0.87544844586E+01  0.22456886665E+02  0.32314284686E+02  0.40313344584E+02  0.00000000000E+00 0.  1.
         11    1    1    2    0    0 -0.93638529693E+02  0.14981669049E+03  0.79714026020E+02  0.19382347881E+03  0.00000000000E+00 0. -1.
<mgrwt>
<rscale>  0 0.22301558E+03</rscale>
<asrwt>0</asrwt>
<pdfrwt beam="2">  1        1 0.26296461E-01 0.22914413E+03</pdfrwt>
<pdfrwt beam="1">  1       -1 0.45008454E-01 0.22914413E+03</pdfrwt>
<totfact> 0.89390334E+02</totfact>
</mgrwt>
</event>
<event>
 6    1  0.5258538E-006  0.3521357E+03  0.7546771E-02  0.1061742E+00
          2   -1    0    0  501    0  0.00000000000E+00  0.00000000000E+00  0.49175478327E+03  0.49175478327E+03  0.00000000000E+00 0. -1.
         -2   -1    0    0    0  501 -0.00000000000E+00 -0.00000000000E+00 -0.63039321771E+02  0.63039321771E+02  0.00000000000E+00 0.  1.
          5    1    1    2  502    0 -0.23110225050E+01  0.71661880255E+02  0.35621623163E+03  0.36339078082E+03  0.47000000000E+01 0.  1.
         -5    1    1    2    0  502 -0.15637100426E+01  0.30904300581E+02  0.41045155818E+01  0.31566723486E+02  0.47000000000E+01 0.  1.
        -11    1    1    2    0    0 -0.71511874469E+01 -0.51410658425E+02  0.89458286896E+02  0.10342620739E+03  0.00000000000E+00 0. -1.
         11    1    1    2    0    0  0.11025919995E+02 -0.51155522411E+02 -0.21063572616E+02  0.56410393335E+02  0.00000000000E+00 0.  1.
<mgrwt>
<rscale>  0 0.35213570E+03</rscale>
<asrwt>0</asrwt>
<pdfrwt beam="1">  1        2 0.75654580E-01 0.35213570E+03</pdfrwt>
<pdfrwt beam="2">  1       -2 0.96983575E-02 0.35213570E+03</pdfrwt>
<totfact> 0.44376194E+03</totfact>
</mgrwt>
</event>
<event>
 6    1  0.5386563E-006  0.2762387E+03  0.7546771E-02  0.1097761E+00
         -1   -1    0    0    0  501 -0.00000000000E+00  0.00000000000E+00  0.10887387428E+03  0.10887387428E+03  0.00000000000E+00 0.  1.
          1   -1    0    0  501    0  0.00000000000E+00 -0.00000000000E+00 -0.17522063616E+03  0.17522063616E+03  0.00000000000E+00 0. -1.
          5    1    1    2  502    0 -0.17152569845E+02 -0.10765478464E+03 -0.23925836522E+02  0.11170630672E+03  0.47000000000E+01 0.  1.
         -5    1    1    2    0  502  0.20520740647E+02  0.25985853621E+02 -0.36226752780E+02  0.49303478600E+02  0.47000000000E+01 0.  1.
        -11    1    1    2    0    0 -0.47489087323E+02  0.37636618251E+02 -0.31644064293E+01  0.60677359173E+02  0.00000000000E+00 0. -1.
         11    1    1    2    0    0  0.44120916522E+02  0.44032312765E+02 -0.30297661483E+01  0.62407365952E+02  0.00000000000E+00 0.  1.
<mgrwt>
<rscale>  0 0.27623866E+03</rscale>
<asrwt>0</asrwt>
<pdfrwt beam="2">  1        1 0.26957021E-01 0.27623866E+03</pdfrwt>
<pdfrwt beam="1">  1       -1 0.16749827E-01 0.27623866E+03</pdfrwt>
<totfact> 0.46440295E+03</totfact>
</mgrwt>
</event>
<event>
 6    1  0.5258538E-006  0.1307857E+03  0.7546771E-02  0.1238594E+00
          1   -1    0    0  501    0  0.00000000000E+00  0.00000000000E+00  0.61130942313E+02  0.61130942313E+02  0.00000000000E+00 0. -1.
         -1   -1    0    0    0  501 -0.00000000000E+00 -0.00000000000E+00 -0.28148858251E+03  0.28148858251E+03  0.00000000000E+00 0.  1.
          5    1    1    2  502    0  0.24506681126E+02 -0.26159742301E+02 -0.53845584915E+02  0.64856353212E+02  0.47000000000E+01 0. -1.
         -5    1    1    2    0  502 -0.31667574047E+02  0.63959405250E+02  0.11865175574E+02  0.72501814856E+02  0.47000000000E+01 0. -1.
        -11    1    1    2    0    0  0.39594241384E+02 -0.17446769117E+01 -0.13324143551E+03  0.13901089161E+03  0.00000000000E+00 0.  1.
         11    1    1    2    0    0 -0.32433348462E+02 -0.36054986038E+02 -0.45135795338E+02  0.66250465142E+02  0.00000000000E+00 0. -1.
<mgrwt>
<rscale>  0 0.12277151E+03</rscale>
<asrwt>0</asrwt>
<pdfrwt beam="1">  1        1 0.94047602E-02 0.13078575E+03</pdfrwt>
<pdfrwt beam="2">  1       -1 0.43305936E-01 0.13078575E+03</pdfrwt>
<totfact> 0.35765045E+03</totfact>
</mgrwt>
</event>
<event>
 6    1  0.5258538E-006  0.1616615E+03  0.7546771E-02  0.1192830E+00
          2   -1    0    0  501    0  0.00000000000E+00  0.00000000000E+00  0.18106951556E+03  0.18106951556E+03  0.00000000000E+00 0. -1.
         -2   -1    0    0    0  501 -0.00000000000E+00 -0.00000000000E+00 -0.12812106648E+03  0.12812106648E+03  0.00000000000E+00 0.  1.
          5    1    1    2  502    0  0.65988589061E+02 -0.33000205282E+02 -0.31459524741E+02  0.80344876202E+02  0.47000000000E+01 0.  1.
         -5    1    1    2    0  502  0.36296334625E+02  0.26357364108E+02  0.74264655029E+02  0.86887648929E+02  0.47000000000E+01 0.  1.
        -11    1    1    2    0    0  0.10029163454E+02 -0.11756644517E+02 -0.18984247213E+02  0.24478652989E+02  0.00000000000E+00 0.  1.
         11    1    1    2    0    0 -0.11231408714E+03  0.18399485691E+02  0.29127566011E+02  0.11747940392E+03  0.00000000000E+00 0. -1.
<mgrwt>
<rscale>  0 0.15639292E+03</rscale>
<asrwt>0</asrwt>
<pdfrwt beam="1">  1        2 0.27856849E-01 0.16166149E+03</pdfrwt>
<pdfrwt beam="2">  1       -2 0.19710933E-01 0.16166149E+03</pdfrwt>
<totfact> 0.39796812E+03</totfact>
</mgrwt>
</event>
<event>
 6    1  0.5258538E-006  0.1358845E+03  0.7546771E-02  0.1231485E+00
         -2   -1    0    0    0  501 -0.00000000000E+00  0.00000000000E+00  0.42639623952E+02  0.42639623952E+02  0.00000000000E+00 0.  1.
          2   -1    0    0  501    0  0.00000000000E+00 -0.00000000000E+00 -0.37076238138E+03  0.37076238138E+03  0.00000000000E+00 0. -1.
          5    1    1    2  502    0  0.68513884144E+01  0.43825851069E+02 -0.24561770951E+02  0.50921678462E+02  0.47000000000E+01 0. -1.
         -5    1    1    2    0  502  0.46424885291E+02 -0.43074789696E+02 -0.21854066943E+03  0.22758036312E+03  0.47000000000E+01 0. -1.
        -11    1    1    2    0    0 -0.22313141572E+01 -0.38439797256E+02 -0.47646891712E+02  0.61260289469E+02  0.00000000000E+00 0. -1.
         11    1    1    2    0    0 -0.51044959548E+02  0.37688735884E+02 -0.37373425339E+02  0.73639674289E+02  0.00000000000E+00 0.  1.
<mgrwt>
<rscale>  0 0.12732127E+03</rscale>
<asrwt>0</asrwt>
<pdfrwt beam="2">  1        2 0.57040366E-01 0.13588448E+03</pdfrwt>
<pdfrwt beam="1">  1       -2 0.65599422E-02 0.13588448E+03</pdfrwt>
<totfact> 0.10598531E+04</totfact>
</mgrwt>
</event>
<event>
 6    1  0.5258538E-006  0.1707978E+03  0.7546771E-02  0.1183802E+00
          1   -1    0    0  501    0  0.00000000000E+00  0.00000000000E+00  0.14254355311E+03  0.14254355311E+03  0.00000000000E+00 0. -1.
         -1   -1    0    0    0  501 -0.00000000000E+00 -0.00000000000E+00 -0.17826516716E+03  0.17826516716E+03  0.00000000000E+00 0.  1.
          5    1    1    2  502    0  0.26903234285E+02  0.14845547815E+02 -0.35010757764E+02  0.46818986150E+02  0.47000000000E+01 0.  1.
         -5    1    1    2    0  502  0.30180852164E+02 -0.11627096992E+03  0.30549721141E+02  0.12403708214E+03  0.47000000000E+01 0.  1.
        -11    1    1    2    0    0 -0.20627017508E+02  0.24894811802E+02 -0.53322759771E+02  0.62358176814E+02  0.00000000000E+00 0.  1.
         11    1    1    2    0    0 -0.36457068941E+02  0.76530610305E+02  0.22062182352E+02  0.87594475165E+02  0.00000000000E+00 0. -1.
<mgrwt>
<rscale>  0 0.16441377E+03</rscale>
<asrwt>0</asrwt>
<pdfrwt beam="1">  1        1 0.21929777E-01 0.17079782E+03</pdfrwt>
<pdfrwt beam="2">  1       -1 0.27425411E-01 0.17079782E+03</pdfrwt>
<totfact> 0.26407369E+03</totfact>
</mgrwt>
</event>
<event>
 6    1  0.5258538E-006  0.1284606E+03  0.7546771E-02  0.1244011E+00
          3   -1    0    0  501    0  0.00000000000E+00  0.00000000000E+00  0.13919678285E+03  0.13919678285E+03  0.00000000000E+00 0. -1.
         -3   -1    0    0    0  501 -0.00000000000E+00 -0.00000000000E+00 -0.11283059057E+03  0.11283059057E+03  0.00000000000E+00 0.  1.
          5    1    1    2  502    0 -0.73467153496E+02  0.27006472210E+02  0.33638579020E+02  0.85325354863E+02  0.47000000000E+01 0. -1.
         -5    1    1    2    0  502  0.45496033838E+02 -0.17290696706E+02  0.36647981642E+02  0.61106643223E+02  0.47000000000E+01 0. -1.
        -11    1    1    2    0    0  0.20683567621E+02  0.23716432102E+02  0.16967515356E+02  0.35751583161E+02  0.00000000000E+00 0. -1.
         11    1    1    2    0    0  0.72875520373E+01 -0.33432207607E+02 -0.60887883734E+02  0.69843792178E+02  0.00000000000E+00 0.  1.
<mgrwt>
<rscale>  0 0.11944749E+03</rscale>
<asrwt>0</asrwt>
<pdfrwt beam="1">  1        3 0.21414890E-01 0.12846061E+03</pdfrwt>
<pdfrwt beam="2">  1       -3 0.17358552E-01 0.12846061E+03</pdfrwt>
<totfact> 0.13045641E+03</totfact>
</mgrwt>
</event>
<event>
 6    1  0.5258538E-006  0.1384823E+03  0.7546771E-02  0.1227100E+00
          1   -1    0    0  501    0  0.00000000000E+00  0.00000000000E+00  0.33838120469E+03  0.33838120469E+03  0.00000000000E+00 0. -1.
         -1   -1    0    0    0  501 -0.00000000000E+00 -0.00000000000E+00 -0.49297231326E+02  0.49297231326E+02  0.00000000000E+00 0.  1.
          5    1    1    2  502    0 -0.56825143402E+02 -0.79492026554E+02  0.13685989271E+03  0.16822841449E+03  0.47000000000E+01 0.  1.
         -5    1    1    2    0  502  0.17639700274E+02  0.34577325906E+02  0.80571260856E+02  0.89557627081E+02  0.47000000000E+01 0.  1.
        -11    1    1    2    0    0  0.60725475933E+02  0.17139031785E+02  0.70656072409E+02  0.94729142327E+02  0.00000000000E+00 0.  1.
         11    1    1    2    0    0 -0.21540032805E+02  0.27775668863E+02  0.99674738430E+00  0.35163252116E+02  0.00000000000E+00 0. -1.
<mgrwt>
<rscale>  0 0.13024002E+03</rscale>
<asrwt>0</asrwt>
<pdfrwt beam="1">  1        1 0.52058645E-01 0.13848226E+03</pdfrwt>
<pdfrwt beam="2">  1       -1 0.75841897E-02 0.13848226E+03</pdfrwt>
<totfact> 0.67111552E+03</totfact>
</mgrwt>
</event>
<event>
 6    1  0.5665351E-006  0.1911703E+03  0.7546771E-02  0.1162295E+00
          1   -1    0    0  501    0  0.00000000000E+00  0.00000000000E+00  0.28591422715E+03  0.28591422715E+03  0.00000000000E+00 0. -1.
         -1   -1    0    0    0  501 -0.00000000000E+00 -0.00000000000E+00 -0.11455019119E+03  0.11455019119E+03  0.00000000000E+00 0.  1.
          5    1    1    2  502    0  0.84863741932E+01 -0.51498285440E+02 -0.31039577973E+02  0.60906792322E+02  0.47000000000E+01 0.  1.
         -5    1    1    2    0  502  0.18242277189E+02 -0.90649748385E+02  0.11566290126E+03  0.14815584459E+03  0.47000000000E+01 0.  1.
        -11    1    1    2    0    0  0.28477586960E+02  0.30092579196E+02  0.41228154795E+01  0.41635728517E+02  0.00000000000E+00 0. -1.
         11    1    1    2    0    0 -0.55206238342E+02  0.11205545463E+03  0.82617897195E+02  0.14976605290E+03  0.00000000000E+00 0.  1.
<mgrwt>
<rscale>  0 0.18581119E+03</rscale>
<asrwt>0</asrwt>
<pdfrwt beam="1">  1        1 0.43986804E-01 0.19117029E+03</pdfrwt>
<pdfrwt beam="2">  1       -1 0.17623106E-01 0.19117029E+03</pdfrwt>
<totfact> 0.22783515E+03</totfact>
</mgrwt>
</event>
<event>
 6    1  0.5258538E-006  0.1270547E+03  0.7546771E-02  0.1249098E+00
         -2   -1    0    0    0  501 -0.00000000000E+00  0.00000000000E+00  0.22342065830E+02  0.22342065830E+02  0.00000000000E+00 0.  1.
          2   -1    0    0  501    0  0.00000000000E+00 -0.00000000000E+00 -0.73438976877E+03  0.73438976877E+03  0.00000000000E+00 0. -1.
          5    1    1    2  502    0 -0.37285886704E+02  0.28904893288E+01 -0.58222174515E+03  0.58344052208E+03  0.47000000000E+01 0. -1.
         -5    1    1    2    0  502  0.20120227748E+02  0.11979711139E+02 -0.17542842354E+02  0.29634074331E+02  0.47000000000E+01 0. -1.
        -11    1    1    2    0    0 -0.16920261274E+02 -0.57970034434E+01 -0.10640527006E+03  0.10789801660E+03  0.00000000000E+00 0. -1.
         11    1    1    2    0    0  0.34085920231E+02 -0.90731970240E+01 -0.58778453747E+01  0.35759221586E+02  0.00000000000E+00 0.  1.
<mgrwt>
<rscale>  0 0.11643455E+03</rscale>
<asrwt>0</asrwt>
<pdfrwt beam="2">  1        2 0.11298304E+00 0.12705471E+03</pdfrwt>
<pdfrwt beam="1">  1       -2 0.34372409E-02 0.12705471E+03</pdfrwt>
<totfact> 0.12966351E+04</totfact>
</mgrwt>
</event>
<event>
 6    1  0.5258538E-006  0.4006313E+03  0.7546771E-02  0.1043561E+00
          1   -1    0    0  501    0  0.00000000000E+00  0.00000000000E+00  0.18329046806E+04  0.18329046806E+04  0.00000000000E+00 0. -1.
         -1   -1    0    0    0  501 -0.00000000000E+00 -0.00000000000E+00 -0.21892219135E+02  0.21892219135E+02  0.00000000000E+00 0.  1.
          5    1    1    2  502    0 -0.16269030597E+02  0.77323889256E+02  0.16417873125E+04  0.16436944164E+04  0.47000000000E+01 0. -1.
         -5    1    1    2    0  502  0.79510432064E+01 -0.25645489299E+01  0.78749229966E+01  0.12405660461E+02  0.47000000000E+01 0. -1.
        -11    1    1    2    0    0  0.34986520188E+02 -0.19592245362E+02  0.11522117498E+03  0.12199931080E+03  0.00000000000E+00 0. -1.
         11    1    1    2    0    0 -0.26668532798E+02 -0.55167094964E+02  0.46129051066E+02  0.76697512088E+02  0.00000000000E+00 0.  1.
<mgrwt>
<rscale>  0 0.40063126E+03</rscale>
<asrwt>0</asrwt>
<pdfrwt beam="1">  1        1 0.28198521E+00 0.40063126E+03</pdfrwt>
<pdfrwt beam="2">  1       -1 0.33680352E-02 0.40063126E+03</pdfrwt>
<totfact> 0.13660342E+03</totfact>
</mgrwt>
</event>
<event>
 6    1  0.5258538E-006  0.1740420E+03  0.7546771E-02  0.1178553E+00
         -2   -1    0    0    0  501 -0.00000000000E+00  0.00000000000E+00  0.41244904406E+03  0.41244904406E+03  0.00000000000E+00 0.  1.
          2   -1    0    0  501    0  0.00000000000E+00 -0.00000000000E+00 -0.67339840203E+02  0.67339840203E+02  0.00000000000E+00 0. -1.
          5    1    1    2  502    0  0.10237812883E+02  0.90394587319E+02  0.99111386122E+02  0.13461482492E+03  0.47000000000E+01 0.  1.
         -5    1    1    2    0  502  0.79457028887E+02 -0.90439660983E+01  0.48897577766E+02  0.93852415386E+02  0.47000000000E+01 0.  1.
        -11    1    1    2    0    0 -0.51939985013E+02  0.13610490435E+02  0.65044109574E+02  0.84343012060E+02  0.00000000000E+00 0.  1.
         11    1    1    2    0    0 -0.37754856757E+02 -0.94961111656E+02  0.13205613040E+03  0.16697863190E+03  0.00000000000E+00 0. -1.
<mgrwt>
<rscale>  0 0.16932567E+03</rscale>
<asrwt>0</asrwt>
<pdfrwt beam="2">  1        2 0.10359976E-01 0.17404203E+03</pdfrwt>
<pdfrwt beam="1">  1       -2 0.63453698E-01 0.17404203E+03</pdfrwt>
<totfact> 0.14158381E+03</totfact>
</mgrwt>
</event>
<event>
 6    1  0.5258538E-006  0.1326163E+03  0.7546771E-02  0.1235937E+00
         -2   -1    0    0    0  501 -0.00000000000E+00  0.00000000000E+00  0.39535254907E+02  0.39535254907E+02  0.00000000000E+00 0.  1.
          2   -1    0    0  501    0  0.00000000000E+00 -0.00000000000E+00 -0.40874240311E+03  0.40874240311E+03  0.00000000000E+00 0. -1.
          5    1    1    2  502    0 -0.12255896363E+00  0.32496031480E+02 -0.18081760633E+02  0.37483958572E+02  0.47000000000E+01 0.  1.
         -5    1    1    2    0  502  0.27947598010E+02 -0.66989880880E+02 -0.27053353821E+03  0.28014138871E+03  0.47000000000E+01 0.  1.
        -11    1    1    2    0    0 -0.19852756775E+02  0.65405531700E+00  0.17567846870E+02  0.26517710753E+02  0.00000000000E+00 0.  1.
         11    1    1    2    0    0 -0.79722822717E+01  0.33839794082E+02 -0.98159696240E+02  0.10413459999E+03  0.00000000000E+00 0. -1.
<mgrwt>
<rscale>  0 0.12444645E+03</rscale>
<asrwt>0</asrwt>
<pdfrwt beam="2">  1        2 0.62883447E-01 0.13261625E+03</pdfrwt>
<pdfrwt beam="1">  1       -2 0.60823468E-02 0.13261625E+03</pdfrwt>
<totfact> 0.10696273E+04</totfact>
</mgrwt>
</event>
<event>
 6    1  0.5258538E-006  0.1274383E+03  0.7546771E-02  0.1245940E+00
          1   -1    0    0  501    0  0.00000000000E+00  0.00000000000E+00  0.57793689242E+02  0.57793689242E+02  0.00000000000E+00 0. -1.
         -1   -1    0    0    0  501 -0.00000000000E+00 -0.00000000000E+00 -0.22057556189E+03  0.22057556189E+03  0.00000000000E+00 0.  1.
          5    1    1    2  502    0  0.46347178800E+02 -0.39736732532E+02 -0.71622325939E+02  0.94228002568E+02  0.47000000000E+01 0. -1.
         -5    1    1    2    0  502 -0.22038813879E+02  0.44721185675E+02  0.36387744620E+01  0.50209804271E+02  0.47000000000E+01 0. -1.
        -11    1    1    2    0    0 -0.19007620144E+02 -0.24371124714E+02 -0.10634995364E+03  0.11074996154E+03  0.00000000000E+00 0.  1.
         11    1    1    2    0    0 -0.53007447775E+01  0.19386671571E+02  0.11551632466E+02  0.23181482749E+02  0.00000000000E+00 0. -1.
<mgrwt>
<rscale>  0 0.11829281E+03</rscale>
<asrwt>0</asrwt>
<pdfrwt beam="1">  1        1 0.88913367E-02 0.12743829E+03</pdfrwt>
<pdfrwt beam="2">  1       -1 0.33934702E-01 0.12743829E+03</pdfrwt>
<totfact> 0.58788884E+03</totfact>
</mgrwt>
</event>
<event>
 6    1  0.5258538E-006  0.1442880E+03  0.7546771E-02  0.1213835E+00
          2   -1    0    0  501    0  0.00000000000E+00  0.00000000000E+00  0.25797634848E+03  0.25797634848E+03  0.00000000000E+00 0. -1.
         -2   -1    0    0    0  501 -0.00000000000E+00 -0.00000000000E+00 -0.72859298581E+02  0.72859298581E+02  0.00000000000E+00 0.  1.
          5    1    1    2  502    0  0.15904652247E+02 -0.42675221113E+02  0.35601237545E+02  0.57997160059E+02  0.47000000000E+01 0.  1.
         -5    1    1    2    0  502 -0.87973656888E+02  0.43742774255E+02  0.88750363755E+02  0.13248211831E+03  0.47000000000E+01 0.  1.
        -11    1    1    2    0    0  0.91291651338E+02  0.81744407370E+01  0.19212185642E+02  0.93648786231E+02  0.00000000000E+00 0.  1.
         11    1    1    2    0    0 -0.19222646696E+02 -0.92419938786E+01  0.41553262958E+02  0.46707582460E+02  0.00000000000E+00 0. -1.
<mgrwt>
<rscale>  0 0.13962496E+03</rscale>
<asrwt>0</asrwt>
<pdfrwt beam="1">  1        2 0.39688669E-01 0.14428803E+03</pdfrwt>
<pdfrwt beam="2">  1       -2 0.11209123E-01 0.14428803E+03</pdfrwt>
<totfact> 0.68019555E+03</totfact>
</mgrwt>
</event>
<event>
 6    1  0.5258538E-006  0.3489371E+03  0.7546771E-02  0.1063052E+00
          1   -1    0    0  501    0  0.00000000000E+00  0.00000000000E+00  0.44214805711E+03  0.44214805711E+03  0.00000000000E+00 0. -1.
         -1   -1    0    0    0  501 -0.00000000000E+00 -0.00000000000E+00 -0.68844065338E+02  0.68844065338E+02  0.00000000000E+00 0.  1.
          5    1    1    2  502    0 -0.20255977230E+02  0.86500852801E+01  0.17726594337E+01  0.22591168858E+02  0.47000000000E+01 0.  1.
         -5    1    1    2    0  502  0.93640300031E+02  0.90876621029E+02  0.28955283603E+03  0.31763186379E+03  0.47000000000E+01 0.  1.
        -11    1    1    2    0    0 -0.68914584011E+02 -0.25947471426E+02  0.56356237275E+02  0.92728186883E+02  0.00000000000E+00 0.  1.
         11    1    1    2    0    0 -0.44697387903E+01 -0.73579234883E+02  0.25622259036E+02  0.78040902922E+02  0.00000000000E+00 0. -1.
<mgrwt>
<rscale>  0 0.34893707E+03</rscale>
<asrwt>0</asrwt>
<pdfrwt beam="1">  1        1 0.68022776E-01 0.34893707E+03</pdfrwt>
<pdfrwt beam="2">  1       -1 0.10591395E-01 0.34893707E+03</pdfrwt>
<totfact> 0.29710759E+03</totfact>
</mgrwt>
</event>
<event>
 6    1  0.5258538E-006  0.1668648E+03  0.7546771E-02  0.1188058E+00
          3   -1    0    0  501    0  0.00000000000E+00  0.00000000000E+00  0.35388219665E+03  0.35388219665E+03  0.00000000000E+00 0. -1.
         -3   -1    0    0    0  501 -0.00000000000E+00 -0.00000000000E+00 -0.85394951796E+02  0.85394951796E+02  0.00000000000E+00 0.  1.
          5    1    1    2  502    0 -0.40618962039E+02  0.51095817378E+02  0.27598335090E+02  0.71024226362E+02  0.47000000000E+01 0.  1.
         -5    1    1    2    0  502  0.19978411254E+02  0.57653818581E+02  0.21413597089E+03  0.22270923587E+03  0.47000000000E+01 0.  1.
        -11    1    1    2    0    0  0.53805280518E+02 -0.86425454222E+02  0.27864191330E+02  0.10554989582E+03  0.00000000000E+00 0. -1.
         11    1    1    2    0    0 -0.33164729733E+02 -0.22324181737E+02 -0.11112524496E+01  0.39993790399E+02  0.00000000000E+00 0.  1.
<mgrwt>
<rscale>  0 0.16056690E+03</rscale>
<asrwt>0</asrwt>
<pdfrwt beam="1">  1        3 0.54443414E-01 0.16686483E+03</pdfrwt>
<pdfrwt beam="2">  1       -3 0.13137685E-01 0.16686483E+03</pdfrwt>
<totfact> 0.37444994E+02</totfact>
</mgrwt>
</event>
<event>
 6    1  0.5258538E-006  0.1924400E+03  0.7546771E-02  0.1160656E+00
         -1   -1    0    0    0  501 -0.00000000000E+00  0.00000000000E+00  0.39836320803E+02  0.39836320803E+02  0.00000000000E+00 0.  1.
          1   -1    0    0  501    0  0.00000000000E+00 -0.00000000000E+00 -0.91108282324E+03  0.91108282324E+03  0.00000000000E+00 0. -1.
          5    1    1    2  502    0  0.51526576540E+02 -0.10692126315E+02 -0.21543287266E+03  0.22181686653E+03  0.47000000000E+01 0. -1.
         -5    1    1    2    0  502  0.27431921904E+02  0.13387134170E+03 -0.37194331939E+03  0.39628016517E+03  0.47000000000E+01 0. -1.
        -11    1    1    2    0    0 -0.18622436480E+02 -0.33275133533E+02 -0.17563671372E+03  0.17972836409E+03  0.00000000000E+00 0. -1.
         11    1    1    2    0    0 -0.60336061964E+02 -0.89904081847E+02 -0.10823359666E+03  0.15309374824E+03  0.00000000000E+00 0.  1.
<mgrwt>
<rscale>  0 0.18758632E+03</rscale>
<asrwt>0</asrwt>
<pdfrwt beam="2">  1        1 0.14016659E+00 0.19243999E+03</pdfrwt>
<pdfrwt beam="1">  1       -1 0.61286647E-02 0.19243999E+03</pdfrwt>
<totfact> 0.24069371E+03</totfact>
</mgrwt>
</event>
<event>
 6    1  0.5258538E-006  0.1363300E+03  0.7546771E-02  0.1229693E+00
         -2   -1    0    0    0  501 -0.00000000000E+00  0.00000000000E+00  0.24126806011E+02  0.24126806011E+02  0.00000000000E+00 0.  1.
          2   -1    0    0  501    0  0.00000000000E+00 -0.00000000000E+00 -0.67019902085E+03  0.67019902085E+03  0.00000000000E+00 0. -1.
          5    1    1    2  502    0  0.24919340556E+02 -0.38143318465E+02 -0.19478029546E+03  0.20009332767E+03  0.47000000000E+01 0.  1.
         -5    1    1    2    0  502 -0.79321618949E+02  0.39248892477E+02 -0.26074807029E+03  0.27539796832E+03  0.47000000000E+01 0.  1.
        -11    1    1    2    0    0  0.30516560838E+02 -0.31502898203E+02 -0.28648144306E+02  0.52387109605E+02  0.00000000000E+00 0.  1.
         11    1    1    2    0    0  0.23885717555E+02  0.30397324192E+02 -0.16189570478E+03  0.16644742126E+03  0.00000000000E+00 0. -1.
<mgrwt>
<rscale>  0 0.12850343E+03</rscale>
<asrwt>0</asrwt>
<pdfrwt beam="2">  1        2 0.10310753E+00 0.13633004E+03</pdfrwt>
<pdfrwt beam="1">  1       -2 0.37118166E-02 0.13633004E+03</pdfrwt>
<totfact> 0.12965567E+04</totfact>
</mgrwt>
</event>
<event>
 6    1  0.5258538E-006  0.1801355E+03  0.7546771E-02  0.1173113E+00
         -2   -1    0    0    0  501 -0.00000000000E+00  0.00000000000E+00  0.52985074612E+02  0.52985074612E+02  0.00000000000E+00 0. -1.
          2   -1    0    0  501    0  0.00000000000E+00 -0.00000000000E+00 -0.69288161712E+03  0.69288161712E+03  0.00000000000E+00 0.  1.
          5    1    1    2  502    0  0.13059212379E+02  0.33833053105E+02 -0.14203611970E+03  0.14666822358E+03  0.47000000000E+01 0. -1.
         -5    1    1    2    0  502 -0.14084639782E+03 -0.11606556145E+02 -0.36673179227E+03  0.39304798357E+03  0.47000000000E+01 0. -1.
        -11    1    1    2    0    0  0.10031712243E+03 -0.53513748554E+02 -0.74768202857E+02  0.13607913321E+03  0.00000000000E+00 0.  1.
         11    1    1    2    0    0  0.27470063017E+02  0.31287251594E+02 -0.56360427678E+02  0.70071351368E+02  0.00000000000E+00 0. -1.
<mgrwt>
<rscale>  0 0.17462106E+03</rscale>
<asrwt>0</asrwt>
<pdfrwt beam="2">  1        2 0.10659716E+00 0.18013549E+03</pdfrwt>
<pdfrwt beam="1">  1       -2 0.81515508E-02 0.18013549E+03</pdfrwt>
<totfact> 0.38372009E+03</totfact>
</mgrwt>
</event>
<event>
 6    1  0.5258538E-006  0.1465253E+03  0.7546771E-02  0.1208578E+00
         -2   -1    0    0    0  501 -0.00000000000E+00  0.00000000000E+00  0.20186892396E+02  0.20186892396E+02  0.00000000000E+00 0.  1.
          2   -1    0    0  501    0  0.00000000000E+00 -0.00000000000E+00 -0.98501153514E+03  0.98501153514E+03  0.00000000000E+00 0. -1.
          5    1    1    2  502    0 -0.25463842110E+02 -0.13122164626E+02 -0.24103034403E+03  0.24277214668E+03  0.47000000000E+01 0. -1.
         -5    1    1    2    0  502  0.85694476716E+02 -0.58405440285E+02 -0.28643499167E+03  0.30466675770E+03  0.47000000000E+01 0.  1.
        -11    1    1    2    0    0 -0.27134719247E+01  0.23672691862E+02 -0.13580291334E+02  0.27425965482E+02  0.00000000000E+00 0.  1.
         11    1    1    2    0    0 -0.57517162682E+02  0.47854913048E+02 -0.42377901571E+03  0.43033355768E+03  0.00000000000E+00 0. -1.
<mgrwt>
<rscale>  0 0.14358993E+03</rscale>
<asrwt>0</asrwt>
<pdfrwt beam="2">  1        2 0.15154028E+00 0.14652533E+03</pdfrwt>
<pdfrwt beam="1">  1       -2 0.31056749E-02 0.14652533E+03</pdfrwt>
<totfact> 0.10438088E+04</totfact>
</mgrwt>
</event>
<event>
 6    1  0.5258538E-006  0.1544784E+03  0.7546771E-02  0.1202449E+00
          2   -1    0    0  501    0  0.00000000000E+00  0.00000000000E+00  0.13019063863E+03  0.13019063863E+03  0.00000000000E+00 0. -1.
         -2   -1    0    0    0  501 -0.00000000000E+00 -0.00000000000E+00 -0.16206059068E+03  0.16206059068E+03  0.00000000000E+00 0.  1.
          5    1    1    2  502    0 -0.49918445970E+02  0.40272071855E+02  0.44296205997E+02  0.78089275098E+02  0.47000000000E+01 0. -1.
         -5    1    1    2    0  502 -0.39733305963E+02 -0.54480002400E+02 -0.36055514587E+02  0.76608722717E+02  0.47000000000E+01 0. -1.
        -11    1    1    2    0    0  0.10847617451E+03  0.93512057870E+00 -0.31470467230E+02  0.11295284501E+03  0.00000000000E+00 0.  1.
         11    1    1    2    0    0 -0.18824422582E+02  0.13272809966E+02 -0.86401762359E+01  0.24600386487E+02  0.00000000000E+00 0. -1.
<mgrwt>
<rscale>  0 0.14840352E+03</rscale>
<asrwt>0</asrwt>
<pdfrwt beam="1">  1        2 0.20029329E-01 0.15447835E+03</pdfrwt>
<pdfrwt beam="2">  1       -2 0.24932399E-01 0.15447835E+03</pdfrwt>
<totfact> 0.38258822E+03</totfact>
</mgrwt>
</event>
<event>
 6    1  0.5258538E-006  0.1372579E+03  0.7546771E-02  0.1228792E+00
          2   -1    0    0  501    0  0.00000000000E+00  0.00000000000E+00  0.42462339350E+03  0.42462339350E+03  0.00000000000E+00 0. -1.
         -2   -1    0    0    0  501 -0.00000000000E+00 -0.00000000000E+00 -0.35449007090E+02  0.35449007090E+02  0.00000000000E+00 0.  1.
          5    1    1    2  502    0  0.57573639967E+00  0.38618789145E+02  0.21710807002E+03  0.22056687515E+03  0.47000000000E+01 0. -1.
         -5    1    1    2    0  502 -0.47738513606E+02 -0.71415968884E+01  0.18108404879E+02  0.51768449993E+02  0.47000000000E+01 0. -1.
        -11    1    1    2    0    0  0.52189563827E+02  0.30472664387E+01  0.32940284377E+02  0.61790765815E+02  0.00000000000E+00 0.  1.
         11    1    1    2    0    0 -0.50267866209E+01 -0.34524458695E+02  0.12101762713E+03  0.12594630963E+03  0.00000000000E+00 0. -1.
<mgrwt>
<rscale>  0 0.12910380E+03</rscale>
<asrwt>0</asrwt>
<pdfrwt beam="1">  1        2 0.65326672E-01 0.13725793E+03</pdfrwt>
<pdfrwt beam="2">  1       -2 0.54536937E-02 0.13725793E+03</pdfrwt>
<totfact> 0.12140383E+04</totfact>
</mgrwt>
</event>
<event>
 6    1  0.5258538E-006  0.3030960E+03  0.7546771E-02  0.1083703E+00
          1   -1    0    0  501    0  0.00000000000E+00  0.00000000000E+00  0.40013004114E+02  0.40013004114E+02  0.00000000000E+00 0. -1.
         -1   -1    0    0    0  501 -0.00000000000E+00 -0.00000000000E+00 -0.57398316807E+03  0.57398316807E+03  0.00000000000E+00 0.  1.
          5    1    1    2  502    0 -0.82704604643E+02  0.73980028902E+02 -0.13124149057E+03  0.17192880839E+03  0.47000000000E+01 0.  1.
         -5    1    1    2    0  502  0.39818379368E+02  0.10898001834E+01 -0.34066459196E+02  0.52624183054E+02  0.47000000000E+01 0.  1.
        -11    1    1    2    0    0 -0.11120175015E+02 -0.65855632151E+02 -0.15321345473E+03  0.16713762379E+03  0.00000000000E+00 0.  1.
         11    1    1    2    0    0  0.54006400289E+02 -0.92141969347E+01 -0.21544875946E+03  0.22230555695E+03  0.00000000000E+00 0. -1.
<mgrwt>
<rscale>  0 0.30309596E+03</rscale>
<asrwt>0</asrwt>
<pdfrwt beam="1">  1        1 0.61558473E-02 0.30309596E+03</pdfrwt>
<pdfrwt beam="2">  1       -1 0.88305096E-01 0.30309596E+03</pdfrwt>
<totfact> 0.16527968E+03</totfact>
</mgrwt>
</event>
<event>
 6    1  0.5258538E-006  0.1372564E+03  0.7546771E-02  0.1229246E+00
         -2   -1    0    0    0  501 -0.00000000000E+00  0.00000000000E+00  0.60013028106E+02  0.60013028106E+02  0.00000000000E+00 0. -1.
          2   -1    0    0  501    0  0.00000000000E+00 -0.00000000000E+00 -0.42826447640E+03  0.42826447640E+03  0.00000000000E+00 0.  1.
          5    1    1    2  502    0  0.48200804530E+02 -0.16799542361E+02 -0.39666914702E+02  0.64815864592E+02  0.47000000000E+01 0.  1.
         -5    1    1    2    0  502 -0.17151777976E+01 -0.15657343065E+02 -0.31584026955E+03  0.31626770321E+03  0.47000000000E+01 0.  1.
        -11    1    1    2    0    0 -0.29713112707E+02  0.64016644356E+02 -0.60750866612E+01  0.70837183028E+02  0.00000000000E+00 0.  1.
         11    1    1    2    0    0 -0.16772514025E+02 -0.31559758931E+02 -0.66691773784E+01  0.36356753670E+02  0.00000000000E+00 0. -1.
<mgrwt>
<rscale>  0 0.12880101E+03</rscale>
<asrwt>0</asrwt>
<pdfrwt beam="2">  1        2 0.65886844E-01 0.13725643E+03</pdfrwt>
<pdfrwt beam="1">  1       -2 0.92327733E-02 0.13725643E+03</pdfrwt>
<totfact> 0.53665868E+03</totfact>
</mgrwt>
</event>
<event>
 6    1  0.5258538E-006  0.1970442E+03  0.7546771E-02  0.1156982E+00
          1   -1    0    0  501    0  0.00000000000E+00  0.00000000000E+00  0.72541788739E+02  0.72541788739E+02  0.00000000000E+00 0. -1.
         -1   -1    0    0    0  501 -0.00000000000E+00 -0.00000000000E+00 -0.69518391051E+03  0.69518391051E+03  0.00000000000E+00 0.  1.
          5    1    1    2  502    0  0.13058260955E+03  0.18951562788E+01 -0.83345072075E+02  0.15499645342E+03  0.47000000000E+01 0.  1.
         -5    1    1    2    0  502  0.62640381336E+01  0.64999629130E+02 -0.26795722000E+02  0.70741011289E+02  0.47000000000E+01 0.  1.
        -11    1    1    2    0    0 -0.30442917129E+02 -0.57166630508E+02 -0.25721121834E+03  0.26524027916E+03  0.00000000000E+00 0.  1.
         11    1    1    2    0    0 -0.10640373055E+03 -0.97281549001E+01 -0.25529010936E+03  0.27674795538E+03  0.00000000000E+00 0. -1.
<mgrwt>
<rscale>  0 0.19164904E+03</rscale>
<asrwt>0</asrwt>
<pdfrwt beam="1">  1        1 0.11160275E-01 0.19704418E+03</pdfrwt>
<pdfrwt beam="2">  1       -1 0.10695137E+00 0.19704418E+03</pdfrwt>
<totfact> 0.47924786E+02</totfact>
</mgrwt>
</event>
<event>
 6    1  0.5258538E-006  0.3401751E+03  0.7546771E-02  0.1066721E+00
         -3   -1    0    0    0  501 -0.00000000000E+00  0.00000000000E+00  0.52732297337E+02  0.52732297337E+02  0.00000000000E+00 0.  1.
          3   -1    0    0  501    0  0.00000000000E+00 -0.00000000000E+00 -0.54861575707E+03  0.54861575707E+03  0.00000000000E+00 0. -1.
          5    1    1    2  502    0  0.27100192540E+02 -0.11040082375E+02 -0.24054863160E+03  0.24236756801E+03  0.47000000000E+01 0. -1.
         -5    1    1    2    0  502  0.36829660519E+02  0.96217624785E+02 -0.15792433579E+03  0.18861718121E+03  0.47000000000E+01 0. -1.
        -11    1    1    2    0    0 -0.71303621837E+02 -0.32057342084E+02 -0.28878645900E+02  0.83341801382E+02  0.00000000000E+00 0.  1.
         11    1    1    2    0    0  0.73737687778E+01 -0.53120200326E+02 -0.68531846438E+02  0.87021503807E+02  0.00000000000E+00 0. -1.
<mgrwt>
<rscale>  0 0.34017507E+03</rscale>
<asrwt>0</asrwt>
<pdfrwt beam="2">  1        3 0.84402422E-01 0.34017507E+03</pdfrwt>
<pdfrwt beam="1">  1       -3 0.81126614E-02 0.34017507E+03</pdfrwt>
<totfact> 0.35698505E+02</totfact>
</mgrwt>
</event>
<event>
 6    1  0.5258538E-006  0.1114667E+03  0.7546771E-02  0.1267081E+00
          2   -1    0    0  501    0  0.00000000000E+00  0.00000000000E+00  0.97018393029E+03  0.97018393029E+03  0.00000000000E+00 0. -1.
         -2   -1    0    0    0  501 -0.00000000000E+00 -0.00000000000E+00 -0.11715753329E+02  0.11715753329E+02  0.00000000000E+00 0.  1.
          5    1    1    2  502    0 -0.22062415572E+02  0.34392651526E+02  0.58756385131E+03  0.58900167574E+03  0.47000000000E+01 0. -1.
         -5    1    1    2    0  502  0.62745207345E+01 -0.33237974741E+02  0.69352915395E+02  0.77304912193E+02  0.47000000000E+01 0.  1.
        -11    1    1    2    0    0  0.16239349252E+02 -0.42748647768E+02  0.10244429171E+03  0.11218732662E+03  0.00000000000E+00 0.  1.
         11    1    1    2    0    0 -0.45145441443E+00  0.41593970984E+02  0.19910711854E+03  0.20340576906E+03  0.00000000000E+00 0. -1.
<mgrwt>
<rscale>  0 0.10655766E+03</rscale>
<asrwt>0</asrwt>
<pdfrwt beam="1">  1        2 0.14925900E+00 0.11146672E+03</pdfrwt>
<pdfrwt beam="2">  1       -2 0.18024244E-02 0.11146672E+03</pdfrwt>
<totfact> 0.23100204E+04</totfact>
</mgrwt>
</event>
<event>
 6    1  0.5258538E-006  0.1572834E+03  0.7546771E-02  0.1199922E+00
          2   -1    0    0  501    0  0.00000000000E+00  0.00000000000E+00  0.18902767003E+03  0.18902767003E+03  0.00000000000E+00 0. -1.
         -2   -1    0    0    0  501 -0.00000000000E+00 -0.00000000000E+00 -0.15271962572E+03  0.15271962572E+03  0.00000000000E+00 0.  1.
          5    1    1    2  502    0  0.26629191629E+02 -0.11335806926E+02  0.60215068880E+02  0.66974315119E+02  0.47000000000E+01 0.  1.
         -5    1    1    2    0  502 -0.10707345851E+03 -0.40053934523E+02  0.48763020126E+02  0.12437429526E+03  0.47000000000E+01 0.  1.
        -11    1    1    2    0    0  0.14082364453E+02 -0.24103012582E+02 -0.30643873037E+02  0.41452565166E+02  0.00000000000E+00 0.  1.
         11    1    1    2    0    0  0.66361902432E+02  0.75492754031E+02 -0.42026171660E+02  0.10894612022E+03  0.00000000000E+00 0. -1.
<mgrwt>
<rscale>  0 0.15044911E+03</rscale>
<asrwt>0</asrwt>
<pdfrwt beam="1">  1        2 0.29081180E-01 0.15728340E+03</pdfrwt>
<pdfrwt beam="2">  1       -2 0.23495327E-01 0.15728340E+03</pdfrwt>
<totfact> 0.28053994E+03</totfact>
</mgrwt>
</event>
<event>
 6    1  0.5258538E-006  0.2279339E+03  0.7546771E-02  0.1136433E+00
          1   -1    0    0  501    0  0.00000000000E+00  0.00000000000E+00  0.15638777066E+03  0.15638777066E+03  0.00000000000E+00 0. -1.
         -1   -1    0    0    0  501 -0.00000000000E+00 -0.00000000000E+00 -0.95342982941E+03  0.95342982941E+03  0.00000000000E+00 0.  1.
          5    1    1    2  502    0  0.13932546762E+03  0.18075811643E+01  0.70441831041E+02  0.15620177604E+03  0.47000000000E+01 0. -1.
         -5    1    1    2    0  502  0.13736123714E+01  0.77721039488E+02 -0.12769489564E+02  0.78915123099E+02  0.47000000000E+01 0.  1.
        -11    1    1    2    0    0 -0.11598164505E+03 -0.21505985897E+02 -0.64540893263E+03  0.65609979404E+03  0.00000000000E+00 0.  1.
         11    1    1    2    0    0 -0.24717434940E+02 -0.58022634755E+02 -0.20930546759E+03  0.21860090690E+03  0.00000000000E+00 0. -1.
<mgrwt>
<rscale>  0 0.21661356E+03</rscale>
<asrwt>0</asrwt>
<pdfrwt beam="1">  1        1 0.24059657E-01 0.22793389E+03</pdfrwt>
<pdfrwt beam="2">  1       -1 0.14668151E+00 0.22793389E+03</pdfrwt>
<totfact> 0.81721914E+01</totfact>
</mgrwt>
</event>
<event>
 6    1  0.5258538E-006  0.2917617E+03  0.7546771E-02  0.1089433E+00
          1   -1    0    0  501    0  0.00000000000E+00  0.00000000000E+00  0.22017310521E+03  0.22017310521E+03  0.00000000000E+00 0. -1.
         -1   -1    0    0    0  501 -0.00000000000E+00 -0.00000000000E+00 -0.96656781397E+02  0.96656781397E+02  0.00000000000E+00 0.  1.
          5    1    1    2  502    0 -0.88223077464E+02  0.42939378400E+02 -0.80359101595E+01  0.98558446957E+02  0.47000000000E+01 0.  1.
         -5    1    1    2    0  502 -0.18472397855E+01 -0.76370899032E+01  0.70998650770E+02  0.71586561925E+02  0.47000000000E+01 0.  1.
        -11    1    1    2    0    0  0.55503591654E+02 -0.10549735250E+02  0.81596633781E+02  0.99246945770E+02  0.00000000000E+00 0. -1.
         11    1    1    2    0    0  0.34566725595E+02 -0.24752553247E+02 -0.21043050577E+02  0.47437931956E+02  0.00000000000E+00 0.  1.
<mgrwt>
<rscale>  0 0.29176171E+03</rscale>
<asrwt>0</asrwt>
<pdfrwt beam="1">  1        1 0.33872785E-01 0.29176171E+03</pdfrwt>
<pdfrwt beam="2">  1       -1 0.14870274E-01 0.29176171E+03</pdfrwt>
<totfact> 0.42140659E+03</totfact>
</mgrwt>
</event>
<event>
 6    1  0.5258538E-006  0.1539263E+03  0.7546771E-02  0.1204153E+00
         -3   -1    0    0    0  501 -0.00000000000E+00  0.00000000000E+00  0.57414273569E+02  0.57414273569E+02  0.00000000000E+00 0.  1.
          3   -1    0    0  501    0  0.00000000000E+00 -0.00000000000E+00 -0.62187436227E+03  0.62187436227E+03  0.00000000000E+00 0. -1.
          5    1    1    2  502    0 -0.70506560807E+02 -0.64042220213E+01 -0.11248442095E+03  0.13299257172E+03  0.47000000000E+01 0. -1.
         -5    1    1    2    0  502 -0.85614640290E+01 -0.36190168241E+02 -0.40955906183E+03  0.41127088648E+03  0.47000000000E+01 0. -1.
        -11    1    1    2    0    0  0.99751171885E+02  0.33061507898E+02 -0.38492484806E+02  0.11191528485E+03  0.00000000000E+00 0.  1.
         11    1    1    2    0    0 -0.20683147048E+02  0.95328823646E+01 -0.39241211209E+01  0.23109892786E+02  0.00000000000E+00 0. -1.
<mgrwt>
<rscale>  0 0.14704426E+03</rscale>
<asrwt>0</asrwt>
<pdfrwt beam="2">  1        3 0.95672978E-01 0.15392633E+03</pdfrwt>
<pdfrwt beam="1">  1       -3 0.88329652E-02 0.15392633E+03</pdfrwt>
<totfact> 0.21561462E+02</totfact>
</mgrwt>
</event>
<event>
 6    1  0.5258538E-006  0.2615317E+03  0.7546771E-02  0.1106226E+00
          2   -1    0    0  501    0  0.00000000000E+00  0.00000000000E+00  0.35277640475E+03  0.35277640475E+03  0.00000000000E+00 0. -1.
         -2   -1    0    0    0  501 -0.00000000000E+00 -0.00000000000E+00 -0.48471789599E+02  0.48471789599E+02  0.00000000000E+00 0.  1.
          5    1    1    2  502    0  0.57381096633E+02  0.41220422073E+02  0.28479293418E+02  0.76320859536E+02  0.47000000000E+01 0. -1.
         -5    1    1    2    0  502  0.50190677756E+01 -0.84058926480E+01  0.16103677385E+03  0.16140254832E+03  0.47000000000E+01 0. -1.
        -11    1    1    2    0    0 -0.72945276470E+02 -0.53099534563E+02  0.10557356450E+03  0.13887530900E+03  0.00000000000E+00 0. -1.
         11    1    1    2    0    0  0.10545112062E+02  0.20285005138E+02  0.92149833913E+01  0.24649477495E+02  0.00000000000E+00 0.  1.
<mgrwt>
<rscale>  0 0.26153167E+03</rscale>
<asrwt>0</asrwt>
<pdfrwt beam="1">  1        2 0.54273291E-01 0.26153167E+03</pdfrwt>
<pdfrwt beam="2">  1       -2 0.74571986E-02 0.26153167E+03</pdfrwt>
<totfact> 0.95737324E+03</totfact>
</mgrwt>
</event>
<event>
 6    1  0.5258538E-006  0.3817051E+03  0.7546771E-02  0.1050305E+00
         -1   -1    0    0    0  501 -0.00000000000E+00  0.00000000000E+00  0.51221326877E+03  0.51221326877E+03  0.00000000000E+00 0.  1.
          1   -1    0    0  501    0  0.00000000000E+00 -0.00000000000E+00 -0.71112355893E+02  0.71112355893E+02  0.00000000000E+00 0. -1.
          5    1    1    2  502    0  0.12140680550E+03 -0.73257502202E+02  0.57995621850E+02  0.15327053273E+03  0.47000000000E+01 0. -1.
         -5    1    1    2    0  502 -0.25362617445E+02 -0.12415819995E+02  0.22145267055E+02  0.36192786612E+02  0.47000000000E+01 0.  1.
        -11    1    1    2    0    0 -0.13097278383E+02  0.55593456642E+02  0.73003399157E+02  0.92691247758E+02  0.00000000000E+00 0. -1.
         11    1    1    2    0    0 -0.82946909673E+02  0.30079865554E+02  0.28795662482E+03  0.30117105756E+03  0.00000000000E+00 0.  1.
<mgrwt>
<rscale>  0 0.38170508E+03</rscale>
<asrwt>0</asrwt>
<pdfrwt beam="2">  1        1 0.10940363E-01 0.38170508E+03</pdfrwt>
<pdfrwt beam="1">  1       -1 0.78802039E-01 0.38170508E+03</pdfrwt>
<totfact> 0.95957134E+02</totfact>
</mgrwt>
</event>
<event>
 6    1  0.5258538E-006  0.2096841E+03  0.7546771E-02  0.1151117E+00
          2   -1    0    0  501    0  0.00000000000E+00  0.00000000000E+00  0.12982386061E+04  0.12982386061E+04  0.00000000000E+00 0. -1.
         -2   -1    0    0    0  501 -0.00000000000E+00 -0.00000000000E+00 -0.67476363505E+02  0.67476363505E+02  0.00000000000E+00 0.  1.
          5    1    1    2  502    0  0.79236398423E+02 -0.56268814307E+02  0.10351958841E+04  0.10397582386E+04  0.47000000000E+01 0. -1.
         -5    1    1    2    0  502  0.58161929005E+02  0.23056756736E+02  0.13236666094E+03  0.14648360640E+03  0.47000000000E+01 0.  1.
        -11    1    1    2    0    0 -0.85702535334E+02 -0.15749212256E+02  0.64250239877E+02  0.10826382394E+03  0.00000000000E+00 0.  1.
         11    1    1    2    0    0 -0.51695792094E+02  0.48961269827E+02 -0.10505423018E+01  0.71209300673E+02  0.00000000000E+00 0. -1.
<mgrwt>
<rscale>  0 0.19837494E+03</rscale>
<asrwt>0</asrwt>
<pdfrwt beam="1">  1        2 0.19972900E+00 0.20968409E+03</pdfrwt>
<pdfrwt beam="2">  1       -2 0.10380980E-01 0.20968409E+03</pdfrwt>
<totfact> 0.11046729E+03</totfact>
</mgrwt>
</event>
<event>
 6    1  0.5258538E-006  0.1281605E+03  0.7546771E-02  0.1246263E+00
          2   -1    0    0  501    0  0.00000000000E+00  0.00000000000E+00  0.10483619807E+04  0.10483619807E+04  0.00000000000E+00 0. -1.
         -2   -1    0    0    0  501 -0.00000000000E+00 -0.00000000000E+00 -0.14757284597E+02  0.14757284597E+02  0.00000000000E+00 0.  1.
          5    1    1    2  502    0  0.14954134488E+02 -0.28677639181E+02  0.72495244306E+03  0.72568875410E+03  0.47000000000E+01 0. -1.
         -5    1    1    2    0  502  0.97408729409E+01  0.42582584333E+02  0.10091957685E+03  0.11006821560E+03  0.47000000000E+01 0. -1.
        -11    1    1    2    0    0 -0.46240305115E+02  0.14647568698E+02  0.70707248502E+02  0.85745157745E+02  0.00000000000E+00 0.  1.
         11    1    1    2    0    0  0.21545297686E+02 -0.28552513850E+02  0.13702542772E+03  0.14161713788E+03  0.00000000000E+00 0. -1.
<mgrwt>
<rscale>  0 0.11810076E+03</rscale>
<asrwt>0</asrwt>
<pdfrwt beam="1">  1        2 0.16128640E+00 0.12816052E+03</pdfrwt>
<pdfrwt beam="2">  1       -2 0.22703523E-02 0.12816052E+03</pdfrwt>
<totfact> 0.15023935E+04</totfact>
</mgrwt>
</event>
<event>
 6    1  0.5258538E-006  0.2195462E+03  0.7546771E-02  0.1137177E+00
          4   -1    0    0  501    0  0.00000000000E+00  0.00000000000E+00  0.30300750399E+03  0.30300750399E+03  0.00000000000E+00 0.  1.
         -4   -1    0    0    0  501 -0.00000000000E+00 -0.00000000000E+00 -0.22702936230E+03  0.22702936230E+03  0.00000000000E+00 0. -1.
          5    1    1    2  502    0  0.12531222944E+03 -0.35953983410E+01  0.70189153812E+02  0.14375217929E+03  0.47000000000E+01 0. -1.
         -5    1    1    2    0  502  0.41909395679E+02  0.71509978831E+02  0.12475136169E+03  0.14985014769E+03  0.47000000000E+01 0. -1.
        -11    1    1    2    0    0 -0.18973226290E+02 -0.36566488826E+02 -0.62241488555E+02  0.74639763655E+02  0.00000000000E+00 0. -1.
         11    1    1    2    0    0 -0.14824839883E+03 -0.31348091665E+02 -0.56720885260E+02  0.16179477566E+03  0.00000000000E+00 0.  1.
<mgrwt>
<rscale>  0 0.21563809E+03</rscale>
<asrwt>0</asrwt>
<pdfrwt beam="1">  1        4 0.46616539E-01 0.21954617E+03</pdfrwt>
<pdfrwt beam="2">  1       -4 0.34927594E-01 0.21954617E+03</pdfrwt>
<totfact> 0.63809762E+01</totfact>
</mgrwt>
</event>
<event>
 6    1  0.5258538E-006  0.3203512E+03  0.7546771E-02  0.1075488E+00
          2   -1    0    0  501    0  0.00000000000E+00  0.00000000000E+00  0.98799278865E+03  0.98799278865E+03  0.00000000000E+00 0. -1.
         -2   -1    0    0    0  501 -0.00000000000E+00 -0.00000000000E+00 -0.25968030864E+02  0.25968030864E+02  0.00000000000E+00 0.  1.
          5    1    1    2  502    0  0.33716469914E+02 -0.23902163250E+02  0.12385964962E+03  0.13065763107E+03  0.47000000000E+01 0.  1.
         -5    1    1    2    0  502  0.53000525162E+01  0.10673767443E+03  0.62128578201E+03  0.63042773941E+03  0.47000000000E+01 0.  1.
        -11    1    1    2    0    0 -0.35852753188E+02 -0.28600389635E+02  0.18342957289E+03  0.18907620265E+03  0.00000000000E+00 0. -1.
         11    1    1    2    0    0 -0.31637692419E+01 -0.54235121549E+02  0.33449753269E+02  0.63799246382E+02  0.00000000000E+00 0.  1.
<mgrwt>
<rscale>  0 0.32035123E+03</rscale>
<asrwt>0</asrwt>
<pdfrwt beam="1">  1        2 0.15199886E+00 0.32035123E+03</pdfrwt>
<pdfrwt beam="2">  1       -2 0.39950824E-02 0.32035123E+03</pdfrwt>
<totfact> 0.73739035E+03</totfact>
</mgrwt>
</event>
<event>
 6    1  0.5258538E-006  0.1666042E+03  0.7546771E-02  0.1188093E+00
         -2   -1    0    0    0  501 -0.00000000000E+00  0.00000000000E+00  0.90931015550E+02  0.90931015550E+02  0.00000000000E+00 0. -1.
          2   -1    0    0  501    0  0.00000000000E+00 -0.00000000000E+00 -0.27447452862E+03  0.27447452862E+03  0.00000000000E+00 0.  1.
          5    1    1    2  502    0  0.65780628626E+02  0.50406105076E+02 -0.43404335128E+02  0.93669060203E+02  0.47000000000E+01 0. -1.
         -5    1    1    2    0  502  0.43243649660E+02 -0.66082858686E+02 -0.89481690378E+02  0.11944044692E+03  0.47000000000E+01 0. -1.
        -11    1    1    2    0    0 -0.79618542112E+02  0.32565914601E+01 -0.77074798506E+02  0.11086136478E+03  0.00000000000E+00 0. -1.
         11    1    1    2    0    0 -0.29405736175E+02  0.12420162149E+02  0.26417310947E+02  0.41434672262E+02  0.00000000000E+00 0.  1.
<mgrwt>
<rscale>  0 0.16053561E+03</rscale>
<asrwt>0</asrwt>
<pdfrwt beam="2">  1        2 0.42226850E-01 0.16660422E+03</pdfrwt>
<pdfrwt beam="1">  1       -2 0.13989387E-01 0.16660422E+03</pdfrwt>
<totfact> 0.44954759E+03</totfact>
</mgrwt>
</event>
<event>
 6    1  0.5258538E-006  0.1271405E+03  0.7546771E-02  0.1246190E+00
         -1   -1    0    0    0  501 -0.00000000000E+00  0.00000000000E+00  0.15204797474E+03  0.15204797474E+03  0.00000000000E+00 0.  1.
          1   -1    0    0  501    0  0.00000000000E+00 -0.00000000000E+00 -0.13310345254E+03  0.13310345254E+03  0.00000000000E+00 0. -1.
          5    1    1    2  502    0  0.23568729335E+01  0.51111376293E+02 -0.42498470483E+02  0.66679364349E+02  0.47000000000E+01 0.  1.
         -5    1    1    2    0  502 -0.18346305261E+01 -0.74311098138E+02 -0.35824520427E+02  0.82649812096E+02  0.47000000000E+01 0.  1.
        -11    1    1    2    0    0 -0.43486960151E+02 -0.10291685200E+01  0.31947657334E+02  0.53970618860E+02  0.00000000000E+00 0. -1.
         11    1    1    2    0    0  0.42964717744E+02  0.24228890365E+02  0.65319855770E+02  0.81851631975E+02  0.00000000000E+00 0.  1.
<mgrwt>
<rscale>  0 0.11814439E+03</rscale>
<asrwt>0</asrwt>
<pdfrwt beam="2">  1        1 0.20477454E-01 0.12714052E+03</pdfrwt>
<pdfrwt beam="1">  1       -1 0.23391996E-01 0.12714052E+03</pdfrwt>
<totfact> 0.36914159E+03</totfact>
</mgrwt>
</event>
<event>
 6    1  0.5258538E-006  0.1360138E+03  0.7546771E-02  0.1230236E+00
          1   -1    0    0  501    0  0.00000000000E+00  0.00000000000E+00  0.22325228924E+03  0.22325228924E+03  0.00000000000E+00 0. -1.
         -1   -1    0    0    0  501 -0.00000000000E+00 -0.00000000000E+00 -0.67444906005E+02  0.67444906005E+02  0.00000000000E+00 0.  1.
          5    1    1    2  502    0 -0.14328472019E+02 -0.33848750190E+02  0.82085978059E+02  0.90062427203E+02  0.47000000000E+01 0. -1.
         -5    1    1    2    0  502 -0.17747810984E+02  0.76813571707E+02  0.24347679891E+02  0.82645079159E+02  0.47000000000E+01 0. -1.
        -11    1    1    2    0    0 -0.31737157268E+02 -0.45565437682E+01  0.20787969709E+02  0.38211895101E+02  0.00000000000E+00 0.  1.
         11    1    1    2    0    0  0.63813440271E+02 -0.38408277748E+02  0.28585755576E+02  0.79777793782E+02  0.00000000000E+00 0. -1.
<mgrwt>
<rscale>  0 0.12814392E+03</rscale>
<asrwt>0</asrwt>
<pdfrwt beam="1">  1        1 0.34346506E-01 0.13601382E+03</pdfrwt>
<pdfrwt beam="2">  1       -1 0.10376139E-01 0.13601382E+03</pdfrwt>
<totfact> 0.69733413E+03</totfact>
</mgrwt>
</event>
<event>
 6    1  0.5258538E-006  0.1580472E+03  0.7546771E-02  0.1198765E+00
          1   -1    0    0  501    0  0.00000000000E+00  0.00000000000E+00  0.14743522370E+04  0.14743522370E+04  0.00000000000E+00 0. -1.
         -1   -1    0    0    0  501 -0.00000000000E+00 -0.00000000000E+00 -0.15981874848E+02  0.15981874848E+02  0.00000000000E+00 0.  1.
          5    1    1    2  502    0 -0.76769488809E+02  0.27355432283E+02  0.28222496249E+03  0.29379396444E+03  0.47000000000E+01 0.  1.
         -5    1    1    2    0  502 -0.17632397154E+01  0.29096764876E+02  0.73889753080E+03  0.73948724246E+03  0.47000000000E+01 0.  1.
        -11    1    1    2    0    0  0.66389976285E+02 -0.49689945692E+02  0.43516878683E+03  0.44299954028E+03  0.00000000000E+00 0. -1.
         11    1    1    2    0    0  0.12142752239E+02 -0.67622514674E+01  0.20790820465E+01  0.14053364686E+02  0.00000000000E+00 0.  1.
<mgrwt>
<rscale>  0 0.15139880E+03</rscale>
<asrwt>0</asrwt>
<pdfrwt beam="1">  1        1 0.22682331E+00 0.15804716E+03</pdfrwt>
<pdfrwt beam="2">  1       -1 0.24587511E-02 0.15804716E+03</pdfrwt>
<totfact> 0.37338730E+03</totfact>
</mgrwt>
</event>
<event>
 6    1  0.5258538E-006  0.1265061E+03  0.7546771E-02  0.1237749E+00
          2   -1    0    0  501    0  0.00000000000E+00  0.00000000000E+00  0.22224059457E+03  0.22224059457E+03  0.00000000000E+00 0. -1.
         -2   -1    0    0    0  501 -0.00000000000E+00 -0.00000000000E+00 -0.81880672098E+02  0.81880672098E+02  0.00000000000E+00 0.  1.
          5    1    1    2  502    0  0.44804945186E+02 -0.33970581664E+02  0.65567700064E+02  0.86502582755E+02  0.47000000000E+01 0. -1.
         -5    1    1    2    0  502 -0.63590195220E+02  0.28988647147E+02  0.76125486110E+02  0.10344677002E+03  0.47000000000E+01 0. -1.
        -11    1    1    2    0    0  0.36910324092E+02  0.48413698622E+02  0.17710463004E+02  0.63402829107E+02  0.00000000000E+00 0. -1.
         11    1    1    2    0    0 -0.18125074059E+02 -0.43431764105E+02 -0.19043726710E+02  0.50769084785E+02  0.00000000000E+00 0.  1.
<mgrwt>
<rscale>  0 0.12330085E+03</rscale>
<asrwt>0</asrwt>
<pdfrwt beam="1">  1        2 0.34190860E-01 0.12650612E+03</pdfrwt>
<pdfrwt beam="2">  1       -2 0.12597027E-01 0.12650612E+03</pdfrwt>
<totfact> 0.65634375E+03</totfact>
</mgrwt>
</event>
<event>
 6    1  0.5258538E-006  0.1295150E+03  0.7546771E-02  0.1241882E+00
          1   -1    0    0  501    0  0.00000000000E+00  0.00000000000E+00  0.81331548431E+02  0.81331548431E+02  0.00000000000E+00 0. -1.
         -1   -1    0    0    0  501 -0.00000000000E+00 -0.00000000000E+00 -0.22931104233E+03  0.22931104233E+03  0.00000000000E+00 0.  1.
          5    1    1    2  502    0 -0.49860459274E+02  0.60577763065E+01  0.31872607915E+02  0.59671728550E+02  0.47000000000E+01 0.  1.
         -5    1    1    2    0  502  0.58247564577E+02  0.26782866572E+02 -0.27499166055E+02  0.69917056965E+02  0.47000000000E+01 0.  1.
        -11    1    1    2    0    0 -0.45942791458E+02 -0.70424461428E+01 -0.10750168261E+03  0.11711937456E+03  0.00000000000E+00 0. -1.
         11    1    1    2    0    0  0.37555686155E+02 -0.25798196736E+02 -0.44851253153E+02  0.63934430683E+02  0.00000000000E+00 0.  1.
<mgrwt>
<rscale>  0 0.12073930E+03</rscale>
<asrwt>0</asrwt>
<pdfrwt beam="1">  1        1 0.12512546E-01 0.12951497E+03</pdfrwt>
<pdfrwt beam="2">  1       -1 0.35278622E-01 0.12951497E+03</pdfrwt>
<totfact> 0.35083137E+03</totfact>
</mgrwt>
</event>
<event>
 6    1  0.6680565E-006  0.2470114E+03  0.7546771E-02  0.1117881E+00
          1   -1    0    0  501    0  0.00000000000E+00  0.00000000000E+00  0.10668141438E+04  0.10668141438E+04  0.00000000000E+00 0. -1.
         -1   -1    0    0    0  501 -0.00000000000E+00 -0.00000000000E+00 -0.55395747715E+02  0.55395747715E+02  0.00000000000E+00 0.  1.
          5    1    1    2  502    0  0.78356616219E+02 -0.30985638254E+02  0.18114676064E+03  0.19984020610E+03  0.47000000000E+01 0. -1.
         -5    1    1    2    0  502  0.15354829357E+02 -0.16034517666E+03  0.44383520007E+03  0.47218441448E+03  0.47000000000E+01 0. -1.
        -11    1    1    2    0    0 -0.59790719096E+02  0.44526771248E+02  0.17811074594E+03  0.19308288703E+03  0.00000000000E+00 0. -1.
         11    1    1    2    0    0 -0.33920726480E+02  0.14680404367E+03  0.20832568943E+03  0.25710238388E+03  0.00000000000E+00 0.  1.
<mgrwt>
<rscale>  0 0.24289185E+03</rscale>
<asrwt>0</asrwt>
<pdfrwt beam="1">  1        1 0.16412524E+00 0.24701142E+03</pdfrwt>
<pdfrwt beam="2">  1       -1 0.85224235E-02 0.24701142E+03</pdfrwt>
<totfact> 0.11160796E+03</totfact>
</mgrwt>
</event>
<event>
 6    1  0.5258538E-006  0.2130858E+03  0.7546771E-02  0.1145842E+00
         -2   -1    0    0    0  501 -0.00000000000E+00  0.00000000000E+00  0.72536963782E+02  0.72536963782E+02  0.00000000000E+00 0.  1.
          2   -1    0    0  501    0  0.00000000000E+00 -0.00000000000E+00 -0.59620422120E+03  0.59620422120E+03  0.00000000000E+00 0. -1.
          5    1    1    2  502    0  0.12957561498E+03 -0.75937443987E+02 -0.38335587040E+03  0.41175253340E+03  0.47000000000E+01 0. -1.
         -5    1    1    2    0  502  0.84619896307E+01 -0.27628119912E+02 -0.29471180633E+01  0.29422674645E+02  0.47000000000E+01 0. -1.
        -11    1    1    2    0    0 -0.10279497638E+03  0.99806765908E+02 -0.12465608805E+03  0.18991402786E+03  0.00000000000E+00 0. -1.
         11    1    1    2    0    0 -0.35242628236E+02  0.37587979922E+01 -0.12708180915E+02  0.37651949079E+02  0.00000000000E+00 0.  1.
<mgrwt>
<rscale>  0 0.20468876E+03</rscale>
<asrwt>0</asrwt>
<pdfrwt beam="2">  1        2 0.91723725E-01 0.21308582E+03</pdfrwt>
<pdfrwt beam="1">  1       -2 0.11159533E-01 0.21308582E+03</pdfrwt>
<totfact> 0.28024618E+03</totfact>
</mgrwt>
</event>
<event>
 6    1  0.5258538E-006  0.1755298E+03  0.7546771E-02  0.1178264E+00
          2   -1    0    0  501    0  0.00000000000E+00  0.00000000000E+00  0.10737030148E+04  0.10737030148E+04  0.00000000000E+00 0. -1.
         -2   -1    0    0    0  501 -0.00000000000E+00 -0.00000000000E+00 -0.28167042271E+02  0.28167042271E+02  0.00000000000E+00 0.  1.
          5    1    1    2  502    0  0.21819636957E+02 -0.20603466851E+02  0.37617635528E+03  0.37740076799E+03  0.47000000000E+01 0.  1.
         -5    1    1    2    0  502  0.81763803378E+02  0.87354768095E+02  0.35914165746E+03  0.37857759465E+03  0.47000000000E+01 0.  1.
        -11    1    1    2    0    0 -0.43479747992E+02  0.18931993455E+02  0.79997353056E+02  0.92997233065E+02  0.00000000000E+00 0. -1.
         11    1    1    2    0    0 -0.60103692343E+02 -0.85683294699E+02  0.23022060669E+03  0.25289446132E+03  0.00000000000E+00 0.  1.
<mgrwt>
<rscale>  0 0.16960113E+03</rscale>
<asrwt>0</asrwt>
<pdfrwt beam="1">  1        2 0.16518505E+00 0.17552978E+03</pdfrwt>
<pdfrwt beam="2">  1       -2 0.43333920E-02 0.17552978E+03</pdfrwt>
<totfact> 0.56789979E+03</totfact>
</mgrwt>
</event>
<event>
 6    1  0.5258538E-006  0.1381441E+03  0.7546771E-02  0.1227638E+00
          1   -1    0    0  501    0  0.00000000000E+00  0.00000000000E+00  0.24254796842E+03  0.24254796842E+03  0.00000000000E+00 0. -1.
         -1   -1    0    0    0  501 -0.00000000000E+00 -0.00000000000E+00 -0.68587450116E+02  0.68587450116E+02  0.00000000000E+00 0.  1.
          5    1    1    2  502    0 -0.10212161195E+02 -0.52932489340E+02  0.56968960926E+02  0.78572827193E+02  0.47000000000E+01 0. -1.
         -5    1    1    2    0  502 -0.46024861526E+02  0.70141145985E+02  0.86088729103E+02  0.12029724651E+03  0.47000000000E+01 0. -1.
        -11    1    1    2    0    0  0.26428592204E+02  0.18076199315E+02  0.52328686218E+02  0.61347460166E+02  0.00000000000E+00 0. -1.
         11    1    1    2    0    0  0.29808430518E+02 -0.35284855960E+02 -0.21425857947E+02  0.50917884665E+02  0.00000000000E+00 0.  1.
<mgrwt>
<rscale>  0 0.12987729E+03</rscale>
<asrwt>0</asrwt>
<pdfrwt beam="1">  1        1 0.37315072E-01 0.13814414E+03</pdfrwt>
<pdfrwt beam="2">  1       -1 0.10551916E-01 0.13814414E+03</pdfrwt>
<totfact> 0.61394863E+03</totfact>
</mgrwt>
</event>
<event>
 6    1  0.5258538E-006  0.1295611E+03  0.7546771E-02  0.1242307E+00
         -2   -1    0    0    0  501 -0.00000000000E+00  0.00000000000E+00  0.73567831788E+02  0.73567831788E+02  0.00000000000E+00 0.  1.
          2   -1    0    0  501    0  0.00000000000E+00 -0.00000000000E+00 -0.20751765071E+03  0.20751765071E+03  0.00000000000E+00 0. -1.
          5    1    1    2  502    0  0.13891573399E+02 -0.41710605603E+02  0.57396745246E+01  0.44584574630E+02  0.47000000000E+01 0.  1.
         -5    1    1    2    0  502  0.15099347914E+02  0.23821318238E+02 -0.13661152555E+03  0.13957164620E+03  0.47000000000E+01 0.  1.
        -11    1    1    2    0    0 -0.57167126216E+02  0.28525286173E+01  0.16374106631E+02  0.59534264145E+02  0.00000000000E+00 0.  1.
         11    1    1    2    0    0  0.28176204902E+02  0.15036758748E+02 -0.19452074529E+02  0.37394997524E+02  0.00000000000E+00 0. -1.
<mgrwt>
<rscale>  0 0.12047997E+03</rscale>
<asrwt>0</asrwt>
<pdfrwt beam="2">  1        2 0.31925793E-01 0.12956108E+03</pdfrwt>
<pdfrwt beam="1">  1       -2 0.11318128E-01 0.12956108E+03</pdfrwt>
<totfact> 0.83931707E+03</totfact>
</mgrwt>
</event>
<event>
 6    1  0.5258538E-006  0.1474129E+03  0.7546771E-02  0.1213188E+00
         -2   -1    0    0    0  501 -0.00000000000E+00  0.00000000000E+00  0.58566982197E+03  0.58566982197E+03  0.00000000000E+00 0. -1.
          2   -1    0    0  501    0  0.00000000000E+00 -0.00000000000E+00 -0.36115840818E+02  0.36115840818E+02  0.00000000000E+00 0.  1.
          5    1    1    2  502    0  0.52914105855E+02 -0.38666401118E+01  0.59925940916E+01  0.53599017604E+02  0.47000000000E+01 0. -1.
         -5    1    1    2    0  502  0.94724383143E+01 -0.43182233525E+02  0.17128657396E+03  0.17696217901E+03  0.47000000000E+01 0. -1.
        -11    1    1    2    0    0  0.84704416798E+01  0.40368986778E+02  0.75477696549E+02  0.86013290555E+02  0.00000000000E+00 0.  1.
         11    1    1    2    0    0 -0.70856985849E+02  0.66798868588E+01  0.29679711655E+03  0.30521117562E+03  0.00000000000E+00 0. -1.
<mgrwt>
<rscale>  0 0.14010475E+03</rscale>
<asrwt>0</asrwt>
<pdfrwt beam="2">  1        2 0.55562836E-02 0.14741290E+03</pdfrwt>
<pdfrwt beam="1">  1       -2 0.90103043E-01 0.14741290E+03</pdfrwt>
<totfact> 0.14466564E+03</totfact>
</mgrwt>
</event>
<event>
 6    1  0.5258538E-006  0.3559854E+03  0.7546771E-02  0.1060185E+00
         -1   -1    0    0    0  501 -0.00000000000E+00  0.00000000000E+00  0.12121584855E+03  0.12121584855E+03  0.00000000000E+00 0.  1.
          1   -1    0    0  501    0  0.00000000000E+00 -0.00000000000E+00 -0.26136347204E+03  0.26136347204E+03  0.00000000000E+00 0. -1.
          5    1    1    2  502    0 -0.67166437260E+01 -0.25040534164E+02 -0.45756589158E+02  0.52800540769E+02  0.47000000000E+01 0. -1.
         -5    1    1    2    0  502 -0.86714066884E+02  0.11589994851E+03 -0.62431518137E+02  0.15770831277E+03  0.47000000000E+01 0. -1.
        -11    1    1    2    0    0 -0.16638072243E+02 -0.38331341362E+02  0.10227141088E+02  0.43019897645E+02  0.00000000000E+00 0.  1.
         11    1    1    2    0    0  0.11006878285E+03 -0.52528072982E+02 -0.42186657281E+02  0.12905056940E+03  0.00000000000E+00 0. -1.
<mgrwt>
<rscale>  0 0.35598537E+03</rscale>
<asrwt>0</asrwt>
<pdfrwt beam="2">  1        1 0.40209765E-01 0.35598537E+03</pdfrwt>
<pdfrwt beam="1">  1       -1 0.18648592E-01 0.35598537E+03</pdfrwt>
<totfact> 0.23681820E+03</totfact>
</mgrwt>
</event>
<event>
 6    1  0.5258538E-006  0.1982019E+03  0.7546771E-02  0.1155900E+00
         -2   -1    0    0    0  501 -0.00000000000E+00  0.00000000000E+00  0.70882032590E+02  0.70882032590E+02  0.00000000000E+00 0.  1.
          2   -1    0    0  501    0  0.00000000000E+00 -0.00000000000E+00 -0.64872769546E+03  0.64872769546E+03  0.00000000000E+00 0. -1.
          5    1    1    2  502    0  0.25911628003E+01  0.98996108314E+02 -0.12414208831E+03  0.15887193483E+03  0.47000000000E+01 0.  1.
         -5    1    1    2    0  502  0.29905407697E+02  0.51330408866E+02 -0.34988285733E+03  0.35492146756E+03  0.47000000000E+01 0.  1.
        -11    1    1    2    0    0 -0.54067612972E+02 -0.13496654220E+03 -0.66063676250E+02  0.15969872763E+03  0.00000000000E+00 0.  1.
         11    1    1    2    0    0  0.21571042475E+02 -0.15359974980E+02 -0.37757040985E+02  0.46117598037E+02  0.00000000000E+00 0. -1.
<mgrwt>
<rscale>  0 0.19286802E+03</rscale>
<asrwt>0</asrwt>
<pdfrwt beam="2">  1        2 0.99804261E-01 0.19820195E+03</pdfrwt>
<pdfrwt beam="1">  1       -2 0.10904928E-01 0.19820195E+03</pdfrwt>
<totfact> 0.26301869E+03</totfact>
</mgrwt>
</event>
<event>
 6    1  0.5258538E-006  0.3030114E+03  0.7546771E-02  0.1120802E+00
          4   -1    0    0  501    0  0.00000000000E+00  0.00000000000E+00  0.13343359736E+04  0.13343359736E+04  0.00000000000E+00 0. -1.
         -4   -1    0    0    0  501 -0.00000000000E+00 -0.00000000000E+00 -0.34230052614E+02  0.34230052614E+02  0.00000000000E+00 0.  1.
          5    1    1    2  502    0  0.83772374123E+02 -0.55251373766E+02  0.63273060790E+03  0.64065641115E+03  0.47000000000E+01 0. -1.
         -5    1    1    2    0  502 -0.13625685776E+03  0.10822302446E+03  0.41544468929E+03  0.45043815798E+03  0.47000000000E+01 0.  1.
        -11    1    1    2    0    0  0.49331717019E+02  0.17472976916E+01  0.18225563729E+03  0.18882210855E+03  0.00000000000E+00 0.  1.
         11    1    1    2    0    0  0.31527666150E+01 -0.54718948381E+02  0.69674986464E+02  0.88649348492E+02  0.00000000000E+00 0. -1.
<mgrwt>
<rscale>  0 0.23849090E+03</rscale>
<asrwt>0</asrwt>
<pdfrwt beam="1">  1        4 0.20528242E+00 0.30301139E+03</pdfrwt>
<pdfrwt beam="2">  1       -4 0.52661630E-02 0.30301139E+03</pdfrwt>
<totfact> 0.54585080E+01</totfact>
</mgrwt>
</event>
<event>
 6    1  0.5258538E-006  0.1183751E+03  0.7546771E-02  0.1254757E+00
         -2   -1    0    0    0  501 -0.00000000000E+00  0.00000000000E+00  0.18088201672E+02  0.18088201672E+02  0.00000000000E+00 0.  1.
          2   -1    0    0  501    0  0.00000000000E+00 -0.00000000000E+00 -0.17289165083E+04  0.17289165083E+04  0.00000000000E+00 0. -1.
          5    1    1    2  502    0 -0.45239604024E+02  0.39394165369E+02 -0.10686246717E+04  0.10703173833E+04  0.47000000000E+01 0. -1.
         -5    1    1    2    0  502  0.78072016312E+01 -0.51978820317E+02 -0.50363010607E+03  0.50638732597E+03  0.47000000000E+01 0.  1.
        -11    1    1    2    0    0  0.64527426179E+02  0.24510722628E+02 -0.90096543786E+02  0.11349868482E+03  0.00000000000E+00 0.  1.
         11    1    1    2    0    0 -0.27095023786E+02 -0.11926067680E+02 -0.48476985049E+02  0.56801315863E+02  0.00000000000E+00 0. -1.
<mgrwt>
<rscale>  0 0.11319975E+03</rscale>
<asrwt>0</asrwt>
<pdfrwt beam="2">  1        2 0.26598723E+00 0.11837506E+03</pdfrwt>
<pdfrwt beam="1">  1       -2 0.27827994E-02 0.11837506E+03</pdfrwt>
<totfact> 0.48261056E+03</totfact>
</mgrwt>
</event>
<event>
 6    1  0.5258538E-006  0.2631823E+03  0.7546771E-02  0.1107163E+00
          2   -1    0    0  501    0  0.00000000000E+00  0.00000000000E+00  0.41113233367E+02  0.41113233367E+02  0.00000000000E+00 0. -1.
         -2   -1    0    0    0  501 -0.00000000000E+00 -0.00000000000E+00 -0.17954535824E+04  0.17954535824E+04  0.00000000000E+00 0.  1.
          5    1    1    2  502    0  0.55766832919E+02  0.20300803781E+03 -0.38174377810E+03  0.43597317026E+03  0.47000000000E+01 0. -1.
         -5    1    1    2    0  502  0.53159574104E+01  0.21426170736E+02 -0.21560130392E+03  0.21677950191E+03  0.47000000000E+01 0. -1.
        -11    1    1    2    0    0 -0.79588291000E+02 -0.13711339306E+03 -0.82083956120E+03  0.83600954770E+03  0.00000000000E+00 0. -1.
         11    1    1    2    0    0  0.18505500671E+02 -0.87320815490E+02 -0.33615570580E+03  0.34780459588E+03  0.00000000000E+00 0.  1.
<mgrwt>
<rscale>  0 0.25996704E+03</rscale>
<asrwt>0</asrwt>
<pdfrwt beam="1">  1        2 0.63251126E-02 0.26318226E+03</pdfrwt>
<pdfrwt beam="2">  1       -2 0.27622364E+00 0.26318226E+03</pdfrwt>
<totfact> 0.58009809E+01</totfact>
</mgrwt>
</event>
<event>
 6    1  0.5258538E-006  0.1294801E+03  0.7546771E-02  0.1242731E+00
         -2   -1    0    0    0  501 -0.00000000000E+00  0.00000000000E+00  0.90605823297E+02  0.90605823297E+02  0.00000000000E+00 0.  1.
          2   -1    0    0  501    0  0.00000000000E+00 -0.00000000000E+00 -0.27260047218E+03  0.27260047218E+03  0.00000000000E+00 0. -1.
          5    1    1    2  502    0 -0.20652601660E+02  0.44299529483E+02 -0.13924075833E+03  0.14764503733E+03  0.47000000000E+01 0. -1.
         -5    1    1    2    0  502  0.54276854867E+02 -0.46670101368E+02 -0.84342898496E+02  0.11072438694E+03  0.47000000000E+01 0. -1.
        -11    1    1    2    0    0  0.21255410297E+01 -0.13832789061E+02 -0.24358482581E+02  0.28092697477E+02  0.00000000000E+00 0. -1.
         11    1    1    2    0    0 -0.35749794237E+02  0.16203360946E+02  0.65947490530E+02  0.76744173728E+02  0.00000000000E+00 0.  1.
<mgrwt>
<rscale>  0 0.12022239E+03</rscale>
<asrwt>0</asrwt>
<pdfrwt beam="2">  1        2 0.41938534E-01 0.12948014E+03</pdfrwt>
<pdfrwt beam="1">  1       -2 0.13939358E-01 0.12948014E+03</pdfrwt>
<totfact> 0.44931208E+03</totfact>
</mgrwt>
</event>
<event>
 6    1  0.6678219E-006  0.1977791E+03  0.7546771E-02  0.1156154E+00
          3   -1    0    0  501    0  0.00000000000E+00  0.00000000000E+00  0.24735011047E+04  0.24735011047E+04  0.00000000000E+00 0. -1.
         -3   -1    0    0    0  501 -0.00000000000E+00 -0.00000000000E+00 -0.18618952834E+02  0.18618952834E+02  0.00000000000E+00 0.  1.
          5    1    1    2  502    0 -0.45710975949E+02 -0.91649015484E+01  0.15178040615E+03  0.15884857705E+03  0.47000000000E+01 0.  1.
         -5    1    1    2    0  502 -0.10647189866E+03 -0.90462096338E+01  0.17281878601E+04  0.17314945766E+04  0.47000000000E+01 0.  1.
        -11    1    1    2    0    0  0.86697601798E+02  0.54081167563E+02  0.30114629389E+03  0.31800996394E+03  0.00000000000E+00 0.  1.
         11    1    1    2    0    0  0.65485272813E+02 -0.35870056381E+02  0.27376759172E+03  0.28376693989E+03  0.00000000000E+00 0. -1.
<mgrwt>
<rscale>  0 0.19258053E+03</rscale>
<asrwt>0</asrwt>
<pdfrwt beam="1">  1        3 0.38053837E+00 0.19777906E+03</pdfrwt>
<pdfrwt beam="2">  1       -3 0.28644562E-02 0.19777906E+03</pdfrwt>
<totfact> 0.23148982E+01</totfact>
</mgrwt>
</event>
<event>
 6    1  0.5258538E-006  0.1523182E+03  0.7546771E-02  0.1206107E+00
          1   -1    0    0  501    0  0.00000000000E+00  0.00000000000E+00  0.20592911931E+03  0.20592911931E+03  0.00000000000E+00 0. -1.
         -1   -1    0    0    0  501 -0.00000000000E+00 -0.00000000000E+00 -0.12135720926E+03  0.12135720926E+03  0.00000000000E+00 0.  1.
          5    1    1    2  502    0  0.49417951123E+02  0.78959893974E+02  0.74624174215E+02  0.11944729435E+03  0.47000000000E+01 0. -1.
         -5    1    1    2    0  502 -0.58367211721E+02  0.76242887963E+01  0.47246840970E+02  0.75625492828E+02  0.47000000000E+01 0. -1.
        -11    1    1    2    0    0  0.30178127708E+02 -0.16407535592E+02 -0.47045534719E+02  0.58251257095E+02  0.00000000000E+00 0.  1.
         11    1    1    2    0    0 -0.21228867110E+02 -0.70176647178E+02  0.97464295848E+01  0.73962284292E+02  0.00000000000E+00 0. -1.
<mgrwt>
<rscale>  0 0.14550595E+03</rscale>
<asrwt>0</asrwt>
<pdfrwt beam="1">  1        1 0.31681403E-01 0.15231825E+03</pdfrwt>
<pdfrwt beam="2">  1       -1 0.18670340E-01 0.15231825E+03</pdfrwt>
<totfact> 0.30994816E+03</totfact>
</mgrwt>
</event>
<event>
 6    1  0.5258538E-006  0.1505195E+03  0.7546771E-02  0.1209257E+00
         -2   -1    0    0    0  501 -0.00000000000E+00  0.00000000000E+00  0.10798297627E+03  0.10798297627E+03  0.00000000000E+00 0.  1.
          2   -1    0    0  501    0  0.00000000000E+00 -0.00000000000E+00 -0.17477088146E+03  0.17477088146E+03  0.00000000000E+00 0. -1.
          5    1    1    2  502    0 -0.49538179514E+02 -0.27846917198E+02 -0.71686078507E+01  0.57471392584E+02  0.47000000000E+01 0. -1.
         -5    1    1    2    0  502  0.75185416257E+02 -0.51977968767E+02 -0.43607810314E+02  0.10138188781E+03  0.47000000000E+01 0. -1.
        -11    1    1    2    0    0 -0.41460600180E+02  0.92145975793E+02 -0.53267611685E+01  0.10118417172E+03  0.00000000000E+00 0.  1.
         11    1    1    2    0    0  0.15813363437E+02 -0.12321089828E+02 -0.10684725851E+02  0.22716405619E+02  0.00000000000E+00 0. -1.
<mgrwt>
<rscale>  0 0.14307003E+03</rscale>
<asrwt>0</asrwt>
<pdfrwt beam="2">  1        2 0.26887827E-01 0.15051950E+03</pdfrwt>
<pdfrwt beam="1">  1       -2 0.16612766E-01 0.15051950E+03</pdfrwt>
<totfact> 0.54873130E+03</totfact>
</mgrwt>
</event>
<event>
 6    1  0.5258538E-006  0.1258566E+03  0.7546771E-02  0.1249274E+00
         -3   -1    0    0    0  501 -0.00000000000E+00  0.00000000000E+00  0.60154141664E+02  0.60154141664E+02  0.00000000000E+00 0.  1.
          3   -1    0    0  501    0  0.00000000000E+00 -0.00000000000E+00 -0.23619139536E+03  0.23619139536E+03  0.00000000000E+00 0. -1.
          5    1    1    2  502    0 -0.12175578957E+02 -0.54445080509E+02 -0.57876393080E+02  0.80525017172E+02  0.47000000000E+01 0.  1.
         -5    1    1    2    0  502  0.22755052034E+02  0.64644221551E+02 -0.10133585226E+03  0.12242431427E+03  0.47000000000E+01 0.  1.
        -11    1    1    2    0    0  0.27271782145E+02 -0.36565766256E+02 -0.10781500171E+02  0.46872658440E+02  0.00000000000E+00 0.  1.
         11    1    1    2    0    0 -0.37851255222E+02  0.26366625214E+02 -0.60435081876E+01  0.46523547138E+02  0.00000000000E+00 0. -1.
<mgrwt>
<rscale>  0 0.11633179E+03</rscale>
<asrwt>0</asrwt>
<pdfrwt beam="2">  1        3 0.36337138E-01 0.12585663E+03</pdfrwt>
<pdfrwt beam="1">  1       -3 0.92544832E-02 0.12585663E+03</pdfrwt>
<totfact> 0.14239666E+03</totfact>
</mgrwt>
</event>
<event>
 6    1  0.5258538E-006  0.1494283E+03  0.7546771E-02  0.1210111E+00
          1   -1    0    0  501    0  0.00000000000E+00  0.00000000000E+00  0.22531849195E+03  0.22531849195E+03  0.00000000000E+00 0. -1.
         -1   -1    0    0    0  501 -0.00000000000E+00 -0.00000000000E+00 -0.82603051313E+02  0.82603051313E+02  0.00000000000E+00 0.  1.
          5    1    1    2  502    0  0.22792130110E+02  0.60716601984E+02 -0.20963596781E+01  0.65057449038E+02  0.47000000000E+01 0. -1.
         -5    1    1    2    0  502  0.54012372773E+02 -0.32318803342E+02  0.84860842113E+02  0.10576055024E+03  0.47000000000E+01 0. -1.
        -11    1    1    2    0    0 -0.63795999073E+02  0.24866987391E+02  0.33382935084E+02  0.76175566388E+02  0.00000000000E+00 0.  1.
         11    1    1    2    0    0 -0.13008503810E+02 -0.53264786033E+02  0.26568023121E+02  0.60927977605E+02  0.00000000000E+00 0. -1.
<mgrwt>
<rscale>  0 0.14241864E+03</rscale>
<asrwt>0</asrwt>
<pdfrwt beam="1">  1        1 0.34664383E-01 0.14942834E+03</pdfrwt>
<pdfrwt beam="2">  1       -1 0.12708162E-01 0.14942834E+03</pdfrwt>
<totfact> 0.50743132E+03</totfact>
</mgrwt>
</event>
<event>
 6    1  0.5258538E-006  0.1755410E+03  0.7546771E-02  0.1178411E+00
          1   -1    0    0  501    0  0.00000000000E+00  0.00000000000E+00  0.67045628748E+03  0.67045628748E+03  0.00000000000E+00 0. -1.
         -1   -1    0    0    0  501 -0.00000000000E+00 -0.00000000000E+00 -0.42691370817E+02  0.42691370817E+02  0.00000000000E+00 0.  1.
          5    1    1    2  502    0 -0.10784109720E+03  0.12020750025E+02  0.27488007575E+03  0.29555937935E+03  0.47000000000E+01 0.  1.
         -5    1    1    2    0  502  0.11915765952E+02  0.65363681823E+02  0.14715606154E+03  0.16152830349E+03  0.47000000000E+01 0.  1.
        -11    1    1    2    0    0  0.24837311854E+02 -0.68991019813E+01  0.12450438692E+03  0.12714492530E+03  0.00000000000E+00 0. -1.
         11    1    1    2    0    0  0.71088019393E+02 -0.70485329867E+02  0.81224392451E+02  0.12891505016E+03  0.00000000000E+00 0.  1.
<mgrwt>
<rscale>  0 0.16946071E+03</rscale>
<asrwt>0</asrwt>
<pdfrwt beam="1">  1        1 0.10314711E+00 0.17554102E+03</pdfrwt>
<pdfrwt beam="2">  1       -1 0.65679037E-02 0.17554102E+03</pdfrwt>
<totfact> 0.34417037E+03</totfact>
</mgrwt>
</event>
<event>
 6    1  0.5258538E-006  0.1251483E+03  0.7546771E-02  0.1251155E+00
          1   -1    0    0  501    0  0.00000000000E+00  0.00000000000E+00  0.10978082258E+03  0.10978082258E+03  0.00000000000E+00 0. -1.
         -1   -1    0    0    0  501 -0.00000000000E+00 -0.00000000000E+00 -0.21379387002E+03  0.21379387002E+03  0.00000000000E+00 0.  1.
          5    1    1    2  502    0  0.16560850358E+02 -0.27273031354E+02 -0.29219876360E+02  0.43519779162E+02  0.47000000000E+01 0. -1.
         -5    1    1    2    0  502 -0.13804465185E+02  0.32733968311E+02  0.87459522083E+02  0.94516315753E+02  0.47000000000E+01 0. -1.
        -11    1    1    2    0    0  0.32844442325E+02  0.65136218623E+01 -0.13510939157E+03  0.13919673973E+03  0.00000000000E+00 0.  1.
         11    1    1    2    0    0 -0.35600827498E+02 -0.11974558819E+02 -0.27143301595E+02  0.46341857957E+02  0.00000000000E+00 0. -1.
<mgrwt>
<rscale>  0 0.11524452E+03</rscale>
<asrwt>0</asrwt>
<pdfrwt beam="1">  1        1 0.16889358E-01 0.12514834E+03</pdfrwt>
<pdfrwt beam="2">  1       -1 0.32891364E-01 0.12514834E+03</pdfrwt>
<totfact> 0.26767105E+03</totfact>
</mgrwt>
</event>
<event>
 6    1  0.5258538E-006  0.1322403E+03  0.7546771E-02  0.1237620E+00
          1   -1    0    0  501    0  0.00000000000E+00  0.00000000000E+00  0.10991189978E+04  0.10991189978E+04  0.00000000000E+00 0. -1.
         -1   -1    0    0    0  501 -0.00000000000E+00 -0.00000000000E+00 -0.12743294926E+02  0.12743294926E+02  0.00000000000E+00 0.  1.
          5    1    1    2  502    0  0.19093833434E+02  0.72748451423E+02  0.31286246787E+03  0.32181038744E+03  0.47000000000E+01 0. -1.
         -5    1    1    2    0  502 -0.37220358916E+02 -0.33589070551E+02  0.40637805534E+03  0.40948601276E+03  0.47000000000E+01 0. -1.
        -11    1    1    2    0    0 -0.13902034185E+02 -0.56195518160E+02  0.28431865919E+03  0.29015220623E+03  0.00000000000E+00 0. -1.
         11    1    1    2    0    0  0.32028559668E+02  0.17036137288E+02  0.82816520447E+02  0.90413686281E+02  0.00000000000E+00 0.  1.
<mgrwt>
<rscale>  0 0.12338184E+03</rscale>
<asrwt>0</asrwt>
<pdfrwt beam="1">  1        1 0.16909516E+00 0.13224029E+03</pdfrwt>
<pdfrwt beam="2">  1       -1 0.19605078E-02 0.13224029E+03</pdfrwt>
<totfact> 0.92184893E+03</totfact>
</mgrwt>
</event>
<event>
 6    1  0.5258538E-006  0.2679809E+03  0.7546771E-02  0.1102441E+00
         -1   -1    0    0    0  501 -0.00000000000E+00  0.00000000000E+00  0.86349862589E+01  0.86349862589E+01  0.00000000000E+00 0.  1.
          1   -1    0    0  501    0  0.00000000000E+00 -0.00000000000E+00 -0.20791507651E+04  0.20791507651E+04  0.00000000000E+00 0. -1.
          5    1    1    2  502    0  0.85143404599E+02 -0.42573007254E+02 -0.10963702811E+04  0.11005052219E+04  0.47000000000E+01 0. -1.
         -5    1    1    2    0  502 -0.35500069956E+02 -0.68899002043E+01 -0.39896463778E+03  0.40062775477E+03  0.47000000000E+01 0.  1.
        -11    1    1    2    0    0  0.12215966941E+01  0.61549569909E+02 -0.35898519328E+03  0.36422549451E+03  0.00000000000E+00 0.  1.
         11    1    1    2    0    0 -0.50864931337E+02 -0.12086662450E+02 -0.21619566668E+03  0.22242728011E+03  0.00000000000E+00 0. -1.
<mgrwt>
<rscale>  0 0.26798088E+03</rscale>
<asrwt>0</asrwt>
<pdfrwt beam="2">  1        1 0.31986966E+00 0.26798088E+03</pdfrwt>
<pdfrwt beam="1">  1       -1 0.13284581E-02 0.26798088E+03</pdfrwt>
<totfact> 0.37327480E+03</totfact>
</mgrwt>
</event>
<event>
 6    1  0.5258538E-006  0.1318706E+03  0.7546771E-02  0.1231111E+00
          2   -1    0    0  501    0  0.00000000000E+00  0.00000000000E+00  0.45172885129E+03  0.45172885129E+03  0.00000000000E+00 0. -1.
         -2   -1    0    0    0  501 -0.00000000000E+00 -0.00000000000E+00 -0.36845811831E+02  0.36845811831E+02  0.00000000000E+00 0.  1.
          5    1    1    2  502    0  0.14772956098E+02 -0.23899321235E+02  0.25373008730E+03  0.25532423502E+03  0.47000000000E+01 0. -1.
         -5    1    1    2    0  502  0.50237638343E+02  0.10801145919E+02  0.35741816856E+02  0.62769837754E+02  0.47000000000E+01 0.  1.
        -11    1    1    2    0    0 -0.79777345500E+02  0.15855684536E+02  0.13121195571E+03  0.15437747539E+03  0.00000000000E+00 0.  1.
         11    1    1    2    0    0  0.14766751059E+02 -0.27575092196E+01 -0.58008204057E+01  0.16103114957E+02  0.00000000000E+00 0. -1.
<mgrwt>
<rscale>  0 0.12756687E+03</rscale>
<asrwt>0</asrwt>
<pdfrwt beam="1">  1        2 0.69496742E-01 0.13187060E+03</pdfrwt>
<pdfrwt beam="2">  1       -2 0.56685868E-02 0.13187060E+03</pdfrwt>
<totfact> 0.10682128E+04</totfact>
</mgrwt>
</event>
<event>
 6    1  0.5258538E-006  0.4152561E+03  0.7546771E-02  0.1038621E+00
         -2   -1    0    0    0  501 -0.00000000000E+00  0.00000000000E+00  0.14407344932E+02  0.14407344932E+02  0.00000000000E+00 0.  1.
          2   -1    0    0  501    0  0.00000000000E+00 -0.00000000000E+00 -0.29921826804E+04  0.29921826804E+04  0.00000000000E+00 0. -1.
          5    1    1    2  502    0 -0.19457395146E+02 -0.13953470791E+02 -0.10574990569E+04  0.10577805230E+04  0.47000000000E+01 0. -1.
         -5    1    1    2    0  502  0.79852289469E+02  0.85578304757E+02 -0.15759533352E+04  0.15803009331E+04  0.47000000000E+01 0. -1.
        -11    1    1    2    0    0 -0.43897324953E+02 -0.33336367283E+01 -0.23112840779E+03  0.23528372056E+03  0.00000000000E+00 0. -1.
         11    1    1    2    0    0 -0.16497569370E+02 -0.68291197238E+02 -0.11319453561E+03  0.13322484869E+03  0.00000000000E+00 0.  1.
<mgrwt>
<rscale>  0 0.41525610E+03</rscale>
<asrwt>0</asrwt>
<pdfrwt beam="2">  1        2 0.46033609E+00 0.41525610E+03</pdfrwt>
<pdfrwt beam="1">  1       -2 0.22165132E-02 0.41525610E+03</pdfrwt>
<totfact> 0.13722497E+03</totfact>
</mgrwt>
</event>
<event>
 6    1  0.5258538E-006  0.1320102E+03  0.7546771E-02  0.1273495E+00
         -2   -1    0    0    0  501 -0.00000000000E+00  0.00000000000E+00  0.31983951960E+02  0.31983951960E+02  0.00000000000E+00 0.  1.
          2   -1    0    0  501    0  0.00000000000E+00 -0.00000000000E+00 -0.57940391596E+03  0.57940391596E+03  0.00000000000E+00 0. -1.
          5    1    1    2  502    0  0.69558684315E+01 -0.46302149454E+02 -0.47501649800E+03  0.47734163502E+03  0.47000000000E+01 0. -1.
         -5    1    1    2    0  502  0.19810106793E+02  0.40884224462E+02 -0.71119227809E+02  0.84522155114E+02  0.47000000000E+01 0.  1.
        -11    1    1    2    0    0  0.96986196523E+01 -0.57904251196E+01 -0.13470705075E+01  0.11375712953E+02  0.00000000000E+00 0. -1.
         11    1    1    2    0    0 -0.36464594876E+02  0.11208350112E+02  0.62832316051E-01  0.38148364836E+02  0.00000000000E+00 0.  1.
<mgrwt>
<rscale>  0 0.10330543E+03</rscale>
<asrwt>0</asrwt>
<pdfrwt beam="2">  1        2 0.89139055E-01 0.13201018E+03</pdfrwt>
<pdfrwt beam="1">  1       -2 0.49206085E-02 0.13201018E+03</pdfrwt>
<totfact> 0.10046743E+04</totfact>
</mgrwt>
</event>
<event>
 6    1  0.5258538E-006  0.1603255E+03  0.7546771E-02  0.1195781E+00
         -1   -1    0    0    0  501 -0.00000000000E+00  0.00000000000E+00  0.13118612605E+03  0.13118612605E+03  0.00000000000E+00 0.  1.
          1   -1    0    0  501    0  0.00000000000E+00 -0.00000000000E+00 -0.17051318516E+03  0.17051318516E+03  0.00000000000E+00 0. -1.
          5    1    1    2  502    0  0.82490811254E+02 -0.84535506829E+02  0.29116691461E+02  0.12174094454E+03  0.47000000000E+01 0.  1.
         -5    1    1    2    0  502 -0.27567582407E+01  0.23535156158E+02 -0.30089901746E+02  0.38587504175E+02  0.47000000000E+01 0.  1.
        -11    1    1    2    0    0 -0.66249306192E+01  0.16699030520E+02 -0.51807931159E+02  0.54834378422E+02  0.00000000000E+00 0. -1.
         11    1    1    2    0    0 -0.73109122394E+02  0.44301320151E+02  0.13454082327E+02  0.86536484072E+02  0.00000000000E+00 0.  1.
<mgrwt>
<rscale>  0 0.15388332E+03</rscale>
<asrwt>0</asrwt>
<pdfrwt beam="2">  1        1 0.26232798E-01 0.16032549E+03</pdfrwt>
<pdfrwt beam="1">  1       -1 0.20182481E-01 0.16032549E+03</pdfrwt>
<totfact> 0.34718983E+03</totfact>
</mgrwt>
</event>
<event>
 6    1  0.5258538E-006  0.1271757E+03  0.7546771E-02  0.1244394E+00
         -2   -1    0    0    0  501 -0.00000000000E+00  0.00000000000E+00  0.15966279256E+03  0.15966279256E+03  0.00000000000E+00 0.  1.
          2   -1    0    0  501    0  0.00000000000E+00 -0.00000000000E+00 -0.92038704212E+02  0.92038704212E+02  0.00000000000E+00 0. -1.
          5    1    1    2  502    0  0.31775341531E+02  0.76372077533E+01  0.50464010320E+02  0.60305104339E+02  0.47000000000E+01 0. -1.
         -5    1    1    2    0  502 -0.27819285760E+02  0.15466501593E+02 -0.58943243626E+02  0.67152969412E+02  0.47000000000E+01 0. -1.
        -11    1    1    2    0    0  0.43085307408E+02 -0.18410667992E+02  0.55612035743E+02  0.72718600989E+02  0.00000000000E+00 0.  1.
         11    1    1    2    0    0 -0.47041363179E+02 -0.46930413540E+01  0.20491285907E+02  0.51524822028E+02  0.00000000000E+00 0. -1.
<mgrwt>
<rscale>  0 0.11921731E+03</rscale>
<asrwt>0</asrwt>
<pdfrwt beam="2">  1        2 0.14159801E-01 0.12717572E+03</pdfrwt>
<pdfrwt beam="1">  1       -2 0.24563506E-01 0.12717572E+03</pdfrwt>
<totfact> 0.57902286E+03</totfact>
</mgrwt>
</event>
<event>
 6    1  0.5258538E-006  0.1480047E+03  0.7546771E-02  0.1212971E+00
          2   -1    0    0  501    0  0.00000000000E+00  0.00000000000E+00  0.64666570993E+03  0.64666570993E+03  0.00000000000E+00 0. -1.
         -2   -1    0    0    0  501 -0.00000000000E+00 -0.00000000000E+00 -0.10389386560E+03  0.10389386560E+03  0.00000000000E+00 0.  1.
          5    1    1    2  502    0 -0.25402719850E+02 -0.44214631998E+02  0.21566097623E+03  0.22165734485E+03  0.47000000000E+01 0. -1.
         -5    1    1    2    0  502  0.96236754744E+02  0.86943057269E+01  0.38446203171E+03  0.39644703019E+03  0.47000000000E+01 0. -1.
        -11    1    1    2    0    0 -0.85473019311E+02  0.35891514836E+02 -0.67469435864E+02  0.11465584435E+03  0.00000000000E+00 0.  1.
         11    1    1    2    0    0  0.14638984417E+02 -0.37118856502E+00  0.10118272253E+02  0.17799356143E+02  0.00000000000E+00 0. -1.
<mgrwt>
<rscale>  0 0.14026632E+03</rscale>
<asrwt>0</asrwt>
<pdfrwt beam="1">  1        2 0.99487030E-01 0.14800471E+03</pdfrwt>
<pdfrwt beam="2">  1       -2 0.15983672E-01 0.14800471E+03</pdfrwt>
<totfact> 0.14118629E+03</totfact>
</mgrwt>
</event>
<event>
 6    1  0.5258538E-006  0.1452127E+03  0.7546771E-02  0.1215982E+00
         -1   -1    0    0    0  501 -0.00000000000E+00  0.00000000000E+00  0.41415230810E+02  0.41415230810E+02  0.00000000000E+00 0.  1.
          1   -1    0    0  501    0  0.00000000000E+00 -0.00000000000E+00 -0.42140411458E+03  0.42140411458E+03  0.00000000000E+00 0. -1.
          5    1    1    2  502    0 -0.56323313185E+02  0.17459868323E+02 -0.97057983257E+02  0.11366399924E+03  0.47000000000E+01 0.  1.
         -5    1    1    2    0  502  0.21958464436E+02 -0.82887366987E+02 -0.12474960314E+03  0.15144980439E+03  0.47000000000E+01 0.  1.
        -11    1    1    2    0    0  0.55549766509E+02  0.41488888484E+02 -0.14916622798E+03  0.16449215177E+03  0.00000000000E+00 0. -1.
         11    1    1    2    0    0 -0.21184917761E+02  0.23938610180E+02 -0.90150693979E+01  0.33213389983E+02  0.00000000000E+00 0.  1.
<mgrwt>
<rscale>  0 0.13804648E+03</rscale>
<asrwt>0</asrwt>
<pdfrwt beam="2">  1        1 0.64831402E-01 0.14521268E+03</pdfrwt>
<pdfrwt beam="1">  1       -1 0.63715739E-02 0.14521268E+03</pdfrwt>
<totfact> 0.66349511E+03</totfact>
</mgrwt>
</event>
<event>
 6    1  0.5258538E-006  0.1324183E+03  0.7546771E-02  0.1234451E+00
          2   -1    0    0  501    0  0.00000000000E+00  0.00000000000E+00  0.25594826070E+03  0.25594826070E+03  0.00000000000E+00 0. -1.
         -2   -1    0    0    0  501 -0.00000000000E+00 -0.00000000000E+00 -0.63480355429E+02  0.63480355429E+02  0.00000000000E+00 0.  1.
          5    1    1    2  502    0 -0.41064136460E+02  0.40191214082E+02  0.17007185208E+03  0.17957762072E+03  0.47000000000E+01 0. -1.
         -5    1    1    2    0  502  0.26833747199E+02  0.75643512398E+00 -0.92180997798E+01  0.28769524612E+02  0.47000000000E+01 0. -1.
        -11    1    1    2    0    0 -0.25454747205E+01  0.30986080142E+02  0.94894568483E+00  0.31104936940E+02  0.00000000000E+00 0.  1.
         11    1    1    2    0    0  0.16775863981E+02 -0.71933729348E+02  0.30665207286E+02  0.79976533859E+02  0.00000000000E+00 0. -1.
<mgrwt>
<rscale>  0 0.12539663E+03</rscale>
<asrwt>0</asrwt>
<pdfrwt beam="1">  1        2 0.39376655E-01 0.13241829E+03</pdfrwt>
<pdfrwt beam="2">  1       -2 0.97662087E-02 0.13241829E+03</pdfrwt>
<totfact> 0.84760482E+03</totfact>
</mgrwt>
</event>
<event>
 6    1  0.5258538E-006  0.1305995E+03  0.7546771E-02  0.1239114E+00
          1   -1    0    0  501    0  0.00000000000E+00  0.00000000000E+00  0.72180508373E+03  0.72180508373E+03  0.00000000000E+00 0. -1.
         -1   -1    0    0    0  501 -0.00000000000E+00 -0.00000000000E+00 -0.20634435910E+02  0.20634435910E+02  0.00000000000E+00 0.  1.
          5    1    1    2  502    0  0.16059357978E+02 -0.43240052959E+02  0.37003265437E+03  0.37292607908E+03  0.47000000000E+01 0. -1.
         -5    1    1    2    0  502  0.17813761763E+02  0.60009264983E+02  0.13769022767E+03  0.15132458752E+03  0.47000000000E+01 0. -1.
        -11    1    1    2    0    0 -0.14277202062E+02 -0.51480878938E+02  0.14998203032E+03  0.15921284123E+03  0.00000000000E+00 0. -1.
         11    1    1    2    0    0 -0.19595917679E+02  0.34711666914E+02  0.43465735462E+02  0.58976011809E+02  0.00000000000E+00 0.  1.
<mgrwt>
<rscale>  0 0.12244690E+03</rscale>
<asrwt>0</asrwt>
<pdfrwt beam="1">  1        1 0.11104692E+00 0.13059953E+03</pdfrwt>
<pdfrwt beam="2">  1       -1 0.31745292E-02 0.13059953E+03</pdfrwt>
<totfact> 0.89520195E+03</totfact>
</mgrwt>
</event>
<event>
 6    1  0.5258538E-006  0.1408482E+03  0.7546771E-02  0.1225414E+00
          1   -1    0    0  501    0  0.00000000000E+00  0.00000000000E+00  0.13289598231E+03  0.13289598231E+03  0.00000000000E+00 0. -1.
         -1   -1    0    0    0  501 -0.00000000000E+00 -0.00000000000E+00 -0.13549021997E+03  0.13549021997E+03  0.00000000000E+00 0.  1.
          5    1    1    2  502    0 -0.38734573543E+02 -0.45854312578E+02  0.62241449917E+02  0.86597189662E+02  0.47000000000E+01 0. -1.
         -5    1    1    2    0  502 -0.25370356219E+02  0.56014911183E+02 -0.12217801510E+02  0.62870421688E+02  0.47000000000E+01 0. -1.
        -11    1    1    2    0    0  0.50238188467E+02  0.27725319023E+02 -0.66616928960E+01  0.57766314125E+02  0.00000000000E+00 0. -1.
         11    1    1    2    0    0  0.13866741295E+02 -0.37885917627E+02 -0.45956193166E+02  0.61152276809E+02  0.00000000000E+00 0.  1.
<mgrwt>
<rscale>  0 0.13138558E+03</rscale>
<asrwt>0</asrwt>
<pdfrwt beam="1">  1        1 0.20445536E-01 0.14084815E+03</pdfrwt>
<pdfrwt beam="2">  1       -1 0.20844649E-01 0.14084815E+03</pdfrwt>
<totfact> 0.44848802E+03</totfact>
</mgrwt>
</event>
<event>
 6    1  0.5258538E-006  0.1316344E+03  0.7546771E-02  0.1233378E+00
         -1   -1    0    0    0  501 -0.00000000000E+00  0.00000000000E+00  0.18642329054E+03  0.18642329054E+03  0.00000000000E+00 0.  1.
          1   -1    0    0  501    0  0.00000000000E+00 -0.00000000000E+00 -0.79970668905E+02  0.79970668905E+02  0.00000000000E+00 0. -1.
          5    1    1    2  502    0 -0.24780512602E+02 -0.30463971151E+02  0.83064175739E+02  0.91999318662E+02  0.47000000000E+01 0.  1.
         -5    1    1    2    0  502  0.17468216521E+02 -0.10143775358E+02 -0.41205306388E+02  0.46130272506E+02  0.47000000000E+01 0.  1.
        -11    1    1    2    0    0 -0.62516754563E+01  0.53255440639E+02 -0.72104991706E+01  0.54103758668E+02  0.00000000000E+00 0. -1.
         11    1    1    2    0    0  0.13563971537E+02 -0.12647694130E+02  0.71804251459E+02  0.74160609614E+02  0.00000000000E+00 0.  1.
<mgrwt>
<rscale>  0 0.12608813E+03</rscale>
<asrwt>0</asrwt>
<pdfrwt beam="2">  1        1 0.12303180E-01 0.13163441E+03</pdfrwt>
<pdfrwt beam="1">  1       -1 0.28680506E-01 0.13163441E+03</pdfrwt>
<totfact> 0.50962362E+03</totfact>
</mgrwt>
</event>
<event>
 6    1  0.5258538E-006  0.1305951E+03  0.7546771E-02  0.1239827E+00
          2   -1    0    0  501    0  0.00000000000E+00  0.00000000000E+00  0.69628582810E+03  0.69628582810E+03  0.00000000000E+00 0. -1.
         -2   -1    0    0    0  501 -0.00000000000E+00 -0.00000000000E+00 -0.23480834721E+02  0.23480834721E+02  0.00000000000E+00 0.  1.
          5    1    1    2  502    0  0.32857827878E+02  0.15434708759E+02  0.37518718886E+03  0.37696867745E+03  0.47000000000E+01 0.  1.
         -5    1    1    2    0  502 -0.42626638809E+02 -0.51967099680E+02  0.15399155975E+03  0.16808658560E+03  0.47000000000E+01 0.  1.
        -11    1    1    2    0    0 -0.10437243586E+02 -0.21870904515E+02  0.77525574413E+01  0.25443558416E+02  0.00000000000E+00 0.  1.
         11    1    1    2    0    0  0.20206054516E+02  0.58403295435E+02  0.13587368733E+03  0.14926784136E+03  0.00000000000E+00 0. -1.
<mgrwt>
<rscale>  0 0.12200437E+03</rscale>
<asrwt>0</asrwt>
<pdfrwt beam="1">  1        2 0.10712088E+00 0.13059514E+03</pdfrwt>
<pdfrwt beam="2">  1       -2 0.36124366E-02 0.13059514E+03</pdfrwt>
<totfact> 0.12864509E+04</totfact>
</mgrwt>
</event>
<event>
 6    1  0.5258538E-006  0.1317313E+03  0.7546771E-02  0.1238254E+00
         -2   -1    0    0    0  501 -0.00000000000E+00  0.00000000000E+00  0.93437700418E+02  0.93437700418E+02  0.00000000000E+00 0. -1.
          2   -1    0    0  501    0  0.00000000000E+00 -0.00000000000E+00 -0.15925637312E+03  0.15925637312E+03  0.00000000000E+00 0.  1.
          5    1    1    2  502    0 -0.25486861184E+02 -0.41946403129E+02  0.17021492430E+02  0.52162266372E+02  0.47000000000E+01 0. -1.
         -5    1    1    2    0  502 -0.15084069885E+02  0.32844876469E+02 -0.93052538293E+02  0.99935879229E+02  0.47000000000E+01 0. -1.
        -11    1    1    2    0    0  0.11211462874E+02 -0.27764048335E+02 -0.27177743095E+02  0.40437222944E+02  0.00000000000E+00 0.  1.
         11    1    1    2    0    0  0.29359468194E+02  0.36865574995E+02  0.37390116258E+02  0.60158704991E+02  0.00000000000E+00 0. -1.
<mgrwt>
<rscale>  0 0.12298421E+03</rscale>
<asrwt>0</asrwt>
<pdfrwt beam="2">  1        2 0.24500980E-01 0.13173126E+03</pdfrwt>
<pdfrwt beam="1">  1       -2 0.14375031E-01 0.13173126E+03</pdfrwt>
<totfact> 0.76390602E+03</totfact>
</mgrwt>
</event>
<event>
 6    1  0.5258538E-006  0.1268397E+03  0.7546771E-02  0.1248313E+00
         -2   -1    0    0    0  501 -0.00000000000E+00  0.00000000000E+00  0.23653438539E+02  0.23653438539E+02  0.00000000000E+00 0.  1.
          2   -1    0    0  501    0  0.00000000000E+00 -0.00000000000E+00 -0.50382360623E+03  0.50382360623E+03  0.00000000000E+00 0. -1.
          5    1    1    2  502    0 -0.20820605795E+02 -0.65426220357E+02 -0.14928942626E+03  0.16438829255E+03  0.47000000000E+01 0.  1.
         -5    1    1    2    0  502  0.32826412563E+02  0.47591015907E+02 -0.13015689145E+03  0.14249696329E+03  0.47000000000E+01 0.  1.
        -11    1    1    2    0    0  0.23590637904E+02 -0.70803674382E+01 -0.12892589072E+02  0.27800515333E+02  0.00000000000E+00 0.  1.
         11    1    1    2    0    0 -0.35596444673E+02  0.24915571888E+02 -0.18783126092E+03  0.19279127359E+03  0.00000000000E+00 0. -1.
<mgrwt>
<rscale>  0 0.11689247E+03</rscale>
<asrwt>0</asrwt>
<pdfrwt beam="2">  1        2 0.77511323E-01 0.12683972E+03</pdfrwt>
<pdfrwt beam="1">  1       -2 0.36389906E-02 0.12683972E+03</pdfrwt>
<totfact> 0.18327936E+04</totfact>
</mgrwt>
</event>
<event>
 6    1  0.5258538E-006  0.4147953E+03  0.7546771E-02  0.1038774E+00
         -2   -1    0    0    0  501 -0.00000000000E+00  0.00000000000E+00  0.17073994933E+03  0.17073994933E+03  0.00000000000E+00 0.  1.
          2   -1    0    0  501    0  0.00000000000E+00 -0.00000000000E+00 -0.25192572055E+03  0.25192572055E+03  0.00000000000E+00 0. -1.
          5    1    1    2  502    0 -0.14113383376E+03 -0.60267309649E+02 -0.91382970693E+02  0.17867245165E+03  0.47000000000E+01 0. -1.
         -5    1    1    2    0  502 -0.29958877828E+02  0.25349853292E+02  0.23659179822E+02  0.46065130114E+02  0.47000000000E+01 0.  1.
        -11    1    1    2    0    0  0.92233598375E+02 -0.79351722436E+01  0.31185416375E+02  0.97685893671E+02  0.00000000000E+00 0. -1.
         11    1    1    2    0    0  0.78859113214E+02  0.42852628601E+02 -0.44647396719E+02  0.10024219445E+03  0.00000000000E+00 0.  1.
<mgrwt>
<rscale>  0 0.41479530E+03</rscale>
<asrwt>0</asrwt>
<pdfrwt beam="2">  1        2 0.38757803E-01 0.41479530E+03</pdfrwt>
<pdfrwt beam="1">  1       -2 0.26267685E-01 0.41479530E+03</pdfrwt>
<totfact> 0.17331842E+03</totfact>
</mgrwt>
</event>
<event>
 6    1  0.5258538E-006  0.1312923E+03  0.7546771E-02  0.1239142E+00
         -2   -1    0    0    0  501 -0.00000000000E+00  0.00000000000E+00  0.79038587732E+02  0.79038587732E+02  0.00000000000E+00 0.  1.
          2   -1    0    0  501    0  0.00000000000E+00 -0.00000000000E+00 -0.16836325479E+03  0.16836325479E+03  0.00000000000E+00 0. -1.
          5    1    1    2  502    0  0.70204136370E+02  0.41009039244E+02 -0.21454005744E+02  0.84218325949E+02  0.47000000000E+01 0. -1.
         -5    1    1    2    0  502 -0.46364965709E+02 -0.87057914986E+01 -0.33815738322E+02  0.58233109217E+02  0.47000000000E+01 0. -1.
        -11    1    1    2    0    0 -0.68662091434E+01 -0.55995291013E+02  0.45291932158E+01  0.56596210428E+02  0.00000000000E+00 0.  1.
         11    1    1    2    0    0 -0.16972961517E+02  0.23692043268E+02 -0.38584116205E+02  0.48354196925E+02  0.00000000000E+00 0. -1.
<mgrwt>
<rscale>  0 0.12242939E+03</rscale>
<asrwt>0</asrwt>
<pdfrwt beam="2">  1        2 0.25902039E-01 0.13129230E+03</pdfrwt>
<pdfrwt beam="1">  1       -2 0.12159783E-01 0.13129230E+03</pdfrwt>
<totfact> 0.94065421E+03</totfact>
</mgrwt>
</event>
<event>
 6    1  0.5258538E-006  0.6048848E+03  0.7546771E-02  0.9895323E-01
          2   -1    0    0  501    0  0.00000000000E+00  0.00000000000E+00  0.66293719718E+03  0.66293719718E+03  0.00000000000E+00 0. -1.
         -2   -1    0    0    0  501 -0.00000000000E+00 -0.00000000000E+00 -0.13797900233E+03  0.13797900233E+03  0.00000000000E+00 0.  1.
          5    1    1    2  502    0  0.20017197160E+02  0.36124718167E+02  0.17777397324E+03  0.18256877884E+03  0.47000000000E+01 0. -1.
         -5    1    1    2    0  502 -0.19109332038E+02 -0.83969392558E+02  0.42662410721E+03  0.43525422952E+03  0.47000000000E+01 0.  1.
        -11    1    1    2    0    0 -0.70188933703E+02  0.62279699409E+02 -0.39304212294E+02  0.10173528629E+03  0.00000000000E+00 0.  1.
         11    1    1    2    0    0  0.69281068580E+02 -0.14435025019E+02 -0.40135673311E+02  0.81357904859E+02  0.00000000000E+00 0. -1.
<mgrwt>
<rscale>  0 0.60488483E+03</rscale>
<asrwt>0</asrwt>
<pdfrwt beam="1">  1        2 0.10199034E+00 0.60488483E+03</pdfrwt>
<pdfrwt beam="2">  1       -2 0.21227539E-01 0.60488483E+03</pdfrwt>
<totfact> 0.84698360E+02</totfact>
</mgrwt>
</event>
<event>
 6    1  0.5258538E-006  0.1753669E+03  0.7546771E-02  0.1178353E+00
          2   -1    0    0  501    0  0.00000000000E+00  0.00000000000E+00  0.16560263905E+04  0.16560263905E+04  0.00000000000E+00 0. -1.
         -2   -1    0    0    0  501 -0.00000000000E+00 -0.00000000000E+00 -0.16298158069E+02  0.16298158069E+02  0.00000000000E+00 0.  1.
          5    1    1    2  502    0 -0.45354478666E+02 -0.10878795073E+03  0.43536903925E+03  0.45106555764E+03  0.47000000000E+01 0.  1.
         -5    1    1    2    0  502 -0.31903547223E+02  0.12944916034E+02  0.46031073854E+03  0.46162048611E+03  0.47000000000E+01 0.  1.
        -11    1    1    2    0    0  0.56572753253E+02  0.10529507455E+03  0.69930407423E+03  0.70944606375E+03  0.00000000000E+00 0. -1.
         11    1    1    2    0    0  0.20685272636E+02 -0.94520398580E+01  0.44744380381E+02  0.50192441037E+02  0.00000000000E+00 0.  1.
<mgrwt>
<rscale>  0 0.16951625E+03</rscale>
<asrwt>0</asrwt>
<pdfrwt beam="1">  1        2 0.25477316E+00 0.17536690E+03</pdfrwt>
<pdfrwt beam="2">  1       -2 0.25074102E-02 0.17536690E+03</pdfrwt>
<totfact> 0.61809321E+03</totfact>
</mgrwt>
</event>
<event>
 6    1  0.5258538E-006  0.1456397E+03  0.7546771E-02  0.1215826E+00
          2   -1    0    0  501    0  0.00000000000E+00  0.00000000000E+00  0.10713896547E+03  0.10713896547E+03  0.00000000000E+00 0. -1.
         -2   -1    0    0    0  501 -0.00000000000E+00 -0.00000000000E+00 -0.21257945471E+03  0.21257945471E+03  0.00000000000E+00 0.  1.
          5    1    1    2  502    0  0.59886779430E+02 -0.90150570244E+01 -0.20598447283E+02  0.64141122800E+02  0.47000000000E+01 0. -1.
         -5    1    1    2    0  502 -0.16555936804E+02  0.69903093504E+02  0.41206286082E+02  0.82949319090E+02  0.47000000000E+01 0. -1.
        -11    1    1    2    0    0 -0.27457561005E+02  0.97557863292E+01 -0.83973387769E+02  0.88885448059E+02  0.00000000000E+00 0.  1.
         11    1    1    2    0    0 -0.15873281621E+02 -0.70643822809E+02 -0.42074940273E+02  0.83742530230E+02  0.00000000000E+00 0. -1.
<mgrwt>
<rscale>  0 0.13816066E+03</rscale>
<asrwt>0</asrwt>
<pdfrwt beam="1">  1        2 0.16482918E-01 0.14563968E+03</pdfrwt>
<pdfrwt beam="2">  1       -2 0.32704532E-01 0.14563968E+03</pdfrwt>
<totfact> 0.29359341E+03</totfact>
</mgrwt>
</event>
<event>
 6    1  0.5258538E-006  0.1383540E+03  0.7546771E-02  0.1229952E+00
          1   -1    0    0  501    0  0.00000000000E+00  0.00000000000E+00  0.95253000974E+02  0.95253000974E+02  0.00000000000E+00 0. -1.
         -1   -1    0    0    0  501 -0.00000000000E+00 -0.00000000000E+00 -0.15747830083E+03  0.15747830083E+03  0.00000000000E+00 0.  1.
          5    1    1    2  502    0 -0.19815146913E+02 -0.12134384032E+02 -0.89785696836E+02  0.92862504163E+02  0.47000000000E+01 0.  1.
         -5    1    1    2    0  502  0.11412296229E+02 -0.46567260174E+02  0.31187673161E+02  0.57389120769E+02  0.47000000000E+01 0.  1.
        -11    1    1    2    0    0  0.21719200384E+02  0.76139220595E+02 -0.95588211640E+01  0.79751336291E+02  0.00000000000E+00 0.  1.
         11    1    1    2    0    0 -0.13316349700E+02 -0.17437576389E+02  0.59315449842E+01  0.22728340580E+02  0.00000000000E+00 0. -1.
<mgrwt>
<rscale>  0 0.12833204E+03</rscale>
<asrwt>0</asrwt>
<pdfrwt beam="1">  1        1 0.14654308E-01 0.13835398E+03</pdfrwt>
<pdfrwt beam="2">  1       -1 0.24227431E-01 0.13835398E+03</pdfrwt>
<totfact> 0.53802877E+03</totfact>
</mgrwt>
</event>
<event>
 6    1  0.5258538E-006  0.2270323E+03  0.7546771E-02  0.1131500E+00
         -2   -1    0    0    0  501 -0.00000000000E+00  0.00000000000E+00  0.55945596312E+02  0.55945596312E+02  0.00000000000E+00 0.  1.
          2   -1    0    0  501    0  0.00000000000E+00 -0.00000000000E+00 -0.86611828063E+03  0.86611828063E+03  0.00000000000E+00 0. -1.
          5    1    1    2  502    0 -0.74432628127E+02 -0.40170697926E+02 -0.30663269433E+03  0.31811884624E+03  0.47000000000E+01 0.  1.
         -5    1    1    2    0  502 -0.11475262414E+03  0.28806019279E+02 -0.14363754000E+03  0.18614989764E+03  0.47000000000E+01 0.  1.
        -11    1    1    2    0    0  0.97740852050E+02  0.14733574209E+02 -0.27777752833E+03  0.29484013908E+03  0.00000000000E+00 0. -1.
         11    1    1    2    0    0  0.91444400213E+02 -0.33688955620E+01 -0.82124921652E+02  0.12295499398E+03  0.00000000000E+00 0.  1.
<mgrwt>
<rscale>  0 0.22322616E+03</rscale>
<asrwt>0</asrwt>
<pdfrwt beam="2">  1        2 0.13324897E+00 0.22703234E+03</pdfrwt>
<pdfrwt beam="1">  1       -2 0.86070146E-02 0.22703234E+03</pdfrwt>
<totfact> 0.26819074E+03</totfact>
</mgrwt>
</event>
<event>
 6    1  0.5258538E-006  0.3097983E+03  0.7546771E-02  0.1113793E+00
         -2   -1    0    0    0  501 -0.00000000000E+00  0.00000000000E+00  0.18589677365E+03  0.18589677365E+03  0.00000000000E+00 0.  1.
          2   -1    0    0  501    0  0.00000000000E+00 -0.00000000000E+00 -0.42234562770E+03  0.42234562770E+03  0.00000000000E+00 0. -1.
          5    1    1    2  502    0  0.12736342862E+02  0.98828876951E+01 -0.34440952009E+03  0.34481863846E+03  0.47000000000E+01 0. -1.
         -5    1    1    2    0  502 -0.10793783797E+02 -0.10320794406E+03  0.17750125935E+02  0.10538283758E+03  0.47000000000E+01 0.  1.
        -11    1    1    2    0    0  0.22452043671E+02 -0.11163685792E+01 -0.35328127597E+01  0.22755687417E+02  0.00000000000E+00 0. -1.
         11    1    1    2    0    0 -0.24394602736E+02  0.94441424940E+02  0.93743352869E+02  0.13528523790E+03  0.00000000000E+00 0.  1.
<mgrwt>
<rscale>  0 0.24922914E+03</rscale>
<asrwt>0</asrwt>
<pdfrwt beam="2">  1        2 0.64976249E-01 0.30979834E+03</pdfrwt>
<pdfrwt beam="1">  1       -2 0.28599504E-01 0.30979834E+03</pdfrwt>
<totfact> 0.84138422E+02</totfact>
</mgrwt>
</event>
<event>
 6    1  0.5258538E-006  0.1260487E+03  0.7546771E-02  0.1250080E+00
          2   -1    0    0  501    0  0.00000000000E+00  0.00000000000E+00  0.48018976208E+03  0.48018976208E+03  0.00000000000E+00 0. -1.
         -2   -1    0    0    0  501 -0.00000000000E+00 -0.00000000000E+00 -0.24319661839E+02  0.24319661839E+02  0.00000000000E+00 0.  1.
          5    1    1    2  502    0 -0.37614110448E+02  0.27191295639E+02  0.25166500765E+03  0.25595224934E+03  0.47000000000E+01 0.  1.
         -5    1    1    2    0  502  0.23260398067E+02 -0.19914208555E+02  0.69554816528E+01  0.31750441660E+02  0.47000000000E+01 0.  1.
        -11    1    1    2    0    0 -0.26598801029E+02 -0.58083375594E+01  0.17315910056E+02  0.32265674368E+02  0.00000000000E+00 0.  1.
         11    1    1    2    0    0  0.40952513410E+02 -0.14687495254E+01  0.17993370088E+03  0.18454105856E+03  0.00000000000E+00 0. -1.
<mgrwt>
<rscale>  0 0.11586423E+03</rscale>
<asrwt>0</asrwt>
<pdfrwt beam="1">  1        2 0.73875341E-01 0.12604872E+03</pdfrwt>
<pdfrwt beam="2">  1       -2 0.37414868E-02 0.12604872E+03</pdfrwt>
<totfact> 0.18528233E+04</totfact>
</mgrwt>
</event>
<event>
 6    1  0.5258538E-006  0.1365740E+03  0.7546771E-02  0.1228079E+00
          1   -1    0    0  501    0  0.00000000000E+00  0.00000000000E+00  0.18308051160E+03  0.18308051160E+03  0.00000000000E+00 0. -1.
         -1   -1    0    0    0  501 -0.00000000000E+00 -0.00000000000E+00 -0.26085623223E+03  0.26085623223E+03  0.00000000000E+00 0.  1.
          5    1    1    2  502    0 -0.54880833885E+02  0.63225693216E+02  0.44050540300E+02  0.94720295139E+02  0.47000000000E+01 0.  1.
         -5    1    1    2    0  502  0.18489654015E+02 -0.21942861244E+02  0.98473946117E+02  0.10267699123E+03  0.47000000000E+01 0.  1.
        -11    1    1    2    0    0 -0.22891847250E+02 -0.19086824675E+02 -0.14562570489E+03  0.14864450703E+03  0.00000000000E+00 0.  1.
         11    1    1    2    0    0  0.59283027120E+02 -0.22196007297E+02 -0.74674502158E+02  0.97894950416E+02  0.00000000000E+00 0. -1.
<mgrwt>
<rscale>  0 0.12958088E+03</rscale>
<asrwt>0</asrwt>
<pdfrwt beam="1">  1        1 0.28166233E-01 0.13657401E+03</pdfrwt>
<pdfrwt beam="2">  1       -1 0.40131728E-01 0.13657401E+03</pdfrwt>
<totfact> 0.99821585E+02</totfact>
</mgrwt>
</event>
<event>
 6    1  0.5343330E-006  0.1320816E+03  0.7546771E-02  0.1238583E+00
         -3   -1    0    0    0  501 -0.00000000000E+00  0.00000000000E+00  0.36211515561E+03  0.36211515561E+03  0.00000000000E+00 0.  1.
          3   -1    0    0  501    0  0.00000000000E+00 -0.00000000000E+00 -0.39726904349E+02  0.39726904349E+02  0.00000000000E+00 0. -1.
          5    1    1    2  502    0  0.31116362130E+01  0.63288425397E+02  0.12762343079E+03  0.14256555389E+03  0.47000000000E+01 0. -1.
         -5    1    1    2    0  502 -0.29018161910E+02 -0.29390395423E+02  0.68034306856E+00  0.41574053572E+02  0.47000000000E+01 0. -1.
        -11    1    1    2    0    0  0.52926280068E+02 -0.21207316245E+02  0.17012331796E+03  0.17942375734E+03  0.00000000000E+00 0.  1.
         11    1    1    2    0    0 -0.27019754371E+02 -0.12690713729E+02  0.23961159439E+02  0.38278695156E+02  0.00000000000E+00 0. -1.
<mgrwt>
<rscale>  0 0.12277813E+03</rscale>
<asrwt>0</asrwt>
<pdfrwt beam="2">  1        3 0.61118317E-02 0.13208155E+03</pdfrwt>
<pdfrwt beam="1">  1       -3 0.55710022E-01 0.13208155E+03</pdfrwt>
<totfact> 0.12152524E+03</totfact>
</mgrwt>
</event>
<event>
 6    1  0.5258538E-006  0.1296149E+03  0.7546771E-02  0.1242777E+00
         -1   -1    0    0    0  501 -0.00000000000E+00  0.00000000000E+00  0.23850003968E+03  0.23850003968E+03  0.00000000000E+00 0.  1.
          1   -1    0    0  501    0  0.00000000000E+00 -0.00000000000E+00 -0.89142678900E+02  0.89142678900E+02  0.00000000000E+00 0. -1.
          5    1    1    2  502    0  0.56883871141E+02  0.12430680223E+02 -0.60808898531E+02  0.84321460776E+02  0.47000000000E+01 0.  1.
         -5    1    1    2    0  502 -0.22599379974E+02 -0.12996025330E+02  0.38969485477E+02  0.47120478011E+02  0.47000000000E+01 0.  1.
        -11    1    1    2    0    0 -0.47001992312E+02 -0.40449038651E+01  0.17571590670E+03  0.18193852917E+03  0.00000000000E+00 0.  1.
         11    1    1    2    0    0  0.12717501144E+02  0.46102489720E+01 -0.45191328682E+01  0.14262250623E+02  0.00000000000E+00 0. -1.
<mgrwt>
<rscale>  0 0.12019446E+03</rscale>
<asrwt>0</asrwt>
<pdfrwt beam="2">  1        1 0.13714258E-01 0.12961490E+03</pdfrwt>
<pdfrwt beam="1">  1       -1 0.36692314E-01 0.12961490E+03</pdfrwt>
<totfact> 0.29096515E+03</totfact>
</mgrwt>
</event>
<event>
 6    1  0.5258538E-006  0.4053032E+03  0.7546771E-02  0.1041959E+00
         -1   -1    0    0    0  501 -0.00000000000E+00  0.00000000000E+00  0.24946885025E+02  0.24946885025E+02  0.00000000000E+00 0.  1.
          1   -1    0    0  501    0  0.00000000000E+00 -0.00000000000E+00 -0.16462047668E+04  0.16462047668E+04  0.00000000000E+00 0. -1.
          5    1    1    2  502    0  0.85596471109E+02  0.75152035628E+02 -0.46818766156E+03  0.48186757596E+03  0.47000000000E+01 0. -1.
         -5    1    1    2    0  502  0.49699218471E+02 -0.14316661037E+02 -0.73759305021E+03  0.73941908064E+03  0.47000000000E+01 0. -1.
        -11    1    1    2    0    0 -0.71060387285E+02 -0.30546757978E+02 -0.32896942120E+03  0.33794017688E+03  0.00000000000E+00 0. -1.
         11    1    1    2    0    0 -0.64235302295E+02 -0.30288616613E+02 -0.86507748790E+02  0.11192481833E+03  0.00000000000E+00 0.  1.
<mgrwt>
<rscale>  0 0.40530325E+03</rscale>
<asrwt>0</asrwt>
<pdfrwt beam="2">  1        1 0.25326223E+00 0.40530325E+03</pdfrwt>
<pdfrwt beam="1">  1       -1 0.38379830E-02 0.40530325E+03</pdfrwt>
<totfact> 0.14910614E+03</totfact>
</mgrwt>
</event>
<event>
 6    1  0.5258538E-006  0.1284227E+03  0.7546771E-02  0.1244857E+00
         -2   -1    0    0    0  501 -0.00000000000E+00  0.00000000000E+00  0.38384252330E+02  0.38384252330E+02  0.00000000000E+00 0.  1.
          2   -1    0    0  501    0  0.00000000000E+00 -0.00000000000E+00 -0.34152213658E+03  0.34152213658E+03  0.00000000000E+00 0. -1.
          5    1    1    2  502    0 -0.58436973744E+02 -0.24976311455E+01 -0.19910704386E+03  0.20757365675E+03  0.47000000000E+01 0. -1.
         -5    1    1    2    0  502  0.36476804547E+02 -0.17062616026E+02 -0.17322495253E+02  0.44089102706E+02  0.47000000000E+01 0. -1.
        -11    1    1    2    0    0 -0.24965534322E+02 -0.13008108961E+02 -0.50660939336E+01  0.28603393338E+02  0.00000000000E+00 0.  1.
         11    1    1    2    0    0  0.46925703519E+02  0.32568356132E+02 -0.81642251201E+02  0.99640236114E+02  0.00000000000E+00 0. -1.
<mgrwt>
<rscale>  0 0.11893954E+03</rscale>
<asrwt>0</asrwt>
<pdfrwt beam="2">  1        2 0.52541867E-01 0.12842274E+03</pdfrwt>
<pdfrwt beam="1">  1       -2 0.59052696E-02 0.12842274E+03</pdfrwt>
<totfact> 0.13506956E+04</totfact>
</mgrwt>
</event>
<event>
 6    1  0.5258538E-006  0.1384310E+03  0.7546771E-02  0.1228190E+00
         -2   -1    0    0    0  501 -0.00000000000E+00  0.00000000000E+00  0.17156767365E+02  0.17156767365E+02  0.00000000000E+00 0.  1.
          2   -1    0    0  501    0  0.00000000000E+00 -0.00000000000E+00 -0.91981511941E+03  0.91981511941E+03  0.00000000000E+00 0. -1.
          5    1    1    2  502    0 -0.44243252064E+02 -0.27284643959E+02 -0.52943445771E+03  0.53200080090E+03  0.47000000000E+01 0.  1.
         -5    1    1    2    0  502  0.36550334430E+02 -0.31668691778E+02 -0.85684736452E+02  0.98502776848E+02  0.47000000000E+01 0.  1.
        -11    1    1    2    0    0  0.19548938570E+02  0.54758011629E+02 -0.28807156940E+03  0.29388063892E+03  0.00000000000E+00 0. -1.
         11    1    1    2    0    0 -0.11856020935E+02  0.41953241077E+01  0.53241151113E+00  0.12587670110E+02  0.00000000000E+00 0.  1.
<mgrwt>
<rscale>  0 0.12950614E+03</rscale>
<asrwt>0</asrwt>
<pdfrwt beam="2">  1        2 0.14151004E+00 0.13843099E+03</pdfrwt>
<pdfrwt beam="1">  1       -2 0.26395022E-02 0.13843099E+03</pdfrwt>
<totfact> 0.14484333E+04</totfact>
</mgrwt>
</event>
<event>
 6    1  0.5258538E-006  0.1283021E+03  0.7546771E-02  0.1244343E+00
          1   -1    0    0  501    0  0.00000000000E+00  0.00000000000E+00  0.60168283666E+02  0.60168283666E+02  0.00000000000E+00 0. -1.
         -1   -1    0    0    0  501 -0.00000000000E+00 -0.00000000000E+00 -0.30297499120E+03  0.30297499120E+03  0.00000000000E+00 0.  1.
          5    1    1    2  502    0  0.54645246051E+01  0.63770095631E+02 -0.23568879945E+02  0.68367157523E+02  0.47000000000E+01 0. -1.
         -5    1    1    2    0  502 -0.32733721692E+02 -0.54099491676E+02 -0.93612905389E+01  0.64093488717E+02  0.47000000000E+01 0. -1.
        -11    1    1    2    0    0  0.18986479103E+02 -0.50070832757E+02 -0.10221739388E+03  0.11539484518E+03  0.00000000000E+00 0.  1.
         11    1    1    2    0    0  0.82827179838E+01  0.40400228801E+02 -0.10765914317E+03  0.11528778344E+03  0.00000000000E+00 0. -1.
<mgrwt>
<rscale>  0 0.11924760E+03</rscale>
<asrwt>0</asrwt>
<pdfrwt beam="1">  1        1 0.92566589E-02 0.12830209E+03</pdfrwt>
<pdfrwt beam="2">  1       -1 0.46611538E-01 0.12830209E+03</pdfrwt>
<totfact> 0.31992713E+03</totfact>
</mgrwt>
</event>
<event>
 6    1  0.5258538E-006  0.1719687E+03  0.7546771E-02  0.1192379E+00
          2   -1    0    0  501    0  0.00000000000E+00  0.00000000000E+00  0.43574448770E+03  0.43574448770E+03  0.00000000000E+00 0. -1.
         -2   -1    0    0    0  501 -0.00000000000E+00 -0.00000000000E+00 -0.90338984560E+02  0.90338984560E+02  0.00000000000E+00 0.  1.
          5    1    1    2  502    0 -0.14344419209E+02  0.56350369328E+02  0.25419147762E+03  0.26079977718E+03  0.47000000000E+01 0. -1.
         -5    1    1    2    0  502 -0.64561533831E+02 -0.62956313175E+02  0.11284491842E+03  0.14452596525E+03  0.47000000000E+01 0.  1.
        -11    1    1    2    0    0  0.21939598235E+02  0.34704867003E+01 -0.51697519271E+02  0.56267430610E+02  0.00000000000E+00 0.  1.
         11    1    1    2    0    0  0.56966354805E+02  0.31354571475E+01  0.30066626378E+02  0.64490299217E+02  0.00000000000E+00 0. -1.
<mgrwt>
<rscale>  0 0.15678172E+03</rscale>
<asrwt>0</asrwt>
<pdfrwt beam="1">  1        2 0.67037613E-01 0.17196872E+03</pdfrwt>
<pdfrwt beam="2">  1       -2 0.13898306E-01 0.17196872E+03</pdfrwt>
<totfact> 0.27722135E+03</totfact>
</mgrwt>
</event>
<event>
 6    1  0.5258538E-006  0.1579411E+03  0.7546771E-02  0.1199310E+00
          2   -1    0    0  501    0  0.00000000000E+00  0.00000000000E+00  0.38453264560E+03  0.38453264560E+03  0.00000000000E+00 0. -1.
         -2   -1    0    0    0  501 -0.00000000000E+00 -0.00000000000E+00 -0.64604102006E+02  0.64604102006E+02  0.00000000000E+00 0.  1.
          5    1    1    2  502    0 -0.42589758555E+01 -0.10693416976E+02  0.16226773996E+03  0.16274334848E+03  0.47000000000E+01 0.  1.
         -5    1    1    2    0  502 -0.59659425688E+02  0.83048881961E+02  0.98087769652E+02  0.14177328530E+03  0.47000000000E+01 0.  1.
        -11    1    1    2    0    0 -0.11338275593E+02  0.39240424351E+00  0.35429527795E+02  0.37201638596E+02  0.00000000000E+00 0. -1.
         11    1    1    2    0    0  0.75256677137E+02 -0.72747869228E+02  0.24143506188E+02  0.10741847524E+03  0.00000000000E+00 0.  1.
<mgrwt>
<rscale>  0 0.15095028E+03</rscale>
<asrwt>0</asrwt>
<pdfrwt beam="1">  1        2 0.59158867E-01 0.15794109E+03</pdfrwt>
<pdfrwt beam="2">  1       -2 0.99390928E-02 0.15794109E+03</pdfrwt>
<totfact> 0.54075450E+03</totfact>
</mgrwt>
</event>
<event>
 6    1  0.5258538E-006  0.1275979E+03  0.7546771E-02  0.1246388E+00
          2   -1    0    0  501    0  0.00000000000E+00  0.00000000000E+00  0.56405525928E+03  0.56405525928E+03  0.00000000000E+00 0. -1.
         -2   -1    0    0    0  501 -0.00000000000E+00 -0.00000000000E+00 -0.27025869076E+02  0.27025869076E+02  0.00000000000E+00 0.  1.
          5    1    1    2  502    0  0.38576695870E+02  0.34056748117E+02  0.28785372944E+03  0.29245492492E+03  0.47000000000E+01 0. -1.
         -5    1    1    2    0  502 -0.28939930779E+02 -0.57704211570E+02  0.14449118851E+03  0.15832589549E+03  0.47000000000E+01 0. -1.
        -11    1    1    2    0    0  0.24492618772E+02  0.41150454575E+02  0.30468851864E+02  0.56759133361E+02  0.00000000000E+00 0.  1.
         11    1    1    2    0    0 -0.34129383862E+02 -0.17502991122E+02  0.74215620391E+02  0.83541174585E+02  0.00000000000E+00 0. -1.
<mgrwt>
<rscale>  0 0.11802673E+03</rscale>
<asrwt>0</asrwt>
<pdfrwt beam="1">  1        2 0.86777724E-01 0.12759788E+03</pdfrwt>
<pdfrwt beam="2">  1       -2 0.41578264E-02 0.12759788E+03</pdfrwt>
<totfact> 0.13281207E+04</totfact>
</mgrwt>
</event>
<event>
 6    1  0.5258538E-006  0.2971060E+03  0.7546771E-02  0.1086696E+00
          1   -1    0    0  501    0  0.00000000000E+00  0.00000000000E+00  0.34332698004E+03  0.34332698004E+03  0.00000000000E+00 0. -1.
         -1   -1    0    0    0  501 -0.00000000000E+00 -0.00000000000E+00 -0.64276918561E+02  0.64276918561E+02  0.00000000000E+00 0.  1.
          5    1    1    2  502    0  0.15718815624E+02 -0.40459267608E+02  0.33414144140E+02  0.54978436942E+02  0.47000000000E+01 0.  1.
         -5    1    1    2    0  502  0.66520948005E+02  0.84362097691E+02  0.17339470645E+03  0.20403385571E+03  0.47000000000E+01 0.  1.
        -11    1    1    2    0    0 -0.50989682883E+02  0.52215181156E+01  0.74380147003E+02  0.90330605445E+02  0.00000000000E+00 0. -1.
         11    1    1    2    0    0 -0.31250080746E+02 -0.49124348198E+02 -0.21389361106E+01  0.58261000509E+02  0.00000000000E+00 0.  1.
<mgrwt>
<rscale>  0 0.29710604E+03</rscale>
<asrwt>0</asrwt>
<pdfrwt beam="1">  1        1 0.52819534E-01 0.29710604E+03</pdfrwt>
<pdfrwt beam="2">  1       -1 0.98887569E-02 0.29710604E+03</pdfrwt>
<totfact> 0.45637702E+03</totfact>
</mgrwt>
</event>
<event>
 6    1  0.5258538E-006  0.1557179E+03  0.7546771E-02  0.1202177E+00
          3   -1    0    0  501    0  0.00000000000E+00  0.00000000000E+00  0.10680547147E+03  0.10680547147E+03  0.00000000000E+00 0. -1.
         -3   -1    0    0    0  501 -0.00000000000E+00 -0.00000000000E+00 -0.19120003821E+03  0.19120003821E+03  0.00000000000E+00 0.  1.
          5    1    1    2  502    0  0.97550186681E+02  0.32448647060E+02 -0.41085133320E+02  0.11081079278E+03  0.47000000000E+01 0. -1.
         -5    1    1    2    0  502 -0.33294795651E+02  0.34593053066E+02  0.65666407037E+01  0.48687097962E+02  0.47000000000E+01 0. -1.
        -11    1    1    2    0    0 -0.76603800035E+02 -0.46843105683E+02 -0.76734201760E+01  0.90118256236E+02  0.00000000000E+00 0.  1.
         11    1    1    2    0    0  0.12348409006E+02 -0.20198594442E+02 -0.42202653944E+02  0.48389362698E+02  0.00000000000E+00 0. -1.
<mgrwt>
<rscale>  0 0.14862189E+03</rscale>
<asrwt>0</asrwt>
<pdfrwt beam="1">  1        3 0.16431611E-01 0.15571786E+03</pdfrwt>
<pdfrwt beam="2">  1       -3 0.29415390E-01 0.15571786E+03</pdfrwt>
<totfact> 0.83231455E+02</totfact>
</mgrwt>
</event>
<event>
 6    1  0.5258538E-006  0.1328679E+03  0.7546771E-02  0.1233159E+00
         -2   -1    0    0    0  501 -0.00000000000E+00  0.00000000000E+00  0.47074963436E+02  0.47074963436E+02  0.00000000000E+00 0. -1.
          2   -1    0    0  501    0  0.00000000000E+00 -0.00000000000E+00 -0.52953927074E+03  0.52953927074E+03  0.00000000000E+00 0.  1.
          5    1    1    2  502    0 -0.45377626861E+02 -0.40993620623E+02 -0.33886688895E+03  0.34437256624E+03  0.47000000000E+01 0.  1.
         -5    1    1    2    0  502  0.26417676645E+01  0.55207215965E+02 -0.10233419215E+03  0.11640099877E+03  0.47000000000E+01 0.  1.
        -11    1    1    2    0    0  0.22736505541E+02  0.98596712546E+01 -0.69439284918E+02  0.73729072226E+02  0.00000000000E+00 0.  1.
         11    1    1    2    0    0  0.19999353655E+02 -0.24073266596E+02  0.28176058723E+02  0.42111596935E+02  0.00000000000E+00 0. -1.
<mgrwt>
<rscale>  0 0.12623053E+03</rscale>
<asrwt>0</asrwt>
<pdfrwt beam="2">  1        2 0.81467583E-01 0.13286792E+03</pdfrwt>
<pdfrwt beam="1">  1       -2 0.72423019E-02 0.13286792E+03</pdfrwt>
<totfact> 0.61874219E+03</totfact>
</mgrwt>
</event>
<event>
 6    1  0.5258538E-006  0.1515548E+03  0.7546771E-02  0.1206701E+00
          3   -1    0    0  501    0  0.00000000000E+00  0.00000000000E+00  0.21263875380E+03  0.21263875380E+03  0.00000000000E+00 0. -1.
         -3   -1    0    0    0  501 -0.00000000000E+00 -0.00000000000E+00 -0.10202951977E+03  0.10202951977E+03  0.00000000000E+00 0.  1.
          5    1    1    2  502    0  0.70214367534E+02 -0.43195980981E+02  0.69872162094E+02  0.10816727424E+03  0.47000000000E+01 0.  1.
         -5    1    1    2    0  502  0.12146047827E+02  0.66951573524E+02  0.40578667651E+02  0.79364714726E+02  0.47000000000E+01 0.  1.
        -11    1    1    2    0    0 -0.43144021026E+02 -0.23405186671E+02 -0.45512745501E+02  0.66937428367E+02  0.00000000000E+00 0.  1.
         11    1    1    2    0    0 -0.39216394335E+02 -0.35040587156E+00  0.45671149783E+02  0.60198856230E+02  0.00000000000E+00 0. -1.
<mgrwt>
<rscale>  0 0.14504227E+03</rscale>
<asrwt>0</asrwt>
<pdfrwt beam="1">  1        3 0.32713654E-01 0.15155481E+03</pdfrwt>
<pdfrwt beam="2">  1       -3 0.15696849E-01 0.15155481E+03</pdfrwt>
<totfact> 0.73612140E+02</totfact>
</mgrwt>
</event>
<event>
 6    1  0.5258538E-006  0.1316082E+03  0.7546771E-02  0.1238422E+00
         -2   -1    0    0    0  501 -0.00000000000E+00  0.00000000000E+00  0.16154646121E+03  0.16154646121E+03  0.00000000000E+00 0. -1.
          2   -1    0    0  501    0  0.00000000000E+00 -0.00000000000E+00 -0.86875716253E+02  0.86875716253E+02  0.00000000000E+00 0.  1.
          5    1    1    2  502    0  0.15602032124E+02 -0.18921564990E+02 -0.41944577756E+02  0.48814819791E+02  0.47000000000E+01 0. -1.
         -5    1    1    2    0  502 -0.85054905100E+01  0.59473853060E+02  0.58226381453E+02  0.83796682892E+02  0.47000000000E+01 0. -1.
        -11    1    1    2    0    0  0.90004420917E+01 -0.41453470140E+02 -0.11609724407E+02  0.43979357036E+02  0.00000000000E+00 0.  1.
         11    1    1    2    0    0 -0.16096983706E+02  0.90118206995E+00  0.69998665664E+02  0.71831317740E+02  0.00000000000E+00 0. -1.
<mgrwt>
<rscale>  0 0.12287898E+03</rscale>
<asrwt>0</asrwt>
<pdfrwt beam="2">  1        2 0.13365495E-01 0.13160818E+03</pdfrwt>
<pdfrwt beam="1">  1       -2 0.24853302E-01 0.13160818E+03</pdfrwt>
<totfact> 0.60888746E+03</totfact>
</mgrwt>
</event>
<event>
 6    1  0.5258538E-006  0.4404058E+03  0.7546771E-02  0.1030622E+00
          2   -1    0    0  501    0  0.00000000000E+00  0.00000000000E+00  0.86517181594E+03  0.86517181594E+03  0.00000000000E+00 0. -1.
         -2   -1    0    0    0  501 -0.00000000000E+00 -0.00000000000E+00 -0.56045879846E+02  0.56045879846E+02  0.00000000000E+00 0.  1.
          5    1    1    2  502    0  0.20793211497E+02 -0.30672543468E+02  0.25657735854E+02  0.45316354402E+02  0.47000000000E+01 0.  1.
         -5    1    1    2    0  502 -0.14218207706E+02 -0.14250103530E+03  0.56214114869E+03  0.58011504337E+03  0.47000000000E+01 0.  1.
        -11    1    1    2    0    0 -0.16188085247E+02  0.10868684175E+03  0.68131077456E+02  0.12929318385E+03  0.00000000000E+00 0. -1.
         11    1    1    2    0    0  0.96130814555E+01  0.64486737020E+02  0.15319597410E+03  0.16649311417E+03  0.00000000000E+00 0.  1.
<mgrwt>
<rscale>  0 0.44040579E+03</rscale>
<asrwt>0</asrwt>
<pdfrwt beam="1">  1        2 0.13310335E+00 0.44040579E+03</pdfrwt>
<pdfrwt beam="2">  1       -2 0.86224437E-02 0.44040579E+03</pdfrwt>
<totfact> 0.27013790E+03</totfact>
</mgrwt>
</event>
<event>
 6    1  0.5258538E-006  0.4569513E+03  0.7546771E-02  0.1025669E+00
         -2   -1    0    0    0  501 -0.00000000000E+00  0.00000000000E+00  0.95002958647E+02  0.95002958647E+02  0.00000000000E+00 0.  1.
          2   -1    0    0  501    0  0.00000000000E+00 -0.00000000000E+00 -0.54946840846E+03  0.54946840846E+03  0.00000000000E+00 0. -1.
          5    1    1    2  502    0  0.56246224811E+01  0.11205469393E+03 -0.21528181406E+03  0.24280906135E+03  0.47000000000E+01 0.  1.
         -5    1    1    2    0  502 -0.37914341073E+02  0.24157703670E+00 -0.25072459379E+03  0.25361874448E+03  0.47000000000E+01 0.  1.
        -11    1    1    2    0    0 -0.26920421577E+02 -0.68298549115E+02  0.22288711014E+00  0.73412877534E+02  0.00000000000E+00 0.  1.
         11    1    1    2    0    0  0.59210140169E+02 -0.43997721848E+02  0.11318070929E+02  0.74630683744E+02  0.00000000000E+00 0. -1.
<mgrwt>
<rscale>  0 0.45695131E+03</rscale>
<asrwt>0</asrwt>
<pdfrwt beam="2">  1        2 0.84533602E-01 0.45695131E+03</pdfrwt>
<pdfrwt beam="1">  1       -2 0.14615840E-01 0.45695131E+03</pdfrwt>
<totfact> 0.20091704E+03</totfact>
</mgrwt>
</event>
<event>
 6    1  0.5258538E-006  0.1263861E+03  0.7546771E-02  0.1287307E+00
         -2   -1    0    0    0  501 -0.00000000000E+00  0.00000000000E+00  0.20709681062E+02  0.20709681062E+02  0.00000000000E+00 0. -1.
          2   -1    0    0  501    0  0.00000000000E+00 -0.00000000000E+00 -0.49418512860E+03  0.49418512860E+03  0.00000000000E+00 0.  1.
          5    1    1    2  502    0  0.21111961668E+02 -0.50385652465E+02 -0.29204621315E+03  0.29714896856E+03  0.47000000000E+01 0. -1.
         -5    1    1    2    0  502 -0.69985117804E+01  0.62608688249E+02 -0.15391246373E+03  0.16637296506E+03  0.47000000000E+01 0. -1.
        -11    1    1    2    0    0 -0.25476352740E+02 -0.91746387894E+01 -0.28809454990E+02  0.39537365146E+02  0.00000000000E+00 0.  1.
         11    1    1    2    0    0  0.11362902852E+02 -0.30483969952E+01  0.12926843307E+01  0.11835510899E+02  0.00000000000E+00 0. -1.
<mgrwt>
<rscale>  0 0.96739064E+02</rscale>
<asrwt>0</asrwt>
<pdfrwt beam="2">  1        2 0.76028480E-01 0.12638608E+03</pdfrwt>
<pdfrwt beam="1">  1       -2 0.31861048E-02 0.12638608E+03</pdfrwt>
<totfact> 0.22763098E+04</totfact>
</mgrwt>
</event>
<event>
 6    1  0.5258538E-006  0.1643097E+03  0.7546771E-02  0.1201874E+00
          2   -1    0    0  501    0  0.00000000000E+00  0.00000000000E+00  0.49985592899E+03  0.49985592899E+03  0.00000000000E+00 0. -1.
         -2   -1    0    0    0  501 -0.00000000000E+00 -0.00000000000E+00 -0.39052410908E+02  0.39052410908E+02  0.00000000000E+00 0.  1.
          5    1    1    2  502    0  0.66576268898E+02  0.11348529758E+02  0.13812889934E+03  0.15382740829E+03  0.47000000000E+01 0. -1.
         -5    1    1    2    0  502 -0.66921582847E+02 -0.69393083482E+02  0.18258429338E+03  0.20652605762E+03  0.47000000000E+01 0.  1.
        -11    1    1    2    0    0 -0.38670763273E+02  0.44115522693E+01  0.80404566149E+02  0.89329636645E+02  0.00000000000E+00 0.  1.
         11    1    1    2    0    0  0.39016077222E+02  0.53633001454E+02  0.59685759217E+02  0.89225237349E+02  0.00000000000E+00 0. -1.
<mgrwt>
<rscale>  0 0.14886526E+03</rscale>
<asrwt>0</asrwt>
<pdfrwt beam="1">  1        2 0.76900908E-01 0.16430967E+03</pdfrwt>
<pdfrwt beam="2">  1       -2 0.60080636E-02 0.16430967E+03</pdfrwt>
<totfact> 0.88850515E+03</totfact>
</mgrwt>
</event>
<event>
 6    1  0.5258538E-006  0.3055362E+03  0.7546771E-02  0.1082505E+00
         -2   -1    0    0    0  501 -0.00000000000E+00  0.00000000000E+00  0.40768931932E+03  0.40768931932E+03  0.00000000000E+00 0.  1.
          2   -1    0    0  501    0  0.00000000000E+00 -0.00000000000E+00 -0.57244801094E+02  0.57244801094E+02  0.00000000000E+00 0. -1.
          5    1    1    2  502    0 -0.11614431146E+03  0.30515158541E+02  0.66891364422E+02  0.13753988737E+03  0.47000000000E+01 0.  1.
         -5    1    1    2    0  502  0.28336706781E+02 -0.14228435996E+02  0.31166237680E+02  0.44708407634E+02  0.47000000000E+01 0.  1.
        -11    1    1    2    0    0  0.57475309232E+02  0.20909564338E+02  0.20975607688E+03  0.21849080722E+03  0.00000000000E+00 0.  1.
         11    1    1    2    0    0  0.30332295445E+02 -0.37196286883E+02  0.42630839238E+02  0.64195018178E+02  0.00000000000E+00 0. -1.
<mgrwt>
<rscale>  0 0.30553621E+03</rscale>
<asrwt>0</asrwt>
<pdfrwt beam="2">  1        2 0.88068928E-02 0.30553621E+03</pdfrwt>
<pdfrwt beam="1">  1       -2 0.62721432E-01 0.30553621E+03</pdfrwt>
<totfact> 0.18157025E+03</totfact>
</mgrwt>
</event>
<event>
 6    1  0.5258538E-006  0.3017132E+03  0.7546771E-02  0.1130592E+00
         -2   -1    0    0    0  501 -0.00000000000E+00  0.00000000000E+00  0.12309497998E+03  0.12309497998E+03  0.00000000000E+00 0.  1.
          2   -1    0    0  501    0  0.00000000000E+00 -0.00000000000E+00 -0.11056585147E+04  0.11056585147E+04  0.00000000000E+00 0. -1.
          5    1    1    2  502    0 -0.52477037947E+02  0.38895267818E+02 -0.10290350824E+04  0.10311168567E+04  0.47000000000E+01 0. -1.
         -5    1    1    2    0  502  0.46621251331E+02 -0.46518601698E+02 -0.34722736276E+02  0.74600802905E+02  0.47000000000E+01 0.  1.
        -11    1    1    2    0    0 -0.32577387420E+02  0.33004661129E+02  0.39900683738E+02  0.61177270208E+02  0.00000000000E+00 0.  1.
         11    1    1    2    0    0  0.38433174036E+02 -0.25381327249E+02  0.41293600163E+02  0.61858564919E+02  0.00000000000E+00 0. -1.
<mgrwt>
<rscale>  0 0.22447173E+03</rscale>
<asrwt>0</asrwt>
<pdfrwt beam="2">  1        2 0.17010131E+00 0.30171318E+03</pdfrwt>
<pdfrwt beam="1">  1       -2 0.18937689E-01 0.30171318E+03</pdfrwt>
<totfact> 0.52450499E+02</totfact>
</mgrwt>
</event>
<event>
 6    1  0.5258538E-006  0.1311390E+03  0.7546771E-02  0.1239777E+00
          1   -1    0    0  501    0  0.00000000000E+00  0.00000000000E+00  0.59989550734E+03  0.59989550734E+03  0.00000000000E+00 0. -1.
         -1   -1    0    0    0  501 -0.00000000000E+00 -0.00000000000E+00 -0.22593409221E+02  0.22593409221E+02  0.00000000000E+00 0.  1.
          5    1    1    2  502    0 -0.25281216864E+02  0.52064669068E+01  0.35672771464E+03  0.35769120707E+03  0.47000000000E+01 0. -1.
         -5    1    1    2    0  502  0.17269523107E+02  0.33661381946E+02  0.24146787695E+02  0.45127402084E+02  0.47000000000E+01 0. -1.
        -11    1    1    2    0    0  0.16256628003E+01  0.19286662419E+02  0.57079393794E+01  0.20179164967E+02  0.00000000000E+00 0.  1.
         11    1    1    2    0    0  0.63860309568E+01 -0.58154511273E+02  0.19071965641E+03  0.19949114244E+03  0.00000000000E+00 0. -1.
<mgrwt>
<rscale>  0 0.12203496E+03</rscale>
<asrwt>0</asrwt>
<pdfrwt beam="1">  1        1 0.92291604E-01 0.13113903E+03</pdfrwt>
<pdfrwt beam="2">  1       -1 0.34759096E-02 0.13113903E+03</pdfrwt>
<totfact> 0.10161750E+04</totfact>
</mgrwt>
</event>
<event>
 6    1  0.9120932E-006  0.2067763E+03  0.7546771E-02  0.1147863E+00
          1   -1    0    0  501    0  0.00000000000E+00  0.00000000000E+00  0.48769227772E+03  0.48769227772E+03  0.00000000000E+00 0. -1.
         -1   -1    0    0    0  501 -0.00000000000E+00 -0.00000000000E+00 -0.81972022990E+02  0.81972022990E+02  0.00000000000E+00 0.  1.
          5    1    1    2  502    0 -0.41869509682E+02  0.38184069721E+02  0.30726044372E+02  0.64631716860E+02  0.47000000000E+01 0.  1.
         -5    1    1    2    0  502 -0.11951791660E+03 -0.71134001732E+02  0.22054724565E+03  0.26078296753E+03  0.47000000000E+01 0.  1.
        -11    1    1    2    0    0  0.14085812634E+03 -0.10389243159E+02  0.11695254649E+03  0.18337624235E+03  0.00000000000E+00 0.  1.
         11    1    1    2    0    0  0.20529299943E+02  0.43339175170E+02  0.37494418225E+02  0.60873373971E+02  0.00000000000E+00 0. -1.
<mgrwt>
<rscale>  0 0.20224001E+03</rscale>
<asrwt>0</asrwt>
<pdfrwt beam="1">  1        1 0.75029579E-01 0.20677633E+03</pdfrwt>
<pdfrwt beam="2">  1       -1 0.12611081E-01 0.20677633E+03</pdfrwt>
<totfact> 0.19635522E+03</totfact>
</mgrwt>
</event>
<event>
 6    1  0.5258538E-006  0.2592813E+03  0.7546771E-02  0.1109866E+00
          2   -1    0    0  501    0  0.00000000000E+00  0.00000000000E+00  0.15734572065E+03  0.15734572065E+03  0.00000000000E+00 0. -1.
         -2   -1    0    0    0  501 -0.00000000000E+00 -0.00000000000E+00 -0.40336947022E+03  0.40336947022E+03  0.00000000000E+00 0.  1.
          5    1    1    2  502    0  0.12456413794E+02  0.30140871130E+02  0.10709451629E+02  0.34647030338E+02  0.47000000000E+01 0.  1.
         -5    1    1    2    0  502  0.21313791295E+03 -0.34973721578E+01 -0.14008888650E+03  0.25512151549E+03  0.47000000000E+01 0.  1.
        -11    1    1    2    0    0 -0.39209572339E+02 -0.13276511660E+02 -0.65026381719E+02  0.77084931369E+02  0.00000000000E+00 0.  1.
         11    1    1    2    0    0 -0.18638475440E+03 -0.13366987313E+02 -0.51617932984E+02  0.19386171367E+03  0.00000000000E+00 0. -1.
<mgrwt>
<rscale>  0 0.25551807E+03</rscale>
<asrwt>0</asrwt>
<pdfrwt beam="1">  1        2 0.24207034E-01 0.25928126E+03</pdfrwt>
<pdfrwt beam="2">  1       -2 0.62056841E-01 0.25928126E+03</pdfrwt>
<totfact> 0.55098297E+02</totfact>
</mgrwt>
</event>
<event>
 6    1  0.5258538E-006  0.1484438E+03  0.7546771E-02  0.1210913E+00
         -2   -1    0    0    0  501 -0.00000000000E+00  0.00000000000E+00  0.38691485654E+02  0.38691485654E+02  0.00000000000E+00 0.  1.
          2   -1    0    0  501    0  0.00000000000E+00 -0.00000000000E+00 -0.54691738030E+03  0.54691738030E+03  0.00000000000E+00 0. -1.
          5    1    1    2  502    0 -0.16401178287E+02 -0.61777225271E+02 -0.61411215296E+02  0.88762895264E+02  0.47000000000E+01 0. -1.
         -5    1    1    2    0  502 -0.19194681097E+02 -0.99374066453E+01 -0.31628086132E+03  0.31705340413E+03  0.47000000000E+01 0. -1.
        -11    1    1    2    0    0  0.41493195303E+02  0.81592933241E+02 -0.62610024794E+02  0.11090134001E+03  0.00000000000E+00 0.  1.
         11    1    1    2    0    0 -0.58973359190E+01 -0.98783013245E+01 -0.67923793242E+02  0.68891226556E+02  0.00000000000E+00 0. -1.
<mgrwt>
<rscale>  0 0.14181081E+03</rscale>
<asrwt>0</asrwt>
<pdfrwt beam="2">  1        2 0.84141125E-01 0.14844381E+03</pdfrwt>
<pdfrwt beam="1">  1       -2 0.59525370E-02 0.14844381E+03</pdfrwt>
<totfact> 0.81027916E+03</totfact>
</mgrwt>
</event>
<event>
 6    1  0.5258538E-006  0.1393849E+03  0.7546771E-02  0.1225415E+00
          1   -1    0    0  501    0  0.00000000000E+00  0.00000000000E+00  0.25643896727E+03  0.25643896727E+03  0.00000000000E+00 0. -1.
         -1   -1    0    0    0  501 -0.00000000000E+00 -0.00000000000E+00 -0.78709216632E+02  0.78709216632E+02  0.00000000000E+00 0.  1.
          5    1    1    2  502    0  0.16486116794E+02 -0.71965181320E+02  0.10720611916E+03  0.13025368077E+03  0.47000000000E+01 0.  1.
         -5    1    1    2    0  502 -0.58472687696E+02  0.26794193587E+02  0.69558387047E+02  0.94854853461E+02  0.47000000000E+01 0.  1.
        -11    1    1    2    0    0 -0.20877022547E+02  0.40964457449E+02  0.79130517537E+01  0.46653544695E+02  0.00000000000E+00 0. -1.
         11    1    1    2    0    0  0.62863593449E+02  0.42065302838E+01 -0.69478073141E+01  0.63386104982E+02  0.00000000000E+00 0.  1.
<mgrwt>
<rscale>  0 0.13138477E+03</rscale>
<asrwt>0</asrwt>
<pdfrwt beam="1">  1        1 0.39452148E-01 0.13938494E+03</pdfrwt>
<pdfrwt beam="2">  1       -1 0.12109110E-01 0.13938494E+03</pdfrwt>
<totfact> 0.46395855E+03</totfact>
</mgrwt>
</event>
<event>
 6    1  0.5258538E-006  0.1477451E+03  0.7546771E-02  0.1212773E+00
         -1   -1    0    0    0  501 -0.00000000000E+00  0.00000000000E+00  0.30589879459E+02  0.30589879459E+02  0.00000000000E+00 0.  1.
          1   -1    0    0  501    0  0.00000000000E+00 -0.00000000000E+00 -0.67268294693E+03  0.67268294693E+03  0.00000000000E+00 0. -1.
          5    1    1    2  502    0  0.42117416701E+02  0.65996390645E+02 -0.42233402465E+03  0.42955502412E+03  0.47000000000E+01 0.  1.
         -5    1    1    2    0  502  0.28507342981E+02 -0.31080032393E+02 -0.51237631998E+02  0.66528354482E+02  0.47000000000E+01 0.  1.
        -11    1    1    2    0    0 -0.17050284033E+02 -0.35881711885E+02 -0.11620723555E+02  0.41391432077E+02  0.00000000000E+00 0.  1.
         11    1    1    2    0    0 -0.53574475649E+02  0.96535363337E+00 -0.15690068727E+03  0.16579801571E+03  0.00000000000E+00 0. -1.
<mgrwt>
<rscale>  0 0.14041402E+03</rscale>
<asrwt>0</asrwt>
<pdfrwt beam="2">  1        1 0.10348967E+00 0.14774507E+03</pdfrwt>
<pdfrwt beam="1">  1       -1 0.47061358E-02 0.14774507E+03</pdfrwt>
<totfact> 0.55928385E+03</totfact>
</mgrwt>
</event>
<event>
 6    1  0.5258538E-006  0.1263078E+03  0.7546771E-02  0.1248417E+00
          1   -1    0    0  501    0  0.00000000000E+00  0.00000000000E+00  0.19697084176E+03  0.19697084176E+03  0.00000000000E+00 0. -1.
         -1   -1    0    0    0  501 -0.00000000000E+00 -0.00000000000E+00 -0.61164845221E+02  0.61164845221E+02  0.00000000000E+00 0.  1.
          5    1    1    2  502    0  0.50372769361E+02  0.22159833303E+02  0.25306310815E+02  0.60753382393E+02  0.47000000000E+01 0. -1.
         -5    1    1    2    0  502 -0.56287130241E+02 -0.39314073317E+02  0.63605409338E+02  0.93710060765E+02  0.47000000000E+01 0. -1.
        -11    1    1    2    0    0  0.91079384404E+01 -0.34121460914E+02  0.18794698052E+01  0.35366100213E+02  0.00000000000E+00 0.  1.
         11    1    1    2    0    0 -0.31935775608E+01  0.51275700929E+02  0.45014806584E+02  0.68306143612E+02  0.00000000000E+00 0. -1.
<mgrwt>
<rscale>  0 0.11683183E+03</rscale>
<asrwt>0</asrwt>
<pdfrwt beam="1">  1        1 0.30303206E-01 0.12630780E+03</pdfrwt>
<pdfrwt beam="2">  1       -1 0.94099763E-02 0.12630780E+03</pdfrwt>
<totfact> 0.94010983E+03</totfact>
</mgrwt>
</event>
<event>
 6    1  0.5258538E-006  0.3187940E+03  0.7546771E-02  0.1076206E+00
         -2   -1    0    0    0  501 -0.00000000000E+00  0.00000000000E+00  0.44142603743E+02  0.44142603743E+02  0.00000000000E+00 0.  1.
          2   -1    0    0  501    0  0.00000000000E+00 -0.00000000000E+00 -0.57557554809E+03  0.57557554809E+03  0.00000000000E+00 0. -1.
          5    1    1    2  502    0  0.47810016489E+01  0.30569554607E+02 -0.17264544829E+03  0.17545910196E+03  0.47000000000E+01 0.  1.
         -5    1    1    2    0  502 -0.90534955275E+02 -0.70653919424E+02 -0.24409179267E+03  0.26979890234E+03  0.47000000000E+01 0.  1.
        -11    1    1    2    0    0  0.17289769881E+02  0.57485110229E+02 -0.43238670194E+02  0.73980109764E+02  0.00000000000E+00 0.  1.
         11    1    1    2    0    0  0.68464183745E+02 -0.17400745412E+02 -0.71457033196E+02  0.10048003777E+03  0.00000000000E+00 0. -1.
<mgrwt>
<rscale>  0 0.31879400E+03</rscale>
<asrwt>0</asrwt>
<pdfrwt beam="2">  1        2 0.88550076E-01 0.31879400E+03</pdfrwt>
<pdfrwt beam="1">  1       -2 0.67911704E-02 0.31879400E+03</pdfrwt>
<totfact> 0.64793993E+03</totfact>
</mgrwt>
</event>
<event>
 6    1  0.5258538E-006  0.1305683E+03  0.7546771E-02  0.1240299E+00
         -1   -1    0    0    0  501 -0.00000000000E+00  0.00000000000E+00  0.32571446047E+02  0.32571446047E+02  0.00000000000E+00 0.  1.
          1   -1    0    0  501    0  0.00000000000E+00 -0.00000000000E+00 -0.41542430604E+03  0.41542430604E+03  0.00000000000E+00 0. -1.
          5    1    1    2  502    0 -0.46528470354E+02 -0.36082685160E+02 -0.46036424927E+02  0.74888591534E+02  0.47000000000E+01 0.  1.
         -5    1    1    2    0  502  0.90289659165E+01  0.31256675486E+02 -0.20959950647E+03  0.21216160138E+03  0.47000000000E+01 0.  1.
        -11    1    1    2    0    0 -0.22512130747E+02 -0.22385555499E+02 -0.52223473888E+02  0.61116285478E+02  0.00000000000E+00 0. -1.
         11    1    1    2    0    0  0.60011635185E+02  0.27211565173E+02 -0.74993454704E+02  0.99829273689E+02  0.00000000000E+00 0.  1.
<mgrwt>
<rscale>  0 0.12171185E+03</rscale>
<asrwt>0</asrwt>
<pdfrwt beam="2">  1        1 0.63911438E-01 0.13056831E+03</pdfrwt>
<pdfrwt beam="1">  1       -1 0.50109912E-02 0.13056831E+03</pdfrwt>
<totfact> 0.95891093E+03</totfact>
</mgrwt>
</event>
<event>
 6    1  0.5258538E-006  0.3658037E+03  0.7546771E-02  0.1056309E+00
         -1   -1    0    0    0  501 -0.00000000000E+00  0.00000000000E+00  0.58934054242E+02  0.58934054242E+02  0.00000000000E+00 0.  1.
          1   -1    0    0  501    0  0.00000000000E+00 -0.00000000000E+00 -0.56763604121E+03  0.56763604121E+03  0.00000000000E+00 0. -1.
          5    1    1    2  502    0  0.97251563871E+01  0.21799111115E+02 -0.56489369748E+02  0.61505437212E+02  0.47000000000E+01 0.  1.
         -5    1    1    2    0  502 -0.17681614834E+02 -0.16176633361E+03 -0.28397298752E+03  0.32732817452E+03  0.47000000000E+01 0.  1.
        -11    1    1    2    0    0 -0.20328651841E+02  0.57259642805E+02 -0.12762556009E+03  0.14135135078E+03  0.00000000000E+00 0. -1.
         11    1    1    2    0    0  0.28285110287E+02  0.82707579687E+02 -0.40614069609E+02  0.96385132940E+02  0.00000000000E+00 0.  1.
<mgrwt>
<rscale>  0 0.36580374E+03</rscale>
<asrwt>0</asrwt>
<pdfrwt beam="2">  1        1 0.87328623E-01 0.36580374E+03</pdfrwt>
<pdfrwt beam="1">  1       -1 0.90667774E-02 0.36580374E+03</pdfrwt>
<totfact> 0.27058698E+03</totfact>
</mgrwt>
</event>
<event>
 6    1  0.5258538E-006  0.1596344E+03  0.7546771E-02  0.1202969E+00
         -2   -1    0    0    0  501 -0.00000000000E+00  0.00000000000E+00  0.12897604802E+02  0.12897604802E+02  0.00000000000E+00 0.  1.
          2   -1    0    0  501    0  0.00000000000E+00 -0.00000000000E+00 -0.15034343615E+04  0.15034343615E+04  0.00000000000E+00 0. -1.
          5    1    1    2  502    0  0.10913229679E+03  0.10180035801E+02 -0.76820532808E+03  0.77599936045E+03  0.47000000000E+01 0.  1.
         -5    1    1    2    0  502 -0.10241994666E+02 -0.18929643054E+02 -0.25944185695E+02  0.34035578624E+02  0.47000000000E+01 0.  1.
        -11    1    1    2    0    0 -0.94434467629E+02 -0.13304712384E+02 -0.56984992019E+03  0.57777488314E+03  0.00000000000E+00 0. -1.
         11    1    1    2    0    0 -0.44558344994E+01  0.22054319637E+02 -0.12653732275E+03  0.12852214411E+03  0.00000000000E+00 0.  1.
<mgrwt>
<rscale>  0 0.14798679E+03</rscale>
<asrwt>0</asrwt>
<pdfrwt beam="2">  1        2 0.23129771E+00 0.15963443E+03</pdfrwt>
<pdfrwt beam="1">  1       -2 0.19842459E-02 0.15963443E+03</pdfrwt>
<totfact> 0.10426289E+04</totfact>
</mgrwt>
</event>
<event>
 6    1  0.5258538E-006  0.3109521E+03  0.7546771E-02  0.1080976E+00
          2   -1    0    0  501    0  0.00000000000E+00  0.00000000000E+00  0.16577788624E+04  0.16577788624E+04  0.00000000000E+00 0. -1.
         -2   -1    0    0    0  501 -0.00000000000E+00 -0.00000000000E+00 -0.56776137973E+02  0.56776137973E+02  0.00000000000E+00 0.  1.
          5    1    1    2  502    0 -0.11190901033E+03 -0.82073694837E+02  0.30316206587E+03  0.33345021541E+03  0.47000000000E+01 0.  1.
         -5    1    1    2    0  502 -0.16778190651E+03  0.28758294076E+02  0.46992155299E+03  0.49982613337E+03  0.47000000000E+01 0.  1.
        -11    1    1    2    0    0  0.78964170923E+02 -0.24152252164E+02  0.16849174708E+03  0.18763832340E+03  0.00000000000E+00 0.  1.
         11    1    1    2    0    0  0.20072674592E+03  0.77467652925E+02  0.65942735852E+03  0.69364032823E+03  0.00000000000E+00 0. -1.
<mgrwt>
<rscale>  0 0.30868864E+03</rscale>
<asrwt>0</asrwt>
<pdfrwt beam="1">  1        2 0.25504286E+00 0.31095207E+03</pdfrwt>
<pdfrwt beam="2">  1       -2 0.87347918E-02 0.31095207E+03</pdfrwt>
<totfact> 0.92338625E+02</totfact>
</mgrwt>
</event>
<event>
 6    1  0.5258538E-006  0.1360349E+03  0.7546771E-02  0.1227004E+00
          2   -1    0    0  501    0  0.00000000000E+00  0.00000000000E+00  0.42966070174E+03  0.42966070174E+03  0.00000000000E+00 0. -1.
         -2   -1    0    0    0  501 -0.00000000000E+00 -0.00000000000E+00 -0.36691700404E+02  0.36691700404E+02  0.00000000000E+00 0.  1.
          5    1    1    2  502    0 -0.36460343249E+02 -0.39615254464E+02  0.51252466319E+02  0.74482416179E+02  0.47000000000E+01 0. -1.
         -5    1    1    2    0  502 -0.64596594087E+01  0.71858901158E+02  0.17753118954E+03  0.19168944190E+03  0.47000000000E+01 0. -1.
        -11    1    1    2    0    0  0.60743585313E+02 -0.48225104591E+02  0.15712031849E+03  0.17522054203E+03  0.00000000000E+00 0. -1.
         11    1    1    2    0    0 -0.17823582656E+02  0.15981457897E+02  0.70650269902E+01  0.24960002035E+02  0.00000000000E+00 0.  1.
<mgrwt>
<rscale>  0 0.13030485E+03</rscale>
<asrwt>0</asrwt>
<pdfrwt beam="1">  1        2 0.66101643E-01 0.13603491E+03</pdfrwt>
<pdfrwt beam="2">  1       -2 0.56448773E-02 0.13603491E+03</pdfrwt>
<totfact> 0.11372215E+04</totfact>
</mgrwt>
</event>
<event>
 6    1  0.5258538E-006  0.2849345E+03  0.7546771E-02  0.1094817E+00
          2   -1    0    0  501    0  0.00000000000E+00  0.00000000000E+00  0.95036577365E+03  0.95036577365E+03  0.00000000000E+00 0. -1.
         -2   -1    0    0    0  501 -0.00000000000E+00 -0.00000000000E+00 -0.87910270083E+02  0.87910270083E+02  0.00000000000E+00 0.  1.
          5    1    1    2  502    0 -0.52463763615E+02 -0.59492712263E+02  0.82610584580E+02  0.11462298194E+03  0.47000000000E+01 0. -1.
         -5    1    1    2    0  502 -0.18219133712E+02 -0.18660999579E+03  0.49767153114E+03  0.53184045565E+03  0.47000000000E+01 0. -1.
        -11    1    1    2    0    0  0.19589640134E+02  0.84367889114E+02  0.16279109398E+03  0.18439803413E+03  0.00000000000E+00 0. -1.
         11    1    1    2    0    0  0.51093257192E+02  0.16173481894E+03  0.11938229387E+03  0.20741457201E+03  0.00000000000E+00 0.  1.
<mgrwt>
<rscale>  0 0.28160206E+03</rscale>
<asrwt>0</asrwt>
<pdfrwt beam="1">  1        2 0.14621011E+00 0.28493445E+03</pdfrwt>
<pdfrwt beam="2">  1       -2 0.13524658E-01 0.28493445E+03</pdfrwt>
<totfact> 0.11472017E+03</totfact>
</mgrwt>
</event>
<event>
 6    1  0.5258538E-006  0.2236122E+03  0.7546771E-02  0.1134460E+00
          2   -1    0    0  501    0  0.00000000000E+00  0.00000000000E+00  0.15371536153E+04  0.15371536153E+04  0.00000000000E+00 0. -1.
         -2   -1    0    0    0  501 -0.00000000000E+00 -0.00000000000E+00 -0.33417823955E+02  0.33417823955E+02  0.00000000000E+00 0.  1.
          5    1    1    2  502    0 -0.57831240768E+02  0.11387143500E+03  0.62073022115E+03  0.63375015075E+03  0.47000000000E+01 0. -1.
         -5    1    1    2    0  502  0.62897272740E+02  0.71503938977E+02  0.40523303838E+03  0.41629891376E+03  0.47000000000E+01 0. -1.
        -11    1    1    2    0    0 -0.33446890295E+02 -0.24895998005E+02  0.71300377854E+02  0.82596907140E+02  0.00000000000E+00 0. -1.
         11    1    1    2    0    0  0.28380858323E+02 -0.16047937597E+03  0.40647215392E+03  0.43792546757E+03  0.00000000000E+00 0.  1.
<mgrwt>
<rscale>  0 0.21922790E+03</rscale>
<asrwt>0</asrwt>
<pdfrwt beam="1">  1        2 0.23648512E+00 0.22361223E+03</pdfrwt>
<pdfrwt beam="2">  1       -2 0.51412049E-02 0.22361223E+03</pdfrwt>
<totfact> 0.24464218E+03</totfact>
</mgrwt>
</event>
<event>
 6    1  0.5258538E-006  0.1718228E+03  0.7546771E-02  0.1182464E+00
         -2   -1    0    0    0  501 -0.00000000000E+00  0.00000000000E+00  0.63125077047E+02  0.63125077047E+02  0.00000000000E+00 0.  1.
          2   -1    0    0  501    0  0.00000000000E+00 -0.00000000000E+00 -0.72802137730E+03  0.72802137730E+03  0.00000000000E+00 0. -1.
          5    1    1    2  502    0  0.50980453534E+02  0.16997688728E+02 -0.12359079620E+03  0.13485066915E+03  0.47000000000E+01 0. -1.
         -5    1    1    2    0  502  0.23560693924E+02 -0.10832288507E+03 -0.48503708719E+03  0.49756609579E+03  0.47000000000E+01 0. -1.
        -11    1    1    2    0    0 -0.66413929432E+02  0.72091222109E+02 -0.80430597844E+02  0.12679524990E+03  0.00000000000E+00 0. -1.
         11    1    1    2    0    0 -0.81272180255E+01  0.19233974232E+02  0.24162180975E+02  0.31934439514E+02  0.00000000000E+00 0.  1.
<mgrwt>
<rscale>  0 0.16564748E+03</rscale>
<asrwt>0</asrwt>
<pdfrwt beam="2">  1        2 0.11200329E+00 0.17182277E+03</pdfrwt>
<pdfrwt beam="1">  1       -2 0.97115503E-02 0.17182277E+03</pdfrwt>
<totfact> 0.27439682E+03</totfact>
</mgrwt>
</event>
<event>
 6    1  0.6909010E-006  0.2976511E+03  0.7546771E-02  0.1088302E+00
          1   -1    0    0  501    0  0.00000000000E+00  0.00000000000E+00  0.11242574966E+03  0.11242574966E+03  0.00000000000E+00 0. -1.
         -1   -1    0    0    0  501 -0.00000000000E+00 -0.00000000000E+00 -0.75033504587E+03  0.75033504587E+03  0.00000000000E+00 0.  1.
          5    1    1    2  502    0 -0.25270894842E+03 -0.29093508997E+02 -0.32795072532E+03  0.41506868481E+03  0.47000000000E+01 0.  1.
         -5    1    1    2    0  502 -0.16680273371E+02  0.90714283719E+01  0.87053486846E+01  0.21410171138E+02  0.47000000000E+01 0.  1.
        -11    1    1    2    0    0  0.80793671874E+02 -0.29760016022E+02 -0.12171459324E+03  0.14908963135E+03  0.00000000000E+00 0.  1.
         11    1    1    2    0    0  0.18859554991E+03  0.49782096646E+02 -0.19694932633E+03  0.27719230822E+03  0.00000000000E+00 0. -1.
<mgrwt>
<rscale>  0 0.29395567E+03</rscale>
<asrwt>0</asrwt>
<pdfrwt beam="1">  1        1 0.17296269E-01 0.29765111E+03</pdfrwt>
<pdfrwt beam="2">  1       -1 0.11543616E+00 0.29765111E+03</pdfrwt>
<totfact> 0.22428648E+02</totfact>
</mgrwt>
</event>
<event>
 6    1  0.5258538E-006  0.3220544E+03  0.7546771E-02  0.1074708E+00
          4   -1    0    0  501    0  0.00000000000E+00  0.00000000000E+00  0.14400669588E+03  0.14400669588E+03  0.00000000000E+00 0. -1.
         -4   -1    0    0    0  501 -0.00000000000E+00 -0.00000000000E+00 -0.18005935447E+03  0.18005935447E+03  0.00000000000E+00 0.  1.
          5    1    1    2  502    0 -0.26839721185E+02  0.65329496206E+01 -0.13569099996E+02  0.31132949406E+02  0.47000000000E+01 0. -1.
         -5    1    1    2    0  502  0.90450728584E+02 -0.10016716442E+03  0.29701231357E+02  0.13827164667E+03  0.47000000000E+01 0. -1.
        -11    1    1    2    0    0 -0.83422048764E+02  0.55141781850E+02 -0.48707232072E+02  0.11123061081E+03  0.00000000000E+00 0.  1.
         11    1    1    2    0    0  0.19811041365E+02  0.38492432952E+02 -0.34775578695E+01  0.43430843456E+02  0.00000000000E+00 0. -1.
<mgrwt>
<rscale>  0 0.32205436E+03</rscale>
<asrwt>0</asrwt>
<pdfrwt beam="1">  1        4 0.22154876E-01 0.32205436E+03</pdfrwt>
<pdfrwt beam="2">  1       -4 0.27701439E-01 0.32205436E+03</pdfrwt>
<totfact> 0.44211563E+02</totfact>
</mgrwt>
</event>
<event>
 6    1  0.5258538E-006  0.3350777E+03  0.7546771E-02  0.1068912E+00
         -2   -1    0    0    0  501 -0.00000000000E+00  0.00000000000E+00  0.57439549966E+02  0.57439549966E+02  0.00000000000E+00 0.  1.
          2   -1    0    0  501    0  0.00000000000E+00 -0.00000000000E+00 -0.48867493705E+03  0.48867493705E+03  0.00000000000E+00 0. -1.
          5    1    1    2  502    0  0.27268809617E+02  0.74242709331E+00 -0.17330169883E+03  0.17549845582E+03  0.47000000000E+01 0. -1.
         -5    1    1    2    0  502  0.94366026591E+02  0.32421573480E+02 -0.56051212814E+02  0.11454227979E+03  0.47000000000E+01 0. -1.
        -11    1    1    2    0    0 -0.34788477875E+02 -0.44209495930E+02 -0.31397484958E+02  0.64424527821E+02  0.00000000000E+00 0.  1.
         11    1    1    2    0    0 -0.86846358333E+02  0.11045495357E+02 -0.17048499048E+03  0.19164922359E+03  0.00000000000E+00 0. -1.
<mgrwt>
<rscale>  0 0.33507771E+03</rscale>
<asrwt>0</asrwt>
<pdfrwt beam="2">  1        2 0.75180761E-01 0.33507771E+03</pdfrwt>
<pdfrwt beam="1">  1       -2 0.88368537E-02 0.33507771E+03</pdfrwt>
<totfact> 0.51753775E+03</totfact>
</mgrwt>
</event>
<event>
 6    1  0.5258538E-006  0.1260182E+03  0.7546771E-02  0.1248473E+00
         -1   -1    0    0    0  501 -0.00000000000E+00  0.00000000000E+00  0.19791561301E+02  0.19791561301E+02  0.00000000000E+00 0.  1.
          1   -1    0    0  501    0  0.00000000000E+00 -0.00000000000E+00 -0.64164087453E+03  0.64164087453E+03  0.00000000000E+00 0. -1.
          5    1    1    2  502    0  0.56081655490E+01  0.45995280783E+02 -0.40878906809E+03  0.41143360287E+03  0.47000000000E+01 0. -1.
         -5    1    1    2    0  502 -0.60470314845E+01 -0.30025798188E+02 -0.23616364801E+02  0.38960721669E+02  0.47000000000E+01 0. -1.
        -11    1    1    2    0    0  0.23923209550E+02  0.31775495496E+02 -0.82767452267E+02  0.91828390076E+02  0.00000000000E+00 0. -1.
         11    1    1    2    0    0 -0.23484343615E+02 -0.47744978092E+02 -0.10667642807E+03  0.11920972122E+03  0.00000000000E+00 0.  1.
<mgrwt>
<rscale>  0 0.11679925E+03</rscale>
<asrwt>0</asrwt>
<pdfrwt beam="2">  1        1 0.98713982E-01 0.12601821E+03</pdfrwt>
<pdfrwt beam="1">  1       -1 0.30448555E-02 0.12601821E+03</pdfrwt>
<totfact> 0.11206554E+04</totfact>
</mgrwt>
</event>
<event>
 6    1  0.5258538E-006  0.1324882E+03  0.7546771E-02  0.1239730E+00
         -2   -1    0    0    0  501 -0.00000000000E+00  0.00000000000E+00  0.60961689860E+02  0.60961689860E+02  0.00000000000E+00 0.  1.
          2   -1    0    0  501    0  0.00000000000E+00 -0.00000000000E+00 -0.23968285835E+03  0.23968285835E+03  0.00000000000E+00 0. -1.
          5    1    1    2  502    0  0.73140748821E+02  0.14095205924E+00 -0.67497174455E+02  0.99637079268E+02  0.47000000000E+01 0.  1.
         -5    1    1    2    0  502 -0.45914730957E+02  0.33714385585E+02 -0.84250374540E+02  0.10180883029E+03  0.47000000000E+01 0.  1.
        -11    1    1    2    0    0 -0.91076217398E+01  0.27552502991E+02  0.16519334906E+01  0.29065754405E+02  0.00000000000E+00 0.  1.
         11    1    1    2    0    0 -0.18118396124E+02 -0.61407840636E+02 -0.28625552985E+02  0.70132884251E+02  0.00000000000E+00 0. -1.
<mgrwt>
<rscale>  0 0.12206452E+03</rscale>
<asrwt>0</asrwt>
<pdfrwt beam="2">  1        2 0.36874286E-01 0.13248825E+03</pdfrwt>
<pdfrwt beam="1">  1       -2 0.93787214E-02 0.13248825E+03</pdfrwt>
<totfact> 0.96851393E+03</totfact>
</mgrwt>
</event>
<event>
 6    1  0.5258538E-006  0.1299305E+03  0.7546771E-02  0.1243942E+00
          2   -1    0    0  501    0  0.00000000000E+00  0.00000000000E+00  0.74832647674E+03  0.74832647674E+03  0.00000000000E+00 0. -1.
         -2   -1    0    0    0  501 -0.00000000000E+00 -0.00000000000E+00 -0.16672866619E+02  0.16672866619E+02  0.00000000000E+00 0.  1.
          5    1    1    2  502    0  0.44678713389E+02  0.57858104802E+02  0.28768266416E+03  0.29686217843E+03  0.47000000000E+01 0. -1.
         -5    1    1    2    0  502 -0.36551668205E+02 -0.41534285030E+02  0.16459150186E+03  0.17370542238E+03  0.47000000000E+01 0.  1.
        -11    1    1    2    0    0  0.27779234736E+02 -0.32780746346E+02  0.76481658357E+02  0.87725180413E+02  0.00000000000E+00 0. -1.
         11    1    1    2    0    0 -0.35906279920E+02  0.16456926575E+02  0.20289778574E+03  0.20670656214E+03  0.00000000000E+00 0.  1.
<mgrwt>
<rscale>  0 0.11948955E+03</rscale>
<asrwt>0</asrwt>
<pdfrwt beam="1">  1        2 0.11512712E+00 0.12993054E+03</pdfrwt>
<pdfrwt beam="2">  1       -2 0.25650570E-02 0.12993054E+03</pdfrwt>
<totfact> 0.19507955E+04</totfact>
</mgrwt>
</event>
<event>
 6    1  0.5258538E-006  0.3463398E+03  0.7546771E-02  0.1065253E+00
          2   -1    0    0  501    0  0.00000000000E+00  0.00000000000E+00  0.55676673715E+03  0.55676673715E+03  0.00000000000E+00 0. -1.
         -2   -1    0    0    0  501 -0.00000000000E+00 -0.00000000000E+00 -0.27111240242E+03  0.27111240242E+03  0.00000000000E+00 0.  1.
          5    1    1    2  502    0  0.56259720887E+02  0.22040485721E+03  0.29332362717E+03  0.37122001230E+03  0.47000000000E+01 0.  1.
         -5    1    1    2    0  502 -0.27390681591E+02  0.10128612711E+03  0.49540611967E+02  0.11612704774E+03  0.47000000000E+01 0.  1.
        -11    1    1    2    0    0 -0.44985162671E+02 -0.73006155115E+02 -0.48872841507E+01  0.85892078165E+02  0.00000000000E+00 0. -1.
         11    1    1    2    0    0  0.16116123374E+02 -0.24868482920E+03 -0.52322620260E+02  0.25464000137E+03  0.00000000000E+00 0.  1.
<mgrwt>
<rscale>  0 0.34364661E+03</rscale>
<asrwt>0</asrwt>
<pdfrwt beam="1">  1        2 0.85656421E-01 0.34633982E+03</pdfrwt>
<pdfrwt beam="2">  1       -2 0.41709600E-01 0.34633982E+03</pdfrwt>
<totfact> 0.30330951E+02</totfact>
</mgrwt>
</event>
<event>
 6    1  0.5258538E-006  0.1404076E+03  0.7546771E-02  0.1224123E+00
          2   -1    0    0  501    0  0.00000000000E+00  0.00000000000E+00  0.22806161988E+03  0.22806161988E+03  0.00000000000E+00 0. -1.
         -2   -1    0    0    0  501 -0.00000000000E+00 -0.00000000000E+00 -0.70328344018E+02  0.70328344018E+02  0.00000000000E+00 0.  1.
          5    1    1    2  502    0 -0.17056112532E+02 -0.21147223798E+02 -0.24407197761E+02  0.36822783051E+02  0.47000000000E+01 0. -1.
         -5    1    1    2    0  502  0.17451734601E+02 -0.42803959461E+02  0.13238803730E+03  0.14030475546E+03  0.47000000000E+01 0. -1.
        -11    1    1    2    0    0  0.40964292692E+02  0.12425525089E+02  0.30096542034E+02  0.52328470186E+02  0.00000000000E+00 0.  1.
         11    1    1    2    0    0 -0.41359914761E+02  0.51525658170E+02  0.19655894293E+02  0.68933955199E+02  0.00000000000E+00 0. -1.
<mgrwt>
<rscale>  0 0.13227206E+03</rscale>
<asrwt>0</asrwt>
<pdfrwt beam="1">  1        2 0.35086403E-01 0.14040763E+03</pdfrwt>
<pdfrwt beam="2">  1       -2 0.10819745E-01 0.14040763E+03</pdfrwt>
<totfact> 0.81923423E+03</totfact>
</mgrwt>
</event>
<event>
 6    1  0.5258538E-006  0.3624861E+03  0.7546771E-02  0.1057604E+00
         -2   -1    0    0    0  501 -0.00000000000E+00  0.00000000000E+00  0.35800855055E+02  0.35800855055E+02  0.00000000000E+00 0.  1.
          2   -1    0    0  501    0  0.00000000000E+00 -0.00000000000E+00 -0.91754929132E+03  0.91754929132E+03  0.00000000000E+00 0. -1.
          5    1    1    2  502    0 -0.86681126267E+02 -0.11260664993E+03 -0.37447222368E+03  0.40055637752E+03  0.47000000000E+01 0. -1.
         -5    1    1    2    0  502  0.27962526742E+02 -0.97801118709E+01 -0.21615958342E+03  0.21823063258E+03  0.47000000000E+01 0. -1.
        -11    1    1    2    0    0 -0.52842390119E+01  0.85146109192E+02 -0.19797402729E+03  0.21557249030E+03  0.00000000000E+00 0.  1.
         11    1    1    2    0    0  0.64002838538E+02  0.37240652613E+02 -0.93142601872E+02  0.11899064598E+03  0.00000000000E+00 0. -1.
<mgrwt>
<rscale>  0 0.36248613E+03</rscale>
<asrwt>0</asrwt>
<pdfrwt beam="2">  1        2 0.14116143E+00 0.36248613E+03</pdfrwt>
<pdfrwt beam="1">  1       -2 0.55078238E-02 0.36248613E+03</pdfrwt>
<totfact> 0.50193257E+03</totfact>
</mgrwt>
</event>
<event>
 6    1  0.5258538E-006  0.1257793E+03  0.7546771E-02  0.1249503E+00
         -2   -1    0    0    0  501 -0.00000000000E+00  0.00000000000E+00  0.33137798085E+03  0.33137798085E+03  0.00000000000E+00 0.  1.
          2   -1    0    0  501    0  0.00000000000E+00 -0.00000000000E+00 -0.36863137868E+02  0.36863137868E+02  0.00000000000E+00 0. -1.
          5    1    1    2  502    0  0.42349290321E+02 -0.43845414762E+02  0.91662640570E+02  0.11018172472E+03  0.47000000000E+01 0. -1.
         -5    1    1    2    0  502 -0.30981952345E+02  0.51982573947E+02  0.45047894797E+02  0.75587513459E+02  0.47000000000E+01 0. -1.
        -11    1    1    2    0    0 -0.47909155164E+02  0.76340788075E+01  0.11030670508E+03  0.12050367419E+03  0.00000000000E+00 0.  1.
         11    1    1    2    0    0  0.36541817188E+02 -0.15771237993E+02  0.47497602541E+02  0.61968206351E+02  0.00000000000E+00 0. -1.
<mgrwt>
<rscale>  0 0.11619882E+03</rscale>
<asrwt>0</asrwt>
<pdfrwt beam="2">  1        2 0.56712522E-02 0.12577933E+03</pdfrwt>
<pdfrwt beam="1">  1       -2 0.50981226E-01 0.12577933E+03</pdfrwt>
<totfact> 0.46402689E+03</totfact>
</mgrwt>
</event>
<event>
 6    1  0.5258538E-006  0.1820044E+03  0.7546771E-02  0.1171198E+00
          2   -1    0    0  501    0  0.00000000000E+00  0.00000000000E+00  0.54846912675E+03  0.54846912675E+03  0.00000000000E+00 0. -1.
         -2   -1    0    0    0  501 -0.00000000000E+00 -0.00000000000E+00 -0.54693167142E+02  0.54693167142E+02  0.00000000000E+00 0.  1.
          5    1    1    2  502    0 -0.26036448697E+02  0.15674253303E+02  0.30427112394E+01  0.30901892645E+02  0.47000000000E+01 0.  1.
         -5    1    1    2    0  502  0.21468717650E+02  0.11655115410E+03  0.30001655676E+03  0.32260982888E+03  0.47000000000E+01 0.  1.
        -11    1    1    2    0    0 -0.13703551029E+02 -0.24759027968E+02 -0.18627330741E+01  0.28359593637E+02  0.00000000000E+00 0.  1.
         11    1    1    2    0    0  0.18271282076E+02 -0.10746637943E+03  0.19257942468E+03  0.22129097873E+03  0.00000000000E+00 0. -1.
<mgrwt>
<rscale>  0 0.17653629E+03</rscale>
<asrwt>0</asrwt>
<pdfrwt beam="1">  1        2 0.84379862E-01 0.18200444E+03</pdfrwt>
<pdfrwt beam="2">  1       -2 0.84143338E-02 0.18200444E+03</pdfrwt>
<totfact> 0.47912380E+03</totfact>
</mgrwt>
</event>
<event>
 6    1  0.5258538E-006  0.1703209E+03  0.7546771E-02  0.1183982E+00
          1   -1    0    0  501    0  0.00000000000E+00  0.00000000000E+00  0.66314977336E+02  0.66314977336E+02  0.00000000000E+00 0. -1.
         -1   -1    0    0    0  501 -0.00000000000E+00 -0.00000000000E+00 -0.45448298588E+03  0.45448298588E+03  0.00000000000E+00 0.  1.
          5    1    1    2  502    0  0.49634121819E+01 -0.29531284055E+02 -0.75033759587E+02  0.80925195558E+02  0.47000000000E+01 0.  1.
         -5    1    1    2    0  502 -0.11358141020E+03 -0.10299875249E+02 -0.25862420820E+02  0.11703751101E+03  0.47000000000E+01 0.  1.
        -11    1    1    2    0    0  0.10604443356E+03  0.14924404289E+02 -0.27466075680E+03  0.29479940817E+03  0.00000000000E+00 0.  1.
         11    1    1    2    0    0  0.25735644640E+01  0.24906755014E+02 -0.12611071340E+02  0.28035848475E+02  0.00000000000E+00 0. -1.
<mgrwt>
<rscale>  0 0.16424875E+03</rscale>
<asrwt>0</asrwt>
<pdfrwt beam="1">  1        1 0.10202304E-01 0.17032086E+03</pdfrwt>
<pdfrwt beam="2">  1       -1 0.69920460E-01 0.17032086E+03</pdfrwt>
<totfact> 0.13246168E+03</totfact>
</mgrwt>
</event>
<event>
 6    1  0.5258538E-006  0.1332997E+03  0.7546771E-02  0.1236468E+00
          2   -1    0    0  501    0  0.00000000000E+00  0.00000000000E+00  0.74054629458E+03  0.74054629458E+03  0.00000000000E+00 0. -1.
         -2   -1    0    0    0  501 -0.00000000000E+00 -0.00000000000E+00 -0.18580115988E+02  0.18580115988E+02  0.00000000000E+00 0.  1.
          5    1    1    2  502    0 -0.42617769033E+02 -0.21706055280E+02  0.22442809836E+03  0.22951576941E+03  0.47000000000E+01 0. -1.
         -5    1    1    2    0  502  0.81098140996E+02 -0.40141145664E+01  0.22419097791E+03  0.23848837742E+03  0.47000000000E+01 0. -1.
        -11    1    1    2    0    0 -0.22690699546E+02  0.51538048226E+02  0.96699202416E+02  0.11190073283E+03  0.00000000000E+00 0.  1.
         11    1    1    2    0    0 -0.15789672417E+02 -0.25817878379E+02  0.17664789990E+03  0.17922153090E+03  0.00000000000E+00 0. -1.
<mgrwt>
<rscale>  0 0.12410909E+03</rscale>
<asrwt>0</asrwt>
<pdfrwt beam="1">  1        2 0.11393018E+00 0.13329968E+03</pdfrwt>
<pdfrwt beam="2">  1       -2 0.28584800E-02 0.13329968E+03</pdfrwt>
<totfact> 0.16894276E+04</totfact>
</mgrwt>
</event>
<event>
 6    1  0.5258538E-006  0.1310794E+03  0.7546771E-02  0.1238668E+00
         -1   -1    0    0    0  501 -0.00000000000E+00  0.00000000000E+00  0.11579601064E+03  0.11579601064E+03  0.00000000000E+00 0.  1.
          1   -1    0    0  501    0  0.00000000000E+00 -0.00000000000E+00 -0.14457271557E+03  0.14457271557E+03  0.00000000000E+00 0. -1.
          5    1    1    2  502    0  0.20963004287E+02  0.74573046820E+02 -0.72447562078E+02  0.10616650183E+03  0.47000000000E+01 0. -1.
         -5    1    1    2    0  502 -0.25744176422E+02 -0.35421119846E+02 -0.92162217843E+00  0.44049491918E+02  0.47000000000E+01 0. -1.
        -11    1    1    2    0    0  0.24109463014E+02  0.44104547256E+01  0.56017400448E+02  0.61144643843E+02  0.00000000000E+00 0.  1.
         11    1    1    2    0    0 -0.19328290879E+02 -0.43562381700E+02 -0.11424921121E+02  0.49008088621E+02  0.00000000000E+00 0. -1.
<mgrwt>
<rscale>  0 0.12272500E+03</rscale>
<asrwt>0</asrwt>
<pdfrwt beam="2">  1        1 0.22241956E-01 0.13107939E+03</pdfrwt>
<pdfrwt beam="1">  1       -1 0.17814771E-01 0.13107939E+03</pdfrwt>
<totfact> 0.51607066E+03</totfact>
</mgrwt>
</event>
<event>
 6    1  0.5258538E-006  0.1897200E+03  0.7546771E-02  0.1163721E+00
          3   -1    0    0  501    0  0.00000000000E+00  0.00000000000E+00  0.21016624530E+03  0.21016624530E+03  0.00000000000E+00 0. -1.
         -3   -1    0    0    0  501 -0.00000000000E+00 -0.00000000000E+00 -0.17086406557E+03  0.17086406557E+03  0.00000000000E+00 0.  1.
          5    1    1    2  502    0  0.18707244514E+02 -0.10652294320E+03  0.10720522946E+02  0.10878473256E+03  0.47000000000E+01 0.  1.
         -5    1    1    2    0  502 -0.59616430639E+02 -0.30203291550E+02  0.71506677303E+02  0.97988022337E+02  0.47000000000E+01 0.  1.
        -11    1    1    2    0    0 -0.24755102330E+02  0.35688101736E+02 -0.30595061390E+02  0.53127332686E+02  0.00000000000E+00 0.  1.
         11    1    1    2    0    0  0.65664288455E+02  0.10103813302E+03 -0.12329959133E+02  0.12113022329E+03  0.00000000000E+00 0. -1.
<mgrwt>
<rscale>  0 0.18428264E+03</rscale>
<asrwt>0</asrwt>
<pdfrwt beam="1">  1        3 0.32333268E-01 0.18971995E+03</pdfrwt>
<pdfrwt beam="2">  1       -3 0.26286779E-01 0.18971995E+03</pdfrwt>
<totfact> 0.31044776E+02</totfact>
</mgrwt>
</event>
<event>
 6    1  0.5258538E-006  0.1531554E+03  0.7546771E-02  0.1205712E+00
         -2   -1    0    0    0  501 -0.00000000000E+00  0.00000000000E+00  0.33237885085E+02  0.33237885085E+02  0.00000000000E+00 0.  1.
          2   -1    0    0  501    0  0.00000000000E+00 -0.00000000000E+00 -0.64994622643E+03  0.64994622643E+03  0.00000000000E+00 0. -1.
          5    1    1    2  502    0 -0.43852670058E+02  0.95088522262E+02 -0.37975246491E+03  0.39395292655E+03  0.47000000000E+01 0. -1.
         -5    1    1    2    0  502 -0.20203336621E+02 -0.34000051018E+02 -0.62929320599E+02  0.74473939542E+02  0.47000000000E+01 0. -1.
        -11    1    1    2    0    0  0.70838228612E+02 -0.71476168010E+02 -0.17545904115E+03  0.20226905929E+03  0.00000000000E+00 0. -1.
         11    1    1    2    0    0 -0.67822219335E+01  0.10387696766E+02  0.14324853138E+01  0.12488186122E+02  0.00000000000E+00 0.  1.
<mgrwt>
<rscale>  0 0.14581523E+03</rscale>
<asrwt>0</asrwt>
<pdfrwt beam="2">  1        2 0.99991731E-01 0.15315536E+03</pdfrwt>
<pdfrwt beam="1">  1       -2 0.51135206E-02 0.15315536E+03</pdfrwt>
<totfact> 0.83889090E+03</totfact>
</mgrwt>
</event>
<event>
 6    1  0.5258538E-006  0.1683826E+03  0.7546771E-02  0.1186765E+00
          1   -1    0    0  501    0  0.00000000000E+00  0.00000000000E+00  0.22705129340E+03  0.22705129340E+03  0.00000000000E+00 0. -1.
         -1   -1    0    0    0  501 -0.00000000000E+00 -0.00000000000E+00 -0.11106148807E+03  0.11106148807E+03  0.00000000000E+00 0.  1.
          5    1    1    2  502    0  0.36141798886E+02 -0.45295677068E+02 -0.42874276459E+02  0.72237258874E+02  0.47000000000E+01 0. -1.
         -5    1    1    2    0  502  0.66457502628E+02 -0.16199047223E+01  0.72954059329E+02  0.98810973679E+02  0.47000000000E+01 0. -1.
        -11    1    1    2    0    0 -0.15970645538E+02  0.50276645112E+02  0.14397041457E+02  0.54681599879E+02  0.00000000000E+00 0.  1.
         11    1    1    2    0    0 -0.86628655976E+02 -0.33610633216E+01  0.71512980998E+02  0.11238294904E+03  0.00000000000E+00 0. -1.
<mgrwt>
<rscale>  0 0.16172294E+03</rscale>
<asrwt>0</asrwt>
<pdfrwt beam="1">  1        1 0.34930968E-01 0.16838261E+03</pdfrwt>
<pdfrwt beam="2">  1       -1 0.17086383E-01 0.16838261E+03</pdfrwt>
<totfact> 0.31755873E+03</totfact>
</mgrwt>
</event>
<event>
 6    1  0.5258538E-006  0.1380699E+03  0.7546771E-02  0.1227427E+00
          1   -1    0    0  501    0  0.00000000000E+00  0.00000000000E+00  0.75462512670E+03  0.75462512670E+03  0.00000000000E+00 0. -1.
         -1   -1    0    0    0  501 -0.00000000000E+00 -0.00000000000E+00 -0.36098830176E+02  0.36098830176E+02  0.00000000000E+00 0.  1.
          5    1    1    2  502    0  0.86540645054E+02 -0.27014452443E+02  0.48607979376E+03  0.49448429680E+03  0.47000000000E+01 0. -1.
         -5    1    1    2    0  502 -0.28381162498E+02  0.34406481675E+02  0.15887754261E+03  0.16508621963E+03  0.47000000000E+01 0. -1.
        -11    1    1    2    0    0 -0.14941089091E+02  0.83798555499E+01 -0.20332712610E+02  0.26587164654E+02  0.00000000000E+00 0.  1.
         11    1    1    2    0    0 -0.43218393465E+02 -0.15771884782E+02  0.93901672769E+02  0.10456627579E+03  0.00000000000E+00 0. -1.
<mgrwt>
<rscale>  0 0.13001939E+03</rscale>
<asrwt>0</asrwt>
<pdfrwt beam="1">  1        1 0.11609616E+00 0.13806991E+03</pdfrwt>
<pdfrwt beam="2">  1       -1 0.55536667E-02 0.13806991E+03</pdfrwt>
<totfact> 0.36965798E+03</totfact>
</mgrwt>
</event>
<event>
 6    1  0.5258538E-006  0.2717056E+03  0.7546771E-02  0.1121087E+00
          3   -1    0    0  501    0  0.00000000000E+00  0.00000000000E+00  0.50524491540E+03  0.50524491540E+03  0.00000000000E+00 0. -1.
         -3   -1    0    0    0  501 -0.00000000000E+00 -0.00000000000E+00 -0.11510863667E+03  0.11510863667E+03  0.00000000000E+00 0.  1.
          5    1    1    2  502    0 -0.61285231104E+02 -0.41280143778E+02  0.38122597481E+03  0.38834940929E+03  0.47000000000E+01 0. -1.
         -5    1    1    2    0  502 -0.79800195357E+01 -0.69043706866E+02 -0.11367309933E+02  0.70583425141E+02  0.47000000000E+01 0.  1.
        -11    1    1    2    0    0  0.83066573905E+02  0.66294122740E+02 -0.91860238957E+01  0.10667403360E+03  0.00000000000E+00 0.  1.
         11    1    1    2    0    0 -0.13801323266E+02  0.44029727904E+02  0.29463637749E+02  0.54746684033E+02  0.00000000000E+00 0. -1.
<mgrwt>
<rscale>  0 0.23806756E+03</rscale>
<asrwt>0</asrwt>
<pdfrwt beam="1">  1        3 0.77729985E-01 0.27170557E+03</pdfrwt>
<pdfrwt beam="2">  1       -3 0.17709021E-01 0.27170557E+03</pdfrwt>
<totfact> 0.11081558E+02</totfact>
</mgrwt>
</event>
<event>
 6    1  0.5258538E-006  0.1622192E+03  0.7546771E-02  0.1193934E+00
          2   -1    0    0  501    0  0.00000000000E+00  0.00000000000E+00  0.57474652207E+03  0.57474652207E+03  0.00000000000E+00 0. -1.
         -2   -1    0    0    0  501 -0.00000000000E+00 -0.00000000000E+00 -0.39024608117E+02  0.39024608117E+02  0.00000000000E+00 0.  1.
          5    1    1    2  502    0 -0.22999413643E+00  0.77781800041E+02  0.61015600419E+02  0.98969969230E+02  0.47000000000E+01 0.  1.
         -5    1    1    2    0  502 -0.21678539442E+02  0.23267924223E+02  0.24764198040E+03  0.24971983467E+03  0.47000000000E+01 0.  1.
        -11    1    1    2    0    0  0.26024961236E+02  0.60432210758E+00  0.15425404683E+02  0.30258997376E+02  0.00000000000E+00 0.  1.
         11    1    1    2    0    0 -0.41164276580E+01 -0.10165404637E+03  0.21163892845E+03  0.23482232891E+03  0.00000000000E+00 0. -1.
<mgrwt>
<rscale>  0 0.15544819E+03</rscale>
<asrwt>0</asrwt>
<pdfrwt beam="1">  1        2 0.88422536E-01 0.16221923E+03</pdfrwt>
<pdfrwt beam="2">  1       -2 0.60037863E-02 0.16221923E+03</pdfrwt>
<totfact> 0.76022264E+03</totfact>
</mgrwt>
</event>
<event>
 6    1  0.5258538E-006  0.2431256E+03  0.7546771E-02  0.1117728E+00
          1   -1    0    0  501    0  0.00000000000E+00  0.00000000000E+00  0.80745996517E+02  0.80745996517E+02  0.00000000000E+00 0. -1.
         -1   -1    0    0    0  501 -0.00000000000E+00 -0.00000000000E+00 -0.18301240939E+03  0.18301240939E+03  0.00000000000E+00 0.  1.
          5    1    1    2  502    0 -0.12595072939E+02 -0.15943750662E+02 -0.60356360844E+02  0.63857805645E+02  0.47000000000E+01 0. -1.
         -5    1    1    2    0  502  0.38506355712E+02  0.46826897883E+02  0.34627752760E+02  0.69976203504E+02  0.47000000000E+01 0. -1.
        -11    1    1    2    0    0  0.47500182426E+01 -0.51237511846E+02 -0.77595327195E+02  0.93106820888E+02  0.00000000000E+00 0.  1.
         11    1    1    2    0    0 -0.30661301016E+02  0.20354364625E+02  0.10575224065E+01  0.36817575870E+02  0.00000000000E+00 0. -1.
<mgrwt>
<rscale>  0 0.24312564E+03</rscale>
<asrwt>0</asrwt>
<pdfrwt beam="1">  1        1 0.12422461E-01 0.24312564E+03</pdfrwt>
<pdfrwt beam="2">  1       -1 0.28155755E-01 0.24312564E+03</pdfrwt>
<totfact> 0.53829059E+03</totfact>
</mgrwt>
</event>
<event>
 6    1  0.5258538E-006  0.1368850E+03  0.7546771E-02  0.1229295E+00
         -3   -1    0    0    0  501 -0.00000000000E+00  0.00000000000E+00  0.15877177429E+03  0.15877177429E+03  0.00000000000E+00 0.  1.
          3   -1    0    0  501    0  0.00000000000E+00 -0.00000000000E+00 -0.97505187127E+02  0.97505187127E+02  0.00000000000E+00 0. -1.
          5    1    1    2  502    0 -0.47041379947E+02  0.57352618862E+02  0.45653916024E+02  0.87227199692E+02  0.47000000000E+01 0.  1.
         -5    1    1    2    0  502 -0.87238989589E+01 -0.59555320361E+02  0.13346783246E+02  0.61831781629E+02  0.47000000000E+01 0.  1.
        -11    1    1    2    0    0  0.62696726226E+02  0.11005937901E+02 -0.31943255284E+02  0.71220655057E+02  0.00000000000E+00 0. -1.
         11    1    1    2    0    0 -0.69314473195E+01 -0.88032364025E+01  0.34209143172E+02  0.35997325035E+02  0.00000000000E+00 0.  1.
<mgrwt>
<rscale>  0 0.12876846E+03</rscale>
<asrwt>0</asrwt>
<pdfrwt beam="2">  1        3 0.15000798E-01 0.13688498E+03</pdfrwt>
<pdfrwt beam="1">  1       -3 0.24426427E-01 0.13688498E+03</pdfrwt>
<totfact> 0.13397902E+03</totfact>
</mgrwt>
</event>
<event>
 6    1  0.5258538E-006  0.3359755E+03  0.7546771E-02  0.1068523E+00
          2   -1    0    0  501    0  0.00000000000E+00  0.00000000000E+00  0.56325831406E+03  0.56325831406E+03  0.00000000000E+00 0. -1.
         -2   -1    0    0    0  501 -0.00000000000E+00 -0.00000000000E+00 -0.50101149864E+02  0.50101149864E+02  0.00000000000E+00 0.  1.
          5    1    1    2  502    0  0.40518033685E+02  0.37975598514E+02  0.75539765786E+02  0.93873336743E+02  0.47000000000E+01 0. -1.
         -5    1    1    2    0  502  0.70934444197E+02 -0.99938917417E+02  0.18828395829E+03  0.22470518805E+03  0.47000000000E+01 0. -1.
        -11    1    1    2    0    0 -0.30520399445E+02  0.65626107168E+02  0.15040377085E+03  0.16691187798E+03  0.00000000000E+00 0.  1.
         11    1    1    2    0    0 -0.80932078436E+02 -0.36627882651E+01  0.98929669268E+02  0.12786906115E+03  0.00000000000E+00 0. -1.
<mgrwt>
<rscale>  0 0.33597553E+03</rscale>
<asrwt>0</asrwt>
<pdfrwt beam="1">  1        2 0.86655121E-01 0.33597553E+03</pdfrwt>
<pdfrwt beam="2">  1       -2 0.77078696E-02 0.33597553E+03</pdfrwt>
<totfact> 0.54604872E+03</totfact>
</mgrwt>
</event>
<event>
 6    1  0.5258538E-006  0.1187301E+03  0.7546771E-02  0.1255822E+00
         -1   -1    0    0    0  501 -0.00000000000E+00  0.00000000000E+00  0.66559790807E+02  0.66559790807E+02  0.00000000000E+00 0.  1.
          1   -1    0    0  501    0  0.00000000000E+00 -0.00000000000E+00 -0.38677330904E+03  0.38677330904E+03  0.00000000000E+00 0. -1.
          5    1    1    2  502    0 -0.55115240510E+02 -0.10827237989E+02 -0.88935915505E+02  0.10529295269E+03  0.47000000000E+01 0. -1.
         -5    1    1    2    0  502  0.42716672761E+02  0.12428960466E+02 -0.24672469508E+03  0.25074759890E+03  0.47000000000E+01 0.  1.
        -11    1    1    2    0    0  0.51059839337E+02  0.13905289766E+02  0.17073695960E+02  0.55605533631E+02  0.00000000000E+00 0.  1.
         11    1    1    2    0    0 -0.38661271588E+02 -0.15507012243E+02 -0.16266036074E+01  0.41687014631E+02  0.00000000000E+00 0. -1.
<mgrwt>
<rscale>  0 0.11260416E+03</rscale>
<asrwt>0</asrwt>
<pdfrwt beam="2">  1        1 0.59503586E-01 0.11873007E+03</pdfrwt>
<pdfrwt beam="1">  1       -1 0.10239968E-01 0.11873007E+03</pdfrwt>
<totfact> 0.35743299E+03</totfact>
</mgrwt>
</event>
<event>
 6    1  0.5258538E-006  0.1278242E+03  0.7546771E-02  0.1253475E+00
         -1   -1    0    0    0  501 -0.00000000000E+00  0.00000000000E+00  0.11831877346E+03  0.11831877346E+03  0.00000000000E+00 0.  1.
          1   -1    0    0  501    0  0.00000000000E+00 -0.00000000000E+00 -0.95525803687E+02  0.95525803687E+02  0.00000000000E+00 0. -1.
          5    1    1    2  502    0 -0.39166682290E+02 -0.22401960018E+02 -0.33863031248E+02  0.56609819816E+02  0.47000000000E+01 0. -1.
         -5    1    1    2    0  502  0.44391916391E+02  0.48598674621E+02  0.27229614607E+02  0.71386380546E+02  0.47000000000E+01 0. -1.
        -11    1    1    2    0    0 -0.34481984043E+02 -0.10179904116E+02 -0.68162365773E+01  0.36593698261E+02  0.00000000000E+00 0. -1.
         11    1    1    2    0    0  0.29256749942E+02 -0.16016810487E+02  0.36242622991E+02  0.49254678525E+02  0.00000000000E+00 0.  1.
<mgrwt>
<rscale>  0 0.11392201E+03</rscale>
<asrwt>0</asrwt>
<pdfrwt beam="2">  1        1 0.14696277E-01 0.12782420E+03</pdfrwt>
<pdfrwt beam="1">  1       -1 0.18202888E-01 0.12782420E+03</pdfrwt>
<totfact> 0.84520056E+03</totfact>
</mgrwt>
</event>
<event>
 6    1  0.5258538E-006  0.1768738E+03  0.7546771E-02  0.1176758E+00
         -2   -1    0    0    0  501 -0.00000000000E+00  0.00000000000E+00  0.26766062670E+03  0.26766062670E+03  0.00000000000E+00 0. -1.
          2   -1    0    0  501    0  0.00000000000E+00 -0.00000000000E+00 -0.11475789601E+03  0.11475789601E+03  0.00000000000E+00 0.  1.
          5    1    1    2  502    0  0.99424956778E+02  0.17726020551E+01  0.65119007237E+02  0.11895814076E+03  0.47000000000E+01 0.  1.
         -5    1    1    2    0  502  0.21767516307E+02  0.29406491936E+02 -0.45980574372E+02  0.58948025868E+02  0.47000000000E+01 0.  1.
        -11    1    1    2    0    0 -0.10059585137E+03 -0.15276550109E+02  0.14419374990E+03  0.17647871205E+03  0.00000000000E+00 0. -1.
         11    1    1    2    0    0 -0.20596621712E+02 -0.15902543882E+02 -0.10429452063E+02  0.28033644041E+02  0.00000000000E+00 0.  1.
<mgrwt>
<rscale>  0 0.17104913E+03</rscale>
<asrwt>0</asrwt>
<pdfrwt beam="2">  1        2 0.17655061E-01 0.17687375E+03</pdfrwt>
<pdfrwt beam="1">  1       -2 0.41178558E-01 0.17687375E+03</pdfrwt>
<totfact> 0.17782542E+03</totfact>
</mgrwt>
</event>
<event>
 6    1  0.5258538E-006  0.3161565E+03  0.7546771E-02  0.1078741E+00
          2   -1    0    0  501    0  0.00000000000E+00  0.00000000000E+00  0.14335138985E+04  0.14335138985E+04  0.00000000000E+00 0. -1.
         -2   -1    0    0    0  501 -0.00000000000E+00 -0.00000000000E+00 -0.99202259287E+02  0.99202259287E+02  0.00000000000E+00 0.  1.
          5    1    1    2  502    0 -0.20240326024E+03  0.21939331209E+03  0.10917793309E+04  0.11318589587E+04  0.47000000000E+01 0.  1.
         -5    1    1    2    0  502  0.11820232087E+02 -0.28743745966E+00  0.17777015631E+02  0.21861216609E+02  0.47000000000E+01 0.  1.
        -11    1    1    2    0    0  0.10937148818E+03 -0.17693624299E+03  0.12096337876E+03  0.24062563353E+03  0.00000000000E+00 0.  1.
         11    1    1    2    0    0  0.81211539967E+02 -0.42169631632E+02  0.10379191395E+03  0.13837034891E+03  0.00000000000E+00 0. -1.
<mgrwt>
<rscale>  0 0.31337096E+03</rscale>
<asrwt>0</asrwt>
<pdfrwt beam="1">  1        2 0.22054058E+00 0.31615654E+03</pdfrwt>
<pdfrwt beam="2">  1       -2 0.15261887E-01 0.31615654E+03</pdfrwt>
<totfact> 0.49241084E+02</totfact>
</mgrwt>
</event>
<event>
 6    1  0.7008804E-006  0.1890520E+03  0.7546771E-02  0.1164187E+00
          1   -1    0    0  501    0  0.00000000000E+00  0.00000000000E+00  0.22765103159E+03  0.22765103159E+03  0.00000000000E+00 0. -1.
         -1   -1    0    0    0  501 -0.00000000000E+00 -0.00000000000E+00 -0.14149317727E+03  0.14149317727E+03  0.00000000000E+00 0.  1.
          5    1    1    2  502    0  0.19046784020E+02  0.15658074056E+03  0.72923289799E+02  0.17383959414E+03  0.47000000000E+01 0. -1.
         -5    1    1    2    0  502 -0.13015032563E+02 -0.14879584412E+02 -0.13425061060E+02  0.24353960035E+02  0.47000000000E+01 0. -1.
        -11    1    1    2    0    0 -0.16559455351E+02 -0.13122668145E+02  0.35852087593E+02  0.41614807047E+02  0.00000000000E+00 0. -1.
         11    1    1    2    0    0  0.10527703895E+02 -0.12857848800E+03 -0.91924620162E+01  0.12933584764E+03  0.00000000000E+00 0.  1.
<mgrwt>
<rscale>  0 0.18378794E+03</rscale>
<asrwt>0</asrwt>
<pdfrwt beam="1">  1        1 0.35023236E-01 0.18905197E+03</pdfrwt>
<pdfrwt beam="2">  1       -1 0.21768181E-01 0.18905197E+03</pdfrwt>
<totfact> 0.21519473E+03</totfact>
</mgrwt>
</event>
<event>
 6    1  0.5258538E-006  0.1316971E+03  0.7546771E-02  0.1236910E+00
          2   -1    0    0  501    0  0.00000000000E+00  0.00000000000E+00  0.20804364627E+03  0.20804364627E+03  0.00000000000E+00 0.  1.
         -2   -1    0    0    0  501 -0.00000000000E+00 -0.00000000000E+00 -0.66168918526E+02  0.66168918526E+02  0.00000000000E+00 0. -1.
          5    1    1    2  502    0 -0.15372639047E+02 -0.35652532818E+02 -0.18968266146E+02  0.43466150602E+02  0.47000000000E+01 0. -1.
         -5    1    1    2    0  502 -0.25832965414E+02  0.40305682799E+02  0.10051794960E+03  0.11143535507E+03  0.47000000000E+01 0. -1.
        -11    1    1    2    0    0 -0.14044299506E+02 -0.32732131369E+02  0.45020454998E+01  0.35901297835E+02  0.00000000000E+00 0. -1.
         11    1    1    2    0    0  0.55249903967E+02  0.28078981388E+02  0.55822998791E+02  0.83409761289E+02  0.00000000000E+00 0.  1.
<mgrwt>
<rscale>  0 0.12382975E+03</rscale>
<asrwt>0</asrwt>
<pdfrwt beam="1">  1        2 0.32006715E-01 0.13169710E+03</pdfrwt>
<pdfrwt beam="2">  1       -2 0.10179834E-01 0.13169710E+03</pdfrwt>
<totfact> 0.99081924E+03</totfact>
</mgrwt>
</event>
<event>
 6    1  0.5258538E-006  0.1649611E+03  0.7546771E-02  0.1190294E+00
         -2   -1    0    0    0  501 -0.00000000000E+00  0.00000000000E+00  0.38411801718E+02  0.38411801718E+02  0.00000000000E+00 0.  1.
          2   -1    0    0  501    0  0.00000000000E+00 -0.00000000000E+00 -0.92547102315E+03  0.92547102315E+03  0.00000000000E+00 0. -1.
          5    1    1    2  502    0  0.24643239708E+02 -0.87388047622E+01 -0.66137032402E+02  0.71273087676E+02  0.47000000000E+01 0. -1.
         -5    1    1    2    0  502 -0.13217921736E+03  0.13443616857E+02 -0.68158460864E+03  0.69442907850E+03  0.47000000000E+01 0. -1.
        -11    1    1    2    0    0  0.10116485994E+03  0.23105702834E+02 -0.13345155577E+03  0.16904886905E+03  0.00000000000E+00 0. -1.
         11    1    1    2    0    0  0.63711177103E+01 -0.27810514928E+02 -0.58860246193E+01  0.29131789634E+02  0.00000000000E+00 0.  1.
<mgrwt>
<rscale>  0 0.15859343E+03</rscale>
<asrwt>0</asrwt>
<pdfrwt beam="2">  1        2 0.14238014E+00 0.16496107E+03</pdfrwt>
<pdfrwt beam="1">  1       -2 0.59095085E-02 0.16496107E+03</pdfrwt>
<totfact> 0.43587931E+03</totfact>
</mgrwt>
</event>
<event>
 6    1  0.5258538E-006  0.1613161E+03  0.7546771E-02  0.1198342E+00
          3   -1    0    0  501    0  0.00000000000E+00  0.00000000000E+00  0.60238970004E+02  0.60238970004E+02  0.00000000000E+00 0. -1.
         -3   -1    0    0    0  501 -0.00000000000E+00 -0.00000000000E+00 -0.34968435209E+03  0.34968435209E+03  0.00000000000E+00 0.  1.
          5    1    1    2  502    0 -0.34917419333E+02 -0.10598834355E+03 -0.55870167562E+02  0.12488523037E+03  0.47000000000E+01 0. -1.
         -5    1    1    2    0  502 -0.94969580778E+01  0.30809914835E+02 -0.78747207392E+02  0.85221216471E+02  0.47000000000E+01 0.  1.
        -11    1    1    2    0    0  0.12611388590E+01 -0.18458075270E+02 -0.47569178812E+02  0.51040354493E+02  0.00000000000E+00 0.  1.
         11    1    1    2    0    0  0.43153238551E+02  0.93636503985E+02 -0.10725882832E+03  0.14877652076E+03  0.00000000000E+00 0. -1.
<mgrwt>
<rscale>  0 0.15174717E+03</rscale>
<asrwt>0</asrwt>
<pdfrwt beam="1">  1        3 0.92675339E-02 0.16131609E+03</pdfrwt>
<pdfrwt beam="2">  1       -3 0.53797592E-01 0.16131609E+03</pdfrwt>
<totfact> 0.68425137E+02</totfact>
</mgrwt>
</event>
<event>
 6    1  0.5258538E-006  0.1250282E+03  0.7546771E-02  0.1310863E+00
          2   -1    0    0  501    0  0.00000000000E+00  0.00000000000E+00  0.25844775215E+03  0.25844775215E+03  0.00000000000E+00 0.  1.
         -2   -1    0    0    0  501 -0.00000000000E+00 -0.00000000000E+00 -0.43382221786E+02  0.43382221786E+02  0.00000000000E+00 0. -1.
          5    1    1    2  502    0  0.33254218749E+02 -0.10465032981E+02  0.13955997749E+02  0.37844680645E+02  0.47000000000E+01 0. -1.
         -5    1    1    2    0  502 -0.43726238959E+02  0.36539040472E+02  0.22134987115E+03  0.22861526832E+03  0.47000000000E+01 0.  1.
        -11    1    1    2    0    0  0.28567264165E+01 -0.15796119490E+02 -0.13107621207E+02  0.20724092513E+02  0.00000000000E+00 0. -1.
         11    1    1    2    0    0  0.76152937936E+01 -0.10277888000E+02 -0.71327173211E+01  0.14645932462E+02  0.00000000000E+00 0.  1.
<mgrwt>
<rscale>  0 0.86771920E+02</rscale>
<asrwt>0</asrwt>
<pdfrwt beam="1">  1        2 0.39761192E-01 0.12502821E+03</pdfrwt>
<pdfrwt beam="2">  1       -2 0.66741881E-02 0.12502821E+03</pdfrwt>
<totfact> 0.15028522E+04</totfact>
</mgrwt>
</event>
<event>
 6    1  0.5258538E-006  0.1335894E+03  0.7546771E-02  0.1234973E+00
         -2   -1    0    0    0  501 -0.00000000000E+00  0.00000000000E+00  0.23675465967E+02  0.23675465967E+02  0.00000000000E+00 0.  1.
          2   -1    0    0  501    0  0.00000000000E+00 -0.00000000000E+00 -0.63114813006E+03  0.63114813006E+03  0.00000000000E+00 0. -1.
          5    1    1    2  502    0  0.70002701166E+02 -0.36171375873E+02 -0.27242583666E+03  0.28363122727E+03  0.47000000000E+01 0. -1.
         -5    1    1    2    0  502 -0.53267598544E+02 -0.79053590856E+01 -0.15232570213E+03  0.16163273581E+03  0.47000000000E+01 0. -1.
        -11    1    1    2    0    0 -0.25377827397E+02 -0.17380625256E+02 -0.10867561980E+03  0.11294472363E+03  0.00000000000E+00 0. -1.
         11    1    1    2    0    0  0.86427247753E+01  0.61457360214E+02 -0.74045505504E+02  0.96614909312E+02  0.00000000000E+00 0.  1.
<mgrwt>
<rscale>  0 0.12506144E+03</rscale>
<asrwt>0</asrwt>
<pdfrwt beam="2">  1        2 0.97099701E-01 0.13358940E+03</pdfrwt>
<pdfrwt beam="1">  1       -2 0.36423798E-02 0.13358940E+03</pdfrwt>
<totfact> 0.14275515E+04</totfact>
</mgrwt>
</event>
<event>
 6    1  0.5258538E-006  0.1543456E+03  0.7546771E-02  0.1204008E+00
         -1   -1    0    0    0  501 -0.00000000000E+00  0.00000000000E+00  0.39181878083E+03  0.39181878083E+03  0.00000000000E+00 0.  1.
          1   -1    0    0  501    0  0.00000000000E+00 -0.00000000000E+00 -0.52571480905E+02  0.52571480905E+02  0.00000000000E+00 0. -1.
          5    1    1    2  502    0 -0.28674509072E+01  0.79517579102E+02  0.85668495176E+02  0.11701473722E+03  0.47000000000E+01 0.  1.
         -5    1    1    2    0  502 -0.66123147084E+02 -0.20867687822E+02  0.14123859188E+03  0.15741080271E+03  0.47000000000E+01 0.  1.
        -11    1    1    2    0    0  0.21153371249E+02 -0.66986840802E+02  0.34602178329E+02  0.78307168898E+02  0.00000000000E+00 0. -1.
         11    1    1    2    0    0  0.47837226742E+02  0.83369495224E+01  0.77738034546E+02  0.91657552906E+02  0.00000000000E+00 0.  1.
<mgrwt>
<rscale>  0 0.14715883E+03</rscale>
<asrwt>0</asrwt>
<pdfrwt beam="2">  1        1 0.80879204E-02 0.15434556E+03</pdfrwt>
<pdfrwt beam="1">  1       -1 0.60279810E-01 0.15434556E+03</pdfrwt>
<totfact> 0.24037234E+03</totfact>
</mgrwt>
</event>
<event>
 6    1  0.5258538E-006  0.1517079E+03  0.7546771E-02  0.1207278E+00
         -1   -1    0    0    0  501 -0.00000000000E+00  0.00000000000E+00  0.85462770592E+02  0.85462770592E+02  0.00000000000E+00 0.  1.
          1   -1    0    0  501    0  0.00000000000E+00 -0.00000000000E+00 -0.27031190627E+03  0.27031190627E+03  0.00000000000E+00 0. -1.
          5    1    1    2  502    0  0.68366887855E+02 -0.46674237944E+02 -0.16946110261E+03  0.18865754992E+03  0.47000000000E+01 0. -1.
         -5    1    1    2    0  502  0.17061650982E+02  0.37219500152E+02 -0.34274528208E+01  0.41354909728E+02  0.47000000000E+01 0. -1.
        -11    1    1    2    0    0 -0.36313919653E+02 -0.32396430023E+02 -0.31943256984E+02  0.58211692173E+02  0.00000000000E+00 0.  1.
         11    1    1    2    0    0 -0.49114619183E+02  0.41851167815E+02  0.19982676733E+02  0.67550525049E+02  0.00000000000E+00 0. -1.
<mgrwt>
<rscale>  0 0.14459404E+03</rscale>
<asrwt>0</asrwt>
<pdfrwt beam="2">  1        1 0.41586447E-01 0.15170787E+03</pdfrwt>
<pdfrwt beam="1">  1       -1 0.13148119E-01 0.15170787E+03</pdfrwt>
<totfact> 0.38428316E+03</totfact>
</mgrwt>
</event>
<event>
 6    1  0.5258538E-006  0.1490827E+03  0.7546771E-02  0.1211400E+00
         -4   -1    0    0    0  501 -0.00000000000E+00  0.00000000000E+00  0.70640832920E+02  0.70640832920E+02  0.00000000000E+00 0.  1.
          4   -1    0    0  501    0  0.00000000000E+00 -0.00000000000E+00 -0.35756017958E+03  0.35756017958E+03  0.00000000000E+00 0. -1.
          5    1    1    2  502    0 -0.35447762437E+02  0.81733145716E+01 -0.42341890952E+02  0.56020287952E+02  0.47000000000E+01 0.  1.
         -5    1    1    2    0  502  0.75166491336E+02 -0.79043452993E+02 -0.22462100512E+03  0.24974898363E+03  0.47000000000E+01 0.  1.
        -11    1    1    2    0    0  0.82736132496E+01  0.21066249822E+02  0.29661752321E+02  0.37310308341E+02  0.00000000000E+00 0.  1.
         11    1    1    2    0    0 -0.47992342149E+02  0.49803888599E+02 -0.49618202906E+02  0.85121432578E+02  0.00000000000E+00 0. -1.
<mgrwt>
<rscale>  0 0.14144322E+03</rscale>
<asrwt>0</asrwt>
<pdfrwt beam="2">  1        4 0.55009259E-01 0.14908273E+03</pdfrwt>
<pdfrwt beam="1">  1       -4 0.10867820E-01 0.14908273E+03</pdfrwt>
<totfact> 0.35487603E+02</totfact>
</mgrwt>
</event>
<event>
 6    1  0.5258538E-006  0.3304003E+03  0.7546771E-02  0.1070960E+00
          1   -1    0    0  501    0  0.00000000000E+00  0.00000000000E+00  0.10822594513E+03  0.10822594513E+03  0.00000000000E+00 0. -1.
         -1   -1    0    0    0  501 -0.00000000000E+00 -0.00000000000E+00 -0.25216766166E+03  0.25216766166E+03  0.00000000000E+00 0.  1.
          5    1    1    2  502    0 -0.28708364255E+02 -0.11775268651E+02  0.54363113073E+02  0.62771531708E+02  0.47000000000E+01 0.  1.
         -5    1    1    2    0  502  0.74491017407E+02  0.23515206344E+02 -0.80401376171E+01  0.78667721568E+02  0.47000000000E+01 0.  1.
        -11    1    1    2    0    0 -0.11031201310E+02  0.40729118247E+02 -0.10347812951E+03  0.11175093630E+03  0.00000000000E+00 0.  1.
         11    1    1    2    0    0 -0.34751451842E+02 -0.52469055941E+02 -0.86786562475E+02  0.10720341722E+03  0.00000000000E+00 0. -1.
<mgrwt>
<rscale>  0 0.33040026E+03</rscale>
<asrwt>0</asrwt>
<pdfrwt beam="1">  1        1 0.16650146E-01 0.33040026E+03</pdfrwt>
<pdfrwt beam="2">  1       -1 0.38795024E-01 0.33040026E+03</pdfrwt>
<totfact> 0.21216301E+03</totfact>
</mgrwt>
</event>
<event>
 6    1  0.5258538E-006  0.1381847E+03  0.7546771E-02  0.1228692E+00
         -2   -1    0    0    0  501 -0.00000000000E+00  0.00000000000E+00  0.26686071952E+03  0.26686071952E+03  0.00000000000E+00 0.  1.
          2   -1    0    0  501    0  0.00000000000E+00 -0.00000000000E+00 -0.56211268143E+02  0.56211268143E+02  0.00000000000E+00 0. -1.
          5    1    1    2  502    0 -0.45991119038E+02 -0.83119544622E+02  0.48533388743E+02  0.10677837586E+03  0.47000000000E+01 0.  1.
         -5    1    1    2    0  502  0.15710255033E+02  0.32591234245E+02  0.54523619963E+02  0.65604236119E+02  0.47000000000E+01 0.  1.
        -11    1    1    2    0    0  0.23079537113E+02  0.64664912343E+02  0.36324311913E+02  0.77676711810E+02  0.00000000000E+00 0. -1.
         11    1    1    2    0    0  0.72013268918E+01 -0.14136601967E+02  0.71268130756E+02  0.73012663872E+02  0.00000000000E+00 0.  1.
<mgrwt>
<rscale>  0 0.12917027E+03</rscale>
<asrwt>0</asrwt>
<pdfrwt beam="2">  1        2 0.86478875E-02 0.13818472E+03</pdfrwt>
<pdfrwt beam="1">  1       -2 0.41055495E-01 0.13818472E+03</pdfrwt>
<totfact> 0.41641612E+03</totfact>
</mgrwt>
</event>
<event>
 6    1  0.5258538E-006  0.2970669E+03  0.7546771E-02  0.1086716E+00
          1   -1    0    0  501    0  0.00000000000E+00  0.00000000000E+00  0.13599786862E+03  0.13599786862E+03  0.00000000000E+00 0. -1.
         -1   -1    0    0    0  501 -0.00000000000E+00 -0.00000000000E+00 -0.16222448118E+03  0.16222448118E+03  0.00000000000E+00 0.  1.
          5    1    1    2  502    0 -0.93259249769E+01 -0.17326624572E+02  0.46638910394E+02  0.50837611652E+02  0.47000000000E+01 0. -1.
         -5    1    1    2    0  502 -0.90757307945E+02  0.39840873150E+02 -0.36902297394E+02  0.10586809563E+03  0.47000000000E+01 0.  1.
        -11    1    1    2    0    0  0.89898739452E+01 -0.42108932908E+02 -0.50880692636E+01  0.43357450490E+02  0.00000000000E+00 0.  1.
         11    1    1    2    0    0  0.91093358977E+02  0.19594684330E+02 -0.30875156293E+02  0.98159192029E+02  0.00000000000E+00 0. -1.
<mgrwt>
<rscale>  0 0.29706689E+03</rscale>
<asrwt>0</asrwt>
<pdfrwt beam="1">  1        1 0.20922749E-01 0.29706689E+03</pdfrwt>
<pdfrwt beam="2">  1       -1 0.24957612E-01 0.29706689E+03</pdfrwt>
<totfact> 0.33555764E+03</totfact>
</mgrwt>
</event>
<event>
 6    1  0.5258538E-006  0.3802174E+03  0.7546771E-02  0.1050853E+00
         -2   -1    0    0    0  501 -0.00000000000E+00  0.00000000000E+00  0.31382805765E+02  0.31382805765E+02  0.00000000000E+00 0.  1.
          2   -1    0    0  501    0  0.00000000000E+00 -0.00000000000E+00 -0.11516280458E+04  0.11516280458E+04  0.00000000000E+00 0. -1.
          5    1    1    2  502    0  0.25817235078E+02 -0.15668335008E+02 -0.25602442805E+03  0.25784224655E+03  0.47000000000E+01 0. -1.
         -5    1    1    2    0  502 -0.74326110658E+02  0.10374976738E+03 -0.70114156568E+03  0.71267802694E+03  0.47000000000E+01 0. -1.
        -11    1    1    2    0    0 -0.47897819132E+01 -0.77588863144E+02 -0.69436036387E+02  0.10423212961E+03  0.00000000000E+00 0.  1.
         11    1    1    2    0    0  0.53298657493E+02 -0.10492569223E+02 -0.93643209932E+02  0.10825844847E+03  0.00000000000E+00 0. -1.
<mgrwt>
<rscale>  0 0.38021741E+03</rscale>
<asrwt>0</asrwt>
<pdfrwt beam="2">  1        2 0.17717358E+00 0.38021741E+03</pdfrwt>
<pdfrwt beam="1">  1       -2 0.48281230E-02 0.38021741E+03</pdfrwt>
<totfact> 0.44181498E+03</totfact>
</mgrwt>
</event>
<event>
 6    1  0.5258538E-006  0.1533409E+03  0.7546771E-02  0.1207133E+00
          1   -1    0    0  501    0  0.00000000000E+00  0.00000000000E+00  0.18602755810E+03  0.18602755810E+03  0.00000000000E+00 0. -1.
         -1   -1    0    0    0  501 -0.00000000000E+00 -0.00000000000E+00 -0.11007483485E+03  0.11007483485E+03  0.00000000000E+00 0.  1.
          5    1    1    2  502    0 -0.47123372406E+00  0.87182873935E+02  0.18368815544E+02  0.89222076603E+02  0.47000000000E+01 0.  1.
         -5    1    1    2    0  502 -0.52870172132E+02 -0.16166328752E+02  0.64487513522E+02  0.85072526040E+02  0.47000000000E+01 0.  1.
        -11    1    1    2    0    0  0.13561120977E+02 -0.42455767601E+02 -0.42250456952E+02  0.61412517595E+02  0.00000000000E+00 0.  1.
         11    1    1    2    0    0  0.39780284880E+02 -0.28560777583E+02  0.35346851132E+02  0.60395272714E+02  0.00000000000E+00 0. -1.
<mgrwt>
<rscale>  0 0.14470637E+03</rscale>
<asrwt>0</asrwt>
<pdfrwt beam="1">  1        1 0.28619624E-01 0.15334092E+03</pdfrwt>
<pdfrwt beam="2">  1       -1 0.16934590E-01 0.15334092E+03</pdfrwt>
<totfact> 0.41119121E+03</totfact>
</mgrwt>
</event>
<event>
 6    1  0.5258538E-006  0.1328588E+03  0.7546771E-02  0.1235799E+00
          2   -1    0    0  501    0  0.00000000000E+00  0.00000000000E+00  0.33381591390E+04  0.33381591390E+04  0.00000000000E+00 0. -1.
         -2   -1    0    0    0  501 -0.00000000000E+00 -0.00000000000E+00 -0.66209771521E+02  0.66209771521E+02  0.00000000000E+00 0.  1.
          5    1    1    2  502    0  0.10712726896E+02  0.23427718750E+02  0.27791535288E+04  0.27792768929E+04  0.47000000000E+01 0. -1.
         -5    1    1    2    0  502  0.35914202030E+02 -0.36538949750E+02  0.51713077717E+03  0.51968380334E+03  0.47000000000E+01 0.  1.
        -11    1    1    2    0    0 -0.47086327120E+00  0.34481549007E+02 -0.39400862796E+02  0.52360547392E+02  0.00000000000E+00 0. -1.
         11    1    1    2    0    0 -0.46156065655E+02 -0.21370318007E+02  0.15065924260E+02  0.53047666888E+02  0.00000000000E+00 0.  1.
<mgrwt>
<rscale>  0 0.12453399E+03</rscale>
<asrwt>0</asrwt>
<pdfrwt beam="1">  1        2 0.51356281E+00 0.13285876E+03</pdfrwt>
<pdfrwt beam="2">  1       -2 0.10186121E-01 0.13285876E+03</pdfrwt>
<totfact> 0.90301648E+01</totfact>
</mgrwt>
</event>
<event>
 6    1  0.5258538E-006  0.1500385E+03  0.7546771E-02  0.1208812E+00
          2   -1    0    0  501    0  0.00000000000E+00  0.00000000000E+00  0.81259782918E+03  0.81259782918E+03  0.00000000000E+00 0. -1.
         -2   -1    0    0    0  501 -0.00000000000E+00 -0.00000000000E+00 -0.23507771261E+02  0.23507771261E+02  0.00000000000E+00 0.  1.
          5    1    1    2  502    0  0.66388957277E+02 -0.51385854201E+02  0.13913111853E+03  0.16256554925E+03  0.47000000000E+01 0. -1.
         -5    1    1    2    0  502 -0.38252905223E+02 -0.26669769151E+02  0.25269634050E+03  0.25700601519E+03  0.47000000000E+01 0. -1.
        -11    1    1    2    0    0 -0.62414956871E+02  0.47464873018E+02  0.27351225129E+03  0.28453030176E+03  0.00000000000E+00 0.  1.
         11    1    1    2    0    0  0.34278904816E+02  0.30590750335E+02  0.12375034760E+03  0.13200373424E+03  0.00000000000E+00 0. -1.
<mgrwt>
<rscale>  0 0.14341042E+03</rscale>
<asrwt>0</asrwt>
<pdfrwt beam="1">  1        2 0.12501503E+00 0.15003846E+03</pdfrwt>
<pdfrwt beam="2">  1       -2 0.36165808E-02 0.15003846E+03</pdfrwt>
<totfact> 0.10735944E+04</totfact>
</mgrwt>
</event>
<event>
 6    1  0.5258538E-006  0.1290862E+03  0.7546771E-02  0.1243802E+00
          2   -1    0    0  501    0  0.00000000000E+00  0.00000000000E+00  0.12833786053E+04  0.12833786053E+04  0.00000000000E+00 0. -1.
         -2   -1    0    0    0  501 -0.00000000000E+00 -0.00000000000E+00 -0.14827244328E+02  0.14827244328E+02  0.00000000000E+00 0.  1.
          5    1    1    2  502    0 -0.15694896336E+02  0.45752943989E+02  0.41677970428E+03  0.41960347181E+03  0.47000000000E+01 0.  1.
         -5    1    1    2    0  502  0.18169179042E+02 -0.78232306783E+02  0.65671369099E+03  0.66162328770E+03  0.47000000000E+01 0.  1.
        -11    1    1    2    0    0  0.34776460222E+02  0.39656831481E+02  0.14410620031E+03  0.15345573771E+03  0.00000000000E+00 0. -1.
         11    1    1    2    0    0 -0.37250742929E+02 -0.71774686860E+01  0.50951765419E+02  0.63523352437E+02  0.00000000000E+00 0.  1.
<mgrwt>
<rscale>  0 0.11957342E+03</rscale>
<asrwt>0</asrwt>
<pdfrwt beam="1">  1        2 0.19744278E+00 0.12908616E+03</pdfrwt>
<pdfrwt beam="2">  1       -2 0.22811155E-02 0.12908616E+03</pdfrwt>
<totfact> 0.11030258E+04</totfact>
</mgrwt>
</event>
<event>
 6    1  0.5258538E-006  0.3663928E+03  0.7546771E-02  0.1056081E+00
          2   -1    0    0  501    0  0.00000000000E+00  0.00000000000E+00  0.38577295945E+03  0.38577295945E+03  0.00000000000E+00 0. -1.
         -2   -1    0    0    0  501 -0.00000000000E+00 -0.00000000000E+00 -0.86996560513E+02  0.86996560513E+02  0.00000000000E+00 0.  1.
          5    1    1    2  502    0 -0.52859786158E+02  0.61562118487E+01  0.10882982159E+03  0.12123562184E+03  0.47000000000E+01 0. -1.
         -5    1    1    2    0  502  0.60280560955E+02  0.32857392708E+02  0.12962252752E+03  0.14675641017E+03  0.47000000000E+01 0.  1.
        -11    1    1    2    0    0 -0.36228027550E+02  0.42793242273E+02 -0.42429617061E+02  0.70313611544E+02  0.00000000000E+00 0.  1.
         11    1    1    2    0    0  0.28807252752E+02 -0.81806846830E+02  0.10275366689E+03  0.13446387641E+03  0.00000000000E+00 0. -1.
<mgrwt>
<rscale>  0 0.36639280E+03</rscale>
<asrwt>0</asrwt>
<pdfrwt beam="1">  1        2 0.59349685E-01 0.36639280E+03</pdfrwt>
<pdfrwt beam="2">  1       -2 0.13384086E-01 0.36639280E+03</pdfrwt>
<totfact> 0.34507937E+03</totfact>
</mgrwt>
</event>
<event>
 6    1  0.5258538E-006  0.2549706E+03  0.7546771E-02  0.1112698E+00
          2   -1    0    0  501    0  0.00000000000E+00  0.00000000000E+00  0.10927602656E+04  0.10927602656E+04  0.00000000000E+00 0. -1.
         -2   -1    0    0    0  501 -0.00000000000E+00 -0.00000000000E+00 -0.64289820552E+02  0.64289820552E+02  0.00000000000E+00 0.  1.
          5    1    1    2  502    0  0.11833877232E+03  0.67129064338E+02  0.26947696784E+03  0.30191108378E+03  0.47000000000E+01 0. -1.
         -5    1    1    2    0  502  0.36735378953E+02  0.92046225663E+02  0.46789163031E+03  0.47829558166E+03  0.47000000000E+01 0. -1.
        -11    1    1    2    0    0 -0.14364724712E+03 -0.12534996007E+03  0.18807145674E+03  0.26780219740E+03  0.00000000000E+00 0.  1.
         11    1    1    2    0    0 -0.11426904152E+02 -0.33825329935E+02  0.10303039015E+03  0.10904122329E+03  0.00000000000E+00 0. -1.
<mgrwt>
<rscale>  0 0.25096264E+03</rscale>
<asrwt>0</asrwt>
<pdfrwt beam="1">  1        2 0.16811695E+00 0.25497057E+03</pdfrwt>
<pdfrwt beam="2">  1       -2 0.98907424E-02 0.25497057E+03</pdfrwt>
<totfact> 0.15587325E+03</totfact>
</mgrwt>
</event>
<event>
 6    1  0.5258538E-006  0.2318345E+03  0.7546771E-02  0.1215436E+00
         -2   -1    0    0    0  501 -0.00000000000E+00  0.00000000000E+00  0.16722105849E+02  0.16722105849E+02  0.00000000000E+00 0.  1.
          2   -1    0    0  501    0  0.00000000000E+00 -0.00000000000E+00 -0.10734246930E+04  0.10734246930E+04  0.00000000000E+00 0. -1.
          5    1    1    2  502    0 -0.62879920414E+02 -0.58862973214E+02 -0.76582454967E+03  0.77066728546E+03  0.47000000000E+01 0. -1.
         -5    1    1    2    0  502  0.84595033082E+02  0.57782815533E+02 -0.23066770676E+03  0.25243782271E+03  0.47000000000E+01 0.  1.
        -11    1    1    2    0    0 -0.53066594312E+01  0.89133995133E+01 -0.30429330065E+02  0.32148926163E+02  0.00000000000E+00 0.  1.
         11    1    1    2    0    0 -0.16408453237E+02 -0.78332418322E+01 -0.29781000660E+02  0.34892764516E+02  0.00000000000E+00 0. -1.
<mgrwt>
<rscale>  0 0.13844589E+03</rscale>
<asrwt>0</asrwt>
<pdfrwt beam="2">  1        2 0.16514229E+00 0.23183452E+03</pdfrwt>
<pdfrwt beam="1">  1       -2 0.25726313E-02 0.23183452E+03</pdfrwt>
<totfact> 0.12496351E+04</totfact>
</mgrwt>
</event>
<event>
 6    1  0.5258538E-006  0.1354346E+03  0.7546771E-02  0.1229635E+00
          2   -1    0    0  501    0  0.00000000000E+00  0.00000000000E+00  0.15530508506E+04  0.15530508506E+04  0.00000000000E+00 0. -1.
         -2   -1    0    0    0  501 -0.00000000000E+00 -0.00000000000E+00 -0.17377513973E+02  0.17377513973E+02  0.00000000000E+00 0.  1.
          5    1    1    2  502    0  0.61030857149E+02 -0.52904440682E+02  0.95730627517E+03  0.96071902232E+03  0.47000000000E+01 0. -1.
         -5    1    1    2    0  502  0.36987718105E+01  0.50681166401E+02  0.37580826353E+03  0.37925743562E+03  0.47000000000E+01 0.  1.
        -11    1    1    2    0    0 -0.35360161906E+02 -0.36118044056E+02  0.15350346637E+03  0.16161116404E+03  0.00000000000E+00 0. -1.
         11    1    1    2    0    0 -0.29369467053E+02  0.38341318337E+02  0.49055331608E+02  0.68840742631E+02  0.00000000000E+00 0.  1.
<mgrwt>
<rscale>  0 0.12854249E+03</rscale>
<asrwt>0</asrwt>
<pdfrwt beam="1">  1        2 0.23893079E+00 0.13543461E+03</pdfrwt>
<pdfrwt beam="2">  1       -2 0.26734649E-02 0.13543461E+03</pdfrwt>
<totfact> 0.63194872E+03</totfact>
</mgrwt>
</event>
<event>
 6    1  0.5258538E-006  0.3880088E+03  0.7546771E-02  0.1048013E+00
          1   -1    0    0  501    0  0.00000000000E+00  0.00000000000E+00  0.33239612414E+03  0.33239612414E+03  0.00000000000E+00 0. -1.
         -1   -1    0    0    0  501 -0.00000000000E+00 -0.00000000000E+00 -0.11323150825E+03  0.11323150825E+03  0.00000000000E+00 0.  1.
          5    1    1    2  502    0 -0.19769798414E+02  0.34531585126E+01 -0.49710564698E+01  0.21203080801E+02  0.47000000000E+01 0.  1.
         -5    1    1    2    0  502  0.12552613917E+03  0.11683118712E+03  0.15692743468E+03  0.23249655407E+03  0.47000000000E+01 0.  1.
        -11    1    1    2    0    0 -0.17773186578E+01 -0.52324297248E+02  0.38796310618E+01  0.52498023594E+02  0.00000000000E+00 0. -1.
         11    1    1    2    0    0 -0.10397902210E+03 -0.67960048386E+02  0.63328606610E+02  0.13942997392E+03  0.00000000000E+00 0.  1.
<mgrwt>
<rscale>  0 0.38800884E+03</rscale>
<asrwt>0</asrwt>
<pdfrwt beam="1">  1        1 0.51137865E-01 0.38800884E+03</pdfrwt>
<pdfrwt beam="2">  1       -1 0.17420232E-01 0.38800884E+03</pdfrwt>
<totfact> 0.19508094E+03</totfact>
</mgrwt>
</event>
<event>
 6    1  0.5258538E-006  0.1755417E+03  0.7546771E-02  0.1178110E+00
         -1   -1    0    0    0  501 -0.00000000000E+00  0.00000000000E+00  0.16848593932E+03  0.16848593932E+03  0.00000000000E+00 0.  1.
          1   -1    0    0  501    0  0.00000000000E+00 -0.00000000000E+00 -0.20994811471E+03  0.20994811471E+03  0.00000000000E+00 0. -1.
          5    1    1    2  502    0 -0.51030140174E+02  0.54950106067E+02  0.74480565857E+01  0.75505979299E+02  0.47000000000E+01 0. -1.
         -5    1    1    2    0  502 -0.56245699727E+02  0.57357071288E+01 -0.12078242507E+03  0.13344272659E+03  0.47000000000E+01 0. -1.
        -11    1    1    2    0    0  0.29428662616E+02 -0.66774780668E+02  0.49783238642E+02  0.88336223410E+02  0.00000000000E+00 0.  1.
         11    1    1    2    0    0  0.77847177285E+02  0.60889674721E+01  0.22088954455E+02  0.81149124734E+02  0.00000000000E+00 0. -1.
<mgrwt>
<rscale>  0 0.16974866E+03</rscale>
<asrwt>0</asrwt>
<pdfrwt beam="2">  1        1 0.32299710E-01 0.17554168E+03</pdfrwt>
<pdfrwt beam="1">  1       -1 0.25920914E-01 0.17554168E+03</pdfrwt>
<totfact> 0.17823922E+03</totfact>
</mgrwt>
</event>
<event>
 6    1  0.5258538E-006  0.3269367E+03  0.7546771E-02  0.1072500E+00
         -4   -1    0    0    0  501 -0.00000000000E+00  0.00000000000E+00  0.26300254264E+02  0.26300254264E+02  0.00000000000E+00 0.  1.
          4   -1    0    0  501    0  0.00000000000E+00 -0.00000000000E+00 -0.10160320035E+04  0.10160320035E+04  0.00000000000E+00 0. -1.
          5    1    1    2  502    0 -0.35620621981E+02  0.15997981433E+02 -0.24123333763E+03  0.24441844715E+03  0.47000000000E+01 0.  1.
         -5    1    1    2    0  502  0.11986687188E+02 -0.12214612064E+03 -0.45824824168E+03  0.47442269809E+03  0.47000000000E+01 0.  1.
        -11    1    1    2    0    0  0.45566723164E+02  0.49322775311E+02 -0.22237549646E+03  0.23229275463E+03  0.00000000000E+00 0. -1.
         11    1    1    2    0    0 -0.21932788371E+02  0.56825363901E+02 -0.67874673489E+02  0.91198357931E+02  0.00000000000E+00 0.  1.
<mgrwt>
<rscale>  0 0.32693669E+03</rscale>
<asrwt>0</asrwt>
<pdfrwt beam="2">  1        4 0.15631264E+00 0.32693669E+03</pdfrwt>
<pdfrwt beam="1">  1       -4 0.40461925E-02 0.32693669E+03</pdfrwt>
<totfact> 0.18117587E+02</totfact>
</mgrwt>
</event>
<event>
 6    1  0.5258538E-006  0.1595417E+03  0.7546771E-02  0.1197395E+00
          1   -1    0    0  501    0  0.00000000000E+00  0.00000000000E+00  0.35629869124E+03  0.35629869124E+03  0.00000000000E+00 0. -1.
         -1   -1    0    0    0  501 -0.00000000000E+00 -0.00000000000E+00 -0.61123523790E+02  0.61123523790E+02  0.00000000000E+00 0.  1.
          5    1    1    2  502    0 -0.71755807255E+02 -0.66486694773E+02  0.14791852738E+03  0.17740168319E+03  0.47000000000E+01 0. -1.
         -5    1    1    2    0  502 -0.25914754268E+02  0.49468901717E+02  0.38639976571E+02  0.68072641459E+02  0.47000000000E+01 0. -1.
        -11    1    1    2    0    0  0.32422574636E+02  0.16162095251E+02  0.99712389422E+02  0.10608957193E+03  0.00000000000E+00 0.  1.
         11    1    1    2    0    0  0.65247986887E+02  0.85569780569E+00  0.89042740753E+01  0.65858318445E+02  0.00000000000E+00 0. -1.
<mgrwt>
<rscale>  0 0.15253240E+03</rscale>
<asrwt>0</asrwt>
<pdfrwt beam="1">  1        1 0.54815182E-01 0.15954175E+03</pdfrwt>
<pdfrwt beam="2">  1       -1 0.94036193E-02 0.15954175E+03</pdfrwt>
<totfact> 0.45782339E+03</totfact>
</mgrwt>
</event>
<event>
 6    1  0.5258538E-006  0.5109916E+03  0.7546771E-02  0.1041574E+00
          2   -1    0    0  501    0  0.00000000000E+00  0.00000000000E+00  0.13062867340E+04  0.13062867340E+04  0.00000000000E+00 0. -1.
         -2   -1    0    0    0  501 -0.00000000000E+00 -0.00000000000E+00 -0.11379220220E+03  0.11379220220E+03  0.00000000000E+00 0.  1.
          5    1    1    2  502    0 -0.19144656032E+03  0.11935857293E+03  0.10796713309E+04  0.11030006922E+04  0.47000000000E+01 0. -1.
         -5    1    1    2    0  502  0.68057103680E+02  0.15230089964E+02 -0.20625272537E+02  0.72878095947E+02  0.47000000000E+01 0.  1.
        -11    1    1    2    0    0  0.61268337896E+02 -0.11759111092E+03  0.57241753756E+02  0.14442332557E+03  0.00000000000E+00 0.  1.
         11    1    1    2    0    0  0.62121118741E+02 -0.16997551973E+02  0.76206719723E+02  0.99776822447E+02  0.00000000000E+00 0. -1.
<mgrwt>
<rscale>  0 0.40643403E+03</rscale>
<asrwt>0</asrwt>
<pdfrwt beam="1">  1        2 0.20096718E+00 0.51099156E+03</pdfrwt>
<pdfrwt beam="2">  1       -2 0.17506494E-01 0.51099156E+03</pdfrwt>
<totfact> 0.45167442E+02</totfact>
</mgrwt>
</event>
<event>
 6    1  0.5258538E-006  0.2654447E+03  0.7546771E-02  0.1106032E+00
          2   -1    0    0  501    0  0.00000000000E+00  0.00000000000E+00  0.23217416486E+03  0.23217416486E+03  0.00000000000E+00 0. -1.
         -2   -1    0    0    0  501 -0.00000000000E+00 -0.00000000000E+00 -0.29892377544E+03  0.29892377544E+03  0.00000000000E+00 0.  1.
          5    1    1    2  502    0  0.12623111289E+03 -0.19253083556E+03  0.47336625462E+02  0.23508564953E+03  0.47000000000E+01 0.  1.
         -5    1    1    2    0  502  0.60085829868E+01 -0.73261957602E+00 -0.29962541390E+02  0.30927070464E+02  0.47000000000E+01 0.  1.
        -11    1    1    2    0    0 -0.13385442544E+03  0.13706546342E+03 -0.83167546480E+02  0.20885590550E+03  0.00000000000E+00 0. -1.
         11    1    1    2    0    0  0.16147295654E+01  0.56197991714E+02 -0.95614817327E+00  0.56229314806E+02  0.00000000000E+00 0.  1.
<mgrwt>
<rscale>  0 0.26185721E+03</rscale>
<asrwt>0</asrwt>
<pdfrwt beam="1">  1        2 0.35719102E-01 0.26544474E+03</pdfrwt>
<pdfrwt beam="2">  1       -2 0.45988273E-01 0.26544474E+03</pdfrwt>
<totfact> 0.65808512E+02</totfact>
</mgrwt>
</event>
<event>
 6    1  0.5258538E-006  0.1802470E+03  0.7546771E-02  0.1182519E+00
          1   -1    0    0  501    0  0.00000000000E+00  0.00000000000E+00  0.35554792679E+03  0.35554792679E+03  0.00000000000E+00 0. -1.
         -1   -1    0    0    0  501 -0.00000000000E+00 -0.00000000000E+00 -0.17861590373E+03  0.17861590373E+03  0.00000000000E+00 0.  1.
          5    1    1    2  502    0 -0.80275891353E+02  0.40706269752E+02  0.25768668903E+03  0.27299402710E+03  0.47000000000E+01 0. -1.
         -5    1    1    2    0  502  0.49450938531E+02  0.43109666454E+02  0.46371792113E+02  0.80475286686E+02  0.47000000000E+01 0.  1.
        -11    1    1    2    0    0  0.59215457077E+02 -0.76493618003E+02 -0.81659766723E+02  0.12659408143E+03  0.00000000000E+00 0.  1.
         11    1    1    2    0    0 -0.28390504255E+02 -0.73223182038E+01 -0.45466691362E+02  0.54100435295E+02  0.00000000000E+00 0. -1.
<mgrwt>
<rscale>  0 0.16559668E+03</rscale>
<asrwt>0</asrwt>
<pdfrwt beam="1">  1        1 0.54699681E-01 0.18024704E+03</pdfrwt>
<pdfrwt beam="2">  1       -1 0.27479370E-01 0.18024704E+03</pdfrwt>
<totfact> 0.83776793E+02</totfact>
</mgrwt>
</event>
<event>
 6    1  0.5258538E-006  0.1319441E+03  0.7546771E-02  0.1239531E+00
         -1   -1    0    0    0  501 -0.00000000000E+00  0.00000000000E+00  0.22881066716E+02  0.22881066716E+02  0.00000000000E+00 0.  1.
          1   -1    0    0  501    0  0.00000000000E+00 -0.00000000000E+00 -0.59632478897E+03  0.59632478897E+03  0.00000000000E+00 0. -1.
          5    1    1    2  502    0  0.58261269550E+01  0.72862755207E+02 -0.27391222266E+03  0.28353645370E+03  0.47000000000E+01 0. -1.
         -5    1    1    2    0  502  0.27320693756E+02 -0.46675196201E+02 -0.11550049655E+03  0.12762229018E+03  0.47000000000E+01 0. -1.
        -11    1    1    2    0    0 -0.16783713978E+02  0.26416773123E+02 -0.25998023038E+02  0.40687051491E+02  0.00000000000E+00 0.  1.
         11    1    1    2    0    0 -0.16363106733E+02 -0.52604332129E+02 -0.15803298001E+03  0.16736006033E+03  0.00000000000E+00 0. -1.
<mgrwt>
<rscale>  0 0.12218753E+03</rscale>
<asrwt>0</asrwt>
<pdfrwt beam="2">  1        1 0.91742279E-01 0.13194410E+03</pdfrwt>
<pdfrwt beam="1">  1       -1 0.35201640E-02 0.13194410E+03</pdfrwt>
<totfact> 0.10061148E+04</totfact>
</mgrwt>
</event>
<event>
 6    1  0.5258538E-006  0.3351240E+03  0.7546771E-02  0.1068892E+00
         -2   -1    0    0    0  501 -0.00000000000E+00  0.00000000000E+00  0.36915805866E+03  0.36915805866E+03  0.00000000000E+00 0.  1.
          2   -1    0    0  501    0  0.00000000000E+00 -0.00000000000E+00 -0.76056898966E+02  0.76056898966E+02  0.00000000000E+00 0. -1.
          5    1    1    2  502    0 -0.47503557635E+02 -0.12874622583E+03  0.10172712835E+03  0.17088790857E+03  0.47000000000E+01 0.  1.
         -5    1    1    2    0  502  0.27483480452E+02  0.63730874381E+01 -0.64313780138E+01  0.29315705081E+02  0.47000000000E+01 0.  1.
        -11    1    1    2    0    0  0.28431904954E+02  0.62886970766E+02  0.49304022458E+02  0.84817633437E+02  0.00000000000E+00 0.  1.
         11    1    1    2    0    0 -0.84118277698E+01  0.59486167624E+02  0.14850138690E+03  0.16019371053E+03  0.00000000000E+00 0. -1.
<mgrwt>
<rscale>  0 0.33512396E+03</rscale>
<asrwt>0</asrwt>
<pdfrwt beam="2">  1        2 0.11701062E-01 0.33512396E+03</pdfrwt>
<pdfrwt beam="1">  1       -2 0.56793546E-01 0.33512396E+03</pdfrwt>
<totfact> 0.15686755E+03</totfact>
</mgrwt>
</event>
<event>
 6    1  0.5258538E-006  0.1821045E+03  0.7546771E-02  0.1214542E+00
         -2   -1    0    0    0  501 -0.00000000000E+00  0.00000000000E+00  0.12520106155E+03  0.12520106155E+03  0.00000000000E+00 0.  1.
          2   -1    0    0  501    0  0.00000000000E+00 -0.00000000000E+00 -0.12366228788E+03  0.12366228788E+03  0.00000000000E+00 0. -1.
          5    1    1    2  502    0 -0.42260367252E+02 -0.73590378907E+02 -0.74155270871E+02  0.11279440015E+03  0.47000000000E+01 0. -1.
         -5    1    1    2    0  502 -0.10663362573E+02  0.43556834567E+02  0.54083195156E+02  0.70412975630E+02  0.47000000000E+01 0.  1.
        -11    1    1    2    0    0  0.75465678013E+01  0.83209361810E+01  0.71445331444E+01  0.13312889182E+02  0.00000000000E+00 0. -1.
         11    1    1    2    0    0  0.45377162024E+02  0.21712608160E+02  0.14466316240E+02  0.52343084471E+02  0.00000000000E+00 0.  1.
<mgrwt>
<rscale>  0 0.13910217E+03</rscale>
<asrwt>0</asrwt>
<pdfrwt beam="2">  1        2 0.19024967E-01 0.18210451E+03</pdfrwt>
<pdfrwt beam="1">  1       -2 0.19261702E-01 0.18210451E+03</pdfrwt>
<totfact> 0.63887118E+03</totfact>
</mgrwt>
</event>
<event>
 6    1  0.5258538E-006  0.1254279E+03  0.7546771E-02  0.1252244E+00
          2   -1    0    0  501    0  0.00000000000E+00  0.00000000000E+00  0.71315489644E+02  0.71315489644E+02  0.00000000000E+00 0. -1.
         -2   -1    0    0    0  501 -0.00000000000E+00 -0.00000000000E+00 -0.17911928350E+03  0.17911928350E+03  0.00000000000E+00 0.  1.
          5    1    1    2  502    0 -0.47553724737E+02 -0.91182004434E+01 -0.56523044721E+02  0.74575082301E+02  0.47000000000E+01 0. -1.
         -5    1    1    2    0  502  0.38156283249E+02  0.47191172645E+01  0.35573557057E+02  0.52590303107E+02  0.47000000000E+01 0. -1.
        -11    1    1    2    0    0  0.42501637373E+02 -0.71615463366E+01 -0.19442023060E+02  0.47282863555E+02  0.00000000000E+00 0. -1.
         11    1    1    2    0    0 -0.33104195885E+02  0.11560629516E+02 -0.67412283128E+02  0.75986524177E+02  0.00000000000E+00 0.  1.
<mgrwt>
<rscale>  0 0.11462124E+03</rscale>
<asrwt>0</asrwt>
<pdfrwt beam="1">  1        2 0.10971614E-01 0.12542788E+03</pdfrwt>
<pdfrwt beam="2">  1       -2 0.27556813E-01 0.12542788E+03</pdfrwt>
<totfact> 0.64111720E+03</totfact>
</mgrwt>
</event>
<event>
 6    1  0.5258538E-006  0.1251413E+03  0.7546771E-02  0.1247801E+00
          1   -1    0    0  501    0  0.00000000000E+00  0.00000000000E+00  0.77749896863E+03  0.77749896863E+03  0.00000000000E+00 0. -1.
         -1   -1    0    0    0  501 -0.00000000000E+00 -0.00000000000E+00 -0.16186937203E+02  0.16186937203E+02  0.00000000000E+00 0.  1.
          5    1    1    2  502    0  0.38574143697E+02 -0.48210080748E+02  0.18908006202E+03  0.19896114269E+03  0.47000000000E+01 0. -1.
         -5    1    1    2    0  502 -0.35575669090E+02  0.47363548332E+02  0.30384194771E+03  0.30959805092E+03  0.47000000000E+01 0. -1.
        -11    1    1    2    0    0  0.39443639276E+02  0.17046355534E+02  0.74666799907E+02  0.86148185847E+02  0.00000000000E+00 0.  1.
         11    1    1    2    0    0 -0.42442113882E+02 -0.16199823119E+02  0.19372322179E+03  0.19897852638E+03  0.00000000000E+00 0. -1.
<mgrwt>
<rscale>  0 0.11719270E+03</rscale>
<asrwt>0</asrwt>
<pdfrwt beam="1">  1        1 0.11961520E+00 0.12514130E+03</pdfrwt>
<pdfrwt beam="2">  1       -1 0.24902986E-02 0.12514130E+03</pdfrwt>
<totfact> 0.11389718E+04</totfact>
</mgrwt>
</event>
<event>
 6    1  0.5258538E-006  0.2495412E+03  0.7546771E-02  0.1113595E+00
          2   -1    0    0  501    0  0.00000000000E+00  0.00000000000E+00  0.40625711012E+02  0.40625711012E+02  0.00000000000E+00 0. -1.
         -2   -1    0    0    0  501 -0.00000000000E+00 -0.00000000000E+00 -0.38319820546E+03  0.38319820546E+03  0.00000000000E+00 0.  1.
          5    1    1    2  502    0  0.23553890248E+02 -0.67682218784E+01  0.55212325639E+01  0.25557163032E+02  0.47000000000E+01 0.  1.
         -5    1    1    2    0  502 -0.82690435831E+02  0.15160201059E+02 -0.16836901008E+03  0.18824917909E+03  0.47000000000E+01 0.  1.
        -11    1    1    2    0    0  0.22419045538E+02 -0.25578050975E+02 -0.99043658770E+01  0.35425227705E+02  0.00000000000E+00 0. -1.
         11    1    1    2    0    0  0.36717500046E+02  0.17186071794E+02 -0.16982035106E+03  0.17459234665E+03  0.00000000000E+00 0.  1.
<mgrwt>
<rscale>  0 0.24954118E+03</rscale>
<asrwt>0</asrwt>
<pdfrwt beam="1">  1        2 0.62501097E-02 0.24954118E+03</pdfrwt>
<pdfrwt beam="2">  1       -2 0.58953567E-01 0.24954118E+03</pdfrwt>
<totfact> 0.31853653E+03</totfact>
</mgrwt>
</event>
<event>
 6    1  0.5258538E-006  0.2661086E+03  0.7546771E-02  0.1103528E+00
          2   -1    0    0  501    0  0.00000000000E+00  0.00000000000E+00  0.14433816774E+03  0.14433816774E+03  0.00000000000E+00 0. -1.
         -2   -1    0    0    0  501 -0.00000000000E+00 -0.00000000000E+00 -0.12265259706E+03  0.12265259706E+03  0.00000000000E+00 0.  1.
          5    1    1    2  502    0 -0.50100619331E+02  0.60071062759E+02 -0.29311326218E+02  0.83665097161E+02  0.47000000000E+01 0. -1.
         -5    1    1    2    0  502  0.17044106268E+02  0.46175004938E+01  0.61900593378E+02  0.64541431111E+02  0.47000000000E+01 0. -1.
        -11    1    1    2    0    0  0.47335744380E+02 -0.10435968396E+02 -0.32838005077E+02  0.58548413384E+02  0.00000000000E+00 0.  1.
         11    1    1    2    0    0 -0.14279231316E+02 -0.54252594856E+02  0.21934308601E+02  0.60235823141E+02  0.00000000000E+00 0. -1.
<mgrwt>
<rscale>  0 0.26610863E+03</rscale>
<asrwt>0</asrwt>
<pdfrwt beam="1">  1        2 0.22205872E-01 0.26610863E+03</pdfrwt>
<pdfrwt beam="2">  1       -2 0.18869630E-01 0.26610863E+03</pdfrwt>
<totfact> 0.56666979E+03</totfact>
</mgrwt>
</event>
<event>
 6    1  0.5258538E-006  0.1605445E+03  0.7546771E-02  0.1196164E+00
          2   -1    0    0  501    0  0.00000000000E+00  0.00000000000E+00  0.14382944629E+04  0.14382944629E+04  0.00000000000E+00 0. -1.
         -2   -1    0    0    0  501 -0.00000000000E+00 -0.00000000000E+00 -0.18016294483E+02  0.18016294483E+02  0.00000000000E+00 0.  1.
          5    1    1    2  502    0 -0.49585406244E+02  0.18805596996E+02  0.88642438881E+03  0.88802176216E+03  0.47000000000E+01 0. -1.
         -5    1    1    2    0  502 -0.50093746457E+02 -0.33463291871E+02  0.16761804926E+03  0.17817709105E+03  0.47000000000E+01 0. -1.
        -11    1    1    2    0    0  0.27142922545E+02  0.29662262833E+02  0.24318953282E+03  0.24649084557E+03  0.00000000000E+00 0. -1.
         11    1    1    2    0    0  0.72536230156E+02 -0.15004567958E+02  0.12304619748E+03  0.14362105855E+03  0.00000000000E+00 0.  1.
<mgrwt>
<rscale>  0 0.15356149E+03</rscale>
<asrwt>0</asrwt>
<pdfrwt beam="1">  1        2 0.22127598E+00 0.16054449E+03</pdfrwt>
<pdfrwt beam="2">  1       -2 0.27717387E-02 0.16054449E+03</pdfrwt>
<totfact> 0.69176157E+03</totfact>
</mgrwt>
</event>
<event>
 6    1  0.5258538E-006  0.3254694E+03  0.7546771E-02  0.1121205E+00
         -2   -1    0    0    0  501 -0.00000000000E+00  0.00000000000E+00  0.37605144726E+02  0.37605144726E+02  0.00000000000E+00 0.  1.
          2   -1    0    0  501    0  0.00000000000E+00 -0.00000000000E+00 -0.12875507858E+04  0.12875507858E+04  0.00000000000E+00 0. -1.
          5    1    1    2  502    0 -0.83187543041E+02 -0.61554460212E+02 -0.10616434022E+04  0.10666854842E+04  0.47000000000E+01 0. -1.
         -5    1    1    2    0  502  0.68529027732E+02  0.36277335203E+02 -0.51840211619E+02  0.93390418309E+02  0.47000000000E+01 0.  1.
        -11    1    1    2    0    0 -0.27281860649E+02  0.24432575693E+02 -0.20961338693E+02  0.42197492760E+02  0.00000000000E+00 0.  1.
         11    1    1    2    0    0  0.41940375958E+02  0.84454931640E+00 -0.11550068857E+03  0.12288253521E+03  0.00000000000E+00 0. -1.
<mgrwt>
<rscale>  0 0.23789266E+03</rscale>
<asrwt>0</asrwt>
<pdfrwt beam="2">  1        2 0.19808472E+00 0.32546942E+03</pdfrwt>
<pdfrwt beam="1">  1       -2 0.57854074E-02 0.32546942E+03</pdfrwt>
<totfact> 0.27917563E+03</totfact>
</mgrwt>
</event>
<event>
 6    1  0.5258538E-006  0.1682444E+03  0.7546771E-02  0.1197276E+00
         -3   -1    0    0    0  501 -0.00000000000E+00  0.00000000000E+00  0.85563327482E+02  0.85563327482E+02  0.00000000000E+00 0.  1.
          3   -1    0    0  501    0  0.00000000000E+00 -0.00000000000E+00 -0.67568845785E+03  0.67568845785E+03  0.00000000000E+00 0. -1.
          5    1    1    2  502    0 -0.54574793395E+02  0.34643733944E+02 -0.34930246105E+03  0.35526454323E+03  0.47000000000E+01 0. -1.
         -5    1    1    2    0  502  0.22834760664E+02 -0.93002671006E+02 -0.27153059238E+03  0.28796158721E+03  0.47000000000E+01 0.  1.
        -11    1    1    2    0    0  0.39410893745E+02  0.73403131881E+02  0.46064186341E+02  0.95200565014E+02  0.00000000000E+00 0.  1.
         11    1    1    2    0    0 -0.76708610142E+01 -0.15044194819E+02 -0.15356263278E+02  0.22825089886E+02  0.00000000000E+00 0. -1.
<mgrwt>
<rscale>  0 0.15263157E+03</rscale>
<asrwt>0</asrwt>
<pdfrwt beam="2">  1        3 0.10395207E+00 0.16824439E+03</pdfrwt>
<pdfrwt beam="1">  1       -3 0.13163589E-01 0.16824439E+03</pdfrwt>
<totfact> 0.92590524E+01</totfact>
</mgrwt>
</event>
<event>
 6    1  0.5258538E-006  0.1194972E+03  0.7546771E-02  0.1255609E+00
          2   -1    0    0  501    0  0.00000000000E+00  0.00000000000E+00  0.31628975445E+03  0.31628975445E+03  0.00000000000E+00 0. -1.
         -2   -1    0    0    0  501 -0.00000000000E+00 -0.00000000000E+00 -0.72973982376E+02  0.72973982376E+02  0.00000000000E+00 0.  1.
          5    1    1    2  502    0  0.29877843076E+02 -0.16156976627E+01  0.27079810222E+03  0.27248669353E+03  0.47000000000E+01 0. -1.
         -5    1    1    2    0  502 -0.10864125274E+02 -0.14705670425E+02 -0.44886611442E+01  0.19404227361E+02  0.47000000000E+01 0.  1.
        -11    1    1    2    0    0 -0.42522739164E+02  0.21078029240E+02 -0.44572633496E+02  0.65109034084E+02  0.00000000000E+00 0.  1.
         11    1    1    2    0    0  0.23509021361E+02 -0.47566611527E+01  0.21578964496E+02  0.32263781852E+02  0.00000000000E+00 0. -1.
<mgrwt>
<rscale>  0 0.11272312E+03</rscale>
<asrwt>0</asrwt>
<pdfrwt beam="1">  1        2 0.48659961E-01 0.11949724E+03</pdfrwt>
<pdfrwt beam="2">  1       -2 0.11226767E-01 0.11949724E+03</pdfrwt>
<totfact> 0.54029596E+03</totfact>
</mgrwt>
</event>
<event>
 6    1  0.5258538E-006  0.1677241E+03  0.7546771E-02  0.1186620E+00
          2   -1    0    0  501    0  0.00000000000E+00  0.00000000000E+00  0.95654220419E+03  0.95654220419E+03  0.00000000000E+00 0.  1.
         -2   -1    0    0    0  501 -0.00000000000E+00 -0.00000000000E+00 -0.25652146789E+02  0.25652146789E+02  0.00000000000E+00 0. -1.
          5    1    1    2  502    0 -0.59690484878E+01 -0.31165686906E+02  0.65086910396E+02  0.72562562559E+02  0.47000000000E+01 0.  1.
         -5    1    1    2    0  502 -0.71747242319E+02  0.11158064152E+03  0.44691489919E+03  0.46621124338E+03  0.47000000000E+01 0.  1.
        -11    1    1    2    0    0  0.41486658277E+02 -0.97067067414E+02  0.30158164077E+03  0.31952252572E+03  0.00000000000E+00 0.  1.
         11    1    1    2    0    0  0.36229632530E+02  0.16652112801E+02  0.11730660705E+03  0.12389801932E+03  0.00000000000E+00 0. -1.
<mgrwt>
<rscale>  0 0.16185334E+03</rscale>
<asrwt>0</asrwt>
<pdfrwt beam="1">  1        2 0.14716031E+00 0.16772406E+03</pdfrwt>
<pdfrwt beam="2">  1       -2 0.39464849E-02 0.16772406E+03</pdfrwt>
<totfact> 0.76656764E+03</totfact>
</mgrwt>
</event>
<event>
 6    1  0.5258538E-006  0.1529537E+03  0.7546771E-02  0.1205914E+00
         -1   -1    0    0    0  501 -0.00000000000E+00  0.00000000000E+00  0.66303864997E+02  0.66303864997E+02  0.00000000000E+00 0.  1.
          1   -1    0    0  501    0  0.00000000000E+00 -0.00000000000E+00 -0.30813998155E+03  0.30813998155E+03  0.00000000000E+00 0. -1.
          5    1    1    2  502    0 -0.20435222046E+02 -0.45815325462E+02 -0.32814904226E+00  0.50386903349E+02  0.47000000000E+01 0. -1.
         -5    1    1    2    0  502  0.31645145598E+02 -0.41427855833E+02 -0.17316190145E+03  0.18090001822E+03  0.47000000000E+01 0. -1.
        -11    1    1    2    0    0 -0.49137014061E+02  0.60531920742E+02 -0.32220897106E+02  0.84360807191E+02  0.00000000000E+00 0. -1.
         11    1    1    2    0    0  0.37927090509E+02  0.26711260553E+02 -0.36125168957E+02  0.58796117788E+02  0.00000000000E+00 0.  1.
<mgrwt>
<rscale>  0 0.14565661E+03</rscale>
<asrwt>0</asrwt>
<pdfrwt beam="2">  1        1 0.47406151E-01 0.15295373E+03</pdfrwt>
<pdfrwt beam="1">  1       -1 0.10200595E-01 0.15295373E+03</pdfrwt>
<totfact> 0.48356035E+03</totfact>
</mgrwt>
</event>
<event>
 6    1  0.5258538E-006  0.3625970E+03  0.7546771E-02  0.1057560E+00
         -1   -1    0    0    0  501 -0.00000000000E+00  0.00000000000E+00  0.10416767845E+04  0.10416767845E+04  0.00000000000E+00 0.  1.
          1   -1    0    0  501    0  0.00000000000E+00 -0.00000000000E+00 -0.31554066876E+02  0.31554066876E+02  0.00000000000E+00 0. -1.
          5    1    1    2  502    0  0.13467435490E+03  0.54965531049E+02  0.51214525406E+03  0.53242205320E+03  0.47000000000E+01 0. -1.
         -5    1    1    2    0  502 -0.21034777065E+02  0.32753323275E+02  0.72407681604E+02  0.82341996496E+02  0.47000000000E+01 0.  1.
        -11    1    1    2    0    0 -0.15006441098E+02 -0.63532391552E+02  0.12210598322E+03  0.13846093019E+03  0.00000000000E+00 0. -1.
         11    1    1    2    0    0 -0.98633136738E+02 -0.24186462771E+02  0.30346379869E+03  0.32000587145E+03  0.00000000000E+00 0.  1.
<mgrwt>
<rscale>  0 0.36259696E+03</rscale>
<asrwt>0</asrwt>
<pdfrwt beam="2">  1        1 0.48544726E-02 0.36259696E+03</pdfrwt>
<pdfrwt beam="1">  1       -1 0.16025794E+00 0.36259696E+03</pdfrwt>
<totfact> 0.54980120E+02</totfact>
</mgrwt>
</event>
<event>
 6    1  0.5258538E-006  0.1411896E+03  0.7546771E-02  0.1245998E+00
          2   -1    0    0  501    0  0.00000000000E+00  0.00000000000E+00  0.58590168638E+02  0.58590168638E+02  0.00000000000E+00 0. -1.
         -2   -1    0    0    0  501 -0.00000000000E+00 -0.00000000000E+00 -0.20797592257E+03  0.20797592257E+03  0.00000000000E+00 0.  1.
          5    1    1    2  502    0 -0.90161395981E+01  0.10089711783E+03 -0.54316109256E+02  0.11503846698E+03  0.47000000000E+01 0. -1.
         -5    1    1    2    0  502  0.13033075469E+02 -0.35369985147E+02 -0.58428118736E+01  0.38433388558E+02  0.47000000000E+01 0. -1.
        -11    1    1    2    0    0  0.78061929404E+01 -0.19001477787E+02 -0.18692302160E+02  0.27773998026E+02  0.00000000000E+00 0.  1.
         11    1    1    2    0    0 -0.11823128811E+02 -0.46525654900E+02 -0.70534530648E+02  0.85320237649E+02  0.00000000000E+00 0. -1.
<mgrwt>
<rscale>  0 0.11825865E+03</rscale>
<asrwt>0</asrwt>
<pdfrwt beam="1">  1        2 0.90138722E-02 0.14118964E+03</pdfrwt>
<pdfrwt beam="2">  1       -2 0.31996296E-01 0.14118964E+03</pdfrwt>
<totfact> 0.62971084E+03</totfact>
</mgrwt>
</event>
<event>
 6    1  0.5258538E-006  0.5881556E+03  0.7546771E-02  0.9930289E-01
          1   -1    0    0  501    0  0.00000000000E+00  0.00000000000E+00  0.20534693953E+03  0.20534693953E+03  0.00000000000E+00 0. -1.
         -1   -1    0    0    0  501 -0.00000000000E+00 -0.00000000000E+00 -0.42114944797E+03  0.42114944797E+03  0.00000000000E+00 0.  1.
          5    1    1    2  502    0  0.20325513212E+02  0.39116552103E+02  0.99256486239E+02  0.10870681302E+03  0.47000000000E+01 0.  1.
         -5    1    1    2    0  502  0.10263375928E+03  0.85000664953E+02  0.13812900156E+02  0.13405852377E+03  0.47000000000E+01 0.  1.
        -11    1    1    2    0    0 -0.45076211311E+02 -0.66687812377E+02 -0.67595618347E+02  0.10511087844E+03  0.00000000000E+00 0.  1.
         11    1    1    2    0    0 -0.77883061177E+02 -0.57429404678E+02 -0.26127627649E+03  0.27862017227E+03  0.00000000000E+00 0. -1.
<mgrwt>
<rscale>  0 0.58815559E+03</rscale>
<asrwt>0</asrwt>
<pdfrwt beam="1">  1        1 0.31591838E-01 0.58815559E+03</pdfrwt>
<pdfrwt beam="2">  1       -1 0.64792221E-01 0.58815559E+03</pdfrwt>
<totfact> 0.35202947E+02</totfact>
</mgrwt>
</event>
<event>
 6    1  0.5258538E-006  0.1316754E+03  0.7546771E-02  0.1239011E+00
          1   -1    0    0  501    0  0.00000000000E+00  0.00000000000E+00  0.48424332060E+03  0.48424332060E+03  0.00000000000E+00 0. -1.
         -1   -1    0    0    0  501 -0.00000000000E+00 -0.00000000000E+00 -0.27884727676E+02  0.27884727676E+02  0.00000000000E+00 0.  1.
          5    1    1    2  502    0  0.52531152506E+02 -0.37286238637E+01  0.23301085250E+03  0.23893424200E+03  0.47000000000E+01 0.  1.
         -5    1    1    2    0  502 -0.42935185282E+02 -0.36562892556E+02  0.60948405183E+02  0.83168944574E+02  0.47000000000E+01 0.  1.
        -11    1    1    2    0    0  0.65326583024E+01 -0.22908345266E+02  0.87600166210E+02  0.90781369385E+02  0.00000000000E+00 0. -1.
         11    1    1    2    0    0 -0.16128625526E+02  0.63199861686E+02  0.74799169031E+02  0.99243492312E+02  0.00000000000E+00 0.  1.
<mgrwt>
<rscale>  0 0.12251114E+03</rscale>
<asrwt>0</asrwt>
<pdfrwt beam="1">  1        1 0.74498966E-01 0.13167543E+03</pdfrwt>
<pdfrwt beam="2">  1       -1 0.42899585E-02 0.13167543E+03</pdfrwt>
<totfact> 0.99170964E+03</totfact>
</mgrwt>
</event>
<event>
 6    1  0.5258538E-006  0.1879794E+03  0.7546771E-02  0.1167466E+00
          1   -1    0    0  501    0  0.00000000000E+00  0.00000000000E+00  0.37343287169E+03  0.37343287169E+03  0.00000000000E+00 0. -1.
         -1   -1    0    0    0  501 -0.00000000000E+00 -0.00000000000E+00 -0.82615346196E+02  0.82615346196E+02  0.00000000000E+00 0.  1.
          5    1    1    2  502    0 -0.34518300947E+02 -0.12485488750E+03  0.10404652821E+03  0.16621680440E+03  0.47000000000E+01 0.  1.
         -5    1    1    2    0  502 -0.50792731426E+02  0.13349117746E+02  0.87510394011E+02  0.10216780104E+03  0.47000000000E+01 0.  1.
        -11    1    1    2    0    0  0.69856884811E+02  0.12132607120E+03  0.93938427997E+02  0.16859545713E+03  0.00000000000E+00 0. -1.
         11    1    1    2    0    0  0.15454147562E+02 -0.98203014449E+01  0.53221752781E+01  0.19068155313E+02  0.00000000000E+00 0.  1.
<mgrwt>
<rscale>  0 0.18034824E+03</rscale>
<asrwt>0</asrwt>
<pdfrwt beam="1">  1        1 0.57451210E-01 0.18797937E+03</pdfrwt>
<pdfrwt beam="2">  1       -1 0.12710054E-01 0.18797937E+03</pdfrwt>
<totfact> 0.27286522E+03</totfact>
</mgrwt>
</event>
<event>
 6    1  0.5258538E-006  0.1389684E+03  0.7546771E-02  0.1225893E+00
         -2   -1    0    0    0  501 -0.00000000000E+00  0.00000000000E+00  0.70460806673E+03  0.70460806673E+03  0.00000000000E+00 0.  1.
          2   -1    0    0  501    0  0.00000000000E+00 -0.00000000000E+00 -0.22028328063E+02  0.22028328063E+02  0.00000000000E+00 0. -1.
          5    1    1    2  502    0  0.21160946034E+02  0.16498584238E+02  0.35297322080E+03  0.35402284322E+03  0.47000000000E+01 0.  1.
         -5    1    1    2    0  502  0.37143429577E+02 -0.33546470803E+02  0.44831907511E+02  0.67357182210E+02  0.47000000000E+01 0.  1.
        -11    1    1    2    0    0  0.10460451968E+02 -0.26442581069E+02  0.67380717010E+02  0.73135437195E+02  0.00000000000E+00 0. -1.
         11    1    1    2    0    0 -0.68764827580E+02  0.43490467634E+02  0.21739389335E+03  0.23212093217E+03  0.00000000000E+00 0.  1.
<mgrwt>
<rscale>  0 0.13105911E+03</rscale>
<asrwt>0</asrwt>
<pdfrwt beam="2">  1        2 0.33889741E-02 0.13896836E+03</pdfrwt>
<pdfrwt beam="1">  1       -2 0.10840122E+00 0.13896836E+03</pdfrwt>
<totfact> 0.18093845E+03</totfact>
</mgrwt>
</event>
<event>
 6    1  0.5258538E-006  0.1405929E+03  0.7546771E-02  0.1224547E+00
          2   -1    0    0  501    0  0.00000000000E+00  0.00000000000E+00  0.25723341892E+04  0.25723341892E+04  0.00000000000E+00 0. -1.
         -2   -1    0    0    0  501 -0.00000000000E+00 -0.00000000000E+00 -0.91558626661E+01  0.91558626661E+01  0.00000000000E+00 0.  1.
          5    1    1    2  502    0  0.38903029267E+02  0.11978274969E+02  0.65874080397E+03  0.66001398589E+03  0.47000000000E+01 0.  1.
         -5    1    1    2    0  502 -0.98711918048E+02  0.11775345650E+02  0.14758167355E+04  0.14791686274E+04  0.47000000000E+01 0.  1.
        -11    1    1    2    0    0  0.30426382649E+02  0.32218338148E+02  0.21548455793E+03  0.21999404715E+03  0.00000000000E+00 0.  1.
         11    1    1    2    0    0  0.29382506132E+02 -0.55971958767E+02  0.21313622916E+03  0.22231339144E+03  0.00000000000E+00 0. -1.
<mgrwt>
<rscale>  0 0.13197981E+03</rscale>
<asrwt>0</asrwt>
<pdfrwt beam="1">  1        2 0.39574315E+00 0.14059290E+03</pdfrwt>
<pdfrwt beam="2">  1       -2 0.14085963E-02 0.14059290E+03</pdfrwt>
<totfact> 0.47465177E+03</totfact>
</mgrwt>
</event>
<event>
 6    1  0.5258538E-006  0.1465541E+03  0.7546771E-02  0.1214232E+00
         -2   -1    0    0    0  501 -0.00000000000E+00  0.00000000000E+00  0.13570001799E+02  0.13570001799E+02  0.00000000000E+00 0.  1.
          2   -1    0    0  501    0  0.00000000000E+00 -0.00000000000E+00 -0.14824949420E+04  0.14824949420E+04  0.00000000000E+00 0. -1.
          5    1    1    2  502    0 -0.21277167100E+02  0.55984680060E+02 -0.97003931712E+03  0.97189781818E+03  0.47000000000E+01 0.  1.
         -5    1    1    2    0  502  0.32985388981E+02  0.19605583478E+02 -0.86349310364E+02  0.94608182469E+02  0.47000000000E+01 0.  1.
        -11    1    1    2    0    0 -0.34669472834E+02  0.25951072398E+01 -0.80822593965E+02  0.87982945071E+02  0.00000000000E+00 0.  1.
         11    1    1    2    0    0  0.22961250953E+02 -0.78185370777E+02 -0.33171371876E+03  0.34157599808E+03  0.00000000000E+00 0. -1.
<mgrwt>
<rscale>  0 0.13933078E+03</rscale>
<asrwt>0</asrwt>
<pdfrwt beam="2">  1        2 0.22807617E+00 0.14655414E+03</pdfrwt>
<pdfrwt beam="1">  1       -2 0.20876924E-02 0.14655414E+03</pdfrwt>
<totfact> 0.98956109E+03</totfact>
</mgrwt>
</event>
<event>
 6    1  0.5258538E-006  0.1269099E+03  0.7546771E-02  0.1245804E+00
          1   -1    0    0  501    0  0.00000000000E+00  0.00000000000E+00  0.29060400563E+03  0.29060400563E+03  0.00000000000E+00 0. -1.
         -1   -1    0    0    0  501 -0.00000000000E+00 -0.00000000000E+00 -0.44632451301E+02  0.44632451301E+02  0.00000000000E+00 0.  1.
          5    1    1    2  502    0 -0.24078954449E+02  0.45218883908E+02  0.45533612849E+02  0.68701844287E+02  0.47000000000E+01 0.  1.
         -5    1    1    2    0  502  0.22399917089E+02 -0.67067332158E+02  0.12769164870E+03  0.14603777072E+03  0.47000000000E+01 0.  1.
        -11    1    1    2    0    0  0.44328106249E+02  0.10687180022E+02  0.15326237212E+02  0.48104993167E+02  0.00000000000E+00 0.  1.
         11    1    1    2    0    0 -0.42649068889E+02  0.11161268227E+02  0.57420055568E+02  0.72391848761E+02  0.00000000000E+00 0. -1.
<mgrwt>
<rscale>  0 0.11837413E+03</rscale>
<asrwt>0</asrwt>
<pdfrwt beam="1">  1        1 0.44708307E-01 0.12690985E+03</pdfrwt>
<pdfrwt beam="2">  1       -1 0.68665312E-02 0.12690985E+03</pdfrwt>
<totfact> 0.93508729E+03</totfact>
</mgrwt>
</event>
<event>
 6    1  0.5258538E-006  0.6769610E+03  0.7546771E-02  0.9757464E-01
         -2   -1    0    0    0  501 -0.00000000000E+00  0.00000000000E+00  0.31912646966E+03  0.31912646966E+03  0.00000000000E+00 0.  1.
          2   -1    0    0  501    0  0.00000000000E+00 -0.00000000000E+00 -0.35900824028E+03  0.35900824028E+03  0.00000000000E+00 0. -1.
          5    1    1    2  502    0  0.12394260971E+03 -0.39761478638E+02 -0.10654662991E+03  0.16827661760E+03  0.47000000000E+01 0. -1.
         -5    1    1    2    0  502 -0.23313797622E+02  0.53515147981E+02 -0.18188169888E+02  0.61321315600E+02  0.47000000000E+01 0.  1.
        -11    1    1    2    0    0 -0.20639808640E+03 -0.53464317179E+02  0.19631904814E+03  0.28982714149E+03  0.00000000000E+00 0.  1.
         11    1    1    2    0    0  0.10576927432E+03  0.39710647836E+02 -0.11146601896E+03  0.15870963526E+03  0.00000000000E+00 0. -1.
<mgrwt>
<rscale>  0 0.67696095E+03</rscale>
<asrwt>0</asrwt>
<pdfrwt beam="2">  1        2 0.55232037E-01 0.67696095E+03</pdfrwt>
<pdfrwt beam="1">  1       -2 0.49096380E-01 0.67696095E+03</pdfrwt>
<totfact> 0.35602254E+02</totfact>
</mgrwt>
</event>
<event>
 6    1  0.5258538E-006  0.2345292E+03  0.7546771E-02  0.1126027E+00
          2   -1    0    0  501    0  0.00000000000E+00  0.00000000000E+00  0.21375522519E+04  0.21375522519E+04  0.00000000000E+00 0. -1.
         -2   -1    0    0    0  501 -0.00000000000E+00 -0.00000000000E+00 -0.26993059314E+02  0.26993059314E+02  0.00000000000E+00 0.  1.
          5    1    1    2  502    0 -0.49156715930E+02  0.95514436016E+02  0.41660278280E+03  0.43025499282E+03  0.47000000000E+01 0.  1.
         -5    1    1    2    0  502  0.26077414446E+02  0.10158391857E+03  0.10170900558E+04  0.10224938120E+04  0.47000000000E+01 0.  1.
        -11    1    1    2    0    0 -0.33197735612E+02 -0.42477939567E+02  0.13069729612E+03  0.14137980129E+03  0.00000000000E+00 0.  1.
         11    1    1    2    0    0  0.56277037096E+02 -0.15462041502E+03  0.54616905784E+03  0.57041670504E+03  0.00000000000E+00 0. -1.
<mgrwt>
<rscale>  0 0.23087256E+03</rscale>
<asrwt>0</asrwt>
<pdfrwt beam="1">  1        2 0.32885406E+00 0.23452918E+03</pdfrwt>
<pdfrwt beam="2">  1       -2 0.41527800E-02 0.23452918E+03</pdfrwt>
<totfact> 0.16370929E+03</totfact>
</mgrwt>
</event>
<event>
 6    1  0.5258538E-006  0.2171648E+03  0.7546771E-02  0.1139546E+00
         -2   -1    0    0    0  501 -0.00000000000E+00  0.00000000000E+00  0.19069164359E+03  0.19069164359E+03  0.00000000000E+00 0. -1.
          2   -1    0    0  501    0  0.00000000000E+00 -0.00000000000E+00 -0.26803562454E+03  0.26803562454E+03  0.00000000000E+00 0.  1.
          5    1    1    2  502    0  0.38113273512E+01 -0.15057640245E+02  0.20876920413E+02  0.26442287190E+02  0.47000000000E+01 0.  1.
         -5    1    1    2    0  502  0.16258977961E+03 -0.46955659265E+02 -0.15012716389E+03  0.22627533164E+03  0.47000000000E+01 0.  1.
        -11    1    1    2    0    0 -0.12460086574E+03  0.28960909512E+01  0.17531555846E+02  0.12586150538E+03  0.00000000000E+00 0. -1.
         11    1    1    2    0    0 -0.41800241217E+02  0.59117208559E+02  0.34374706685E+02  0.80148143917E+02  0.00000000000E+00 0.  1.
<mgrwt>
<rscale>  0 0.21257071E+03</rscale>
<asrwt>0</asrwt>
<pdfrwt beam="2">  1        2 0.41236250E-01 0.21716484E+03</pdfrwt>
<pdfrwt beam="1">  1       -2 0.29337176E-01 0.21716484E+03</pdfrwt>
<totfact> 0.13107956E+03</totfact>
</mgrwt>
</event>
<event>
 6    1  0.7770042E-006  0.2601635E+03  0.7546771E-02  0.1108884E+00
          1   -1    0    0  501    0  0.00000000000E+00  0.00000000000E+00  0.11313718249E+04  0.11313718249E+04  0.00000000000E+00 0. -1.
         -1   -1    0    0    0  501 -0.00000000000E+00 -0.00000000000E+00 -0.80020393775E+02  0.80020393775E+02  0.00000000000E+00 0.  1.
          5    1    1    2  502    0  0.15299692705E+03  0.39670188908E+01  0.33724033328E+03  0.37037403975E+03  0.47000000000E+01 0.  1.
         -5    1    1    2    0  502  0.75167248111E+02 -0.27651611731E+01  0.52129240546E+03  0.52671208767E+03  0.47000000000E+01 0.  1.
        -11    1    1    2    0    0 -0.70735104340E+02 -0.24822816634E+02  0.11458871071E+03  0.13693136906E+03  0.00000000000E+00 0. -1.
         11    1    1    2    0    0 -0.15742907082E+03  0.23620958917E+02  0.78229981665E+02  0.17737472219E+03  0.00000000000E+00 0.  1.
<mgrwt>
<rscale>  0 0.25712278E+03</rscale>
<asrwt>0</asrwt>
<pdfrwt beam="1">  1        1 0.17405719E+00 0.26016352E+03</pdfrwt>
<pdfrwt beam="2">  1       -1 0.12310831E-01 0.26016352E+03</pdfrwt>
<totfact> 0.56610994E+02</totfact>
</mgrwt>
</event>
<event>
 6    1  0.5258538E-006  0.4594887E+03  0.7546771E-02  0.1024930E+00
         -1   -1    0    0    0  501 -0.00000000000E+00  0.00000000000E+00  0.12102738592E+03  0.12102738592E+03  0.00000000000E+00 0.  1.
          1   -1    0    0  501    0  0.00000000000E+00 -0.00000000000E+00 -0.43611993755E+03  0.43611993755E+03  0.00000000000E+00 0. -1.
          5    1    1    2  502    0  0.12595215522E+02 -0.20217251423E+03 -0.19474464070E+03  0.28103368133E+03  0.47000000000E+01 0. -1.
         -5    1    1    2    0  502  0.11072989542E+02  0.12511383690E+02 -0.53092444787E+02  0.55857349675E+02  0.47000000000E+01 0. -1.
        -11    1    1    2    0    0 -0.61894739033E+01  0.15597808614E+03 -0.16625787766E+02  0.15698372451E+03  0.00000000000E+00 0.  1.
         11    1    1    2    0    0 -0.17478731161E+02  0.33683044398E+02 -0.50629678372E+02  0.63272567950E+02  0.00000000000E+00 0. -1.
<mgrwt>
<rscale>  0 0.45948865E+03</rscale>
<asrwt>0</asrwt>
<pdfrwt beam="2">  1        1 0.67095376E-01 0.45948865E+03</pdfrwt>
<pdfrwt beam="1">  1       -1 0.18619598E-01 0.45948865E+03</pdfrwt>
<totfact> 0.12311652E+03</totfact>
</mgrwt>
</event>
<event>
 6    1  0.5258538E-006  0.2719015E+03  0.7546771E-02  0.1102334E+00
         -1   -1    0    0    0  501 -0.00000000000E+00  0.00000000000E+00  0.11981127868E+03  0.11981127868E+03  0.00000000000E+00 0.  1.
          1   -1    0    0  501    0  0.00000000000E+00 -0.00000000000E+00 -0.77139624553E+03  0.77139624553E+03  0.00000000000E+00 0. -1.
          5    1    1    2  502    0 -0.51093961152E+02  0.74598784174E+02 -0.31821783741E+03  0.33084777997E+03  0.47000000000E+01 0.  1.
         -5    1    1    2    0  502 -0.15217376038E+03  0.55673782575E+02 -0.23380312496E+03  0.28450380429E+03  0.47000000000E+01 0.  1.
        -11    1    1    2    0    0  0.16133521216E+03 -0.59226271500E+02 -0.86248128263E+02  0.19229025339E+03  0.00000000000E+00 0. -1.
         11    1    1    2    0    0  0.41932509373E+02 -0.71046295249E+02 -0.13315876224E+02  0.83565686561E+02  0.00000000000E+00 0.  1.
<mgrwt>
<rscale>  0 0.26816521E+03</rscale>
<asrwt>0</asrwt>
<pdfrwt beam="2">  1        1 0.11867635E+00 0.27190151E+03</pdfrwt>
<pdfrwt beam="1">  1       -1 0.18432504E-01 0.27190151E+03</pdfrwt>
<totfact> 0.56418021E+02</totfact>
</mgrwt>
</event>
<event>
 6    1  0.5258538E-006  0.1615829E+03  0.7546771E-02  0.1194283E+00
         -3   -1    0    0    0  501 -0.00000000000E+00  0.00000000000E+00  0.86349633661E+02  0.86349633661E+02  0.00000000000E+00 0.  1.
          3   -1    0    0  501    0  0.00000000000E+00 -0.00000000000E+00 -0.31934235603E+03  0.31934235603E+03  0.00000000000E+00 0. -1.
          5    1    1    2  502    0 -0.31406613220E+02 -0.30930882351E+02 -0.71097785479E+02  0.83785917295E+02  0.47000000000E+01 0. -1.
         -5    1    1    2    0  502 -0.30952955232E+02  0.11213617609E+03 -0.14119458210E+03  0.18300439186E+03  0.47000000000E+01 0. -1.
        -11    1    1    2    0    0  0.24808903343E+02  0.33398588350E+01 -0.37293775087E+02  0.44916166381E+02  0.00000000000E+00 0. -1.
         11    1    1    2    0    0  0.37550665109E+02 -0.84545152570E+02  0.16593420303E+02  0.93985514153E+02  0.00000000000E+00 0.  1.
<mgrwt>
<rscale>  0 0.15515081E+03</rscale>
<asrwt>0</asrwt>
<pdfrwt beam="2">  1        3 0.49129594E-01 0.16158286E+03</pdfrwt>
<pdfrwt beam="1">  1       -3 0.13284559E-01 0.16158286E+03</pdfrwt>
<totfact> 0.45006174E+02</totfact>
</mgrwt>
</event>
<event>
 6    1  0.5258538E-006  0.1364652E+03  0.7546771E-02  0.1235328E+00
          3   -1    0    0  501    0  0.00000000000E+00  0.00000000000E+00  0.57023354967E+03  0.57023354967E+03  0.00000000000E+00 0. -1.
         -3   -1    0    0    0  501 -0.00000000000E+00 -0.00000000000E+00 -0.34444493471E+02  0.34444493471E+02  0.00000000000E+00 0.  1.
          5    1    1    2  502    0  0.11514531579E+02  0.11240725084E+02 -0.91584389225E+00  0.16788898354E+02  0.47000000000E+01 0. -1.
         -5    1    1    2    0  502 -0.76347658212E+01 -0.39937122611E+02  0.46898480079E+03  0.47076756132E+03  0.47000000000E+01 0.  1.
        -11    1    1    2    0    0 -0.74335894501E+00 -0.24348444820E+02 -0.70805371826E+01  0.25367959210E+02  0.00000000000E+00 0.  1.
         11    1    1    2    0    0 -0.31364068130E+01  0.53044842347E+02  0.74800636480E+02  0.91753624262E+02  0.00000000000E+00 0. -1.
<mgrwt>
<rscale>  0 0.12483430E+03</rscale>
<asrwt>0</asrwt>
<pdfrwt beam="1">  1        3 0.87728232E-01 0.13646521E+03</pdfrwt>
<pdfrwt beam="2">  1       -3 0.52991532E-02 0.13646521E+03</pdfrwt>
<totfact> 0.58698332E+02</totfact>
</mgrwt>
</event>
<event>
 6    1  0.5258538E-006  0.1599254E+03  0.7546771E-02  0.1195625E+00
         -1   -1    0    0    0  501 -0.00000000000E+00  0.00000000000E+00  0.52954365193E+03  0.52954365193E+03  0.00000000000E+00 0.  1.
          1   -1    0    0  501    0  0.00000000000E+00 -0.00000000000E+00 -0.41787963714E+02  0.41787963714E+02  0.00000000000E+00 0. -1.
          5    1    1    2  502    0 -0.16238903381E+02  0.22854379472E+02  0.11690708623E+03  0.12031367942E+03  0.47000000000E+01 0.  1.
         -5    1    1    2    0  502  0.11575945209E+03 -0.16043954767E+02  0.14153378212E+03  0.18360708242E+03  0.47000000000E+01 0.  1.
        -11    1    1    2    0    0 -0.98811497203E+02 -0.17101068401E+02  0.23509325608E+03  0.25558755363E+03  0.00000000000E+00 0.  1.
         11    1    1    2    0    0 -0.70905150944E+00  0.10290643696E+02 -0.57784362175E+01  0.11823300167E+02  0.00000000000E+00 0. -1.
<mgrwt>
<rscale>  0 0.15401489E+03</rscale>
<asrwt>0</asrwt>
<pdfrwt beam="2">  1        1 0.64289179E-02 0.15992544E+03</pdfrwt>
<pdfrwt beam="1">  1       -1 0.81468250E-01 0.15992544E+03</pdfrwt>
<totfact> 0.18075690E+03</totfact>
</mgrwt>
</event>
<event>
 6    1  0.5258538E-006  0.1359607E+03  0.7546771E-02  0.1230934E+00
         -2   -1    0    0    0  501 -0.00000000000E+00  0.00000000000E+00  0.43190849791E+02  0.43190849791E+02  0.00000000000E+00 0. -1.
          2   -1    0    0  501    0  0.00000000000E+00 -0.00000000000E+00 -0.38593858402E+03  0.38593858402E+03  0.00000000000E+00 0.  1.
          5    1    1    2  502    0 -0.36976957756E+02  0.36531727066E+02 -0.10229013527E+03  0.11483564020E+03  0.47000000000E+01 0.  1.
         -5    1    1    2    0  502  0.83093431302E+02 -0.95142036471E+01 -0.16280717901E+03  0.18309370807E+03  0.47000000000E+01 0.  1.
        -11    1    1    2    0    0  0.13551096284E+02 -0.14953890987E+02 -0.66264852171E+02  0.69269630426E+02  0.00000000000E+00 0.  1.
         11    1    1    2    0    0 -0.59667569830E+02 -0.12063632432E+02 -0.11385567776E+02  0.61930455113E+02  0.00000000000E+00 0. -1.
<mgrwt>
<rscale>  0 0.12768329E+03</rscale>
<asrwt>0</asrwt>
<pdfrwt beam="2">  1        2 0.59375166E-01 0.13596069E+03</pdfrwt>
<pdfrwt beam="1">  1       -2 0.66447463E-02 0.13596069E+03</pdfrwt>
<totfact> 0.99587545E+03</totfact>
</mgrwt>
</event>
<event>
 6    1  0.5258538E-006  0.1648126E+03  0.7546771E-02  0.1209784E+00
          1   -1    0    0  501    0  0.00000000000E+00  0.00000000000E+00  0.19477769875E+03  0.19477769875E+03  0.00000000000E+00 0. -1.
         -1   -1    0    0    0  501 -0.00000000000E+00 -0.00000000000E+00 -0.10414357948E+03  0.10414357948E+03  0.00000000000E+00 0.  1.
          5    1    1    2  502    0 -0.79535821476E+02  0.19158025974E+02  0.54926844582E+02  0.98651026922E+02  0.47000000000E+01 0. -1.
         -5    1    1    2    0  502  0.82339586107E+02 -0.69001916013E+01  0.62749173140E+02  0.10386033321E+03  0.47000000000E+01 0.  1.
        -11    1    1    2    0    0  0.27802499129E+02 -0.36804749080E+02  0.41161063378E+01  0.46308863558E+02  0.00000000000E+00 0. -1.
         11    1    1    2    0    0 -0.30606263761E+02  0.24546914708E+02 -0.31158004796E+02  0.50101054539E+02  0.00000000000E+00 0.  1.
<mgrwt>
<rscale>  0 0.14266748E+03</rscale>
<asrwt>0</asrwt>
<pdfrwt beam="1">  1        1 0.29965800E-01 0.16481264E+03</pdfrwt>
<pdfrwt beam="2">  1       -1 0.16022089E-01 0.16481264E+03</pdfrwt>
<totfact> 0.42544841E+03</totfact>
</mgrwt>
</event>
<event>
 6    1  0.5258538E-006  0.3241138E+03  0.7546771E-02  0.1073771E+00
         -2   -1    0    0    0  501 -0.00000000000E+00  0.00000000000E+00  0.86094689575E+02  0.86094689575E+02  0.00000000000E+00 0.  1.
          2   -1    0    0  501    0  0.00000000000E+00 -0.00000000000E+00 -0.30504137338E+03  0.30504137338E+03  0.00000000000E+00 0. -1.
          5    1    1    2  502    0 -0.69189892027E+02  0.12259687685E+03 -0.57689122377E+02  0.15220827905E+03  0.47000000000E+01 0.  1.
         -5    1    1    2    0  502  0.19384708078E+02 -0.12738601477E+02 -0.41637747037E+02  0.47893954244E+02  0.47000000000E+01 0.  1.
        -11    1    1    2    0    0  0.33798953065E+02 -0.16322913528E+02  0.10155643524E+01  0.37547810925E+02  0.00000000000E+00 0.  1.
         11    1    1    2    0    0  0.16006230884E+02 -0.93535361841E+02 -0.12063537874E+03  0.15348601873E+03  0.00000000000E+00 0. -1.
<mgrwt>
<rscale>  0 0.32411382E+03</rscale>
<asrwt>0</asrwt>
<pdfrwt beam="2">  1        2 0.46929442E-01 0.32411382E+03</pdfrwt>
<pdfrwt beam="1">  1       -2 0.13245337E-01 0.32411382E+03</pdfrwt>
<totfact> 0.45197066E+03</totfact>
</mgrwt>
</event>
<event>
 6    1  0.5258538E-006  0.1621355E+03  0.7546771E-02  0.1195331E+00
          1   -1    0    0  501    0  0.00000000000E+00  0.00000000000E+00  0.21467915719E+03  0.21467915719E+03  0.00000000000E+00 0. -1.
         -1   -1    0    0    0  501 -0.00000000000E+00 -0.00000000000E+00 -0.10181193509E+03  0.10181193509E+03  0.00000000000E+00 0.  1.
          5    1    1    2  502    0 -0.64859525703E+02  0.10633596237E+02  0.68178135323E+02  0.94816557517E+02  0.47000000000E+01 0. -1.
         -5    1    1    2    0  502  0.43529602036E+01  0.73051624926E+02 -0.16862704260E+02  0.75245790326E+02  0.47000000000E+01 0. -1.
        -11    1    1    2    0    0  0.74591652219E+02 -0.57818084038E+02  0.67944400424E+02  0.11628966838E+03  0.00000000000E+00 0. -1.
         11    1    1    2    0    0 -0.14085086720E+02 -0.25867137125E+02 -0.63926093922E+01  0.30139076061E+02  0.00000000000E+00 0.  1.
<mgrwt>
<rscale>  0 0.15426244E+03</rscale>
<asrwt>0</asrwt>
<pdfrwt beam="1">  1        1 0.33027563E-01 0.16213553E+03</pdfrwt>
<pdfrwt beam="2">  1       -1 0.15663375E-01 0.16213553E+03</pdfrwt>
<totfact> 0.39019574E+03</totfact>
</mgrwt>
</event>
<event>
 6    1  0.5258538E-006  0.1845868E+03  0.7546771E-02  0.1168510E+00
          2   -1    0    0  501    0  0.00000000000E+00  0.00000000000E+00  0.15279988349E+03  0.15279988349E+03  0.00000000000E+00 0. -1.
         -2   -1    0    0    0  501 -0.00000000000E+00 -0.00000000000E+00 -0.19931262583E+03  0.19931262583E+03  0.00000000000E+00 0.  1.
          5    1    1    2  502    0  0.38357569243E+02 -0.89847230411E+02 -0.37962928692E+02  0.10491473627E+03  0.47000000000E+01 0. -1.
         -5    1    1    2    0  502  0.78929782641E+02  0.21360837702E+02  0.71918071723E+01  0.82219268213E+02  0.47000000000E+01 0. -1.
        -11    1    1    2    0    0 -0.67565480254E+02 -0.12881823377E+02 -0.39672984714E+01  0.68896842835E+02  0.00000000000E+00 0. -1.
         11    1    1    2    0    0 -0.49721871629E+02  0.81368216086E+02 -0.11774322345E+02  0.96081662007E+02  0.00000000000E+00 0.  1.
<mgrwt>
<rscale>  0 0.17927129E+03</rscale>
<asrwt>0</asrwt>
<pdfrwt beam="1">  1        2 0.23507674E-01 0.18458676E+03</pdfrwt>
<pdfrwt beam="2">  1       -2 0.30663481E-01 0.18458676E+03</pdfrwt>
<totfact> 0.22273813E+03</totfact>
</mgrwt>
</event>
<event>
 6    1  0.5258538E-006  0.1550813E+03  0.7546771E-02  0.1202238E+00
         -2   -1    0    0    0  501 -0.00000000000E+00  0.00000000000E+00  0.26188937212E+02  0.26188937212E+02  0.00000000000E+00 0.  1.
          2   -1    0    0  501    0  0.00000000000E+00 -0.00000000000E+00 -0.77965322023E+03  0.77965322023E+03  0.00000000000E+00 0. -1.
          5    1    1    2  502    0  0.41798961772E+02 -0.11128576969E+03 -0.32127928520E+03  0.34259910221E+03  0.47000000000E+01 0. -1.
         -5    1    1    2    0  502  0.82994742188E+01  0.34363143112E+02 -0.79208418126E+02  0.86866393841E+02  0.47000000000E+01 0. -1.
        -11    1    1    2    0    0  0.25499339223E+02  0.35371175006E+02 -0.13850240393E+03  0.14520417424E+03  0.00000000000E+00 0.  1.
         11    1    1    2    0    0 -0.75597775214E+02  0.41551451571E+02 -0.21447417577E+03  0.23117248715E+03  0.00000000000E+00 0. -1.
<mgrwt>
<rscale>  0 0.14857269E+03</rscale>
<asrwt>0</asrwt>
<pdfrwt beam="2">  1        2 0.11994664E+00 0.15508131E+03</pdfrwt>
<pdfrwt beam="1">  1       -2 0.40290677E-02 0.15508131E+03</pdfrwt>
<totfact> 0.96457528E+03</totfact>
</mgrwt>
</event>
<event>
 6    1  0.5258538E-006  0.1256745E+03  0.7546771E-02  0.1248088E+00
         -2   -1    0    0    0  501 -0.00000000000E+00  0.00000000000E+00  0.62902445320E+02  0.62902445320E+02  0.00000000000E+00 0.  1.
          2   -1    0    0  501    0  0.00000000000E+00 -0.00000000000E+00 -0.40102555688E+03  0.40102555688E+03  0.00000000000E+00 0. -1.
          5    1    1    2  502    0  0.16191446775E+02 -0.54741691887E+02 -0.16632093611E+03  0.17590781553E+03  0.47000000000E+01 0.  1.
         -5    1    1    2    0  502 -0.26561195312E+02  0.62721965773E+02 -0.18064880993E+03  0.19312075139E+03  0.47000000000E+01 0.  1.
        -11    1    1    2    0    0 -0.31365121764E+02 -0.33066246463E+02  0.74858977034E+01  0.46186428557E+02  0.00000000000E+00 0.  1.
         11    1    1    2    0    0  0.41734870301E+02  0.25085972577E+02  0.13607367738E+01  0.48713006721E+02  0.00000000000E+00 0. -1.
<mgrwt>
<rscale>  0 0.11702467E+03</rscale>
<asrwt>0</asrwt>
<pdfrwt beam="2">  1        2 0.61696242E-01 0.12567449E+03</pdfrwt>
<pdfrwt beam="1">  1       -2 0.96772989E-02 0.12567449E+03</pdfrwt>
<totfact> 0.53232652E+03</totfact>
</mgrwt>
</event>
<event>
 6    1  0.5258538E-006  0.4171966E+03  0.7546771E-02  0.1037983E+00
          2   -1    0    0  501    0  0.00000000000E+00  0.00000000000E+00  0.29688607556E+04  0.29688607556E+04  0.00000000000E+00 0. -1.
         -2   -1    0    0    0  501 -0.00000000000E+00 -0.00000000000E+00 -0.14656547380E+02  0.14656547380E+02  0.00000000000E+00 0.  1.
          5    1    1    2  502    0 -0.13373863152E+02  0.61410673089E+02  0.46192630017E+03  0.46620610010E+03  0.47000000000E+01 0.  1.
         -5    1    1    2    0  502 -0.28896159903E+02  0.17584699952E+02  0.21332182129E+04  0.21334915616E+04  0.47000000000E+01 0.  1.
        -11    1    1    2    0    0 -0.22306761527E+02 -0.55147346880E+02  0.22976373610E+03  0.23733983210E+03  0.00000000000E+00 0.  1.
         11    1    1    2    0    0  0.64576784581E+02 -0.23848026162E+02  0.12929595911E+03  0.14647980919E+03  0.00000000000E+00 0. -1.
<mgrwt>
<rscale>  0 0.41719659E+03</rscale>
<asrwt>0</asrwt>
<pdfrwt beam="1">  1        2 0.45674733E+00 0.41719659E+03</pdfrwt>
<pdfrwt beam="2">  1       -2 0.22548558E-02 0.41719659E+03</pdfrwt>
<totfact> 0.13809806E+03</totfact>
</mgrwt>
</event>
<event>
 6    1  0.5258538E-006  0.1346970E+03  0.7546771E-02  0.1233073E+00
          1   -1    0    0  501    0  0.00000000000E+00  0.00000000000E+00  0.32928573201E+03  0.32928573201E+03  0.00000000000E+00 0. -1.
         -1   -1    0    0    0  501 -0.00000000000E+00 -0.00000000000E+00 -0.46847809596E+02  0.46847809596E+02  0.00000000000E+00 0.  1.
          5    1    1    2  502    0  0.29497164723E+01 -0.56094545204E+02  0.32885180731E+02  0.65259665496E+02  0.47000000000E+01 0. -1.
         -5    1    1    2    0  502 -0.43355882701E+02  0.26331886420E+02  0.17653623483E+03  0.18373957934E+03  0.47000000000E+01 0. -1.
        -11    1    1    2    0    0  0.55688624871E+02 -0.13370507526E+02  0.31580293005E+02  0.65401133919E+02  0.00000000000E+00 0. -1.
         11    1    1    2    0    0 -0.15282458642E+02  0.43133166309E+02  0.41436213849E+02  0.61733162856E+02  0.00000000000E+00 0.  1.
<mgrwt>
<rscale>  0 0.12628615E+03</rscale>
<asrwt>0</asrwt>
<pdfrwt beam="1">  1        1 0.50659342E-01 0.13469705E+03</pdfrwt>
<pdfrwt beam="2">  1       -1 0.72073556E-02 0.13469705E+03</pdfrwt>
<totfact> 0.74819648E+03</totfact>
</mgrwt>
</event>
<event>
 6    1  0.5258538E-006  0.4376304E+03  0.7546771E-02  0.1063300E+00
         -2   -1    0    0    0  501 -0.00000000000E+00  0.00000000000E+00  0.12021265810E+03  0.12021265810E+03  0.00000000000E+00 0.  1.
          2   -1    0    0  501    0  0.00000000000E+00 -0.00000000000E+00 -0.92579732022E+03  0.92579732022E+03  0.00000000000E+00 0. -1.
          5    1    1    2  502    0 -0.17127576118E+03  0.28773370454E+02 -0.35949288932E+03  0.39927499382E+03  0.47000000000E+01 0. -1.
         -5    1    1    2    0  502  0.18529614584E+03 -0.18108357367E+03 -0.37809681890E+03  0.45837235604E+03  0.47000000000E+01 0.  1.
        -11    1    1    2    0    0 -0.12801336549E+02 -0.73673065909E+01  0.92665177970E-01  0.14770240712E+02  0.00000000000E+00 0.  1.
         11    1    1    2    0    0 -0.12190481169E+01  0.15967750980E+03 -0.68087619076E+02  0.17359238776E+03  0.00000000000E+00 0. -1.
<mgrwt>
<rscale>  0 0.34833743E+03</rscale>
<asrwt>0</asrwt>
<pdfrwt beam="2">  1        2 0.14243035E+00 0.43763044E+03</pdfrwt>
<pdfrwt beam="1">  1       -2 0.18494256E-01 0.43763044E+03</pdfrwt>
<totfact> 0.69979735E+02</totfact>
</mgrwt>
</event>
<event>
 6    1  0.5258538E-006  0.1896854E+03  0.7546771E-02  0.1164323E+00
          2   -1    0    0  501    0  0.00000000000E+00  0.00000000000E+00  0.22085987843E+03  0.22085987843E+03  0.00000000000E+00 0. -1.
         -2   -1    0    0    0  501 -0.00000000000E+00 -0.00000000000E+00 -0.19596669097E+03  0.19596669097E+03  0.00000000000E+00 0.  1.
          5    1    1    2  502    0 -0.16497123996E+02  0.34016621248E+02 -0.24620488898E+02  0.45360159776E+02  0.47000000000E+01 0. -1.
         -5    1    1    2    0  502 -0.28255130923E+02  0.10145402489E+03  0.14510003004E+03  0.17935267020E+03  0.47000000000E+01 0. -1.
        -11    1    1    2    0    0 -0.85371629531E+01 -0.44327428398E+02 -0.70305737938E+02  0.83550588548E+02  0.00000000000E+00 0.  1.
         11    1    1    2    0    0  0.53289417873E+02 -0.91143217738E+02 -0.25280615742E+02  0.10856315088E+03  0.00000000000E+00 0. -1.
<mgrwt>
<rscale>  0 0.18364292E+03</rscale>
<asrwt>0</asrwt>
<pdfrwt beam="1">  1        2 0.33978443E-01 0.18968536E+03</pdfrwt>
<pdfrwt beam="2">  1       -2 0.30148722E-01 0.18968536E+03</pdfrwt>
<totfact> 0.15328248E+03</totfact>
</mgrwt>
</event>
<event>
 6    1  0.5258538E-006  0.4538167E+03  0.7546771E-02  0.1072739E+00
          1   -1    0    0  501    0  0.00000000000E+00  0.00000000000E+00  0.63807552151E+03  0.63807552151E+03  0.00000000000E+00 0. -1.
         -1   -1    0    0    0  501 -0.00000000000E+00 -0.00000000000E+00 -0.14433283455E+03  0.14433283455E+03  0.00000000000E+00 0.  1.
          5    1    1    2  502    0 -0.11467361716E+03 -0.46848618860E+02  0.50640799808E+03  0.52135974344E+03  0.47000000000E+01 0. -1.
         -5    1    1    2    0  502  0.73112145178E+02  0.11469710149E+03 -0.27028907462E+02  0.13875684740E+03  0.47000000000E+01 0.  1.
        -11    1    1    2    0    0 -0.18187285383E+02 -0.26466019474E+02  0.34240047567E+02  0.46942607446E+02  0.00000000000E+00 0. -1.
         11    1    1    2    0    0  0.59748757365E+02 -0.41382463156E+02 -0.19876451230E+02  0.75349157773E+02  0.00000000000E+00 0.  1.
<mgrwt>
<rscale>  0 0.32640405E+03</rscale>
<asrwt>0</asrwt>
<pdfrwt beam="1">  1        1 0.98165463E-01 0.45381670E+03</pdfrwt>
<pdfrwt beam="2">  1       -1 0.22205052E-01 0.45381670E+03</pdfrwt>
<totfact> 0.54514215E+02</totfact>
</mgrwt>
</event>
<event>
 6    1  0.5258538E-006  0.1274294E+03  0.7546771E-02  0.1242593E+00
         -1   -1    0    0    0  501 -0.00000000000E+00  0.00000000000E+00  0.53535243630E+02  0.53535243630E+02  0.00000000000E+00 0.  1.
          1   -1    0    0  501    0  0.00000000000E+00 -0.00000000000E+00 -0.25139188166E+03  0.25139188166E+03  0.00000000000E+00 0. -1.
          5    1    1    2  502    0  0.66172159238E+02 -0.25030126590E+02 -0.72286508643E+02  0.10125557381E+03  0.47000000000E+01 0. -1.
         -5    1    1    2    0  502 -0.24941437354E+02  0.50421789047E+02 -0.63309203989E+02  0.84820854851E+02  0.47000000000E+01 0.  1.
        -11    1    1    2    0    0 -0.37927845969E+01  0.29527967346E+02 -0.32122084835E+01  0.29943352416E+02  0.00000000000E+00 0.  1.
         11    1    1    2    0    0 -0.37437937287E+02 -0.54919629803E+02 -0.59048716912E+02  0.88907344212E+02  0.00000000000E+00 0. -1.
<mgrwt>
<rscale>  0 0.12030610E+03</rscale>
<asrwt>0</asrwt>
<pdfrwt beam="2">  1        1 0.38675674E-01 0.12742935E+03</pdfrwt>
<pdfrwt beam="1">  1       -1 0.82361913E-02 0.12742935E+03</pdfrwt>
<totfact> 0.85114119E+03</totfact>
</mgrwt>
</event>
<event>
 6    1  0.5258538E-006  0.2536108E+03  0.7546771E-02  0.1111044E+00
         -2   -1    0    0    0  501 -0.00000000000E+00  0.00000000000E+00  0.88868624522E+01  0.88868624522E+01  0.00000000000E+00 0.  1.
          2   -1    0    0  501    0  0.00000000000E+00 -0.00000000000E+00 -0.18093686967E+04  0.18093686967E+04  0.00000000000E+00 0. -1.
          5    1    1    2  502    0 -0.50916098918E+02  0.37661880617E+01 -0.13186978432E+04  0.13196941785E+04  0.47000000000E+01 0.  1.
         -5    1    1    2    0  502  0.45894667506E+01  0.59100370879E+01 -0.39314281481E+01  0.96714978529E+01  0.47000000000E+01 0.  1.
        -11    1    1    2    0    0  0.65226194023E+02  0.17540239548E+02 -0.36806180648E+03  0.37420797664E+03  0.00000000000E+00 0. -1.
         11    1    1    2    0    0 -0.18899561855E+02 -0.27216464698E+02 -0.10979075645E+03  0.11468190612E+03  0.00000000000E+00 0.  1.
<mgrwt>
<rscale>  0 0.25361081E+03</rscale>
<asrwt>0</asrwt>
<pdfrwt beam="2">  1        2 0.27836448E+00 0.25361081E+03</pdfrwt>
<pdfrwt beam="1">  1       -2 0.13672093E-02 0.25361081E+03</pdfrwt>
<totfact> 0.12618250E+04</totfact>
</mgrwt>
</event>
<event>
 6    1  0.5258538E-006  0.1440009E+03  0.7546771E-02  0.1218725E+00
         -1   -1    0    0    0  501 -0.00000000000E+00  0.00000000000E+00  0.86147890712E+02  0.86147890712E+02  0.00000000000E+00 0.  1.
          1   -1    0    0  501    0  0.00000000000E+00 -0.00000000000E+00 -0.19683367198E+03  0.19683367198E+03  0.00000000000E+00 0. -1.
          5    1    1    2  502    0 -0.10076621075E+03  0.13931507288E+02 -0.32189263147E+02  0.10679960105E+03  0.47000000000E+01 0.  1.
         -5    1    1    2    0  502  0.29334896964E+02 -0.17006382215E+02 -0.45136298285E+02  0.56649171563E+02  0.47000000000E+01 0.  1.
        -11    1    1    2    0    0  0.92967513708E+02  0.64056709605E-01 -0.25386722427E+02  0.96371408540E+02  0.00000000000E+00 0. -1.
         11    1    1    2    0    0 -0.21536199926E+02  0.30108182168E+01 -0.79734974049E+01  0.23161381532E+02  0.00000000000E+00 0.  1.
<mgrwt>
<rscale>  0 0.13606408E+03</rscale>
<asrwt>0</asrwt>
<pdfrwt beam="2">  1        1 0.30282103E-01 0.14400090E+03</pdfrwt>
<pdfrwt beam="1">  1       -1 0.13253522E-01 0.14400090E+03</pdfrwt>
<totfact> 0.56112067E+03</totfact>
</mgrwt>
</event>
<event>
 6    1  0.5258538E-006  0.1314499E+03  0.7546771E-02  0.1237742E+00
          1   -1    0    0  501    0  0.00000000000E+00  0.00000000000E+00  0.62187755600E+03  0.62187755600E+03  0.00000000000E+00 0.  1.
         -1   -1    0    0    0  501 -0.00000000000E+00 -0.00000000000E+00 -0.25108517656E+02  0.25108517656E+02  0.00000000000E+00 0. -1.
          5    1    1    2  502    0 -0.77556113321E+01 -0.31244050168E+02  0.19187895018E+02  0.37770431467E+02  0.47000000000E+01 0. -1.
         -5    1    1    2    0  502 -0.16609971543E+02 -0.13324483856E+01  0.42767124791E+03  0.42802155654E+03  0.47000000000E+01 0. -1.
        -11    1    1    2    0    0 -0.12431866556E+02  0.56493598949E+02  0.87851141547E+02  0.10518508021E+03  0.00000000000E+00 0. -1.
         11    1    1    2    0    0  0.36797449431E+02 -0.23917100395E+02  0.62058753876E+02  0.76009005444E+02  0.00000000000E+00 0.  1.
<mgrwt>
<rscale>  0 0.12330521E+03</rscale>
<asrwt>0</asrwt>
<pdfrwt beam="1">  1        1 0.95673459E-01 0.13144992E+03</pdfrwt>
<pdfrwt beam="2">  1       -1 0.38628493E-02 0.13144992E+03</pdfrwt>
<totfact> 0.82912041E+03</totfact>
</mgrwt>
</event>
<event>
 6    1  0.5258538E-006  0.1672003E+03  0.7546771E-02  0.1187462E+00
          1   -1    0    0  501    0  0.00000000000E+00  0.00000000000E+00  0.74176688552E+03  0.74176688552E+03  0.00000000000E+00 0. -1.
         -1   -1    0    0    0  501 -0.00000000000E+00 -0.00000000000E+00 -0.36845947573E+02  0.36845947573E+02  0.00000000000E+00 0.  1.
          5    1    1    2  502    0  0.19160659867E+02 -0.67024963899E+02  0.90372481657E+02  0.11423113460E+03  0.47000000000E+01 0.  1.
         -5    1    1    2    0  502 -0.23984732449E+02 -0.43911290898E+02  0.41616086830E+03  0.41918424011E+03  0.47000000000E+01 0.  1.
        -11    1    1    2    0    0 -0.17595764218E+02  0.18837927654E+02  0.50322540233E+00  0.25782390745E+02  0.00000000000E+00 0.  1.
         11    1    1    2    0    0  0.22419836799E+02  0.92098327143E+02  0.19788436259E+03  0.21941506763E+03  0.00000000000E+00 0. -1.
<mgrwt>
<rscale>  0 0.16109869E+03</rscale>
<asrwt>0</asrwt>
<pdfrwt beam="1">  1        1 0.11411797E+00 0.16720026E+03</pdfrwt>
<pdfrwt beam="2">  1       -1 0.56686079E-02 0.16720026E+03</pdfrwt>
<totfact> 0.37024110E+03</totfact>
</mgrwt>
</event>
<event>
 6    1  0.5258538E-006  0.1251875E+03  0.7546771E-02  0.1249784E+00
         -2   -1    0    0    0  501 -0.00000000000E+00  0.00000000000E+00  0.23773790761E+02  0.23773790761E+02  0.00000000000E+00 0.  1.
          2   -1    0    0  501    0  0.00000000000E+00 -0.00000000000E+00 -0.54557541297E+03  0.54557541297E+03  0.00000000000E+00 0. -1.
          5    1    1    2  502    0  0.71493415378E+01 -0.40583194939E+02 -0.43175980923E+02  0.59869559248E+02  0.47000000000E+01 0.  1.
         -5    1    1    2    0  502 -0.60178098862E+01  0.47319800412E+02 -0.33689651006E+03  0.34028918001E+03  0.47000000000E+01 0.  1.
        -11    1    1    2    0    0  0.69154994742E+01 -0.39863995319E+02 -0.24942507797E+02  0.47529895339E+02  0.00000000000E+00 0.  1.
         11    1    1    2    0    0 -0.80470311258E+01  0.33127389847E+02 -0.11678662343E+03  0.12166056913E+03  0.00000000000E+00 0. -1.
<mgrwt>
<rscale>  0 0.11603581E+03</rscale>
<asrwt>0</asrwt>
<pdfrwt beam="2">  1        2 0.83934674E-01 0.12518753E+03</pdfrwt>
<pdfrwt beam="1">  1       -2 0.36575065E-02 0.12518753E+03</pdfrwt>
<totfact> 0.16642054E+04</totfact>
</mgrwt>
</event>
<event>
 6    1  0.5258538E-006  0.1313484E+03  0.7546771E-02  0.1240061E+00
         -1   -1    0    0    0  501 -0.00000000000E+00  0.00000000000E+00  0.25430624424E+02  0.25430624424E+02  0.00000000000E+00 0.  1.
          1   -1    0    0  501    0  0.00000000000E+00 -0.00000000000E+00 -0.56729009099E+03  0.56729009099E+03  0.00000000000E+00 0. -1.
          5    1    1    2  502    0 -0.63134514267E+02  0.45060158412E+02 -0.17121079526E+03  0.18802024141E+03  0.47000000000E+01 0. -1.
         -5    1    1    2    0  502  0.43093472020E+02 -0.10036789396E+02 -0.22617654511E+03  0.23051183056E+03  0.47000000000E+01 0. -1.
        -11    1    1    2    0    0 -0.34135661122E+02 -0.22966662457E+02 -0.71715594480E+02  0.82679123340E+02  0.00000000000E+00 0. -1.
         11    1    1    2    0    0  0.54176703369E+02 -0.12056706559E+02 -0.72756531716E+02  0.91509520096E+02  0.00000000000E+00 0.  1.
<mgrwt>
<rscale>  0 0.12185949E+03</rscale>
<asrwt>0</asrwt>
<pdfrwt beam="2">  1        1 0.87275403E-01 0.13134838E+03</pdfrwt>
<pdfrwt beam="1">  1       -1 0.39124036E-02 0.13134838E+03</pdfrwt>
<totfact> 0.92169700E+03</totfact>
</mgrwt>
</event>
<event>
 6    1  0.5258538E-006  0.2574642E+03  0.7546771E-02  0.1110996E+00
          1   -1    0    0  501    0  0.00000000000E+00  0.00000000000E+00  0.11728616543E+04  0.11728616543E+04  0.00000000000E+00 0. -1.
         -1   -1    0    0    0  501 -0.00000000000E+00 -0.00000000000E+00 -0.53836238503E+02  0.53836238503E+02  0.00000000000E+00 0.  1.
          5    1    1    2  502    0  0.95461010743E+02  0.52941565992E+02  0.21907556591E+03  0.24480973747E+03  0.47000000000E+01 0.  1.
         -5    1    1    2    0  502  0.12931274427E+03 -0.64823498514E+02  0.41677817062E+03  0.44119157437E+03  0.47000000000E+01 0.  1.
        -11    1    1    2    0    0 -0.15000838820E+03 -0.66989173227E+01  0.21909984662E+03  0.26561651833E+03  0.00000000000E+00 0.  1.
         11    1    1    2    0    0 -0.74765366821E+02  0.18580849845E+02  0.26407183264E+03  0.27508006261E+03  0.00000000000E+00 0. -1.
<mgrwt>
<rscale>  0 0.25368814E+03</rscale>
<asrwt>0</asrwt>
<pdfrwt beam="1">  1        1 0.18044024E+00 0.25746422E+03</pdfrwt>
<pdfrwt beam="2">  1       -1 0.82824991E-02 0.25746422E+03</pdfrwt>
<totfact> 0.97853612E+02</totfact>
</mgrwt>
</event>
<event>
 6    1  0.5258538E-006  0.1612730E+03  0.7546771E-02  0.1193680E+00
          3   -1    0    0  501    0  0.00000000000E+00  0.00000000000E+00  0.92946167668E+02  0.92946167668E+02  0.00000000000E+00 0. -1.
         -3   -1    0    0    0  501 -0.00000000000E+00 -0.00000000000E+00 -0.26254180739E+03  0.26254180739E+03  0.00000000000E+00 0.  1.
          5    1    1    2  502    0 -0.45381037524E+02  0.30119813536E+02  0.43841279023E+01  0.54844802047E+02  0.47000000000E+01 0. -1.
         -5    1    1    2    0  502 -0.32238157790E+02 -0.96110397033E+02 -0.47763992950E+02  0.11216058246E+03  0.47000000000E+01 0. -1.
        -11    1    1    2    0    0  0.46452853395E+02  0.89535116958E+02 -0.93327562030E+02  0.13742066290E+03  0.00000000000E+00 0.  1.
         11    1    1    2    0    0  0.31166341919E+02 -0.23544533461E+02 -0.32888212647E+02  0.51061927652E+02  0.00000000000E+00 0. -1.
<mgrwt>
<rscale>  0 0.15566471E+03</rscale>
<asrwt>0</asrwt>
<pdfrwt beam="1">  1        3 0.14299411E-01 0.16127302E+03</pdfrwt>
<pdfrwt beam="2">  1       -3 0.40391046E-01 0.16127302E+03</pdfrwt>
<totfact> 0.58308725E+02</totfact>
</mgrwt>
</event>
<event>
 6    1  0.5258538E-006  0.1654444E+03  0.7546771E-02  0.1188732E+00
         -2   -1    0    0    0  501 -0.00000000000E+00  0.00000000000E+00  0.26766130167E+02  0.26766130167E+02  0.00000000000E+00 0.  1.
          2   -1    0    0  501    0  0.00000000000E+00 -0.00000000000E+00 -0.19122306723E+04  0.19122306723E+04  0.00000000000E+00 0. -1.
          5    1    1    2  502    0 -0.70102127665E+02 -0.34057142005E+02 -0.88087570342E+03  0.88432928941E+03  0.47000000000E+01 0.  1.
         -5    1    1    2    0  502 -0.27353806158E+02  0.81956528041E+02 -0.79696458943E+03  0.80164814601E+03  0.47000000000E+01 0.  1.
        -11    1    1    2    0    0  0.23399296301E+02 -0.31874308877E+01  0.44040549181E+01  0.24022541139E+02  0.00000000000E+00 0. -1.
         11    1    1    2    0    0  0.74056637523E+02 -0.44711955148E+02 -0.21202830418E+03  0.22899682589E+03  0.00000000000E+00 0.  1.
<mgrwt>
<rscale>  0 0.15996903E+03</rscale>
<asrwt>0</asrwt>
<pdfrwt beam="2">  1        2 0.29418931E+00 0.16544445E+03</pdfrwt>
<pdfrwt beam="1">  1       -2 0.41178665E-02 0.16544445E+03</pdfrwt>
<totfact> 0.21841257E+03</totfact>
</mgrwt>
</event>
<event>
 6    1  0.5258538E-006  0.1378972E+03  0.7546771E-02  0.1227701E+00
          2   -1    0    0  501    0  0.00000000000E+00  0.00000000000E+00  0.37082399766E+03  0.37082399766E+03  0.00000000000E+00 0. -1.
         -2   -1    0    0    0  501 -0.00000000000E+00 -0.00000000000E+00 -0.59378234805E+02  0.59378234805E+02  0.00000000000E+00 0.  1.
          5    1    1    2  502    0  0.66112625188E+02 -0.35802408382E+02  0.25930769353E+03  0.27002826071E+03  0.47000000000E+01 0.  1.
         -5    1    1    2    0  502 -0.37005376805E+02 -0.14657001200E+02  0.28716360790E+02  0.49304614122E+02  0.47000000000E+01 0.  1.
        -11    1    1    2    0    0 -0.56466176716E+02  0.37404733060E+02 -0.67903654830E+01  0.68070935293E+02  0.00000000000E+00 0.  1.
         11    1    1    2    0    0  0.27358928333E+02  0.13054676522E+02  0.30212074011E+02  0.42798422339E+02  0.00000000000E+00 0. -1.
<mgrwt>
<rscale>  0 0.12983474E+03</rscale>
<asrwt>0</asrwt>
<pdfrwt beam="1">  1        2 0.57049844E-01 0.13789717E+03</pdfrwt>
<pdfrwt beam="2">  1       -2 0.91351133E-02 0.13789717E+03</pdfrwt>
<totfact> 0.63665442E+03</totfact>
</mgrwt>
</event>
<event>
 6    1  0.5258538E-006  0.1259700E+03  0.7546771E-02  0.1249322E+00
         -1   -1    0    0    0  501 -0.00000000000E+00  0.00000000000E+00  0.22639107520E+02  0.22639107520E+02  0.00000000000E+00 0.  1.
          1   -1    0    0  501    0  0.00000000000E+00 -0.00000000000E+00 -0.62769887038E+03  0.62769887038E+03  0.00000000000E+00 0. -1.
          5    1    1    2  502    0 -0.65448755849E+02  0.24264417175E+02 -0.30423708052E+03  0.31217718165E+03  0.47000000000E+01 0. -1.
         -5    1    1    2    0  502  0.50892984066E+02 -0.18751656923E+02 -0.16993758440E+03  0.17844493004E+03  0.47000000000E+01 0. -1.
        -11    1    1    2    0    0 -0.14996807165E+02 -0.29346378329E+02 -0.12258943810E+02  0.35162420985E+02  0.00000000000E+00 0.  1.
         11    1    1    2    0    0  0.29552578949E+02  0.23833618077E+02 -0.11862615414E+03  0.12455344523E+03  0.00000000000E+00 0. -1.
<mgrwt>
<rscale>  0 0.11630397E+03</rscale>
<asrwt>0</asrwt>
<pdfrwt beam="2">  1        1 0.96569043E-01 0.12597001E+03</pdfrwt>
<pdfrwt beam="1">  1       -1 0.34829401E-02 0.12597001E+03</pdfrwt>
<totfact> 0.94970245E+03</totfact>
</mgrwt>
</event>
<event>
 6    1  0.5258538E-006  0.3101059E+03  0.7546771E-02  0.1080295E+00
         -1   -1    0    0    0  501 -0.00000000000E+00  0.00000000000E+00  0.75572553528E+02  0.75572553528E+02  0.00000000000E+00 0.  1.
          1   -1    0    0  501    0  0.00000000000E+00 -0.00000000000E+00 -0.31812374745E+03  0.31812374745E+03  0.00000000000E+00 0. -1.
          5    1    1    2  502    0 -0.35409376503E+02  0.10930578465E+02 -0.54063726826E+02  0.65713606264E+02  0.47000000000E+01 0. -1.
         -5    1    1    2    0  502  0.87419724729E+02  0.30766661661E+02 -0.19386753774E+03  0.21493140285E+03  0.47000000000E+01 0.  1.
        -11    1    1    2    0    0 -0.72490961555E+00 -0.54631877449E+02  0.19990659227E+02  0.58178982321E+02  0.00000000000E+00 0.  1.
         11    1    1    2    0    0 -0.51285438610E+02  0.12934637323E+02 -0.14610588586E+02  0.54872309546E+02  0.00000000000E+00 0. -1.
<mgrwt>
<rscale>  0 0.31010594E+03</rscale>
<asrwt>0</asrwt>
<pdfrwt beam="2">  1        1 0.48942116E-01 0.31010594E+03</pdfrwt>
<pdfrwt beam="1">  1       -1 0.11626547E-01 0.31010594E+03</pdfrwt>
<totfact> 0.39116705E+03</totfact>
</mgrwt>
</event>
<event>
 6    1  0.5258538E-006  0.1403240E+03  0.7546771E-02  0.1224017E+00
         -1   -1    0    0    0  501 -0.00000000000E+00  0.00000000000E+00  0.14597644440E+02  0.14597644440E+02  0.00000000000E+00 0.  1.
          1   -1    0    0  501    0  0.00000000000E+00 -0.00000000000E+00 -0.11292324602E+04  0.11292324602E+04  0.00000000000E+00 0. -1.
          5    1    1    2  502    0  0.96809303947E+02  0.99934816702E+01 -0.45219558586E+03  0.46257415500E+03  0.47000000000E+01 0.  1.
         -5    1    1    2    0  502 -0.37742501520E+02  0.14031589191E+02 -0.28356067296E+03  0.28644393372E+03  0.47000000000E+01 0.  1.
        -11    1    1    2    0    0 -0.66551266037E+02 -0.14463739148E+02 -0.37628139654E+03  0.38239503154E+03  0.00000000000E+00 0. -1.
         11    1    1    2    0    0  0.74844636099E+01 -0.95613317137E+01 -0.25971604374E+01  0.12416984417E+02  0.00000000000E+00 0.  1.
<mgrwt>
<rscale>  0 0.13234533E+03</rscale>
<asrwt>0</asrwt>
<pdfrwt beam="2">  1        1 0.17372807E+00 0.14032400E+03</pdfrwt>
<pdfrwt beam="1">  1       -1 0.22457915E-02 0.14032400E+03</pdfrwt>
<totfact> 0.72379563E+03</totfact>
</mgrwt>
</event>
<event>
 6    1  0.5258538E-006  0.1373458E+03  0.7546771E-02  0.1229205E+00
         -1   -1    0    0    0  501 -0.00000000000E+00  0.00000000000E+00  0.37874722811E+03  0.37874722811E+03  0.00000000000E+00 0.  1.
          1   -1    0    0  501    0  0.00000000000E+00 -0.00000000000E+00 -0.40526141441E+02  0.40526141441E+02  0.00000000000E+00 0. -1.
          5    1    1    2  502    0  0.92289295910E+01 -0.56980653459E+02  0.87870162803E+01  0.58577040426E+02  0.47000000000E+01 0. -1.
         -5    1    1    2    0  502  0.26409919725E+02  0.12602139669E+02  0.14336485990E+03  0.14639628014E+03  0.47000000000E+01 0. -1.
        -11    1    1    2    0    0 -0.37520703793E+02 -0.15763031063E+02  0.11014834517E+03  0.11742629308E+03  0.00000000000E+00 0. -1.
         11    1    1    2    0    0  0.18818544772E+01  0.60141544853E+02  0.75920865311E+02  0.96873755905E+02  0.00000000000E+00 0.  1.
<mgrwt>
<rscale>  0 0.12882780E+03</rscale>
<asrwt>0</asrwt>
<pdfrwt beam="2">  1        1 0.62347912E-02 0.13734580E+03</pdfrwt>
<pdfrwt beam="1">  1       -1 0.58268802E-01 0.13734580E+03</pdfrwt>
<totfact> 0.36213131E+03</totfact>
</mgrwt>
</event>
<event>
 6    1  0.5258538E-006  0.1409751E+03  0.7546771E-02  0.1222862E+00
          2   -1    0    0  501    0  0.00000000000E+00  0.00000000000E+00  0.15859464888E+03  0.15859464888E+03  0.00000000000E+00 0. -1.
         -2   -1    0    0    0  501 -0.00000000000E+00 -0.00000000000E+00 -0.14269310031E+03  0.14269310031E+03  0.00000000000E+00 0.  1.
          5    1    1    2  502    0  0.20496371901E+02 -0.25144472944E+02  0.11808132696E+03  0.12254646285E+03  0.47000000000E+01 0.  1.
         -5    1    1    2    0  502  0.10363186455E+02 -0.32283172774E+02 -0.28450189522E+02  0.44509573821E+02  0.47000000000E+01 0.  1.
        -11    1    1    2    0    0 -0.55668218779E+02  0.17488811671E+02 -0.63262931943E+02  0.86063974308E+02  0.00000000000E+00 0.  1.
         11    1    1    2    0    0  0.24808660423E+02  0.39938834048E+02 -0.10466656925E+02  0.48167738210E+02  0.00000000000E+00 0. -1.
<mgrwt>
<rscale>  0 0.13314533E+03</rscale>
<asrwt>0</asrwt>
<pdfrwt beam="1">  1        2 0.24399177E-01 0.14097510E+03</pdfrwt>
<pdfrwt beam="2">  1       -2 0.21952785E-01 0.14097510E+03</pdfrwt>
<totfact> 0.38039826E+03</totfact>
</mgrwt>
</event>
<event>
 6    1  0.5258538E-006  0.2519445E+03  0.7546771E-02  0.1114403E+00
         -2   -1    0    0    0  501 -0.00000000000E+00  0.00000000000E+00  0.34817909401E+02  0.34817909401E+02  0.00000000000E+00 0.  1.
          2   -1    0    0  501    0  0.00000000000E+00 -0.00000000000E+00 -0.18373513224E+04  0.18373513224E+04  0.00000000000E+00 0. -1.
          5    1    1    2  502    0  0.14918165980E+03 -0.84513166518E+02 -0.61204010010E+03  0.63562002570E+03  0.47000000000E+01 0. -1.
         -5    1    1    2    0  502  0.58863793962E+02  0.16920853709E+02 -0.54994421929E+03  0.55336425242E+03  0.47000000000E+01 0. -1.
        -11    1    1    2    0    0 -0.40408648304E+02  0.42992651828E+01 -0.42214940763E+02  0.58595595077E+02  0.00000000000E+00 0.  1.
         11    1    1    2    0    0 -0.16763680546E+03  0.63293047626E+02 -0.59833415289E+03  0.62458935865E+03  0.00000000000E+00 0. -1.
<mgrwt>
<rscale>  0 0.24827083E+03</rscale>
<asrwt>0</asrwt>
<pdfrwt beam="2">  1        2 0.28266953E+00 0.25194455E+03</pdfrwt>
<pdfrwt beam="1">  1       -2 0.53565996E-02 0.25194455E+03</pdfrwt>
<totfact> 0.15960790E+03</totfact>
</mgrwt>
</event>
<event>
 6    1  0.5258538E-006  0.1288977E+03  0.7546771E-02  0.1241889E+00
         -2   -1    0    0    0  501 -0.00000000000E+00  0.00000000000E+00  0.45784727274E+03  0.45784727274E+03  0.00000000000E+00 0.  1.
          2   -1    0    0  501    0  0.00000000000E+00 -0.00000000000E+00 -0.28743124514E+02  0.28743124514E+02  0.00000000000E+00 0. -1.
          5    1    1    2  502    0 -0.63319198603E+02 -0.19850305750E+02  0.54672578521E+02  0.86107702282E+02  0.47000000000E+01 0.  1.
         -5    1    1    2    0  502  0.31998175384E+02  0.16750393058E+02  0.16168007861E+03  0.16573170099E+03  0.47000000000E+01 0.  1.
        -11    1    1    2    0    0  0.18224238195E+02  0.44348879292E+02  0.15708910783E+03  0.16424351966E+03  0.00000000000E+00 0.  1.
         11    1    1    2    0    0  0.13096785024E+02 -0.41248966600E+02  0.55662383272E+02  0.70507474321E+02  0.00000000000E+00 0. -1.
<mgrwt>
<rscale>  0 0.12073547E+03</rscale>
<asrwt>0</asrwt>
<pdfrwt beam="2">  1        2 0.44220195E-02 0.12889768E+03</pdfrwt>
<pdfrwt beam="1">  1       -2 0.70438037E-01 0.12889768E+03</pdfrwt>
<totfact> 0.33116825E+03</totfact>
</mgrwt>
</event>
<event>
 6    1  0.5258538E-006  0.1673859E+03  0.7546771E-02  0.1201507E+00
          1   -1    0    0  501    0  0.00000000000E+00  0.00000000000E+00  0.27291308119E+03  0.27291308119E+03  0.00000000000E+00 0. -1.
         -1   -1    0    0    0  501 -0.00000000000E+00 -0.00000000000E+00 -0.10924494461E+03  0.10924494461E+03  0.00000000000E+00 0.  1.
          5    1    1    2  502    0  0.33041373601E+02  0.74725705640E+02  0.21985124908E+03  0.23458969538E+03  0.47000000000E+01 0. -1.
         -5    1    1    2    0  502 -0.15642187872E+02 -0.26187157105E+02 -0.11264515310E+02  0.32854596997E+02  0.47000000000E+01 0.  1.
        -11    1    1    2    0    0  0.18175979413E+02 -0.53369436792E+02  0.10466522601E+01  0.56389347328E+02  0.00000000000E+00 0. -1.
         11    1    1    2    0    0 -0.35575165142E+02  0.48308882578E+01 -0.45965249460E+02  0.58324386102E+02  0.00000000000E+00 0.  1.
<mgrwt>
<rscale>  0 0.14916170E+03</rscale>
<asrwt>0</asrwt>
<pdfrwt beam="1">  1        1 0.41986628E-01 0.16738585E+03</pdfrwt>
<pdfrwt beam="2">  1       -1 0.16806915E-01 0.16738585E+03</pdfrwt>
<totfact> 0.25921534E+03</totfact>
</mgrwt>
</event>
<event>
 6    1  0.5258538E-006  0.1942871E+03  0.7546771E-02  0.1158917E+00
         -1   -1    0    0    0  501 -0.00000000000E+00  0.00000000000E+00  0.15230142413E+03  0.15230142413E+03  0.00000000000E+00 0.  1.
          1   -1    0    0  501    0  0.00000000000E+00 -0.00000000000E+00 -0.23447831904E+03  0.23447831904E+03  0.00000000000E+00 0. -1.
          5    1    1    2  502    0  0.23717085561E+02 -0.92423618271E+02 -0.11354172383E+03  0.14838611260E+03  0.47000000000E+01 0.  1.
         -5    1    1    2    0  502  0.23201365178E+02 -0.48719071765E+02  0.31335494917E+02  0.62576789159E+02  0.47000000000E+01 0.  1.
        -11    1    1    2    0    0 -0.52239606884E+02  0.15361389971E+03 -0.30248275308E+00  0.16225380799E+03  0.00000000000E+00 0. -1.
         11    1    1    2    0    0  0.53211561450E+01 -0.12471209672E+02  0.33181675886E+00  0.13563033428E+02  0.00000000000E+00 0.  1.
<mgrwt>
<rscale>  0 0.18949516E+03</rscale>
<asrwt>0</asrwt>
<pdfrwt beam="2">  1        1 0.36073588E-01 0.19428711E+03</pdfrwt>
<pdfrwt beam="1">  1       -1 0.23430988E-01 0.19428711E+03</pdfrwt>
<totfact> 0.18397119E+03</totfact>
</mgrwt>
</event>
<event>
 6    1  0.5258538E-006  0.1256583E+03  0.7546771E-02  0.1249943E+00
         -1   -1    0    0    0  501 -0.00000000000E+00  0.00000000000E+00  0.19965921407E+02  0.19965921407E+02  0.00000000000E+00 0.  1.
          1   -1    0    0  501    0  0.00000000000E+00 -0.00000000000E+00 -0.60978614501E+03  0.60978614501E+03  0.00000000000E+00 0. -1.
          5    1    1    2  502    0  0.82484837873E+01 -0.42450147813E+02 -0.37911826309E+03  0.38160555544E+03  0.47000000000E+01 0. -1.
         -5    1    1    2    0  502 -0.68089843540E+01  0.29644917638E+02 -0.19705467582E+02  0.36545572403E+02  0.47000000000E+01 0. -1.
        -11    1    1    2    0    0  0.25758324679E+02 -0.79388452773E+01 -0.12243145944E+02  0.29604242555E+02  0.00000000000E+00 0.  1.
         11    1    1    2    0    0 -0.27197824113E+02  0.20744075453E+02 -0.17875334698E+03  0.18199669602E+03  0.00000000000E+00 0. -1.
<mgrwt>
<rscale>  0 0.11594373E+03</rscale>
<asrwt>0</asrwt>
<pdfrwt beam="2">  1        1 0.93813246E-01 0.12565826E+03</pdfrwt>
<pdfrwt beam="1">  1       -1 0.30716804E-02 0.12565826E+03</pdfrwt>
<totfact> 0.11863688E+04</totfact>
</mgrwt>
</event>
<event>
 6    1  0.5258538E-006  0.1280365E+03  0.7546771E-02  0.1245027E+00
          3   -1    0    0  501    0  0.00000000000E+00  0.00000000000E+00  0.33060475193E+03  0.33060475193E+03  0.00000000000E+00 0. -1.
         -3   -1    0    0    0  501 -0.00000000000E+00 -0.00000000000E+00 -0.41552148512E+02  0.41552148512E+02  0.00000000000E+00 0.  1.
          5    1    1    2  502    0  0.44201808235E+02  0.46757290988E+02  0.12437442854E+03  0.14011114369E+03  0.47000000000E+01 0.  1.
         -5    1    1    2    0  502 -0.19811236708E+02 -0.59496751942E+02  0.96164708163E+02  0.11490034677E+03  0.47000000000E+01 0.  1.
        -11    1    1    2    0    0 -0.55907775280E+02 -0.80422095215E+01  0.33585190931E+02  0.65713937035E+02  0.00000000000E+00 0.  1.
         11    1    1    2    0    0  0.31517203753E+02  0.20781670475E+02  0.34928275781E+02  0.51431472944E+02  0.00000000000E+00 0. -1.
<mgrwt>
<rscale>  0 0.11883792E+03</rscale>
<asrwt>0</asrwt>
<pdfrwt beam="1">  1        3 0.50862268E-01 0.12803652E+03</pdfrwt>
<pdfrwt beam="2">  1       -3 0.63926384E-02 0.12803652E+03</pdfrwt>
<totfact> 0.13522438E+03</totfact>
</mgrwt>
</event>
<event>
 6    1  0.5921442E-006  0.1532810E+03  0.7546771E-02  0.1204880E+00
         -1   -1    0    0    0  501 -0.00000000000E+00  0.00000000000E+00  0.55189408985E+02  0.55189408985E+02  0.00000000000E+00 0.  1.
          1   -1    0    0  501    0  0.00000000000E+00 -0.00000000000E+00 -0.36521168160E+03  0.36521168160E+03  0.00000000000E+00 0. -1.
          5    1    1    2  502    0 -0.25456868794E+02  0.30330401038E+02  0.60960208743E+01  0.40339024113E+02  0.47000000000E+01 0. -1.
         -5    1    1    2    0  502 -0.30867980705E+02  0.38213717216E+02 -0.20454738284E+03  0.21041587926E+03  0.47000000000E+01 0. -1.
        -11    1    1    2    0    0 -0.20362401994E+02 -0.35446252142E+02 -0.55964758072E+02  0.69304533416E+02  0.00000000000E+00 0. -1.
         11    1    1    2    0    0  0.76687251493E+02 -0.33097866112E+02 -0.55606152575E+02  0.10034165380E+03  0.00000000000E+00 0.  1.
<mgrwt>
<rscale>  0 0.14646891E+03</rscale>
<asrwt>0</asrwt>
<pdfrwt beam="2">  1        1 0.56186412E-01 0.15328104E+03</pdfrwt>
<pdfrwt beam="1">  1       -1 0.84906784E-02 0.15328104E+03</pdfrwt>
<totfact> 0.51739199E+03</totfact>
</mgrwt>
</event>
<event>
 6    1  0.5258538E-006  0.2178704E+03  0.7546771E-02  0.1140621E+00
          2   -1    0    0  501    0  0.00000000000E+00  0.00000000000E+00  0.16325015077E+04  0.16325015077E+04  0.00000000000E+00 0. -1.
         -2   -1    0    0    0  501 -0.00000000000E+00 -0.00000000000E+00 -0.27070436246E+02  0.27070436246E+02  0.00000000000E+00 0.  1.
          5    1    1    2  502    0 -0.37617858159E+02 -0.11023404334E+03  0.39456987089E+03  0.41142936281E+03  0.47000000000E+01 0.  1.
         -5    1    1    2    0  502 -0.84446211715E+02 -0.19914217646E+02  0.63685049903E+03  0.64275064127E+03  0.47000000000E+01 0.  1.
        -11    1    1    2    0    0  0.65688088509E+02  0.20256557086E+02  0.21616003613E+03  0.22682683769E+03  0.00000000000E+00 0.  1.
         11    1    1    2    0    0  0.56375981366E+02  0.10989170390E+03  0.35785066544E+03  0.37856510222E+03  0.00000000000E+00 0. -1.
<mgrwt>
<rscale>  0 0.21119818E+03</rscale>
<asrwt>0</asrwt>
<pdfrwt beam="1">  1        2 0.25115400E+00 0.21787038E+03</pdfrwt>
<pdfrwt beam="2">  1       -2 0.41646838E-02 0.21787038E+03</pdfrwt>
<totfact> 0.29972716E+03</totfact>
</mgrwt>
</event>
<event>
 6    1  0.5258538E-006  0.1263992E+03  0.7546771E-02  0.1246974E+00
          1   -1    0    0  501    0  0.00000000000E+00  0.00000000000E+00  0.29907293150E+03  0.29907293150E+03  0.00000000000E+00 0. -1.
         -1   -1    0    0    0  501 -0.00000000000E+00 -0.00000000000E+00 -0.52243718827E+02  0.52243718827E+02  0.00000000000E+00 0.  1.
          5    1    1    2  502    0  0.29731853924E+02 -0.53101101376E+02  0.98456985048E+02  0.11584290228E+03  0.47000000000E+01 0. -1.
         -5    1    1    2    0  502 -0.46766105966E+02  0.45131520513E+02  0.11967320850E+03  0.13626330997E+03  0.47000000000E+01 0. -1.
        -11    1    1    2    0    0  0.35397810047E+02 -0.19514638565E+02 -0.16123624422E+02  0.43517781871E+02  0.00000000000E+00 0.  1.
         11    1    1    2    0    0 -0.18363558005E+02  0.27484219429E+02  0.44822643542E+02  0.55692656197E+02  0.00000000000E+00 0. -1.
<mgrwt>
<rscale>  0 0.11768024E+03</rscale>
<asrwt>0</asrwt>
<pdfrwt beam="1">  1        1 0.46011219E-01 0.12639921E+03</pdfrwt>
<pdfrwt beam="2">  1       -1 0.80374954E-02 0.12639921E+03</pdfrwt>
<totfact> 0.71237059E+03</totfact>
</mgrwt>
</event>
<event>
 6    1  0.5258538E-006  0.1554942E+03  0.7546771E-02  0.1202427E+00
          2   -1    0    0  501    0  0.00000000000E+00  0.00000000000E+00  0.44638302134E+02  0.44638302134E+02  0.00000000000E+00 0. -1.
         -2   -1    0    0    0  501 -0.00000000000E+00 -0.00000000000E+00 -0.46503677421E+03  0.46503677421E+03  0.00000000000E+00 0.  1.
          5    1    1    2  502    0  0.62770575774E+02  0.47345226772E+02 -0.67198267109E+02  0.10353459704E+03  0.47000000000E+01 0.  1.
         -5    1    1    2    0  502 -0.55336995017E+02  0.44856603896E+02 -0.12211263893E+03  0.14144922947E+03  0.47000000000E+01 0.  1.
        -11    1    1    2    0    0  0.35860768276E+02 -0.73658134218E+02 -0.14311522143E+03  0.16490446338E+03  0.00000000000E+00 0.  1.
         11    1    1    2    0    0 -0.43294349032E+02 -0.18543696449E+02 -0.87972344606E+02  0.99786786458E+02  0.00000000000E+00 0. -1.
<mgrwt>
<rscale>  0 0.14842090E+03</rscale>
<asrwt>0</asrwt>
<pdfrwt beam="1">  1        2 0.68674309E-02 0.15549423E+03</pdfrwt>
<pdfrwt beam="2">  1       -2 0.71544121E-01 0.15549423E+03</pdfrwt>
<totfact> 0.18312645E+03</totfact>
</mgrwt>
</event>
<event>
 6    1  0.5258538E-006  0.2086730E+03  0.7546771E-02  0.1146469E+00
         -2   -1    0    0    0  501 -0.00000000000E+00  0.00000000000E+00  0.95016767266E+02  0.95016767266E+02  0.00000000000E+00 0.  1.
          2   -1    0    0  501    0  0.00000000000E+00 -0.00000000000E+00 -0.50767353395E+03  0.50767353395E+03  0.00000000000E+00 0. -1.
          5    1    1    2  502    0 -0.35785457185E+02  0.49816558779E+02 -0.21727877862E+03  0.22581949896E+03  0.47000000000E+01 0.  1.
         -5    1    1    2    0  502  0.33732146072E+02  0.11726509876E+03 -0.12281418977E+03  0.17318884570E+03  0.47000000000E+01 0.  1.
        -11    1    1    2    0    0 -0.70265293371E+01 -0.57896588425E+02 -0.73862961488E+02  0.94112295400E+02  0.00000000000E+00 0. -1.
         11    1    1    2    0    0  0.90798404506E+01 -0.10918506911E+03  0.12991631989E+01  0.10956966115E+03  0.00000000000E+00 0.  1.
<mgrwt>
<rscale>  0 0.20392456E+03</rscale>
<asrwt>0</asrwt>
<pdfrwt beam="2">  1        2 0.78103620E-01 0.20867303E+03</pdfrwt>
<pdfrwt beam="1">  1       -2 0.14617964E-01 0.20867303E+03</pdfrwt>
<totfact> 0.21691473E+03</totfact>
</mgrwt>
</event>
<event>
 6    1  0.5258538E-006  0.1545053E+03  0.7546771E-02  0.1201749E+00
          1   -1    0    0  501    0  0.00000000000E+00  0.00000000000E+00  0.21149212795E+03  0.21149212795E+03  0.00000000000E+00 0. -1.
         -1   -1    0    0    0  501 -0.00000000000E+00 -0.00000000000E+00 -0.10542604529E+03  0.10542604529E+03  0.00000000000E+00 0.  1.
          5    1    1    2  502    0 -0.33828144626E+01  0.47228789702E+02 -0.92683575580E+00  0.47591501709E+02  0.47000000000E+01 0. -1.
         -5    1    1    2    0  502  0.94172505623E+02 -0.49436264620E+02  0.15768058178E+02  0.10762493546E+03  0.47000000000E+01 0. -1.
        -11    1    1    2    0    0 -0.28088040864E+02 -0.29604587607E+02 -0.64884347512E+01  0.41321537151E+02  0.00000000000E+00 0.  1.
         11    1    1    2    0    0 -0.62701650296E+02  0.31812062525E+02  0.97713294989E+02  0.12038019891E+03  0.00000000000E+00 0. -1.
<mgrwt>
<rscale>  0 0.14896616E+03</rscale>
<asrwt>0</asrwt>
<pdfrwt beam="1">  1        1 0.32537251E-01 0.15450528E+03</pdfrwt>
<pdfrwt beam="2">  1       -1 0.16219392E-01 0.15450528E+03</pdfrwt>
<totfact> 0.37530247E+03</totfact>
</mgrwt>
</event>
<event>
 6    1  0.5258538E-006  0.1320427E+03  0.7546771E-02  0.1235903E+00
          3   -1    0    0  501    0  0.00000000000E+00  0.00000000000E+00  0.61451261889E+02  0.61451261889E+02  0.00000000000E+00 0. -1.
         -3   -1    0    0    0  501 -0.00000000000E+00 -0.00000000000E+00 -0.33667039383E+03  0.33667039383E+03  0.00000000000E+00 0.  1.
          5    1    1    2  502    0  0.22032167137E+02  0.77712198046E+02  0.41809556477E+01  0.81019580992E+02  0.47000000000E+01 0. -1.
         -5    1    1    2    0  502 -0.15096420919E+02 -0.35747964205E+02 -0.39707410485E+02  0.55718823721E+02  0.47000000000E+01 0. -1.
        -11    1    1    2    0    0 -0.49529194763E+02 -0.33747986036E+02 -0.12141616796E+03  0.13540293031E+03  0.00000000000E+00 0.  1.
         11    1    1    2    0    0  0.42593448545E+02 -0.82162478047E+01 -0.11827650914E+03  0.12598032069E+03  0.00000000000E+00 0. -1.
<mgrwt>
<rscale>  0 0.12446794E+03</rscale>
<asrwt>0</asrwt>
<pdfrwt beam="1">  1        3 0.94540402E-02 0.13204265E+03</pdfrwt>
<pdfrwt beam="2">  1       -3 0.51795446E-01 0.13204265E+03</pdfrwt>
<totfact> 0.69424652E+02</totfact>
</mgrwt>
</event>
<event>
 6    1  0.5258538E-006  0.3078963E+03  0.7546771E-02  0.1082562E+00
         -2   -1    0    0    0  501 -0.00000000000E+00  0.00000000000E+00  0.14549192051E+03  0.14549192051E+03  0.00000000000E+00 0.  1.
          2   -1    0    0  501    0  0.00000000000E+00 -0.00000000000E+00 -0.82327383090E+03  0.82327383090E+03  0.00000000000E+00 0. -1.
          5    1    1    2  502    0  0.22615253238E+02  0.57136737857E+02 -0.17258468565E+03  0.18325834282E+03  0.47000000000E+01 0. -1.
         -5    1    1    2    0  502 -0.12945170287E+03  0.20317037693E+03 -0.40453499467E+03  0.47085730041E+03  0.47000000000E+01 0. -1.
        -11    1    1    2    0    0  0.56666393273E+02 -0.21686073072E+03 -0.46331748395E+02  0.22888050936E+03  0.00000000000E+00 0.  1.
         11    1    1    2    0    0  0.50170056359E+02 -0.43446384068E+02 -0.54330481684E+02  0.85769598831E+02  0.00000000000E+00 0. -1.
<mgrwt>
<rscale>  0 0.30542099E+03</rscale>
<asrwt>0</asrwt>
<pdfrwt beam="2">  1        2 0.12665751E+00 0.30789633E+03</pdfrwt>
<pdfrwt beam="1">  1       -2 0.22383372E-01 0.30789633E+03</pdfrwt>
<totfact> 0.59224681E+02</totfact>
</mgrwt>
</event>
<event>
 6    1  0.5258538E-006  0.1360785E+03  0.7546771E-02  0.1230898E+00
          3   -1    0    0  501    0  0.00000000000E+00  0.00000000000E+00  0.82257718952E+03  0.82257718952E+03  0.00000000000E+00 0. -1.
         -3   -1    0    0    0  501 -0.00000000000E+00 -0.00000000000E+00 -0.20627647883E+02  0.20627647883E+02  0.00000000000E+00 0.  1.
          5    1    1    2  502    0  0.13656588547E+02 -0.42859368691E+02  0.16245947255E+03  0.16863747542E+03  0.47000000000E+01 0. -1.
         -5    1    1    2    0  502 -0.63647337695E+02  0.62711225909E+02  0.43859462810E+03  0.44762821543E+03  0.47000000000E+01 0. -1.
        -11    1    1    2    0    0  0.65097520278E+02  0.15660425422E+02  0.12900542914E+03  0.14534557723E+03  0.00000000000E+00 0. -1.
         11    1    1    2    0    0 -0.15106771130E+02 -0.35512282639E+02  0.71890011840E+02  0.81593569321E+02  0.00000000000E+00 0.  1.
<mgrwt>
<rscale>  0 0.12770696E+03</rscale>
<asrwt>0</asrwt>
<pdfrwt beam="1">  1        3 0.12655031E+00 0.13607854E+03</pdfrwt>
<pdfrwt beam="2">  1       -3 0.31734849E-02 0.13607854E+03</pdfrwt>
<totfact> 0.56583443E+02</totfact>
</mgrwt>
</event>
<event>
 6    1  0.5258538E-006  0.1374315E+03  0.7546771E-02  0.1228540E+00
         -2   -1    0    0    0  501 -0.00000000000E+00  0.00000000000E+00  0.65761308008E+02  0.65761308008E+02  0.00000000000E+00 0.  1.
          2   -1    0    0  501    0  0.00000000000E+00 -0.00000000000E+00 -0.23832216867E+03  0.23832216867E+03  0.00000000000E+00 0. -1.
          5    1    1    2  502    0  0.70588421111E+02  0.65224937494E+01 -0.71861693247E+02  0.10105177423E+03  0.47000000000E+01 0. -1.
         -5    1    1    2    0  502 -0.48672477651E+02  0.44499973348E+02 -0.55555266863E+02  0.86358180764E+02  0.47000000000E+01 0. -1.
        -11    1    1    2    0    0 -0.42935414270E+02 -0.38788381647E+02  0.78245581401E+01  0.58388458273E+02  0.00000000000E+00 0.  1.
         11    1    1    2    0    0  0.21019470810E+02 -0.12234085450E+02 -0.52968458687E+02  0.58285063401E+02  0.00000000000E+00 0. -1.
<mgrwt>
<rscale>  0 0.12927173E+03</rscale>
<asrwt>0</asrwt>
<pdfrwt beam="2">  1        2 0.36664949E-01 0.13743147E+03</pdfrwt>
<pdfrwt beam="1">  1       -2 0.10117124E-01 0.13743147E+03</pdfrwt>
<totfact> 0.86757910E+03</totfact>
</mgrwt>
</event>
<event>
 6    1  0.5258538E-006  0.1618849E+03  0.7546771E-02  0.1194844E+00
         -2   -1    0    0    0  501 -0.00000000000E+00  0.00000000000E+00  0.24523016000E+02  0.24523016000E+02  0.00000000000E+00 0.  1.
          2   -1    0    0  501    0  0.00000000000E+00 -0.00000000000E+00 -0.10641582371E+04  0.10641582371E+04  0.00000000000E+00 0. -1.
          5    1    1    2  502    0  0.26804566718E+02  0.32529237796E+02 -0.63828402019E+02  0.76634137385E+02  0.47000000000E+01 0. -1.
         -5    1    1    2    0  502 -0.25433553120E+02  0.70328000152E+02 -0.71018136795E+03  0.71412362978E+03  0.47000000000E+01 0. -1.
        -11    1    1    2    0    0 -0.24686001469E+02 -0.40902204348E+02 -0.38526189592E+02  0.61373090793E+02  0.00000000000E+00 0.  1.
         11    1    1    2    0    0  0.23314987871E+02 -0.61955033600E+02 -0.22709926150E+03  0.23655039510E+03  0.00000000000E+00 0. -1.
<mgrwt>
<rscale>  0 0.15467433E+03</rscale>
<asrwt>0</asrwt>
<pdfrwt beam="2">  1        2 0.16371661E+00 0.16188490E+03</pdfrwt>
<pdfrwt beam="1">  1       -2 0.37727727E-02 0.16188490E+03</pdfrwt>
<totfact> 0.70548684E+03</totfact>
</mgrwt>
</event>
<event>
 6    1  0.5258538E-006  0.1273769E+03  0.7546771E-02  0.1244264E+00
          2   -1    0    0  501    0  0.00000000000E+00  0.00000000000E+00  0.38099942941E+02  0.38099942941E+02  0.00000000000E+00 0. -1.
         -2   -1    0    0    0  501 -0.00000000000E+00 -0.00000000000E+00 -0.47942662056E+03  0.47942662056E+03  0.00000000000E+00 0.  1.
          5    1    1    2  502    0  0.35791420792E+02  0.12189862362E+02  0.17215122181E+02  0.41809914834E+02  0.47000000000E+01 0. -1.
         -5    1    1    2    0  502 -0.14328632156E+02 -0.24101896089E+02 -0.11586128886E+03  0.11929853038E+03  0.47000000000E+01 0. -1.
        -11    1    1    2    0    0  0.31408475178E+02 -0.18496341048E+02 -0.14705278322E+03  0.15150289766E+03  0.00000000000E+00 0. -1.
         11    1    1    2    0    0 -0.52871263814E+02  0.30408374774E+02 -0.19562772772E+03  0.20491522063E+03  0.00000000000E+00 0.  1.
<mgrwt>
<rscale>  0 0.11929551E+03</rscale>
<asrwt>0</asrwt>
<pdfrwt beam="1">  1        2 0.58615302E-02 0.12737686E+03</pdfrwt>
<pdfrwt beam="2">  1       -2 0.73757935E-01 0.12737686E+03</pdfrwt>
<totfact> 0.20782833E+03</totfact>
</mgrwt>
</event>
<event>
 6    1  0.5258538E-006  0.1283125E+03  0.7546771E-02  0.1242300E+00
         -2   -1    0    0    0  501 -0.00000000000E+00  0.00000000000E+00  0.84318071279E+02  0.84318071279E+02  0.00000000000E+00 0.  1.
          2   -1    0    0  501    0  0.00000000000E+00 -0.00000000000E+00 -0.16803392784E+03  0.16803392784E+03  0.00000000000E+00 0. -1.
          5    1    1    2  502    0  0.11980188698E+02 -0.62646874581E+02 -0.83452274150E+02  0.10514051492E+03  0.47000000000E+01 0.  1.
         -5    1    1    2    0  502  0.11576581757E+02  0.45772150892E+02  0.86187686842E+00  0.47454608566E+02  0.47000000000E+01 0.  1.
        -11    1    1    2    0    0 -0.52580094924E+02  0.22069574593E+02  0.23170583206E+02  0.61551672853E+02  0.00000000000E+00 0.  1.
         11    1    1    2    0    0  0.29023324469E+02 -0.51948509040E+01 -0.24296042481E+02  0.38205202779E+02  0.00000000000E+00 0. -1.
<mgrwt>
<rscale>  0 0.12048432E+03</rscale>
<asrwt>0</asrwt>
<pdfrwt beam="2">  1        2 0.25851374E-01 0.12831250E+03</pdfrwt>
<pdfrwt beam="1">  1       -2 0.12972011E-01 0.12831250E+03</pdfrwt>
<totfact> 0.84838475E+03</totfact>
</mgrwt>
</event>
<event>
 6    1  0.5258538E-006  0.1585686E+03  0.7546771E-02  0.1198301E+00
          2   -1    0    0  501    0  0.00000000000E+00  0.00000000000E+00  0.49962594967E+03  0.49962594967E+03  0.00000000000E+00 0. -1.
         -2   -1    0    0    0  501 -0.00000000000E+00 -0.00000000000E+00 -0.42713263472E+02  0.42713263472E+02  0.00000000000E+00 0.  1.
          5    1    1    2  502    0 -0.46775773180E+02 -0.86854546281E+02  0.11222353315E+03  0.14949212876E+03  0.47000000000E+01 0.  1.
         -5    1    1    2    0  502 -0.33184623293E+02  0.30906062337E+02  0.15170738519E+03  0.15840967342E+03  0.47000000000E+01 0.  1.
        -11    1    1    2    0    0 -0.18786269412E+02  0.11021271683E+02  0.53273441498E+02  0.57553904446E+02  0.00000000000E+00 0. -1.
         11    1    1    2    0    0  0.98746665885E+02  0.44927212261E+02  0.13970832635E+03  0.17688350652E+03  0.00000000000E+00 0.  1.
<mgrwt>
<rscale>  0 0.15178104E+03</rscale>
<asrwt>0</asrwt>
<pdfrwt beam="1">  1        2 0.76865527E-01 0.15856857E+03</pdfrwt>
<pdfrwt beam="2">  1       -2 0.65712716E-02 0.15856857E+03</pdfrwt>
<totfact> 0.77364541E+03</totfact>
</mgrwt>
</event>
<event>
 6    1  0.5258538E-006  0.1542473E+03  0.7546771E-02  0.1203985E+00
         -1   -1    0    0    0  501 -0.00000000000E+00  0.00000000000E+00  0.11469677000E+04  0.11469677000E+04  0.00000000000E+00 0.  1.
          1   -1    0    0  501    0  0.00000000000E+00 -0.00000000000E+00 -0.17475742926E+02  0.17475742926E+02  0.00000000000E+00 0. -1.
          5    1    1    2  502    0  0.26524602287E+02  0.26207602478E+02  0.30531434997E+02  0.48421601348E+02  0.47000000000E+01 0. -1.
         -5    1    1    2    0  502  0.46250488495E+02  0.27433183626E+02  0.53671238082E+03  0.53942001907E+03  0.47000000000E+01 0. -1.
        -11    1    1    2    0    0 -0.13320860384E+02  0.17288882499E+02  0.34674711861E+02  0.40971775921E+02  0.00000000000E+00 0. -1.
         11    1    1    2    0    0 -0.59454230398E+02 -0.70929668603E+02  0.52757342937E+03  0.53563004656E+03  0.00000000000E+00 0.  1.
<mgrwt>
<rscale>  0 0.14717765E+03</rscale>
<asrwt>0</asrwt>
<pdfrwt beam="2">  1        1 0.26885767E-02 0.15424728E+03</pdfrwt>
<pdfrwt beam="1">  1       -1 0.17645651E+00 0.15424728E+03</pdfrwt>
<totfact> 0.95011411E+02</totfact>
</mgrwt>
</event>
<event>
 6    1  0.5258538E-006  0.1475539E+03  0.7546771E-02  0.1223439E+00
          1   -1    0    0  501    0  0.00000000000E+00  0.00000000000E+00  0.70339669495E+03  0.70339669495E+03  0.00000000000E+00 0. -1.
         -1   -1    0    0    0  501 -0.00000000000E+00 -0.00000000000E+00 -0.43717103443E+02  0.43717103443E+02  0.00000000000E+00 0.  1.
          5    1    1    2  502    0  0.16549842296E+01 -0.82761423842E+02  0.32185838933E+03  0.33236592038E+03  0.47000000000E+01 0. -1.
         -5    1    1    2    0  502 -0.11664480519E+02  0.62620053374E+02  0.30659367821E+03  0.31317583672E+03  0.47000000000E+01 0.  1.
        -11    1    1    2    0    0  0.16520553565E+02  0.73256087087E+01 -0.31989493420E+02  0.36741270015E+02  0.00000000000E+00 0.  1.
         11    1    1    2    0    0 -0.65110572758E+01  0.12815761759E+02  0.63217017388E+02  0.64830771272E+02  0.00000000000E+00 0. -1.
<mgrwt>
<rscale>  0 0.13274447E+03</rscale>
<asrwt>0</asrwt>
<pdfrwt beam="1">  1        1 0.10821487E+00 0.14755392E+03</pdfrwt>
<pdfrwt beam="2">  1       -1 0.67257087E-02 0.14755392E+03</pdfrwt>
<totfact> 0.30834470E+03</totfact>
</mgrwt>
</event>
<event>
 6    1  0.5258538E-006  0.4356193E+03  0.7546771E-02  0.1032099E+00
         -2   -1    0    0    0  501 -0.00000000000E+00  0.00000000000E+00  0.45962276767E+02  0.45962276767E+02  0.00000000000E+00 0.  1.
          2   -1    0    0  501    0  0.00000000000E+00 -0.00000000000E+00 -0.10321732820E+04  0.10321732820E+04  0.00000000000E+00 0. -1.
          5    1    1    2  502    0 -0.94899997456E+02  0.12958061160E+02 -0.34909776610E+03  0.36202936505E+03  0.47000000000E+01 0. -1.
         -5    1    1    2    0  502 -0.95704973674E+00 -0.31664751227E+02 -0.55170230105E+03  0.55263106264E+03  0.47000000000E+01 0. -1.
        -11    1    1    2    0    0  0.24314315518E+02  0.43361782778E+02 -0.70632752659E+02  0.86373699081E+02  0.00000000000E+00 0. -1.
         11    1    1    2    0    0  0.71542731674E+02 -0.24655092710E+02 -0.14778185439E+02  0.77101432002E+02  0.00000000000E+00 0.  1.
<mgrwt>
<rscale>  0 0.43561926E+03</rscale>
<asrwt>0</asrwt>
<pdfrwt beam="2">  1        2 0.15879589E+00 0.43561926E+03</pdfrwt>
<pdfrwt beam="1">  1       -2 0.70711195E-02 0.43561926E+03</pdfrwt>
<totfact> 0.28864494E+03</totfact>
</mgrwt>
</event>
<event>
 6    1  0.5258538E-006  0.3494301E+03  0.7546771E-02  0.1062849E+00
         -1   -1    0    0    0  501 -0.00000000000E+00  0.00000000000E+00  0.10976579735E+03  0.10976579735E+03  0.00000000000E+00 0.  1.
          1   -1    0    0  501    0  0.00000000000E+00 -0.00000000000E+00 -0.27809531478E+03  0.27809531478E+03  0.00000000000E+00 0. -1.
          5    1    1    2  502    0 -0.99905907590E+02 -0.56947010318E+02 -0.73109292601E+02  0.13634959120E+03  0.47000000000E+01 0. -1.
         -5    1    1    2    0  502  0.11320222989E+02 -0.52613462629E+01 -0.10828165559E+03  0.10910011984E+03  0.47000000000E+01 0. -1.
        -11    1    1    2    0    0  0.49731973212E+01  0.23021560436E+02 -0.31943756810E+02  0.39687889030E+02  0.00000000000E+00 0. -1.
         11    1    1    2    0    0  0.83612487280E+02  0.39186796145E+02  0.45005187569E+02  0.10272351206E+03  0.00000000000E+00 0.  1.
<mgrwt>
<rscale>  0 0.34943013E+03</rscale>
<asrwt>0</asrwt>
<pdfrwt beam="2">  1        1 0.42783894E-01 0.34943013E+03</pdfrwt>
<pdfrwt beam="1">  1       -1 0.16887046E-01 0.34943013E+03</pdfrwt>
<totfact> 0.25702788E+03</totfact>
</mgrwt>
</event>
<event>
 6    1  0.5258538E-006  0.1557580E+03  0.7546771E-02  0.1214760E+00
         -2   -1    0    0    0  501 -0.00000000000E+00  0.00000000000E+00  0.38416839422E+02  0.38416839422E+02  0.00000000000E+00 0.  1.
          2   -1    0    0  501    0  0.00000000000E+00 -0.00000000000E+00 -0.20538856696E+04  0.20538856696E+04  0.00000000000E+00 0. -1.
          5    1    1    2  502    0 -0.38845622093E+02 -0.41998306616E+01 -0.15210358487E+04  0.15215448610E+04  0.47000000000E+01 0. -1.
         -5    1    1    2    0  502  0.71361081819E+02 -0.90480923475E+01 -0.46102838974E+03  0.46662997988E+03  0.47000000000E+01 0.  1.
        -11    1    1    2    0    0 -0.64911789756E+02  0.59239538313E+01 -0.25455228547E+02  0.69975726782E+02  0.00000000000E+00 0.  1.
         11    1    1    2    0    0  0.32396330029E+02  0.73239691778E+01 -0.79493631645E+01  0.34151941359E+02  0.00000000000E+00 0. -1.
<mgrwt>
<rscale>  0 0.13894198E+03</rscale>
<asrwt>0</asrwt>
<pdfrwt beam="2">  1        2 0.31598240E+00 0.15575799E+03</pdfrwt>
<pdfrwt beam="1">  1       -2 0.59102832E-02 0.15575799E+03</pdfrwt>
<totfact> 0.10720783E+03</totfact>
</mgrwt>
</event>
<event>
 6    1  0.5258538E-006  0.1782082E+03  0.7546771E-02  0.1175484E+00
         -2   -1    0    0    0  501 -0.00000000000E+00  0.00000000000E+00  0.28829229052E+03  0.28829229052E+03  0.00000000000E+00 0.  1.
          2   -1    0    0  501    0  0.00000000000E+00 -0.00000000000E+00 -0.11378084704E+03  0.11378084704E+03  0.00000000000E+00 0. -1.
          5    1    1    2  502    0 -0.66242354147E+02  0.16978251257E+02  0.65336422958E+02  0.94695557782E+02  0.47000000000E+01 0. -1.
         -5    1    1    2    0  502 -0.38923668536E+02  0.54276773871E+02 -0.50885149408E+02  0.84097613429E+02  0.47000000000E+01 0. -1.
        -11    1    1    2    0    0  0.64518399663E+02 -0.71798755237E+02  0.15460457351E+03  0.18226425678E+03  0.00000000000E+00 0.  1.
         11    1    1    2    0    0  0.40647623019E+02  0.54373010831E+00  0.54555964177E+01  0.41015709573E+02  0.00000000000E+00 0. -1.
<mgrwt>
<rscale>  0 0.17228617E+03</rscale>
<asrwt>0</asrwt>
<pdfrwt beam="2">  1        2 0.17504746E-01 0.17820819E+03</pdfrwt>
<pdfrwt beam="1">  1       -2 0.44352660E-01 0.17820819E+03</pdfrwt>
<totfact> 0.15569741E+03</totfact>
</mgrwt>
</event>
<event>
 6    1  0.5258538E-006  0.2758911E+03  0.7546771E-02  0.1097955E+00
         -1   -1    0    0    0  501 -0.00000000000E+00  0.00000000000E+00  0.69101471418E+02  0.69101471418E+02  0.00000000000E+00 0.  1.
          1   -1    0    0  501    0  0.00000000000E+00 -0.00000000000E+00 -0.27537737046E+03  0.27537737046E+03  0.00000000000E+00 0. -1.
          5    1    1    2  502    0  0.29895394802E+02 -0.49319211069E+01 -0.59664693953E+02  0.67082219557E+02  0.47000000000E+01 0. -1.
         -5    1    1    2    0  502 -0.11196610860E+03  0.14244660009E+02 -0.87058135432E+02  0.14262022563E+03  0.47000000000E+01 0. -1.
        -11    1    1    2    0    0  0.14499686146E+02 -0.40725439137E+02 -0.37057380847E+02  0.56939017962E+02  0.00000000000E+00 0. -1.
         11    1    1    2    0    0  0.67571027647E+02  0.31412700235E+02 -0.22495688813E+02  0.77837378736E+02  0.00000000000E+00 0.  1.
<mgrwt>
<rscale>  0 0.27589115E+03</rscale>
<asrwt>0</asrwt>
<pdfrwt beam="2">  1        1 0.42365749E-01 0.27589115E+03</pdfrwt>
<pdfrwt beam="1">  1       -1 0.10630996E-01 0.27589115E+03</pdfrwt>
<totfact> 0.53766558E+03</totfact>
</mgrwt>
</event>
<event>
 6    1  0.5258538E-006  0.1442292E+03  0.7546771E-02  0.1217900E+00
         -1   -1    0    0    0  501 -0.00000000000E+00  0.00000000000E+00  0.34927555407E+02  0.34927555407E+02  0.00000000000E+00 0.  1.
          1   -1    0    0  501    0  0.00000000000E+00 -0.00000000000E+00 -0.20936431426E+04  0.20936431426E+04  0.00000000000E+00 0. -1.
          5    1    1    2  502    0  0.36213352206E+02 -0.95029815315E+02 -0.10967814936E+04  0.11014961677E+04  0.47000000000E+01 0. -1.
         -5    1    1    2    0  502 -0.81738540115E+01  0.28750077828E+02 -0.88970774672E+03  0.89022207535E+03  0.47000000000E+01 0. -1.
        -11    1    1    2    0    0  0.53390185025E+01 -0.18381892889E+02  0.22296053288E+01  0.19270968960E+02  0.00000000000E+00 0. -1.
         11    1    1    2    0    0 -0.33378516697E+02  0.84661630375E+02 -0.74455952144E+02  0.11758148598E+03  0.00000000000E+00 0.  1.
<mgrwt>
<rscale>  0 0.13665629E+03</rscale>
<asrwt>0</asrwt>
<pdfrwt beam="2">  1        1 0.32209886E+00 0.14422918E+03</pdfrwt>
<pdfrwt beam="1">  1       -1 0.53734715E-02 0.14422918E+03</pdfrwt>
<totfact> 0.47518314E+02</totfact>
</mgrwt>
</event>
<event>
 6    1  0.5258538E-006  0.1989860E+03  0.7546771E-02  0.1155014E+00
         -2   -1    0    0    0  501 -0.00000000000E+00  0.00000000000E+00  0.28314946608E+02  0.28314946608E+02  0.00000000000E+00 0.  1.
          2   -1    0    0  501    0  0.00000000000E+00 -0.00000000000E+00 -0.15127066783E+04  0.15127066783E+04  0.00000000000E+00 0. -1.
          5    1    1    2  502    0 -0.27539036160E+02  0.23030366922E+01 -0.48621415485E+02  0.56123386698E+02  0.47000000000E+01 0. -1.
         -5    1    1    2    0  502 -0.90718626834E+01  0.14813033160E+03 -0.10381831473E+04  0.10487474582E+04  0.47000000000E+01 0. -1.
        -11    1    1    2    0    0  0.58598181406E+02 -0.14533261680E+03 -0.34452398288E+03  0.37848657988E+03  0.00000000000E+00 0.  1.
         11    1    1    2    0    0 -0.21987282562E+02 -0.51007514940E+01 -0.53063185998E+02  0.57664200060E+02  0.00000000000E+00 0. -1.
<mgrwt>
<rscale>  0 0.19387321E+03</rscale>
<asrwt>0</asrwt>
<pdfrwt beam="2">  1        2 0.23272412E+00 0.19898600E+03</pdfrwt>
<pdfrwt beam="1">  1       -2 0.43561453E-02 0.19898600E+03</pdfrwt>
<totfact> 0.32376149E+03</totfact>
</mgrwt>
</event>
<event>
 6    1  0.5258538E-006  0.1255943E+03  0.7546771E-02  0.1248394E+00
          2   -1    0    0  501    0  0.00000000000E+00  0.00000000000E+00  0.13564301594E+04  0.13564301594E+04  0.00000000000E+00 0. -1.
         -2   -1    0    0    0  501 -0.00000000000E+00 -0.00000000000E+00 -0.13922566349E+02  0.13922566349E+02  0.00000000000E+00 0.  1.
          5    1    1    2  502    0 -0.43183076832E+02  0.39280276187E+02  0.81368155205E+03  0.81578641590E+03  0.47000000000E+01 0.  1.
         -5    1    1    2    0  502  0.32677984311E+02 -0.45507202422E+02  0.32810978018E+03  0.33289168506E+03  0.47000000000E+01 0.  1.
        -11    1    1    2    0    0  0.43318265609E+02 -0.18585994269E+02  0.68085629511E+02  0.82810411569E+02  0.00000000000E+00 0.  1.
         11    1    1    2    0    0 -0.32813173089E+02  0.24812920504E+02  0.13263063135E+03  0.13886421326E+03  0.00000000000E+00 0. -1.
<mgrwt>
<rscale>  0 0.11684536E+03</rscale>
<asrwt>0</asrwt>
<pdfrwt beam="1">  1        2 0.20868146E+00 0.12559432E+03</pdfrwt>
<pdfrwt beam="2">  1       -2 0.21419344E-02 0.12559432E+03</pdfrwt>
<totfact> 0.11030991E+04</totfact>
</mgrwt>
</event>
<event>
 6    1  0.5258538E-006  0.1337920E+03  0.7546771E-02  0.1235359E+00
          1   -1    0    0  501    0  0.00000000000E+00  0.00000000000E+00  0.62480322116E+03  0.62480322116E+03  0.00000000000E+00 0. -1.
         -1   -1    0    0    0  501 -0.00000000000E+00 -0.00000000000E+00 -0.37769632288E+02  0.37769632288E+02  0.00000000000E+00 0.  1.
          5    1    1    2  502    0 -0.54735462528E+02  0.14882641031E+02  0.12609107345E+03  0.13834201338E+03  0.47000000000E+01 0. -1.
         -5    1    1    2    0  502  0.26433951264E+02 -0.53330943834E+02  0.40319958271E+03  0.40759653684E+03  0.47000000000E+01 0. -1.
        -11    1    1    2    0    0 -0.12458087667E+02  0.26581563151E+02 -0.14576370851E+02  0.32775814788E+02  0.00000000000E+00 0.  1.
         11    1    1    2    0    0  0.40759598931E+02  0.11866739652E+02  0.72319303561E+02  0.83858488434E+02  0.00000000000E+00 0. -1.
<mgrwt>
<rscale>  0 0.12481458E+03</rscale>
<asrwt>0</asrwt>
<pdfrwt beam="1">  1        1 0.96123565E-01 0.13379201E+03</pdfrwt>
<pdfrwt beam="2">  1       -1 0.58107131E-02 0.13379201E+03</pdfrwt>
<totfact> 0.45137691E+03</totfact>
</mgrwt>
</event>
<event>
 6    1  0.5258538E-006  0.2491673E+03  0.7546771E-02  0.1113832E+00
          4   -1    0    0  501    0  0.00000000000E+00  0.00000000000E+00  0.50272633620E+03  0.50272633620E+03  0.00000000000E+00 0. -1.
         -4   -1    0    0    0  501 -0.00000000000E+00 -0.00000000000E+00 -0.30873832851E+02  0.30873832851E+02  0.00000000000E+00 0.  1.
          5    1    1    2  502    0 -0.87981613904E+02 -0.40114976680E+02  0.20234155483E+03  0.22430820437E+03  0.47000000000E+01 0.  1.
         -5    1    1    2    0  502  0.40403464680E+02  0.56645371731E+01  0.98855759985E+02  0.10704708413E+03  0.47000000000E+01 0.  1.
        -11    1    1    2    0    0  0.26153028931E+02  0.75342756030E+01 -0.94218257952E+00  0.27232956856E+02  0.00000000000E+00 0.  1.
         11    1    1    2    0    0  0.21425120293E+02  0.26916163904E+02  0.17159737112E+03  0.17501192369E+03  0.00000000000E+00 0. -1.
<mgrwt>
<rscale>  0 0.24916732E+03</rscale>
<asrwt>0</asrwt>
<pdfrwt beam="1">  1        4 0.77342507E-01 0.24916732E+03</pdfrwt>
<pdfrwt beam="2">  1       -4 0.47498208E-02 0.24916732E+03</pdfrwt>
<totfact> 0.73458314E+02</totfact>
</mgrwt>
</event>
<event>
 6    1  0.5258538E-006  0.3003055E+03  0.7546771E-02  0.1085088E+00
         -1   -1    0    0    0  501 -0.00000000000E+00  0.00000000000E+00  0.70801620479E+02  0.70801620479E+02  0.00000000000E+00 0.  1.
          1   -1    0    0  501    0  0.00000000000E+00 -0.00000000000E+00 -0.31843697164E+03  0.31843697164E+03  0.00000000000E+00 0. -1.
          5    1    1    2  502    0  0.28969230506E+02  0.54676168953E+01 -0.14234919167E+03  0.14544584394E+03  0.47000000000E+01 0.  1.
         -5    1    1    2    0  502 -0.72592979348E+01  0.87285598135E+02 -0.43390822419E+02  0.97858706912E+02  0.47000000000E+01 0.  1.
        -11    1    1    2    0    0 -0.24173583541E+02 -0.39305947120E+02 -0.77503059129E+02  0.90200021034E+02  0.00000000000E+00 0.  1.
         11    1    1    2    0    0  0.24636509695E+01 -0.53447267911E+02  0.15607722058E+02  0.55734020231E+02  0.00000000000E+00 0. -1.
<mgrwt>
<rscale>  0 0.30030554E+03</rscale>
<asrwt>0</asrwt>
<pdfrwt beam="2">  1        1 0.48990305E-01 0.30030554E+03</pdfrwt>
<pdfrwt beam="1">  1       -1 0.10892557E-01 0.30030554E+03</pdfrwt>
<totfact> 0.43219571E+03</totfact>
</mgrwt>
</event>
<event>
 6    1  0.5258538E-006  0.3748932E+03  0.7546771E-02  0.1052838E+00
          1   -1    0    0  501    0  0.00000000000E+00  0.00000000000E+00  0.85604497029E+03  0.85604497029E+03  0.00000000000E+00 0. -1.
         -1   -1    0    0    0  501 -0.00000000000E+00 -0.00000000000E+00 -0.41044828510E+02  0.41044828510E+02  0.00000000000E+00 0.  1.
          5    1    1    2  502    0  0.96202049392E+02 -0.77093623197E+02  0.42060052706E+03  0.43832083501E+03  0.47000000000E+01 0. -1.
         -5    1    1    2    0  502 -0.85668422843E+01  0.21335848867E+02  0.27575710397E+03  0.27675382495E+03  0.47000000000E+01 0. -1.
        -11    1    1    2    0    0 -0.38800297112E+02 -0.22855285133E+02  0.32026493675E+02  0.55258695348E+02  0.00000000000E+00 0.  1.
         11    1    1    2    0    0 -0.48834909996E+02  0.78613059463E+02  0.86616017084E+02  0.12675644350E+03  0.00000000000E+00 0. -1.
<mgrwt>
<rscale>  0 0.37489315E+03</rscale>
<asrwt>0</asrwt>
<pdfrwt beam="1">  1        1 0.13169921E+00 0.37489315E+03</pdfrwt>
<pdfrwt beam="2">  1       -1 0.63145896E-02 0.37489315E+03</pdfrwt>
<totfact> 0.25676426E+03</totfact>
</mgrwt>
</event>
<event>
 6    1  0.5258538E-006  0.1336203E+03  0.7546771E-02  0.1237250E+00
         -2   -1    0    0    0  501 -0.00000000000E+00  0.00000000000E+00  0.15726609366E+02  0.15726609366E+02  0.00000000000E+00 0.  1.
          2   -1    0    0  501    0  0.00000000000E+00 -0.00000000000E+00 -0.88102776778E+03  0.88102776778E+03  0.00000000000E+00 0. -1.
          5    1    1    2  502    0 -0.31086481110E+02  0.51657985404E+02 -0.25077765161E+03  0.25796596153E+03  0.47000000000E+01 0. -1.
         -5    1    1    2    0  502 -0.11501796946E+02 -0.71990733547E+02 -0.32705436397E+03  0.33511431488E+03  0.47000000000E+01 0. -1.
        -11    1    1    2    0    0  0.45165497051E+02 -0.19659911566E+02 -0.94287085822E+02  0.10637898664E+03  0.00000000000E+00 0.  1.
         11    1    1    2    0    0 -0.25772189946E+01  0.39992659708E+02 -0.19318205703E+03  0.19729511409E+03  0.00000000000E+00 0. -1.
<mgrwt>
<rscale>  0 0.12361519E+03</rscale>
<asrwt>0</asrwt>
<pdfrwt beam="2">  1        2 0.13554273E+00 0.13362027E+03</pdfrwt>
<pdfrwt beam="1">  1       -2 0.24194785E-02 0.13362027E+03</pdfrwt>
<totfact> 0.17359732E+04</totfact>
</mgrwt>
</event>
<event>
 6    1  0.5258538E-006  0.1254926E+03  0.7546771E-02  0.1246013E+00
          2   -1    0    0  501    0  0.00000000000E+00  0.00000000000E+00  0.10798023603E+04  0.10798023603E+04  0.00000000000E+00 0. -1.
         -2   -1    0    0    0  501 -0.00000000000E+00 -0.00000000000E+00 -0.11710897625E+02  0.11710897625E+02  0.00000000000E+00 0.  1.
          5    1    1    2  502    0 -0.55313323837E+02 -0.12231860354E+02  0.24849063936E+03  0.25490953308E+03  0.47000000000E+01 0.  1.
         -5    1    1    2    0  502  0.65240467233E+02  0.17214500742E+02  0.38380798086E+03  0.38972209813E+03  0.47000000000E+01 0.  1.
        -11    1    1    2    0    0  0.34173235525E+02  0.27670229724E+02  0.18448120846E+03  0.18964906516E+03  0.00000000000E+00 0.  1.
         11    1    1    2    0    0 -0.44100378922E+02 -0.32652870112E+02  0.25131163394E+03  0.25723256151E+03  0.00000000000E+00 0. -1.
<mgrwt>
<rscale>  0 0.11824946E+03</rscale>
<asrwt>0</asrwt>
<pdfrwt beam="1">  1        2 0.16612336E+00 0.12549261E+03</pdfrwt>
<pdfrwt beam="2">  1       -2 0.18016774E-02 0.12549261E+03</pdfrwt>
<totfact> 0.20115450E+04</totfact>
</mgrwt>
</event>
<event>
 6    1  0.5258538E-006  0.4454381E+03  0.7546771E-02  0.1029091E+00
         -2   -1    0    0    0  501 -0.00000000000E+00  0.00000000000E+00  0.91523639414E+02  0.91523639414E+02  0.00000000000E+00 0.  1.
          2   -1    0    0  501    0  0.00000000000E+00 -0.00000000000E+00 -0.54197766430E+03  0.54197766430E+03  0.00000000000E+00 0. -1.
          5    1    1    2  502    0  0.14247057393E+03  0.19667675708E+02 -0.41873995843E+03  0.44277525303E+03  0.47000000000E+01 0.  1.
         -5    1    1    2    0  502 -0.23081184905E+02 -0.55534087833E+01 -0.31588017508E+02  0.39792892528E+02  0.47000000000E+01 0.  1.
        -11    1    1    2    0    0 -0.69853227149E+02 -0.45071581791E+01  0.45019684842E+02  0.83225956535E+02  0.00000000000E+00 0.  1.
         11    1    1    2    0    0 -0.49536161880E+02 -0.96071087461E+01 -0.45145733784E+02  0.67707201620E+02  0.00000000000E+00 0. -1.
<mgrwt>
<rscale>  0 0.44543807E+03</rscale>
<asrwt>0</asrwt>
<pdfrwt beam="2">  1        2 0.83381180E-01 0.44543807E+03</pdfrwt>
<pdfrwt beam="1">  1       -2 0.14080560E-01 0.44543807E+03</pdfrwt>
<totfact> 0.21719387E+03</totfact>
</mgrwt>
</event>
<event>
 6    1  0.5258538E-006  0.1438767E+03  0.7546771E-02  0.1218293E+00
          1   -1    0    0  501    0  0.00000000000E+00  0.00000000000E+00  0.46096903800E+03  0.46096903800E+03  0.00000000000E+00 0. -1.
         -1   -1    0    0    0  501 -0.00000000000E+00 -0.00000000000E+00 -0.72667010214E+02  0.72667010214E+02  0.00000000000E+00 0.  1.
          5    1    1    2  502    0  0.26016854155E+02 -0.27160318713E+02  0.19036733964E+03  0.19410402782E+03  0.47000000000E+01 0.  1.
         -5    1    1    2    0  502 -0.95518634043E+02  0.11540129067E+02  0.20150222705E+03  0.22334328182E+03  0.47000000000E+01 0.  1.
        -11    1    1    2    0    0  0.74983590030E+02  0.24143242394E+02 -0.32739214162E+02  0.85307039985E+02  0.00000000000E+00 0.  1.
         11    1    1    2    0    0 -0.54818101417E+01 -0.85230527486E+01  0.29171675262E+02  0.30881698596E+02  0.00000000000E+00 0. -1.
<mgrwt>
<rscale>  0 0.13637432E+03</rscale>
<asrwt>0</asrwt>
<pdfrwt beam="1">  1        1 0.70918312E-01 0.14387668E+03</pdfrwt>
<pdfrwt beam="2">  1       -1 0.11179540E-01 0.14387668E+03</pdfrwt>
<totfact> 0.25217029E+03</totfact>
</mgrwt>
</event>
<event>
 6    1  0.5258538E-006  0.2547351E+03  0.7546771E-02  0.1113331E+00
         -1   -1    0    0    0  501 -0.00000000000E+00  0.00000000000E+00  0.30500306006E+02  0.30500306006E+02  0.00000000000E+00 0.  1.
          1   -1    0    0  501    0  0.00000000000E+00 -0.00000000000E+00 -0.19850891910E+04  0.19850891910E+04  0.00000000000E+00 0. -1.
          5    1    1    2  502    0 -0.30686356202E+02  0.13410662749E+02 -0.17833546961E+03  0.18151343767E+03  0.47000000000E+01 0.  1.
         -5    1    1    2    0  502  0.91669945940E+02  0.20000593387E+03 -0.90682735174E+03  0.93314719548E+03  0.47000000000E+01 0.  1.
        -11    1    1    2    0    0 -0.60189366517E+02 -0.14624796675E+03 -0.47001595544E+03  0.49590949375E+03  0.00000000000E+00 0.  1.
         11    1    1    2    0    0 -0.79422322153E+00 -0.67168629870E+02 -0.39941010820E+03  0.40501937011E+03  0.00000000000E+00 0. -1.
<mgrwt>
<rscale>  0 0.24995844E+03</rscale>
<asrwt>0</asrwt>
<pdfrwt beam="2">  1        1 0.30539838E+00 0.25473511E+03</pdfrwt>
<pdfrwt beam="1">  1       -1 0.46923542E-02 0.25473511E+03</pdfrwt>
<totfact> 0.66916698E+02</totfact>
</mgrwt>
</event>
<event>
 6    1  0.5258538E-006  0.3057474E+03  0.7546771E-02  0.1082402E+00
          1   -1    0    0  501    0  0.00000000000E+00  0.00000000000E+00  0.41366995592E+03  0.41366995592E+03  0.00000000000E+00 0. -1.
         -1   -1    0    0    0  501 -0.00000000000E+00 -0.00000000000E+00 -0.56495191106E+02  0.56495191106E+02  0.00000000000E+00 0.  1.
          5    1    1    2  502    0 -0.11468870971E+03  0.10294580335E+02  0.27883833396E+03  0.30171573543E+03  0.47000000000E+01 0. -1.
         -5    1    1    2    0  502  0.23456530342E+02  0.54903454341E+01  0.12677308250E+02  0.27625293720E+02  0.47000000000E+01 0.  1.
        -11    1    1    2    0    0  0.27002505712E+02 -0.13480807094E+02 -0.18142677785E+02  0.35213977791E+02  0.00000000000E+00 0.  1.
         11    1    1    2    0    0  0.64229673656E+02 -0.23041186745E+01  0.83801800394E+02  0.10561014009E+03  0.00000000000E+00 0. -1.
<mgrwt>
<rscale>  0 0.30574737E+03</rscale>
<asrwt>0</asrwt>
<pdfrwt beam="1">  1        1 0.63641530E-01 0.30574737E+03</pdfrwt>
<pdfrwt beam="2">  1       -1 0.86915681E-02 0.30574737E+03</pdfrwt>
<totfact> 0.43901372E+03</totfact>
</mgrwt>
</event>
<event>
 6    1  0.5258538E-006  0.1297498E+03  0.7546771E-02  0.1241057E+00
          2   -1    0    0  501    0  0.00000000000E+00  0.00000000000E+00  0.29110671767E+03  0.29110671767E+03  0.00000000000E+00 0. -1.
         -2   -1    0    0    0  501 -0.00000000000E+00 -0.00000000000E+00 -0.49811517553E+02  0.49811517553E+02  0.00000000000E+00 0.  1.
          5    1    1    2  502    0  0.24725768542E+02  0.24692249500E+02  0.75502924339E+01  0.36057838693E+02  0.47000000000E+01 0. -1.
         -5    1    1    2    0  502 -0.30312094881E+02 -0.59061712104E+02  0.18078186916E+03  0.19264289021E+03  0.47000000000E+01 0. -1.
        -11    1    1    2    0    0  0.33255693125E+02 -0.16286756899E+02  0.36962456375E+02  0.52320385671E+02  0.00000000000E+00 0. -1.
         11    1    1    2    0    0 -0.27669366786E+02  0.50656219504E+02  0.16000582151E+02  0.59897120649E+02  0.00000000000E+00 0.  1.
<mgrwt>
<rscale>  0 0.12124536E+03</rscale>
<asrwt>0</asrwt>
<pdfrwt beam="1">  1        2 0.44785648E-01 0.12974984E+03</pdfrwt>
<pdfrwt beam="2">  1       -2 0.76633105E-02 0.12974984E+03</pdfrwt>
<totfact> 0.10757924E+04</totfact>
</mgrwt>
</event>
<event>
 6    1  0.5258538E-006  0.1716133E+03  0.7546771E-02  0.1182617E+00
          1   -1    0    0  501    0  0.00000000000E+00  0.00000000000E+00  0.14714650418E+03  0.14714650418E+03  0.00000000000E+00 0. -1.
         -1   -1    0    0    0  501 -0.00000000000E+00 -0.00000000000E+00 -0.19482566901E+03  0.19482566901E+03  0.00000000000E+00 0.  1.
          5    1    1    2  502    0  0.48055330918E+02 -0.16674952528E+02  0.19667628468E+02  0.54738236005E+02  0.47000000000E+01 0. -1.
         -5    1    1    2    0  502  0.10847748798E+02  0.11846895090E+03  0.10652591160E+02  0.11953298156E+03  0.47000000000E+01 0. -1.
        -11    1    1    2    0    0 -0.58011461246E+02 -0.18499845825E+02 -0.53016889012E+02  0.80736388648E+02  0.00000000000E+00 0.  1.
         11    1    1    2    0    0 -0.89161847015E+00 -0.83294152546E+02 -0.24982495437E+02  0.86964566981E+02  0.00000000000E+00 0. -1.
<mgrwt>
<rscale>  0 0.16550611E+03</rscale>
<asrwt>0</asrwt>
<pdfrwt beam="1">  1        1 0.22637924E-01 0.17161335E+03</pdfrwt>
<pdfrwt beam="2">  1       -1 0.29973180E-01 0.17161335E+03</pdfrwt>
<totfact> 0.21849696E+03</totfact>
</mgrwt>
</event>
<event>
 6    1  0.5258538E-006  0.1291398E+03  0.7546771E-02  0.1246076E+00
         -3   -1    0    0    0  501 -0.00000000000E+00  0.00000000000E+00  0.96937451879E+02  0.96937451879E+02  0.00000000000E+00 0.  1.
          3   -1    0    0  501    0  0.00000000000E+00 -0.00000000000E+00 -0.13649468545E+03  0.13649468545E+03  0.00000000000E+00 0. -1.
          5    1    1    2  502    0 -0.35401079929E+02  0.27948479196E+02  0.13194014638E+02  0.47228444520E+02  0.47000000000E+01 0.  1.
         -5    1    1    2    0  502  0.22959871920E+02 -0.57907911138E+02 -0.70090678510E+02  0.93889696480E+02  0.47000000000E+01 0.  1.
        -11    1    1    2    0    0 -0.67423568035E+01  0.45411757222E+02 -0.17936263422E+02  0.49288909654E+02  0.00000000000E+00 0. -1.
         11    1    1    2    0    0  0.19183564812E+02 -0.15452325280E+02  0.35275693725E+02  0.43025086674E+02  0.00000000000E+00 0.  1.
<mgrwt>
<rscale>  0 0.11821218E+03</rscale>
<asrwt>0</asrwt>
<pdfrwt beam="2">  1        3 0.20999182E-01 0.12913984E+03</pdfrwt>
<pdfrwt beam="1">  1       -3 0.14913454E-01 0.12913984E+03</pdfrwt>
<totfact> 0.17551675E+03</totfact>
</mgrwt>
</event>
<event>
 6    1  0.5258538E-006  0.1676276E+03  0.7546771E-02  0.1186707E+00
         -2   -1    0    0    0  501 -0.00000000000E+00  0.00000000000E+00  0.26969663744E+02  0.26969663744E+02  0.00000000000E+00 0.  1.
          2   -1    0    0  501    0  0.00000000000E+00 -0.00000000000E+00 -0.93654667495E+03  0.93654667495E+03  0.00000000000E+00 0. -1.
          5    1    1    2  502    0  0.61789265227E+02 -0.26123031206E+02 -0.40989077473E+03  0.41537075398E+03  0.47000000000E+01 0. -1.
         -5    1    1    2    0  502 -0.18894689925E+02 -0.77005236716E+02 -0.15951435077E+03  0.17819577405E+03  0.47000000000E+01 0. -1.
        -11    1    1    2    0    0  0.46979423480E+01  0.63935700411E+02 -0.79714519926E+02  0.10229491256E+03  0.00000000000E+00 0.  1.
         11    1    1    2    0    0 -0.47592517650E+02  0.39192567510E+02 -0.26045736579E+03  0.26765489810E+03  0.00000000000E+00 0. -1.
<mgrwt>
<rscale>  0 0.16177545E+03</rscale>
<asrwt>0</asrwt>
<pdfrwt beam="2">  1        2 0.14408407E+00 0.16762764E+03</pdfrwt>
<pdfrwt beam="1">  1       -2 0.41491799E-02 0.16762764E+03</pdfrwt>
<totfact> 0.73184531E+03</totfact>
</mgrwt>
</event>
<event>
 6    1  0.5258538E-006  0.3855872E+03  0.7546771E-02  0.1048888E+00
          2   -1    0    0  501    0  0.00000000000E+00  0.00000000000E+00  0.78177462900E+03  0.78177462900E+03  0.00000000000E+00 0. -1.
         -2   -1    0    0    0  501 -0.00000000000E+00 -0.00000000000E+00 -0.47544878974E+02  0.47544878974E+02  0.00000000000E+00 0.  1.
          5    1    1    2  502    0  0.74945322316E+02 -0.86025582603E+02  0.55910230802E+03  0.57064409489E+03  0.47000000000E+01 0.  1.
         -5    1    1    2    0  502 -0.22660941589E+00  0.36345876900E+02  0.11096702877E+03  0.11686250722E+03  0.47000000000E+01 0.  1.
        -11    1    1    2    0    0 -0.41996655592E+02  0.12873981416E+02 -0.16817689702E+02  0.47035020626E+02  0.00000000000E+00 0.  1.
         11    1    1    2    0    0 -0.32722057309E+02  0.36805724288E+02  0.80978102933E+02  0.94777885235E+02  0.00000000000E+00 0. -1.
<mgrwt>
<rscale>  0 0.38558724E+03</rscale>
<asrwt>0</asrwt>
<pdfrwt beam="1">  1        2 0.12027301E+00 0.38558724E+03</pdfrwt>
<pdfrwt beam="2">  1       -2 0.73145973E-02 0.38558724E+03</pdfrwt>
<totfact> 0.39957768E+03</totfact>
</mgrwt>
</event>
<event>
 6    1  0.5258538E-006  0.1335625E+03  0.7546771E-02  0.1235400E+00
          1   -1    0    0  501    0  0.00000000000E+00  0.00000000000E+00  0.34540826064E+03  0.34540826064E+03  0.00000000000E+00 0. -1.
         -1   -1    0    0    0  501 -0.00000000000E+00 -0.00000000000E+00 -0.40506420686E+02  0.40506420686E+02  0.00000000000E+00 0.  1.
          5    1    1    2  502    0 -0.10021855380E+02 -0.30566993339E+02  0.12784694458E+03  0.13191554080E+03  0.47000000000E+01 0. -1.
         -5    1    1    2    0  502  0.22539060166E+02  0.75922048281E+02  0.64454385528E+02  0.10221851330E+03  0.47000000000E+01 0. -1.
        -11    1    1    2    0    0 -0.28463848511E+02  0.86681766021E+01  0.82951163573E+02  0.88126179401E+02  0.00000000000E+00 0.  1.
         11    1    1    2    0    0  0.15946643725E+02 -0.54023231544E+02  0.29649346271E+02  0.63654447816E+02  0.00000000000E+00 0. -1.
<mgrwt>
<rscale>  0 0.12478878E+03</rscale>
<asrwt>0</asrwt>
<pdfrwt beam="1">  1        1 0.53139731E-01 0.13356255E+03</pdfrwt>
<pdfrwt beam="2">  1       -1 0.62317572E-02 0.13356255E+03</pdfrwt>
<totfact> 0.87587605E+03</totfact>
</mgrwt>
</event>
<event>
 6    1  0.5258538E-006  0.4331549E+03  0.7546771E-02  0.1032868E+00
          2   -1    0    0  501    0  0.00000000000E+00  0.00000000000E+00  0.22231402069E+03  0.22231402069E+03  0.00000000000E+00 0. -1.
         -2   -1    0    0    0  501 -0.00000000000E+00 -0.00000000000E+00 -0.21098887977E+03  0.21098887977E+03  0.00000000000E+00 0.  1.
          5    1    1    2  502    0  0.53590737265E+01  0.24068552480E+02  0.21944959956E+02  0.33341957909E+02  0.47000000000E+01 0.  1.
         -5    1    1    2    0  502 -0.10234645945E+03 -0.12750829058E+03  0.10594370271E+03  0.19488283679E+03  0.47000000000E+01 0.  1.
        -11    1    1    2    0    0  0.86867778669E+02  0.26150217249E+02 -0.65480047271E+02  0.11188155086E+03  0.00000000000E+00 0.  1.
         11    1    1    2    0    0  0.10119607058E+02  0.77289520853E+02 -0.51083474482E+02  0.93196554903E+02  0.00000000000E+00 0. -1.
<mgrwt>
<rscale>  0 0.43315487E+03</rscale>
<asrwt>0</asrwt>
<pdfrwt beam="1">  1        2 0.34202157E-01 0.43315487E+03</pdfrwt>
<pdfrwt beam="2">  1       -2 0.32459828E-01 0.43315487E+03</pdfrwt>
<totfact> 0.13514344E+03</totfact>
</mgrwt>
</event>
<event>
 6    1  0.5258538E-006  0.1913373E+03  0.7546771E-02  0.1168575E+00
          2   -1    0    0  501    0  0.00000000000E+00  0.00000000000E+00  0.27367885075E+03  0.27367885075E+03  0.00000000000E+00 0. -1.
         -2   -1    0    0    0  501 -0.00000000000E+00 -0.00000000000E+00 -0.18442615928E+03  0.18442615928E+03  0.00000000000E+00 0.  1.
          5    1    1    2  502    0 -0.92969078875E+02 -0.53016035711E+01  0.60035401178E+02  0.11089497744E+03  0.47000000000E+01 0. -1.
         -5    1    1    2    0  502  0.68840650689E+01  0.89150931981E+02  0.13775325842E+03  0.16429646749E+03  0.47000000000E+01 0.  1.
        -11    1    1    2    0    0  0.64234195171E+02 -0.81596597235E+02 -0.40576464530E+02  0.11149208933E+03  0.00000000000E+00 0. -1.
         11    1    1    2    0    0  0.21850818635E+02 -0.22527311757E+01 -0.67959503597E+02  0.71421475775E+02  0.00000000000E+00 0.  1.
<mgrwt>
<rscale>  0 0.17920515E+03</rscale>
<asrwt>0</asrwt>
<pdfrwt beam="1">  1        2 0.42104438E-01 0.19133734E+03</pdfrwt>
<pdfrwt beam="2">  1       -2 0.28373255E-01 0.19133734E+03</pdfrwt>
<totfact> 0.13576100E+03</totfact>
</mgrwt>
</event>
<event>
 6    1  0.5258538E-006  0.1291484E+03  0.7546771E-02  0.1256264E+00
         -2   -1    0    0    0  501 -0.00000000000E+00  0.00000000000E+00  0.29575590949E+03  0.29575590949E+03  0.00000000000E+00 0.  1.
          2   -1    0    0  501    0  0.00000000000E+00 -0.00000000000E+00 -0.39955279772E+02  0.39955279772E+02  0.00000000000E+00 0. -1.
          5    1    1    2  502    0  0.31692293226E+02 -0.73730762493E+02  0.54428551043E+02  0.97083386613E+02  0.47000000000E+01 0.  1.
         -5    1    1    2    0  502 -0.19997620597E+02  0.43443494750E+02  0.45925244282E+02  0.66471498614E+02  0.47000000000E+01 0.  1.
        -11    1    1    2    0    0  0.12946711877E+02  0.39929514290E+02  0.12478258941E+03  0.13165362919E+03  0.00000000000E+00 0.  1.
         11    1    1    2    0    0 -0.24641384506E+02 -0.96422465473E+01  0.30664244983E+02  0.40502674841E+02  0.00000000000E+00 0. -1.
<mgrwt>
<rscale>  0 0.11235843E+03</rscale>
<asrwt>0</asrwt>
<pdfrwt beam="2">  1        2 0.61469663E-02 0.12914843E+03</pdfrwt>
<pdfrwt beam="1">  1       -2 0.45500908E-01 0.12914843E+03</pdfrwt>
<totfact> 0.52389989E+03</totfact>
</mgrwt>
</event>
<event>
 6    1  0.5258538E-006  0.1432370E+03  0.7546771E-02  0.1227416E+00
         -2   -1    0    0    0  501 -0.00000000000E+00  0.00000000000E+00  0.68854345687E+02  0.68854345687E+02  0.00000000000E+00 0.  1.
          2   -1    0    0  501    0  0.00000000000E+00 -0.00000000000E+00 -0.28451192220E+03  0.28451192220E+03  0.00000000000E+00 0. -1.
          5    1    1    2  502    0 -0.66069057059E+02  0.64585335022E+01 -0.14679127655E+03  0.16117258398E+03  0.47000000000E+01 0. -1.
         -5    1    1    2    0  502  0.68416369804E+02 -0.39046124568E+01 -0.65431788530E+02  0.94865455281E+02  0.47000000000E+01 0.  1.
        -11    1    1    2    0    0  0.23596466266E+02 -0.42881131109E+02 -0.59820828258E+01  0.49308923537E+02  0.00000000000E+00 0.  1.
         11    1    1    2    0    0 -0.25943779011E+02  0.40327210063E+02  0.25475713966E+01  0.48019305086E+02  0.00000000000E+00 0. -1.
<mgrwt>
<rscale>  0 0.13002700E+03</rscale>
<asrwt>0</asrwt>
<pdfrwt beam="2">  1        2 0.43771065E-01 0.14323704E+03</pdfrwt>
<pdfrwt beam="1">  1       -2 0.10592976E-01 0.14323704E+03</pdfrwt>
<totfact> 0.67011728E+03</totfact>
</mgrwt>
</event>
<event>
 6    1  0.5258538E-006  0.1537014E+03  0.7546771E-02  0.1204355E+00
         -1   -1    0    0    0  501 -0.00000000000E+00  0.00000000000E+00  0.30890959054E+02  0.30890959054E+02  0.00000000000E+00 0. -1.
          1   -1    0    0  501    0  0.00000000000E+00 -0.00000000000E+00 -0.12727918339E+04  0.12727918339E+04  0.00000000000E+00 0.  1.
          5    1    1    2  502    0 -0.76488315659E+02  0.85554595143E+02 -0.67431562897E+03  0.68402756425E+03  0.47000000000E+01 0. -1.
         -5    1    1    2    0  502  0.24537307544E+02 -0.12757289375E+02 -0.43255959936E+03  0.43346825130E+03  0.47000000000E+01 0. -1.
        -11    1    1    2    0    0  0.31662358284E+02 -0.71546309218E+02 -0.14406593828E+03  0.16394015331E+03  0.00000000000E+00 0.  1.
         11    1    1    2    0    0  0.20288649831E+02 -0.12509965495E+01  0.90402918021E+01  0.22246824047E+02  0.00000000000E+00 0. -1.
<mgrwt>
<rscale>  0 0.14688425E+03</rscale>
<asrwt>0</asrwt>
<pdfrwt beam="2">  1        1 0.19581409E+00 0.15370142E+03</pdfrwt>
<pdfrwt beam="1">  1       -1 0.47524562E-02 0.15370142E+03</pdfrwt>
<totfact> 0.19312830E+03</totfact>
</mgrwt>
</event>
<event>
 6    1  0.5258538E-006  0.1789735E+03  0.7546771E-02  0.1174506E+00
          2   -1    0    0  501    0  0.00000000000E+00  0.00000000000E+00  0.11072174225E+03  0.11072174225E+03  0.00000000000E+00 0.  1.
         -2   -1    0    0    0  501 -0.00000000000E+00 -0.00000000000E+00 -0.26323936179E+03  0.26323936179E+03  0.00000000000E+00 0. -1.
          5    1    1    2  502    0  0.22984636386E+02  0.10034990501E+03  0.10071666316E+02  0.10354673055E+03  0.47000000000E+01 0. -1.
         -5    1    1    2    0  502 -0.51723720249E+02  0.24471595133E+02 -0.58270983226E+02  0.81803421022E+02  0.47000000000E+01 0. -1.
        -11    1    1    2    0    0  0.40195840755E+02 -0.53805010449E+02 -0.69042929555E+01  0.67515583569E+02  0.00000000000E+00 0.  1.
         11    1    1    2    0    0 -0.11456756892E+02 -0.71016489694E+02 -0.97414009676E+02  0.12109536890E+03  0.00000000000E+00 0. -1.
<mgrwt>
<rscale>  0 0.17324494E+03</rscale>
<asrwt>0</asrwt>
<pdfrwt beam="1">  1        2 0.17034114E-01 0.17897347E+03</pdfrwt>
<pdfrwt beam="2">  1       -2 0.40498363E-01 0.17897347E+03</pdfrwt>
<totfact> 0.19144280E+03</totfact>
</mgrwt>
</event>
<event>
 6    1  0.5258538E-006  0.3159386E+03  0.7546771E-02  0.1078945E+00
         -1   -1    0    0    0  501 -0.00000000000E+00  0.00000000000E+00  0.36083138930E+03  0.36083138930E+03  0.00000000000E+00 0. -1.
          1   -1    0    0  501    0  0.00000000000E+00 -0.00000000000E+00 -0.37717957436E+03  0.37717957436E+03  0.00000000000E+00 0.  1.
          5    1    1    2  502    0 -0.74528219348E+02  0.13379503040E+02 -0.15061899562E+02  0.77346088454E+02  0.47000000000E+01 0.  1.
         -5    1    1    2    0  502 -0.19187446128E+03 -0.12834485047E+03 -0.19319681037E+03  0.30105698310E+03  0.47000000000E+01 0.  1.
        -11    1    1    2    0    0  0.21487134525E+03  0.84619572141E+02  0.19118162750E+03  0.29980090342E+03  0.00000000000E+00 0. -1.
         11    1    1    2    0    0  0.51531335384E+02  0.30345775291E+02  0.72889736429E+00  0.59806988688E+02  0.00000000000E+00 0.  1.
<mgrwt>
<rscale>  0 0.31294124E+03</rscale>
<asrwt>0</asrwt>
<pdfrwt beam="2">  1        1 0.58027626E-01 0.31593859E+03</pdfrwt>
<pdfrwt beam="1">  1       -1 0.55512522E-01 0.31593859E+03</pdfrwt>
<totfact> 0.22150983E+02</totfact>
</mgrwt>
</event>
<event>
 6    1  0.5258538E-006  0.1330733E+03  0.7546771E-02  0.1234964E+00
         -2   -1    0    0    0  501 -0.00000000000E+00  0.00000000000E+00  0.22404282775E+02  0.22404282775E+02  0.00000000000E+00 0.  1.
          2   -1    0    0  501    0  0.00000000000E+00 -0.00000000000E+00 -0.62635811154E+03  0.62635811154E+03  0.00000000000E+00 0. -1.
          5    1    1    2  502    0 -0.39212827184E+02 -0.49213948287E+02 -0.67665234905E+02  0.92522065133E+02  0.47000000000E+01 0.  1.
         -5    1    1    2    0  502  0.13528447685E+02  0.11488408680E+02 -0.26698856111E+03  0.26761910282E+03  0.47000000000E+01 0.  1.
        -11    1    1    2    0    0  0.19219335841E+02 -0.11172913497E+02 -0.94919907535E+01  0.24172603390E+02  0.00000000000E+00 0.  1.
         11    1    1    2    0    0  0.64650436572E+01  0.48898453104E+02 -0.25980804199E+03  0.26444862297E+03  0.00000000000E+00 0. -1.
<mgrwt>
<rscale>  0 0.12506737E+03</rscale>
<asrwt>0</asrwt>
<pdfrwt beam="2">  1        2 0.96362780E-01 0.13307328E+03</pdfrwt>
<pdfrwt beam="1">  1       -2 0.34468130E-02 0.13307328E+03</pdfrwt>
<totfact> 0.15620609E+04</totfact>
</mgrwt>
</event>
<event>
 6    1  0.5258538E-006  0.1428269E+03  0.7546771E-02  0.1220315E+00
         -4   -1    0    0    0  501 -0.00000000000E+00  0.00000000000E+00  0.18933172491E+03  0.18933172491E+03  0.00000000000E+00 0.  1.
          4   -1    0    0  501    0  0.00000000000E+00 -0.00000000000E+00 -0.87273547878E+02  0.87273547878E+02  0.00000000000E+00 0. -1.
          5    1    1    2  502    0  0.46684435210E+02 -0.87691289181E+02  0.29190332709E+02  0.10365020122E+03  0.47000000000E+01 0. -1.
         -5    1    1    2    0  502  0.23234974081E+01  0.38998917196E+02  0.36068505480E+02  0.53379221334E+02  0.47000000000E+01 0. -1.
        -11    1    1    2    0    0 -0.13001043338E+02 -0.88786704298E+01 -0.23818568024E+02  0.28551393998E+02  0.00000000000E+00 0. -1.
         11    1    1    2    0    0 -0.36006889280E+02  0.57571042415E+02  0.60617906867E+02  0.91024456237E+02  0.00000000000E+00 0.  1.
<mgrwt>
<rscale>  0 0.13493260E+03</rscale>
<asrwt>0</asrwt>
<pdfrwt beam="2">  1        4 0.13426700E-01 0.14282690E+03</pdfrwt>
<pdfrwt beam="1">  1       -4 0.29127958E-01 0.14282690E+03</pdfrwt>
<totfact> 0.85912921E+02</totfact>
</mgrwt>
</event>
<event>
 6    1  0.5258538E-006  0.1384475E+03  0.7546771E-02  0.1226955E+00
         -2   -1    0    0    0  501 -0.00000000000E+00  0.00000000000E+00  0.50800525296E+02  0.50800525296E+02  0.00000000000E+00 0.  1.
          2   -1    0    0  501    0  0.00000000000E+00 -0.00000000000E+00 -0.34430694243E+03  0.34430694243E+03  0.00000000000E+00 0. -1.
          5    1    1    2  502    0 -0.45662378313E+02  0.39221030874E+02 -0.14203720388E+03  0.15433729083E+03  0.47000000000E+01 0.  1.
         -5    1    1    2    0  502  0.71363395715E+02  0.14457155985E+02 -0.89961268986E+02  0.11583118546E+03  0.47000000000E+01 0.  1.
        -11    1    1    2    0    0 -0.44313498019E+02 -0.61650015615E+02 -0.69729674359E+02  0.10308558589E+03  0.00000000000E+00 0. -1.
         11    1    1    2    0    0  0.18612480617E+02  0.79718287554E+01  0.82217300874E+01  0.21853405548E+02  0.00000000000E+00 0.  1.
<mgrwt>
<rscale>  0 0.13033799E+03</rscale>
<asrwt>0</asrwt>
<pdfrwt beam="2">  1        2 0.52970299E-01 0.13844751E+03</pdfrwt>
<pdfrwt beam="1">  1       -2 0.78154653E-02 0.13844751E+03</pdfrwt>
<totfact> 0.87782477E+03</totfact>
</mgrwt>
</event>
<event>
 6    1  0.5258538E-006  0.2957706E+03  0.7546771E-02  0.1087374E+00
         -1   -1    0    0    0  501 -0.00000000000E+00  0.00000000000E+00  0.89164454675E+02  0.89164454675E+02  0.00000000000E+00 0.  1.
          1   -1    0    0  501    0  0.00000000000E+00 -0.00000000000E+00 -0.24527784626E+03  0.24527784626E+03  0.00000000000E+00 0. -1.
          5    1    1    2  502    0 -0.22085446898E+02  0.28158208856E+02  0.11379082177E+01  0.36111445911E+02  0.47000000000E+01 0. -1.
         -5    1    1    2    0  502 -0.17293522339E+02 -0.86776524467E+02 -0.12673444128E+03  0.15463809272E+03  0.47000000000E+01 0. -1.
        -11    1    1    2    0    0  0.72270071923E+02  0.83813957953E+01 -0.39806006115E+02  0.82932075906E+02  0.00000000000E+00 0.  1.
         11    1    1    2    0    0 -0.32891102687E+02  0.50236919816E+02  0.92891475923E+01  0.60760686398E+02  0.00000000000E+00 0. -1.
<mgrwt>
<rscale>  0 0.29577062E+03</rscale>
<asrwt>0</asrwt>
<pdfrwt beam="2">  1        1 0.37735053E-01 0.29577062E+03</pdfrwt>
<pdfrwt beam="1">  1       -1 0.13717609E-01 0.29577062E+03</pdfrwt>
<totfact> 0.41812773E+03</totfact>
</mgrwt>
</event>
<event>
 6    1  0.5258538E-006  0.3188248E+03  0.7546771E-02  0.1077518E+00
          2   -1    0    0  501    0  0.00000000000E+00  0.00000000000E+00  0.59391264945E+03  0.59391264945E+03  0.00000000000E+00 0. -1.
         -2   -1    0    0    0  501 -0.00000000000E+00 -0.00000000000E+00 -0.17957660558E+03  0.17957660558E+03  0.00000000000E+00 0.  1.
          5    1    1    2  502    0  0.11873462424E+03  0.98104718378E+02  0.15564119122E+03  0.21901761839E+03  0.47000000000E+01 0. -1.
         -5    1    1    2    0  502  0.12513683312E+02  0.16418628725E+03  0.16449772469E+03  0.23279888448E+03  0.47000000000E+01 0. -1.
        -11    1    1    2    0    0 -0.13137518831E+03 -0.16988059402E+03  0.58209464498E+02  0.22250213052E+03  0.00000000000E+00 0. -1.
         11    1    1    2    0    0  0.12688075797E+00 -0.92410411607E+02  0.35987663472E+02  0.99170621629E+02  0.00000000000E+00 0.  1.
<mgrwt>
<rscale>  0 0.31597343E+03</rscale>
<asrwt>0</asrwt>
<pdfrwt beam="1">  1        2 0.91371176E-01 0.31882476E+03</pdfrwt>
<pdfrwt beam="2">  1       -2 0.27627170E-01 0.31882476E+03</pdfrwt>
<totfact> 0.60858899E+02</totfact>
</mgrwt>
</event>
<event>
 6    1  0.5258538E-006  0.1314849E+03  0.7546771E-02  0.1240114E+00
          2   -1    0    0  501    0  0.00000000000E+00  0.00000000000E+00  0.35559415097E+02  0.35559415097E+02  0.00000000000E+00 0. -1.
         -2   -1    0    0    0  501 -0.00000000000E+00 -0.00000000000E+00 -0.36700685105E+03  0.36700685105E+03  0.00000000000E+00 0.  1.
          5    1    1    2  502    0 -0.29300613000E+02  0.47142851187E+02 -0.19658458828E+03  0.20432465512E+03  0.47000000000E+01 0.  1.
         -5    1    1    2    0  502 -0.44231422505E+00 -0.19216309408E+02  0.11365419637E+02  0.22819398605E+02  0.47000000000E+01 0.  1.
        -11    1    1    2    0    0 -0.18519824556E+02  0.15899140596E+02 -0.74964171674E+02  0.78837767650E+02  0.00000000000E+00 0.  1.
         11    1    1    2    0    0  0.48262751781E+02 -0.43825682375E+02 -0.71264095631E+02  0.96584444768E+02  0.00000000000E+00 0. -1.
<mgrwt>
<rscale>  0 0.12182644E+03</rscale>
<asrwt>0</asrwt>
<pdfrwt beam="1">  1        2 0.54706797E-02 0.13148491E+03</pdfrwt>
<pdfrwt beam="2">  1       -2 0.56462588E-01 0.13148491E+03</pdfrwt>
<totfact> 0.39749992E+03</totfact>
</mgrwt>
</event>
<event>
 6    1  0.5258538E-006  0.1423267E+03  0.7546771E-02  0.1220728E+00
         -2   -1    0    0    0  501 -0.00000000000E+00  0.00000000000E+00  0.14952286609E+02  0.14952286609E+02  0.00000000000E+00 0.  1.
          2   -1    0    0  501    0  0.00000000000E+00 -0.00000000000E+00 -0.11245581753E+04  0.11245581753E+04  0.00000000000E+00 0. -1.
          5    1    1    2  502    0  0.60430585053E+02  0.33489312380E+02 -0.61307201650E+03  0.61697064523E+03  0.47000000000E+01 0. -1.
         -5    1    1    2    0  502  0.69165850379E+01 -0.43236457507E+02 -0.88014867192E+02  0.98417159343E+02  0.47000000000E+01 0. -1.
        -11    1    1    2    0    0  0.35397969228E+01  0.17055546464E+02 -0.11765872891E+02  0.21020408948E+02  0.00000000000E+00 0.  1.
         11    1    1    2    0    0 -0.70886967014E+02 -0.73084013379E+01 -0.39675313208E+03  0.40310224836E+03  0.00000000000E+00 0. -1.
<mgrwt>
<rscale>  0 0.13464039E+03</rscale>
<asrwt>0</asrwt>
<pdfrwt beam="2">  1        2 0.17300894E+00 0.14232671E+03</pdfrwt>
<pdfrwt beam="1">  1       -2 0.23003520E-02 0.14232671E+03</pdfrwt>
<totfact> 0.13410768E+04</totfact>
</mgrwt>
</event>
<event>
 6    1  0.5258538E-006  0.1336177E+03  0.7546771E-02  0.1234001E+00
         -1   -1    0    0    0  501 -0.00000000000E+00  0.00000000000E+00  0.19735490085E+02  0.19735490085E+02  0.00000000000E+00 0.  1.
          1   -1    0    0  501    0  0.00000000000E+00 -0.00000000000E+00 -0.10357202522E+04  0.10357202522E+04  0.00000000000E+00 0. -1.
          5    1    1    2  502    0 -0.67684459933E+02 -0.55189263893E+00 -0.64024175019E+03  0.64382690172E+03  0.47000000000E+01 0.  1.
         -5    1    1    2    0  502  0.38554006255E+02 -0.36586337584E+02 -0.20106715249E+03  0.20802658798E+03  0.47000000000E+01 0.  1.
        -11    1    1    2    0    0  0.33318099584E+02  0.55654432032E+01 -0.16760806549E+03  0.17097816683E+03  0.00000000000E+00 0. -1.
         11    1    1    2    0    0 -0.41876459062E+01  0.31572787020E+02 -0.70677939329E+01  0.32624085727E+02  0.00000000000E+00 0.  1.
<mgrwt>
<rscale>  0 0.12568581E+03</rscale>
<asrwt>0</asrwt>
<pdfrwt beam="2">  1        1 0.15934158E+00 0.13361773E+03</pdfrwt>
<pdfrwt beam="1">  1       -1 0.30362292E-02 0.13361773E+03</pdfrwt>
<totfact> 0.54316800E+03</totfact>
</mgrwt>
</event>
<event>
 6    1  0.5258538E-006  0.1395159E+03  0.7546771E-02  0.1225372E+00
          2   -1    0    0  501    0  0.00000000000E+00  0.00000000000E+00  0.93182549880E+03  0.93182549880E+03  0.00000000000E+00 0. -1.
         -2   -1    0    0    0  501 -0.00000000000E+00 -0.00000000000E+00 -0.17695218644E+02  0.17695218644E+02  0.00000000000E+00 0.  1.
          5    1    1    2  502    0 -0.45168990184E+02  0.18161583316E+02  0.58023100878E+03  0.58228875511E+03  0.47000000000E+01 0. -1.
         -5    1    1    2    0  502 -0.15208779252E+02 -0.32078396333E+02  0.41096972036E+02  0.54510380554E+02  0.47000000000E+01 0. -1.
        -11    1    1    2    0    0  0.21294356384E+02 -0.34280880491E+02  0.64060784492E+02  0.75712697025E+02  0.00000000000E+00 0.  1.
         11    1    1    2    0    0  0.39083413053E+02  0.48197693508E+02  0.22874151485E+03  0.23700888475E+03  0.00000000000E+00 0. -1.
<mgrwt>
<rscale>  0 0.13141452E+03</rscale>
<asrwt>0</asrwt>
<pdfrwt beam="1">  1        2 0.14335773E+00 0.13951588E+03</pdfrwt>
<pdfrwt beam="2">  1       -2 0.27223421E-02 0.13951588E+03</pdfrwt>
<totfact> 0.13614148E+04</totfact>
</mgrwt>
</event>
<event>
 6    1  0.5258538E-006  0.1515667E+03  0.7546771E-02  0.1206921E+00
         -1   -1    0    0    0  501 -0.00000000000E+00  0.00000000000E+00  0.11991869673E+03  0.11991869673E+03  0.00000000000E+00 0.  1.
          1   -1    0    0  501    0  0.00000000000E+00 -0.00000000000E+00 -0.16679832853E+03  0.16679832853E+03  0.00000000000E+00 0. -1.
          5    1    1    2  502    0 -0.23013429965E+02  0.20999743934E+02 -0.55846158983E+02  0.64120906709E+02  0.47000000000E+01 0. -1.
         -5    1    1    2    0  502  0.90218473231E+02  0.32202678711E+02  0.42076970560E+01  0.96000938239E+02  0.47000000000E+01 0. -1.
        -11    1    1    2    0    0 -0.42269629173E+02 -0.46198605116E+02 -0.40411597744E+02  0.74526035030E+02  0.00000000000E+00 0. -1.
         11    1    1    2    0    0 -0.24935414092E+02 -0.70038175290E+01  0.45170427877E+02  0.52069145283E+02  0.00000000000E+00 0.  1.
<mgrwt>
<rscale>  0 0.14487066E+03</rscale>
<asrwt>0</asrwt>
<pdfrwt beam="2">  1        1 0.25661281E-01 0.15156673E+03</pdfrwt>
<pdfrwt beam="1">  1       -1 0.18449030E-01 0.15156673E+03</pdfrwt>
<totfact> 0.41111251E+03</totfact>
</mgrwt>
</event>
<event>
 6    1  0.5258538E-006  0.1501185E+03  0.7546771E-02  0.1211533E+00
          2   -1    0    0  501    0  0.00000000000E+00  0.00000000000E+00  0.65755585282E+03  0.65755585282E+03  0.00000000000E+00 0. -1.
         -2   -1    0    0    0  501 -0.00000000000E+00 -0.00000000000E+00 -0.27953994699E+02  0.27953994699E+02  0.00000000000E+00 0.  1.
          5    1    1    2  502    0 -0.16772679346E+02  0.97156454256E+02  0.19376489158E+03  0.21745717414E+03  0.47000000000E+01 0. -1.
         -5    1    1    2    0  502  0.33944910194E+02 -0.15787524254E+02  0.20891280247E+03  0.21229260912E+03  0.47000000000E+01 0. -1.
        -11    1    1    2    0    0 -0.40514753242E+02 -0.24344936329E+02  0.14959334554E+03  0.15688304620E+03  0.00000000000E+00 0. -1.
         11    1    1    2    0    0  0.23342522394E+02 -0.57023993672E+02  0.77330818538E+02  0.98877018067E+02  0.00000000000E+00 0.  1.
<mgrwt>
<rscale>  0 0.14134327E+03</rscale>
<asrwt>0</asrwt>
<pdfrwt beam="1">  1        2 0.10116243E+00 0.15011846E+03</pdfrwt>
<pdfrwt beam="2">  1       -2 0.43006151E-02 0.15011846E+03</pdfrwt>
<totfact> 0.10718405E+04</totfact>
</mgrwt>
</event>
<event>
 6    1  0.5258538E-006  0.1409498E+03  0.7546771E-02  0.1221107E+00
         -1   -1    0    0    0  501 -0.00000000000E+00  0.00000000000E+00  0.64461824571E+02  0.64461824571E+02  0.00000000000E+00 0.  1.
          1   -1    0    0  501    0  0.00000000000E+00 -0.00000000000E+00 -0.34783861026E+03  0.34783861026E+03  0.00000000000E+00 0. -1.
          5    1    1    2  502    0  0.28244486177E+02  0.93833963750E+02 -0.18916659780E+03  0.21309306764E+03  0.47000000000E+01 0. -1.
         -5    1    1    2    0  502  0.97137173044E+01 -0.41038411609E+02 -0.67538363358E+02  0.79762322285E+02  0.47000000000E+01 0. -1.
        -11    1    1    2    0    0 -0.58860945565E+02 -0.49140521854E+02  0.97478659487E+01  0.77294389780E+02  0.00000000000E+00 0.  1.
         11    1    1    2    0    0  0.20902742084E+02 -0.36550302871E+01 -0.36419690475E+02  0.42150655123E+02  0.00000000000E+00 0. -1.
<mgrwt>
<rscale>  0 0.13437352E+03</rscale>
<asrwt>0</asrwt>
<pdfrwt beam="2">  1        1 0.53513632E-01 0.14094979E+03</pdfrwt>
<pdfrwt beam="1">  1       -1 0.99172038E-02 0.14094979E+03</pdfrwt>
<totfact> 0.43225122E+03</totfact>
</mgrwt>
</event>
<event>
 6    1  0.5258538E-006  0.3439018E+03  0.7546771E-02  0.1065146E+00
         -3   -1    0    0    0  501 -0.00000000000E+00  0.00000000000E+00  0.13989477424E+03  0.13989477424E+03  0.00000000000E+00 0.  1.
          3   -1    0    0  501    0  0.00000000000E+00 -0.00000000000E+00 -0.21135251053E+03  0.21135251053E+03  0.00000000000E+00 0. -1.
          5    1    1    2  502    0 -0.12720285241E+03 -0.26363539796E+02 -0.62809810758E+02  0.14437023315E+03  0.47000000000E+01 0.  1.
         -5    1    1    2    0  502  0.17428643784E+02 -0.44099573950E+02 -0.24165538544E+01  0.47712260261E+02  0.47000000000E+01 0.  1.
        -11    1    1    2    0    0  0.60367381469E+02  0.24886099458E+02  0.40919567774E+02  0.77058093141E+02  0.00000000000E+00 0.  1.
         11    1    1    2    0    0  0.49406827161E+02  0.45577014289E+02 -0.47150939451E+02  0.82106698221E+02  0.00000000000E+00 0. -1.
<mgrwt>
<rscale>  0 0.34390180E+03</rscale>
<asrwt>0</asrwt>
<pdfrwt beam="2">  1        3 0.32515771E-01 0.34390180E+03</pdfrwt>
<pdfrwt beam="1">  1       -3 0.21522273E-01 0.34390180E+03</pdfrwt>
<totfact> 0.47057120E+02</totfact>
</mgrwt>
</event>
<event>
 6    1  0.5258538E-006  0.1250962E+03  0.7546771E-02  0.1260171E+00
         -1   -1    0    0    0  501 -0.00000000000E+00  0.00000000000E+00  0.85416486391E+02  0.85416486391E+02  0.00000000000E+00 0.  1.
          1   -1    0    0  501    0  0.00000000000E+00 -0.00000000000E+00 -0.13196599783E+03  0.13196599783E+03  0.00000000000E+00 0. -1.
          5    1    1    2  502    0  0.37802536559E+02 -0.47735622400E+02 -0.42135947134E+02  0.74197368263E+02  0.47000000000E+01 0. -1.
         -5    1    1    2    0  502 -0.42475897825E+02  0.45620430287E+02 -0.21113875399E+02  0.65979627841E+02  0.47000000000E+01 0. -1.
        -11    1    1    2    0    0  0.23854568656E+02 -0.27499260216E+02  0.20396999116E+02  0.41728735077E+02  0.00000000000E+00 0.  1.
         11    1    1    2    0    0 -0.19181207390E+02  0.29614452330E+02 -0.36966880195E+01  0.35476753037E+02  0.00000000000E+00 0. -1.
<mgrwt>
<rscale>  0 0.11021574E+03</rscale>
<asrwt>0</asrwt>
<pdfrwt beam="2">  1        1 0.20302461E-01 0.12509616E+03</pdfrwt>
<pdfrwt beam="1">  1       -1 0.13140998E-01 0.12509616E+03</pdfrwt>
<totfact> 0.92992549E+03</totfact>
</mgrwt>
</event>
<event>
 6    1  0.5258538E-006  0.1154789E+03  0.7546771E-02  0.1259891E+00
          2   -1    0    0  501    0  0.00000000000E+00  0.00000000000E+00  0.20784704128E+03  0.20784704128E+03  0.00000000000E+00 0. -1.
         -2   -1    0    0    0  501 -0.00000000000E+00 -0.00000000000E+00 -0.10214479717E+03  0.10214479717E+03  0.00000000000E+00 0.  1.
          5    1    1    2  502    0  0.66735067541E+02  0.10681768137E+02  0.78563791625E+02  0.10374019840E+03  0.47000000000E+01 0. -1.
         -5    1    1    2    0  502 -0.44701376034E+02  0.93302299564E+01  0.83020937683E+02  0.94867445966E+02  0.47000000000E+01 0.  1.
        -11    1    1    2    0    0 -0.23350057300E+01 -0.29818826754E+02 -0.75934871162E+02  0.81613230172E+02  0.00000000000E+00 0.  1.
         11    1    1    2    0    0 -0.19698685777E+02  0.98068286597E+01  0.20052385964E+02  0.29770963917E+02  0.00000000000E+00 0. -1.
<mgrwt>
<rscale>  0 0.11036755E+03</rscale>
<asrwt>0</asrwt>
<pdfrwt beam="1">  1        2 0.31976468E-01 0.11547888E+03</pdfrwt>
<pdfrwt beam="2">  1       -2 0.15714584E-01 0.11547888E+03</pdfrwt>
<totfact> 0.49004043E+03</totfact>
</mgrwt>
</event>
<event>
 6    1  0.5258538E-006  0.1753354E+03  0.7546771E-02  0.1175305E+00
         -2   -1    0    0    0  501 -0.00000000000E+00  0.00000000000E+00  0.15300809124E+02  0.15300809124E+02  0.00000000000E+00 0.  1.
          2   -1    0    0  501    0  0.00000000000E+00 -0.00000000000E+00 -0.30682396763E+04  0.30682396763E+04  0.00000000000E+00 0. -1.
          5    1    1    2  502    0 -0.55027060428E+02  0.24392983048E+02 -0.14127866130E+04  0.14140760584E+04  0.47000000000E+01 0. -1.
         -5    1    1    2    0  502 -0.72084459132E+02 -0.73628326594E+02 -0.11026683048E+04  0.11074821805E+04  0.47000000000E+01 0.  1.
        -11    1    1    2    0    0  0.57105726152E+02  0.67828137334E+02 -0.24144213021E+03  0.25720813053E+03  0.00000000000E+00 0. -1.
         11    1    1    2    0    0  0.70005793408E+02 -0.18592793788E+02 -0.29604181909E+03  0.30477411593E+03  0.00000000000E+00 0.  1.
<mgrwt>
<rscale>  0 0.17246142E+03</rscale>
<asrwt>0</asrwt>
<pdfrwt beam="2">  1        2 0.47203734E+00 0.17533542E+03</pdfrwt>
<pdfrwt beam="1">  1       -2 0.23539683E-02 0.17533542E+03</pdfrwt>
<totfact> 0.11758418E+03</totfact>
</mgrwt>
</event>
<event>
 6    1  0.5258538E-006  0.1660780E+03  0.7546771E-02  0.1189238E+00
         -3   -1    0    0    0  501 -0.00000000000E+00  0.00000000000E+00  0.74310102875E+02  0.74310102875E+02  0.00000000000E+00 0.  1.
          3   -1    0    0  501    0  0.00000000000E+00 -0.00000000000E+00 -0.55736880250E+03  0.55736880250E+03  0.00000000000E+00 0. -1.
          5    1    1    2  502    0 -0.40954130823E+02  0.49215485581E+02 -0.88120791705E+02  0.10902645910E+03  0.47000000000E+01 0. -1.
         -5    1    1    2    0  502  0.50702513096E+02  0.59691410373E+02 -0.37108769761E+03  0.37929141649E+03  0.47000000000E+01 0. -1.
        -11    1    1    2    0    0  0.16538199209E+02  0.69943596643E+01  0.89636238063E+01  0.20069370990E+02  0.00000000000E+00 0.  1.
         11    1    1    2    0    0 -0.26286581482E+02 -0.11590125562E+03 -0.32813834117E+02  0.12329165880E+03  0.00000000000E+00 0. -1.
<mgrwt>
<rscale>  0 0.15952113E+03</rscale>
<asrwt>0</asrwt>
<pdfrwt beam="2">  1        3 0.85749048E-01 0.16607803E+03</pdfrwt>
<pdfrwt beam="1">  1       -3 0.11432323E-01 0.16607803E+03</pdfrwt>
<totfact> 0.18092273E+02</totfact>
</mgrwt>
</event>
<event>
 6    1  0.5258538E-006  0.1358331E+03  0.7546771E-02  0.1231266E+00
          2   -1    0    0  501    0  0.00000000000E+00  0.00000000000E+00  0.11048568152E+04  0.11048568152E+04  0.00000000000E+00 0.  1.
         -2   -1    0    0    0  501 -0.00000000000E+00 -0.00000000000E+00 -0.18296937349E+02  0.18296937349E+02  0.00000000000E+00 0. -1.
          5    1    1    2  502    0 -0.92121419232E+02 -0.16602509784E+01  0.55516199913E+03  0.56277530826E+03  0.47000000000E+01 0.  1.
         -5    1    1    2    0  502  0.40223644118E+02  0.13180776576E+02  0.33338095912E+03  0.33609020861E+03  0.47000000000E+01 0.  1.
        -11    1    1    2    0    0  0.71054125648E+02  0.11060883867E+02  0.16469731211E+03  0.17971153703E+03  0.00000000000E+00 0. -1.
         11    1    1    2    0    0 -0.19156350534E+02 -0.22581409464E+02  0.33319607481E+02  0.44576698642E+02  0.00000000000E+00 0.  1.
<mgrwt>
<rscale>  0 0.12746552E+03</rscale>
<asrwt>0</asrwt>
<pdfrwt beam="1">  1        2 0.16997792E+00 0.13583309E+03</pdfrwt>
<pdfrwt beam="2">  1       -2 0.28149143E-02 0.13583309E+03</pdfrwt>
<totfact> 0.10216966E+04</totfact>
</mgrwt>
</event>
<event>
 6    1  0.5258538E-006  0.1224461E+03  0.7546771E-02  0.1246435E+00
         -2   -1    0    0    0  501 -0.00000000000E+00  0.00000000000E+00  0.32750175435E+02  0.32750175435E+02  0.00000000000E+00 0.  1.
          2   -1    0    0  501    0  0.00000000000E+00 -0.00000000000E+00 -0.13181830544E+04  0.13181830544E+04  0.00000000000E+00 0. -1.
          5    1    1    2  502    0  0.93033230723E+01 -0.53394743145E+02 -0.10887387132E+04  0.10900970718E+04  0.47000000000E+01 0. -1.
         -5    1    1    2    0  502  0.29365720043E+02  0.20017783419E+02 -0.13247356138E+03  0.13723844808E+03  0.47000000000E+01 0.  1.
        -11    1    1    2    0    0  0.11598286141E+02  0.14786906584E+02  0.17625753850E+02  0.25765093567E+02  0.00000000000E+00 0.  1.
         11    1    1    2    0    0 -0.50267329256E+02  0.18590053142E+02 -0.81846358270E+02  0.97832616383E+02  0.00000000000E+00 0. -1.
<mgrwt>
<rscale>  0 0.11799904E+03</rscale>
<asrwt>0</asrwt>
<pdfrwt beam="2">  1        2 0.20279738E+00 0.12244615E+03</pdfrwt>
<pdfrwt beam="1">  1       -2 0.50384889E-02 0.12244615E+03</pdfrwt>
<totfact> 0.32782112E+03</totfact>
</mgrwt>
</event>
<event>
 6    1  0.5258538E-006  0.1262942E+03  0.7546771E-02  0.1248720E+00
          2   -1    0    0  501    0  0.00000000000E+00  0.00000000000E+00  0.20312903889E+03  0.20312903889E+03  0.00000000000E+00 0.  1.
         -2   -1    0    0    0  501 -0.00000000000E+00 -0.00000000000E+00 -0.59466919474E+02  0.59466919474E+02  0.00000000000E+00 0. -1.
          5    1    1    2  502    0 -0.32624131717E+02 -0.36188787062E+02  0.65644169817E+00  0.48953888457E+02  0.47000000000E+01 0. -1.
         -5    1    1    2    0  502  0.46483447048E+02  0.24674958154E+02  0.97888638837E+02  0.11123776347E+03  0.47000000000E+01 0. -1.
        -11    1    1    2    0    0 -0.31901772608E+02 -0.90688754517E+01  0.61951484586E+02  0.70270577341E+02  0.00000000000E+00 0.  1.
         11    1    1    2    0    0  0.18042457277E+02  0.20582704359E+02 -0.16834445703E+02  0.32133729094E+02  0.00000000000E+00 0. -1.
<mgrwt>
<rscale>  0 0.11665457E+03</rscale>
<asrwt>0</asrwt>
<pdfrwt beam="1">  1        2 0.31250621E-01 0.12629423E+03</pdfrwt>
<pdfrwt beam="2">  1       -2 0.91487569E-02 0.12629423E+03</pdfrwt>
<totfact> 0.11974181E+04</totfact>
</mgrwt>
</event>
<event>
 6    1  0.5258538E-006  0.2220802E+03  0.7546771E-02  0.1135831E+00
         -1   -1    0    0    0  501 -0.00000000000E+00  0.00000000000E+00  0.45832038370E+03  0.45832038370E+03  0.00000000000E+00 0.  1.
          1   -1    0    0  501    0  0.00000000000E+00 -0.00000000000E+00 -0.14101021588E+03  0.14101021588E+03  0.00000000000E+00 0. -1.
          5    1    1    2  502    0 -0.32544664496E+02  0.63880970640E+01 -0.51480508061E+02  0.61419017263E+02  0.47000000000E+01 0. -1.
         -5    1    1    2    0  502 -0.12952417781E+03  0.79797829133E+02  0.51436643338E+02  0.16066121015E+03  0.47000000000E+01 0. -1.
        -11    1    1    2    0    0  0.57596008593E+02  0.56920180597E+01  0.14246601242E+03  0.15377341763E+03  0.00000000000E+00 0.  1.
         11    1    1    2    0    0  0.10447283371E+03 -0.91877944256E+02  0.17488802012E+03  0.22347695453E+03  0.00000000000E+00 0. -1.
<mgrwt>
<rscale>  0 0.21740756E+03</rscale>
<asrwt>0</asrwt>
<pdfrwt beam="2">  1        1 0.21693880E-01 0.22208022E+03</pdfrwt>
<pdfrwt beam="1">  1       -1 0.70510827E-01 0.22208022E+03</pdfrwt>
<totfact> 0.48724035E+02</totfact>
</mgrwt>
</event>
<event>
 6    1  0.5258538E-006  0.1799400E+03  0.7546771E-02  0.1173720E+00
         -1   -1    0    0    0  501 -0.00000000000E+00  0.00000000000E+00  0.57593564190E+02  0.57593564190E+02  0.00000000000E+00 0.  1.
          1   -1    0    0  501    0  0.00000000000E+00 -0.00000000000E+00 -0.58265583793E+03  0.58265583793E+03  0.00000000000E+00 0. -1.
          5    1    1    2  502    0  0.29342338051E+02  0.19649160029E+02 -0.21972262038E+03  0.22259196347E+03  0.47000000000E+01 0. -1.
         -5    1    1    2    0  502  0.80773730328E+02 -0.87668615234E+02 -0.18233831030E+03  0.21789798304E+03  0.47000000000E+01 0. -1.
        -11    1    1    2    0    0 -0.10162549427E+02  0.21862949806E+02  0.10857025969E+02  0.26441274515E+02  0.00000000000E+00 0.  1.
         11    1    1    2    0    0 -0.99953518952E+02  0.46156505399E+02 -0.13385836902E+03  0.17331818110E+03  0.00000000000E+00 0. -1.
<mgrwt>
<rscale>  0 0.17401890E+03</rscale>
<asrwt>0</asrwt>
<pdfrwt beam="2">  1        1 0.89639364E-01 0.17993999E+03</pdfrwt>
<pdfrwt beam="1">  1       -1 0.88605479E-02 0.17993999E+03</pdfrwt>
<totfact> 0.26599503E+03</totfact>
</mgrwt>
</event>
<event>
 6    1  0.5258538E-006  0.3414673E+03  0.7546771E-02  0.1066173E+00
          2   -1    0    0  501    0  0.00000000000E+00  0.00000000000E+00  0.43209151813E+03  0.43209151813E+03  0.00000000000E+00 0. -1.
         -2   -1    0    0    0  501 -0.00000000000E+00 -0.00000000000E+00 -0.67462498339E+02  0.67462498339E+02  0.00000000000E+00 0.  1.
          5    1    1    2  502    0 -0.73645892681E+02 -0.83602672476E+02  0.18202039741E+03  0.21346343815E+03  0.47000000000E+01 0. -1.
         -5    1    1    2    0  502  0.17983133216E+02  0.14048442159E+02  0.15662462785E+03  0.15834808447E+03  0.47000000000E+01 0. -1.
        -11    1    1    2    0    0  0.37626429370E+02  0.16451870516E+02  0.51717318069E+02  0.66038573719E+02  0.00000000000E+00 0. -1.
         11    1    1    2    0    0  0.18036330094E+02  0.53102359801E+02 -0.25733323531E+02  0.61703920132E+02  0.00000000000E+00 0.  1.
<mgrwt>
<rscale>  0 0.34146727E+03</rscale>
<asrwt>0</asrwt>
<pdfrwt beam="1">  1        2 0.66475616E-01 0.34146727E+03</pdfrwt>
<pdfrwt beam="2">  1       -2 0.10378846E-01 0.34146727E+03</pdfrwt>
<totfact> 0.45962161E+03</totfact>
</mgrwt>
</event>
<event>
 6    1  0.5258538E-006  0.2907549E+03  0.7546771E-02  0.1096437E+00
          2   -1    0    0  501    0  0.00000000000E+00  0.00000000000E+00  0.80390615768E+02  0.80390615768E+02  0.00000000000E+00 0. -1.
         -2   -1    0    0    0  501 -0.00000000000E+00 -0.00000000000E+00 -0.10159399490E+04  0.10159399490E+04  0.00000000000E+00 0.  1.
          5    1    1    2  502    0  0.10218049609E+03  0.15389267701E+03 -0.11689625970E+03  0.21865643222E+03  0.47000000000E+01 0. -1.
         -5    1    1    2    0  502 -0.33400884034E+02  0.62506519898E+02 -0.19601917345E+03  0.20849050445E+03  0.47000000000E+01 0.  1.
        -11    1    1    2    0    0  0.63757242550E+00 -0.86322247768E+02 -0.13946714840E+03  0.16402140849E+03  0.00000000000E+00 0. -1.
         11    1    1    2    0    0 -0.69417184483E+02 -0.13007694914E+03 -0.48316675164E+03  0.50516221958E+03  0.00000000000E+00 0.  1.
<mgrwt>
<rscale>  0 0.27863465E+03</rscale>
<asrwt>0</asrwt>
<pdfrwt beam="1">  1        2 0.12367786E-01 0.29075494E+03</pdfrwt>
<pdfrwt beam="2">  1       -2 0.15629847E+00 0.29075494E+03</pdfrwt>
<totfact> 0.14037284E+02</totfact>
</mgrwt>
</event>
<event>
 6    1  0.5258538E-006  0.1262909E+03  0.7546771E-02  0.1247738E+00
         -1   -1    0    0    0  501 -0.00000000000E+00  0.00000000000E+00  0.15615355756E+02  0.15615355756E+02  0.00000000000E+00 0.  1.
          1   -1    0    0  501    0  0.00000000000E+00 -0.00000000000E+00 -0.87751391300E+03  0.87751391300E+03  0.00000000000E+00 0. -1.
          5    1    1    2  502    0  0.56231558826E+01 -0.10609136780E+02 -0.62421357945E+03  0.62434674376E+03  0.47000000000E+01 0. -1.
         -5    1    1    2    0  502 -0.21557789072E+02  0.22776266844E+01 -0.13972873236E+02  0.26215587719E+02  0.47000000000E+01 0. -1.
        -11    1    1    2    0    0 -0.63313707427E+01  0.36111283047E+02 -0.35554774051E+02  0.51071058111E+02  0.00000000000E+00 0.  1.
         11    1    1    2    0    0  0.22266003932E+02 -0.27779772951E+02 -0.18815733050E+03  0.19149587917E+03  0.00000000000E+00 0. -1.
<mgrwt>
<rscale>  0 0.11722971E+03</rscale>
<asrwt>0</asrwt>
<pdfrwt beam="2">  1        1 0.13500217E+00 0.12629093E+03</pdfrwt>
<pdfrwt beam="1">  1       -1 0.24023619E-02 0.12629093E+03</pdfrwt>
<totfact> 0.99824138E+03</totfact>
</mgrwt>
</event>
<event>
 6    1  0.5258538E-006  0.3247060E+03  0.7546771E-02  0.1073504E+00
          2   -1    0    0  501    0  0.00000000000E+00  0.00000000000E+00  0.87695876571E+02  0.87695876571E+02  0.00000000000E+00 0. -1.
         -2   -1    0    0    0  501 -0.00000000000E+00 -0.00000000000E+00 -0.30056715478E+03  0.30056715478E+03  0.00000000000E+00 0.  1.
          5    1    1    2  502    0  0.98938897018E+00  0.12245305558E+03 -0.35164027238E+02  0.12749246458E+03  0.47000000000E+01 0. -1.
         -5    1    1    2    0  502  0.39977420126E+02 -0.14404191206E+02 -0.40172373292E+02  0.58665018709E+02  0.47000000000E+01 0. -1.
        -11    1    1    2    0    0 -0.32878048425E+02 -0.53813803032E+02 -0.10752309176E+02  0.63972678681E+02  0.00000000000E+00 0. -1.
         11    1    1    2    0    0 -0.80887606714E+01 -0.54235061344E+02 -0.12678256850E+03  0.13813286938E+03  0.00000000000E+00 0.  1.
<mgrwt>
<rscale>  0 0.32470602E+03</rscale>
<asrwt>0</asrwt>
<pdfrwt beam="1">  1        2 0.13491673E-01 0.32470602E+03</pdfrwt>
<pdfrwt beam="2">  1       -2 0.46241102E-01 0.32470602E+03</pdfrwt>
<totfact> 0.19939170E+03</totfact>
</mgrwt>
</event>
<event>
 6    1  0.5258538E-006  0.1259766E+03  0.7546771E-02  0.1248239E+00
         -2   -1    0    0    0  501 -0.00000000000E+00  0.00000000000E+00  0.22033097544E+02  0.22033097544E+02  0.00000000000E+00 0.  1.
          2   -1    0    0  501    0  0.00000000000E+00 -0.00000000000E+00 -0.10335693415E+04  0.10335693415E+04  0.00000000000E+00 0. -1.
          5    1    1    2  502    0  0.16164746645E+02  0.52540693555E+02 -0.41714989219E+03  0.42078254011E+03  0.47000000000E+01 0. -1.
         -5    1    1    2    0  502 -0.22617874895E+02 -0.66799494137E+02 -0.48832300611E+03  0.49341178440E+03  0.47000000000E+01 0. -1.
        -11    1    1    2    0    0  0.40969372526E+02  0.34147199665E+02 -0.54572860843E+02  0.76306735422E+02  0.00000000000E+00 0.  1.
         11    1    1    2    0    0 -0.34516244276E+02 -0.19888399084E+02 -0.51490484857E+02  0.65101379155E+02  0.00000000000E+00 0. -1.
<mgrwt>
<rscale>  0 0.11693610E+03</rscale>
<asrwt>0</asrwt>
<pdfrwt beam="2">  1        2 0.15901070E+00 0.12597656E+03</pdfrwt>
<pdfrwt beam="1">  1       -2 0.33897067E-02 0.12597656E+03</pdfrwt>
<totfact> 0.85157750E+03</totfact>
</mgrwt>
</event>
<event>
 6    1  0.5258538E-006  0.1274946E+03  0.7546771E-02  0.1245144E+00
         -1   -1    0    0    0  501 -0.00000000000E+00  0.00000000000E+00  0.51671684107E+02  0.51671684107E+02  0.00000000000E+00 0.  1.
          1   -1    0    0  501    0  0.00000000000E+00 -0.00000000000E+00 -0.30598122053E+03  0.30598122053E+03  0.00000000000E+00 0. -1.
          5    1    1    2  502    0  0.17615275245E+02 -0.38656247988E+02 -0.29311197914E+02  0.51825088071E+02  0.47000000000E+01 0. -1.
         -5    1    1    2    0  502 -0.22744862379E+02  0.63258856411E+02 -0.19331572274E+03  0.20472437651E+03  0.47000000000E+01 0. -1.
        -11    1    1    2    0    0 -0.43772568259E+02 -0.90894074905E+01 -0.14533849280E+02  0.47009444109E+02  0.00000000000E+00 0. -1.
         11    1    1    2    0    0  0.48902155393E+02 -0.15513200933E+02 -0.17148766487E+02  0.54093995945E+02  0.00000000000E+00 0.  1.
<mgrwt>
<rscale>  0 0.11876794E+03</rscale>
<asrwt>0</asrwt>
<pdfrwt beam="2">  1        1 0.47074034E-01 0.12749464E+03</pdfrwt>
<pdfrwt beam="1">  1       -1 0.79494899E-02 0.12749464E+03</pdfrwt>
<totfact> 0.70454981E+03</totfact>
</mgrwt>
</event>
<event>
 6    1  0.5258538E-006  0.2585055E+03  0.7546771E-02  0.1108045E+00
         -2   -1    0    0    0  501 -0.00000000000E+00  0.00000000000E+00  0.26701681451E+02  0.26701681451E+02  0.00000000000E+00 0.  1.
          2   -1    0    0  501    0  0.00000000000E+00 -0.00000000000E+00 -0.62566365102E+03  0.62566365102E+03  0.00000000000E+00 0. -1.
          5    1    1    2  502    0  0.20000443025E+02 -0.18372507544E+02 -0.17910322664E+02  0.32869992585E+02  0.47000000000E+01 0.  1.
         -5    1    1    2    0  502 -0.86036022572E+02  0.85528983227E+01 -0.37347145685E+03  0.38337757932E+03  0.47000000000E+01 0.  1.
        -11    1    1    2    0    0  0.90699561218E+01  0.41571469334E+02 -0.11704213089E+03  0.12453638653E+03  0.00000000000E+00 0. -1.
         11    1    1    2    0    0  0.56965623425E+02 -0.31751860113E+02 -0.90538059168E+02  0.11158137403E+03  0.00000000000E+00 0.  1.
<mgrwt>
<rscale>  0 0.25850549E+03</rscale>
<asrwt>0</asrwt>
<pdfrwt beam="2">  1        2 0.96255935E-01 0.25850549E+03</pdfrwt>
<pdfrwt beam="1">  1       -2 0.41079515E-02 0.25850549E+03</pdfrwt>
<totfact> 0.12574761E+04</totfact>
</mgrwt>
</event>
<event>
 6    1  0.5258538E-006  0.1251770E+03  0.7546771E-02  0.1249856E+00
          1   -1    0    0  501    0  0.00000000000E+00  0.00000000000E+00  0.54591404900E+02  0.54591404900E+02  0.00000000000E+00 0. -1.
         -1   -1    0    0    0  501 -0.00000000000E+00 -0.00000000000E+00 -0.21721400351E+03  0.21721400351E+03  0.00000000000E+00 0.  1.
          5    1    1    2  502    0  0.20184430686E+02 -0.34165516159E+02  0.13505857860E+02  0.42180468621E+02  0.47000000000E+01 0.  1.
         -5    1    1    2    0  502 -0.25846979176E+02  0.37655783184E+02 -0.99810987888E+02  0.10986513388E+03  0.47000000000E+01 0.  1.
        -11    1    1    2    0    0  0.19104247206E+02  0.57364057600E+00 -0.94710049672E+02  0.96619329503E+02  0.00000000000E+00 0.  1.
         11    1    1    2    0    0 -0.13441698716E+02 -0.40639076014E+01  0.18392581086E+02  0.23140476407E+02  0.00000000000E+00 0. -1.
<mgrwt>
<rscale>  0 0.11599414E+03</rscale>
<asrwt>0</asrwt>
<pdfrwt beam="1">  1        1 0.83986778E-02 0.12517703E+03</pdfrwt>
<pdfrwt beam="2">  1       -1 0.33417539E-01 0.12517703E+03</pdfrwt>
<totfact> 0.65024492E+03</totfact>
</mgrwt>
</event>
<event>
 6    1  0.5258538E-006  0.1391704E+03  0.7546771E-02  0.1227683E+00
          1   -1    0    0  501    0  0.00000000000E+00  0.00000000000E+00  0.51950958904E+03  0.51950958904E+03  0.00000000000E+00 0. -1.
         -1   -1    0    0    0  501 -0.00000000000E+00 -0.00000000000E+00 -0.30858257418E+02  0.30858257418E+02  0.00000000000E+00 0.  1.
          5    1    1    2  502    0 -0.12741733494E+02  0.77449669096E+02  0.34220552960E+03  0.35112322268E+03  0.47000000000E+01 0. -1.
         -5    1    1    2    0  502  0.13491239200E+02 -0.16266513624E+02  0.40111190033E+01  0.22017994375E+02  0.47000000000E+01 0. -1.
        -11    1    1    2    0    0  0.18969536205E+01 -0.82247925479E+02  0.12553553523E+03  0.15009160631E+03  0.00000000000E+00 0. -1.
         11    1    1    2    0    0 -0.26464593263E+01  0.21064770008E+02  0.16899147789E+02  0.27135023096E+02  0.00000000000E+00 0.  1.
<mgrwt>
<rscale>  0 0.12984680E+03</rscale>
<asrwt>0</asrwt>
<pdfrwt beam="1">  1        1 0.79924546E-01 0.13917040E+03</pdfrwt>
<pdfrwt beam="2">  1       -1 0.47474246E-02 0.13917040E+03</pdfrwt>
<totfact> 0.78211292E+03</totfact>
</mgrwt>
</event>
<event>
 6    1  0.5258538E-006  0.1719228E+03  0.7546771E-02  0.1182827E+00
         -4   -1    0    0    0  501 -0.00000000000E+00  0.00000000000E+00  0.13623403508E+03  0.13623403508E+03  0.00000000000E+00 0.  1.
          4   -1    0    0  501    0  0.00000000000E+00 -0.00000000000E+00 -0.31581192568E+03  0.31581192568E+03  0.00000000000E+00 0. -1.
          5    1    1    2  502    0 -0.93096860583E+02 -0.87859280055E+02 -0.18887897862E+03  0.22821839783E+03  0.47000000000E+01 0.  1.
         -5    1    1    2    0  502  0.39310993772E+02 -0.17217714358E+02 -0.49369231825E+02  0.65583648649E+02  0.47000000000E+01 0.  1.
        -11    1    1    2    0    0  0.94338308993E+01 -0.13487278376E+02  0.19956263138E+02  0.25868055239E+02  0.00000000000E+00 0. -1.
         11    1    1    2    0    0  0.44352035912E+02  0.11856427279E+03  0.38714056707E+02  0.13237585905E+03  0.00000000000E+00 0.  1.
<mgrwt>
<rscale>  0 0.16531187E+03</rscale>
<asrwt>0</asrwt>
<pdfrwt beam="2">  1        4 0.48586450E-01 0.17192275E+03</pdfrwt>
<pdfrwt beam="1">  1       -4 0.20959083E-01 0.17192275E+03</pdfrwt>
<totfact> 0.14814400E+02</totfact>
</mgrwt>
</event>
<event>
 6    1  0.5258538E-006  0.2299229E+03  0.7546771E-02  0.1126694E+00
          1   -1    0    0  501    0  0.00000000000E+00  0.00000000000E+00  0.15805785152E+03  0.15805785152E+03  0.00000000000E+00 0. -1.
         -1   -1    0    0    0  501 -0.00000000000E+00 -0.00000000000E+00 -0.83615811593E+02  0.83615811593E+02  0.00000000000E+00 0.  1.
          5    1    1    2  502    0 -0.32683920624E+02 -0.22592013921E+02  0.94947391285E+02  0.10303268837E+03  0.47000000000E+01 0.  1.
         -5    1    1    2    0  502  0.68052870521E+00  0.10349620020E+02 -0.37168556863E+02  0.38873762014E+02  0.47000000000E+01 0.  1.
        -11    1    1    2    0    0  0.14195553576E+02 -0.62345086332E+01 -0.37091446424E+02  0.40201470583E+02  0.00000000000E+00 0.  1.
         11    1    1    2    0    0  0.17807838343E+02  0.18476902534E+02  0.53754651925E+02  0.59565742145E+02  0.00000000000E+00 0. -1.
<mgrwt>
<rscale>  0 0.22992290E+03</rscale>
<asrwt>0</asrwt>
<pdfrwt beam="1">  1        1 0.24316592E-01 0.22992290E+03</pdfrwt>
<pdfrwt beam="2">  1       -1 0.12863971E-01 0.22992290E+03</pdfrwt>
<totfact> 0.79781322E+03</totfact>
</mgrwt>
</event>
<event>
 6    1  0.5258538E-006  0.1574753E+03  0.7546771E-02  0.1199537E+00
         -2   -1    0    0    0  501 -0.00000000000E+00  0.00000000000E+00  0.11384273739E+03  0.11384273739E+03  0.00000000000E+00 0.  1.
          2   -1    0    0  501    0  0.00000000000E+00 -0.00000000000E+00 -0.23371852545E+03  0.23371852545E+03  0.00000000000E+00 0. -1.
          5    1    1    2  502    0  0.16012323069E+02  0.60256219606E+02 -0.76375988118E+02  0.98704549299E+02  0.47000000000E+01 0.  1.
         -5    1    1    2    0  502  0.78990852682E+02 -0.48068728472E+02 -0.67264122190E+02  0.11444085633E+03  0.47000000000E+01 0.  1.
        -11    1    1    2    0    0 -0.10784904382E+03  0.79294330299E+01  0.16007182283E+02  0.10931844330E+03  0.00000000000E+00 0.  1.
         11    1    1    2    0    0  0.12845868073E+02 -0.20116924164E+02  0.77571399650E+01  0.25097413906E+02  0.00000000000E+00 0. -1.
<mgrwt>
<rscale>  0 0.15076416E+03</rscale>
<asrwt>0</asrwt>
<pdfrwt beam="2">  1        2 0.35956696E-01 0.15747534E+03</pdfrwt>
<pdfrwt beam="1">  1       -2 0.17514267E-01 0.15747534E+03</pdfrwt>
<totfact> 0.36761644E+03</totfact>
</mgrwt>
</event>
<event>
 6    1  0.5258538E-006  0.1257547E+03  0.7546771E-02  0.1249537E+00
         -3   -1    0    0    0  501 -0.00000000000E+00  0.00000000000E+00  0.72790066845E+02  0.72790066845E+02  0.00000000000E+00 0.  1.
          3   -1    0    0  501    0  0.00000000000E+00 -0.00000000000E+00 -0.16252413321E+03  0.16252413321E+03  0.00000000000E+00 0. -1.
          5    1    1    2  502    0  0.43433271307E+02 -0.19698742568E+02  0.12049113681E+02  0.49414174644E+02  0.47000000000E+01 0.  1.
         -5    1    1    2    0  502 -0.54462310637E+02  0.11704539731E+02 -0.68536270286E+02  0.88444614731E+02  0.47000000000E+01 0.  1.
        -11    1    1    2    0    0  0.26208540515E+02 -0.31750969260E+02 -0.36180560110E+02  0.54809165062E+02  0.00000000000E+00 0. -1.
         11    1    1    2    0    0 -0.15179501186E+02  0.39745172098E+02  0.29336503460E+01  0.42646245622E+02  0.00000000000E+00 0.  1.
<mgrwt>
<rscale>  0 0.11617901E+03</rscale>
<asrwt>0</asrwt>
<pdfrwt beam="2">  1        3 0.25003713E-01 0.12575471E+03</pdfrwt>
<pdfrwt beam="1">  1       -3 0.11198472E-01 0.12575471E+03</pdfrwt>
<totfact> 0.20729459E+03</totfact>
</mgrwt>
</event>
<event>
 6    1  0.5258538E-006  0.1296418E+03  0.7546771E-02  0.1242320E+00
         -2   -1    0    0    0  501 -0.00000000000E+00  0.00000000000E+00  0.43764037457E+02  0.43764037457E+02  0.00000000000E+00 0.  1.
          2   -1    0    0  501    0  0.00000000000E+00 -0.00000000000E+00 -0.31143909328E+03  0.31143909328E+03  0.00000000000E+00 0. -1.
          5    1    1    2  502    0  0.70083219605E+02 -0.41916206149E+01 -0.11718904772E+03  0.13669158810E+03  0.47000000000E+01 0.  1.
         -5    1    1    2    0  502 -0.49332442611E+02  0.31511296263E+02 -0.78224134640E+02  0.97814911575E+02  0.47000000000E+01 0.  1.
        -11    1    1    2    0    0 -0.45036621473E+02  0.15305159306E+02 -0.37515240778E+02  0.60580017050E+02  0.00000000000E+00 0.  1.
         11    1    1    2    0    0  0.24285844479E+02 -0.42624834954E+02 -0.34746632692E+02  0.60116614013E+02  0.00000000000E+00 0. -1.
<mgrwt>
<rscale>  0 0.12047206E+03</rscale>
<asrwt>0</asrwt>
<pdfrwt beam="2">  1        2 0.47913706E-01 0.12964176E+03</pdfrwt>
<pdfrwt beam="1">  1       -2 0.67329289E-02 0.12964176E+03</pdfrwt>
<totfact> 0.12211470E+04</totfact>
</mgrwt>
</event>
<event>
 6    1  0.5258538E-006  0.1487004E+03  0.7546771E-02  0.1220494E+00
         -3   -1    0    0    0  501 -0.00000000000E+00  0.00000000000E+00  0.23372260215E+02  0.23372260215E+02  0.00000000000E+00 0.  1.
          3   -1    0    0  501    0  0.00000000000E+00 -0.00000000000E+00 -0.70011249814E+03  0.70011249814E+03  0.00000000000E+00 0. -1.
          5    1    1    2  502    0 -0.69409085158E+02  0.47601083541E+02 -0.42559057946E+03  0.43385817450E+03  0.47000000000E+01 0. -1.
         -5    1    1    2    0  502  0.39106935631E+02 -0.15148469070E+02 -0.55707028488E+02  0.69886991297E+02  0.47000000000E+01 0.  1.
        -11    1    1    2    0    0  0.28706298849E+00 -0.48604686951E+02 -0.17105954839E+03  0.17783100712E+03  0.00000000000E+00 0. -1.
         11    1    1    2    0    0  0.30015086539E+02  0.16152072480E+02 -0.24383081586E+02  0.41908585432E+02  0.00000000000E+00 0.  1.
<mgrwt>
<rscale>  0 0.13480559E+03</rscale>
<asrwt>0</asrwt>
<pdfrwt beam="2">  1        3 0.10770961E+00 0.14870039E+03</pdfrwt>
<pdfrwt beam="1">  1       -3 0.35957327E-02 0.14870039E+03</pdfrwt>
<totfact> 0.68842906E+02</totfact>
</mgrwt>
</event>
<event>
 6    1  0.5258538E-006  0.2443953E+03  0.7546771E-02  0.1119460E+00
          2   -1    0    0  501    0  0.00000000000E+00  0.00000000000E+00  0.72928109370E+03  0.72928109370E+03  0.00000000000E+00 0. -1.
         -2   -1    0    0    0  501 -0.00000000000E+00 -0.00000000000E+00 -0.76953052858E+02  0.76953052858E+02  0.00000000000E+00 0.  1.
          5    1    1    2  502    0  0.86379918868E+02 -0.17108113454E+03  0.19192218460E+03  0.27126824348E+03  0.47000000000E+01 0.  1.
         -5    1    1    2    0  502  0.23557112287E+02 -0.78532336311E+01  0.13260327964E+03  0.13499011293E+03  0.47000000000E+01 0.  1.
        -11    1    1    2    0    0  0.73082058402E-03  0.76766624861E+02  0.13899641847E+03  0.15878639438E+03  0.00000000000E+00 0.  1.
         11    1    1    2    0    0 -0.10993776198E+03  0.10216774331E+03  0.18880615813E+03  0.24118939576E+03  0.00000000000E+00 0. -1.
<mgrwt>
<rscale>  0 0.24050082E+03</rscale>
<asrwt>0</asrwt>
<pdfrwt beam="1">  1        2 0.11219709E+00 0.24439533E+03</pdfrwt>
<pdfrwt beam="2">  1       -2 0.11838932E-01 0.24439533E+03</pdfrwt>
<totfact> 0.20099679E+03</totfact>
</mgrwt>
</event>
<event>
 6    1  0.5258538E-006  0.1554946E+03  0.7546771E-02  0.1202199E+00
          1   -1    0    0  501    0  0.00000000000E+00  0.00000000000E+00  0.15110591714E+03  0.15110591714E+03  0.00000000000E+00 0. -1.
         -1   -1    0    0    0  501 -0.00000000000E+00 -0.00000000000E+00 -0.16236955191E+03  0.16236955191E+03  0.00000000000E+00 0.  1.
          5    1    1    2  502    0  0.20438323015E+02 -0.38149072191E+02 -0.30717906729E+01  0.43641753570E+02  0.47000000000E+01 0.  1.
         -5    1    1    2    0  502 -0.10574921071E+03  0.24333332537E+01  0.61641912828E+02  0.12251788479E+03  0.47000000000E+01 0.  1.
        -11    1    1    2    0    0  0.47351443881E+02 -0.24535547117E+02 -0.99046432027E+01  0.54242550335E+02  0.00000000000E+00 0. -1.
         11    1    1    2    0    0  0.37959443811E+02  0.60251286054E+02 -0.59929113720E+02  0.93073280360E+02  0.00000000000E+00 0.  1.
<mgrwt>
<rscale>  0 0.14860434E+03</rscale>
<asrwt>0</asrwt>
<pdfrwt beam="1">  1        1 0.23247064E-01 0.15549459E+03</pdfrwt>
<pdfrwt beam="2">  1       -1 0.24979931E-01 0.15549459E+03</pdfrwt>
<totfact> 0.28519097E+03</totfact>
</mgrwt>
</event>
<event>
 6    1  0.5258538E-006  0.2219594E+03  0.7546771E-02  0.1144874E+00
          1   -1    0    0  501    0  0.00000000000E+00  0.00000000000E+00  0.85083457460E+02  0.85083457460E+02  0.00000000000E+00 0. -1.
         -1   -1    0    0    0  501 -0.00000000000E+00 -0.00000000000E+00 -0.46453897372E+03  0.46453897372E+03  0.00000000000E+00 0.  1.
          5    1    1    2  502    0  0.29270555787E+02 -0.22240579146E+02  0.13213531367E+02  0.39345853759E+02  0.47000000000E+01 0. -1.
         -5    1    1    2    0  502 -0.17864619563E+02  0.15848884359E+03 -0.16511824243E+03  0.22961703368E+03  0.47000000000E+01 0.  1.
        -11    1    1    2    0    0 -0.46093179438E+02 -0.50774193216E+02 -0.12611070237E+03  0.14354967481E+03  0.00000000000E+00 0.  1.
         11    1    1    2    0    0  0.34687243214E+02 -0.85474071229E+02 -0.10144010283E+03  0.13710986893E+03  0.00000000000E+00 0. -1.
<mgrwt>
<rscale>  0 0.20587632E+03</rscale>
<asrwt>0</asrwt>
<pdfrwt beam="1">  1        1 0.13089763E-01 0.22195944E+03</pdfrwt>
<pdfrwt beam="2">  1       -1 0.71467535E-01 0.22195944E+03</pdfrwt>
<totfact> 0.91583642E+02</totfact>
</mgrwt>
</event>
<event>
 6    1  0.5258538E-006  0.1444194E+03  0.7546771E-02  0.1227094E+00
         -1   -1    0    0    0  501 -0.00000000000E+00  0.00000000000E+00  0.38124037508E+02  0.38124037508E+02  0.00000000000E+00 0.  1.
          1   -1    0    0  501    0  0.00000000000E+00 -0.00000000000E+00 -0.62622712669E+03  0.62622712669E+03  0.00000000000E+00 0. -1.
          5    1    1    2  502    0 -0.75495371984E+02  0.31720452007E+02 -0.23543605257E+03  0.24931498775E+03  0.47000000000E+01 0. -1.
         -5    1    1    2    0  502  0.56069561517E+02  0.41250733246E+00 -0.30141839017E+03  0.30662534439E+03  0.47000000000E+01 0.  1.
        -11    1    1    2    0    0  0.27589760879E+02  0.23598560253E+02 -0.33379243489E+02  0.49317956642E+02  0.00000000000E+00 0. -1.
         11    1    1    2    0    0 -0.81639504124E+01 -0.55731519593E+02 -0.17869402948E+02  0.59092875410E+02  0.00000000000E+00 0.  1.
<mgrwt>
<rscale>  0 0.13024380E+03</rscale>
<asrwt>0</asrwt>
<pdfrwt beam="2">  1        1 0.96342634E-01 0.14441939E+03</pdfrwt>
<pdfrwt beam="1">  1       -1 0.58652366E-02 0.14441939E+03</pdfrwt>
<totfact> 0.44527136E+03</totfact>
</mgrwt>
</event>
<event>
 6    1  0.5258538E-006  0.1490187E+03  0.7546771E-02  0.1210359E+00
         -3   -1    0    0    0  501 -0.00000000000E+00  0.00000000000E+00  0.14105807911E+03  0.14105807911E+03  0.00000000000E+00 0.  1.
          3   -1    0    0  501    0  0.00000000000E+00 -0.00000000000E+00 -0.25939663362E+03  0.25939663362E+03  0.00000000000E+00 0. -1.
          5    1    1    2  502    0 -0.26967838824E+02  0.10956686533E+03 -0.17970091642E+03  0.21224201204E+03  0.47000000000E+01 0. -1.
         -5    1    1    2    0  502  0.66233610922E-01 -0.31400692525E+02 -0.22393962094E+02  0.38853409325E+02  0.47000000000E+01 0.  1.
        -11    1    1    2    0    0  0.22097069636E+02 -0.55976445582E+02  0.10320160581E+03  0.11946637346E+03  0.00000000000E+00 0.  1.
         11    1    1    2    0    0  0.48045355775E+01 -0.22189727227E+02 -0.19445281807E+02  0.29892917908E+02  0.00000000000E+00 0. -1.
<mgrwt>
<rscale>  0 0.14223040E+03</rscale>
<asrwt>0</asrwt>
<pdfrwt beam="2">  1        3 0.39907174E-01 0.14901869E+03</pdfrwt>
<pdfrwt beam="1">  1       -3 0.21701243E-01 0.14901869E+03</pdfrwt>
<totfact> 0.28551783E+02</totfact>
</mgrwt>
</event>
<event>
 6    1  0.5258538E-006  0.3959054E+03  0.7546771E-02  0.1045207E+00
         -2   -1    0    0    0  501 -0.00000000000E+00  0.00000000000E+00  0.16892822360E+03  0.16892822360E+03  0.00000000000E+00 0.  1.
          2   -1    0    0  501    0  0.00000000000E+00 -0.00000000000E+00 -0.23196408337E+03  0.23196408337E+03  0.00000000000E+00 0. -1.
          5    1    1    2  502    0 -0.13752442151E+02 -0.15301950251E+02 -0.33118902742E+01  0.21362068341E+02  0.47000000000E+01 0.  1.
         -5    1    1    2    0  502  0.12249050311E+03  0.14070233959E+03 -0.45576109257E+02  0.19209462109E+03  0.47000000000E+01 0.  1.
        -11    1    1    2    0    0 -0.53833941616E+02 -0.44294667021E+01 -0.57966788442E+01  0.54326006027E+02  0.00000000000E+00 0. -1.
         11    1    1    2    0    0 -0.54904119340E+02 -0.12097092264E+03 -0.83511813934E+01  0.13310961150E+03  0.00000000000E+00 0.  1.
<mgrwt>
<rscale>  0 0.39590545E+03</rscale>
<asrwt>0</asrwt>
<pdfrwt beam="2">  1        2 0.35686782E-01 0.39590545E+03</pdfrwt>
<pdfrwt beam="1">  1       -2 0.25988958E-01 0.39590545E+03</pdfrwt>
<totfact> 0.19330841E+03</totfact>
</mgrwt>
</event>
<event>
 6    1  0.5258538E-006  0.2287513E+03  0.7546771E-02  0.1130664E+00
         -1   -1    0    0    0  501 -0.00000000000E+00  0.00000000000E+00  0.59831761998E+03  0.59831761998E+03  0.00000000000E+00 0.  1.
          1   -1    0    0  501    0  0.00000000000E+00 -0.00000000000E+00 -0.81304404286E+02  0.81304404286E+02  0.00000000000E+00 0. -1.
          5    1    1    2  502    0 -0.54320524685E+02  0.34330348258E+02  0.11465384356E+03  0.13151762641E+03  0.47000000000E+01 0.  1.
         -5    1    1    2    0  502  0.25159965097E+02  0.15501334011E+03  0.13566809625E+03  0.20758150639E+03  0.47000000000E+01 0.  1.
        -11    1    1    2    0    0 -0.15554313827E+02 -0.11016695577E+03  0.95261515951E+02  0.14646996704E+03  0.00000000000E+00 0. -1.
         11    1    1    2    0    0  0.44714873416E+02 -0.79176732596E+02  0.17142975993E+03  0.19405292443E+03  0.00000000000E+00 0.  1.
<mgrwt>
<rscale>  0 0.22437305E+03</rscale>
<asrwt>0</asrwt>
<pdfrwt beam="2">  1        1 0.12508370E-01 0.22875128E+03</pdfrwt>
<pdfrwt beam="1">  1       -1 0.92048862E-01 0.22875128E+03</pdfrwt>
<totfact> 0.57458420E+02</totfact>
</mgrwt>
</event>
<event>
 6    1  0.5258538E-006  0.1384288E+03  0.7546771E-02  0.1227643E+00
          1   -1    0    0  501    0  0.00000000000E+00  0.00000000000E+00  0.88990554868E+02  0.88990554868E+02  0.00000000000E+00 0. -1.
         -1   -1    0    0    0  501 -0.00000000000E+00 -0.00000000000E+00 -0.17102819102E+03  0.17102819102E+03  0.00000000000E+00 0.  1.
          5    1    1    2  502    0  0.31414415246E+02  0.38610688025E+02  0.25193066946E+02  0.55985992330E+02  0.47000000000E+01 0.  1.
         -5    1    1    2    0  502  0.27846465901E+02 -0.33575687602E+02 -0.83292664986E+02  0.94140907695E+02  0.47000000000E+01 0.  1.
        -11    1    1    2    0    0 -0.19657460348E+02 -0.30199915433E+02  0.23617773495E+02  0.43084218275E+02  0.00000000000E+00 0. -1.
         11    1    1    2    0    0 -0.39603420799E+02  0.25164915010E+02 -0.47555811604E+02  0.66807627587E+02  0.00000000000E+00 0.  1.
<mgrwt>
<rscale>  0 0.12987395E+03</rscale>
<asrwt>0</asrwt>
<pdfrwt beam="1">  1        1 0.13690855E-01 0.13842876E+03</pdfrwt>
<pdfrwt beam="2">  1       -1 0.26312029E-01 0.13842876E+03</pdfrwt>
<totfact> 0.51312711E+03</totfact>
</mgrwt>
</event>
<event>
 6    1  0.5258538E-006  0.2512796E+03  0.7546771E-02  0.1112499E+00
         -2   -1    0    0    0  501 -0.00000000000E+00  0.00000000000E+00  0.30804916024E+02  0.30804916024E+02  0.00000000000E+00 0.  1.
          2   -1    0    0  501    0  0.00000000000E+00 -0.00000000000E+00 -0.51242985817E+03  0.51242985817E+03  0.00000000000E+00 0. -1.
          5    1    1    2  502    0 -0.68495923593E+02  0.69503326273E+02 -0.20991892157E+03  0.23153930021E+03  0.47000000000E+01 0. -1.
         -5    1    1    2    0  502  0.26069624502E+02 -0.30028251086E+02 -0.91373860877E+02  0.99762686594E+02  0.47000000000E+01 0. -1.
        -11    1    1    2    0    0  0.12131068244E+02 -0.27873959501E+02 -0.17669279117E+03  0.17928876955E+03  0.00000000000E+00 0. -1.
         11    1    1    2    0    0  0.30295230847E+02 -0.11601115686E+02 -0.36393685335E+01  0.32644017837E+02  0.00000000000E+00 0.  1.
<mgrwt>
<rscale>  0 0.25127960E+03</rscale>
<asrwt>0</asrwt>
<pdfrwt beam="2">  1        2 0.78835356E-01 0.25127960E+03</pdfrwt>
<pdfrwt beam="1">  1       -2 0.47392182E-02 0.25127960E+03</pdfrwt>
<totfact> 0.12720691E+04</totfact>
</mgrwt>
</event>
<event>
 6    1  0.5258538E-006  0.1514167E+03  0.7546771E-02  0.1217699E+00
         -2   -1    0    0    0  501 -0.00000000000E+00  0.00000000000E+00  0.16571788209E+02  0.16571788209E+02  0.00000000000E+00 0.  1.
          2   -1    0    0  501    0  0.00000000000E+00 -0.00000000000E+00 -0.10169893389E+04  0.10169893389E+04  0.00000000000E+00 0. -1.
          5    1    1    2  502    0  0.39971160406E+02  0.31164872584E+02 -0.38665523321E+03  0.38999141313E+03  0.47000000000E+01 0. -1.
         -5    1    1    2    0  502 -0.69447154725E+02 -0.59400379998E+02 -0.32779039287E+03  0.34032329351E+03  0.47000000000E+01 0.  1.
        -11    1    1    2    0    0  0.55443531279E+02  0.36099834167E+02 -0.24735933496E+03  0.25605433755E+03  0.00000000000E+00 0.  1.
         11    1    1    2    0    0 -0.25967536960E+02 -0.78643267521E+01 -0.38612589655E+02  0.47192082925E+02  0.00000000000E+00 0. -1.
<mgrwt>
<rscale>  0 0.13680140E+03</rscale>
<asrwt>0</asrwt>
<pdfrwt beam="2">  1        2 0.15645992E+00 0.15141670E+03</pdfrwt>
<pdfrwt beam="1">  1       -2 0.25495055E-02 0.15141670E+03</pdfrwt>
<totfact> 0.13373518E+04</totfact>
</mgrwt>
</event>
<event>
 6    1  0.5258538E-006  0.1304261E+03  0.7546771E-02  0.1240615E+00
         -1   -1    0    0    0  501 -0.00000000000E+00  0.00000000000E+00  0.60191090277E+03  0.60191090277E+03  0.00000000000E+00 0.  1.
          1   -1    0    0  501    0  0.00000000000E+00 -0.00000000000E+00 -0.22961856798E+02  0.22961856798E+02  0.00000000000E+00 0. -1.
          5    1    1    2  502    0 -0.41035364414E+02 -0.60697209194E+02  0.11876813230E+03  0.13962811890E+03  0.47000000000E+01 0. -1.
         -5    1    1    2    0  502  0.48626399044E+02  0.24272820501E+02  0.13736782218E+03  0.14780292646E+03  0.47000000000E+01 0. -1.
        -11    1    1    2    0    0 -0.17623168585E+02  0.62417334571E+02  0.16690428185E+03  0.17906294710E+03  0.00000000000E+00 0. -1.
         11    1    1    2    0    0  0.10032133955E+02 -0.25992945879E+02  0.15590880964E+03  0.15837876711E+03  0.00000000000E+00 0.  1.
<mgrwt>
<rscale>  0 0.12151723E+03</rscale>
<asrwt>0</asrwt>
<pdfrwt beam="2">  1        1 0.35325938E-02 0.13042614E+03</pdfrwt>
<pdfrwt beam="1">  1       -1 0.92601665E-01 0.13042614E+03</pdfrwt>
<totfact> 0.31063198E+03</totfact>
</mgrwt>
</event>
<event>
 6    1  0.5258538E-006  0.1372897E+03  0.7546771E-02  0.1229452E+00
         -3   -1    0    0    0  501 -0.00000000000E+00  0.00000000000E+00  0.15948557694E+02  0.15948557694E+02  0.00000000000E+00 0.  1.
          3   -1    0    0  501    0  0.00000000000E+00 -0.00000000000E+00 -0.93241696722E+03  0.93241696722E+03  0.00000000000E+00 0. -1.
          5    1    1    2  502    0 -0.24893444953E+02 -0.35302712580E+02 -0.16742791655E+03  0.17297445579E+03  0.47000000000E+01 0.  1.
         -5    1    1    2    0  502  0.80288109511E+02  0.47834224606E+02 -0.31408357388E+03  0.32772682977E+03  0.47000000000E+01 0.  1.
        -11    1    1    2    0    0 -0.10993435933E+02  0.37234846270E+02 -0.14203144596E+03  0.14724204920E+03  0.00000000000E+00 0.  1.
         11    1    1    2    0    0 -0.44401228625E+02 -0.49766358296E+02 -0.29292547314E+03  0.30042219015E+03  0.00000000000E+00 0. -1.
<mgrwt>
<rscale>  0 0.12866399E+03</rscale>
<asrwt>0</asrwt>
<pdfrwt beam="2">  1        3 0.14344879E+00 0.13728970E+03</pdfrwt>
<pdfrwt beam="1">  1       -3 0.24536238E-02 0.13728970E+03</pdfrwt>
<totfact> 0.62208586E+02</totfact>
</mgrwt>
</event>
<event>
 6    1  0.5258538E-006  0.2767847E+03  0.7546771E-02  0.1097458E+00
          1   -1    0    0  501    0  0.00000000000E+00  0.00000000000E+00  0.62571790948E+02  0.62571790948E+02  0.00000000000E+00 0. -1.
         -1   -1    0    0    0  501 -0.00000000000E+00 -0.00000000000E+00 -0.30608747840E+03  0.30608747840E+03  0.00000000000E+00 0.  1.
          5    1    1    2  502    0  0.67561695042E+02  0.51233749847E+02 -0.10018464567E+03  0.13133367043E+03  0.47000000000E+01 0. -1.
         -5    1    1    2    0  502  0.15286053709E+02 -0.26829999109E+02  0.14558244739E+02  0.34460771612E+02  0.47000000000E+01 0.  1.
        -11    1    1    2    0    0 -0.47461914312E+02 -0.12795757649E+02 -0.97473786048E+01  0.50113632014E+02  0.00000000000E+00 0. -1.
         11    1    1    2    0    0 -0.35385834440E+02 -0.11607993088E+02 -0.14814190792E+03  0.15275119530E+03  0.00000000000E+00 0.  1.
<mgrwt>
<rscale>  0 0.27678469E+03</rscale>
<asrwt>0</asrwt>
<pdfrwt beam="1">  1        1 0.96264293E-02 0.27678469E+03</pdfrwt>
<pdfrwt beam="2">  1       -1 0.47090382E-01 0.27678469E+03</pdfrwt>
<totfact> 0.30901812E+03</totfact>
</mgrwt>
</event>
<event>
 6    1  0.5258538E-006  0.1766776E+03  0.7546771E-02  0.1177789E+00
          2   -1    0    0  501    0  0.00000000000E+00  0.00000000000E+00  0.10920221734E+04  0.10920221734E+04  0.00000000000E+00 0. -1.
         -2   -1    0    0    0  501 -0.00000000000E+00 -0.00000000000E+00 -0.27722283954E+02  0.27722283954E+02  0.00000000000E+00 0.  1.
          5    1    1    2  502    0 -0.11221914044E+02  0.60919009627E+02  0.15661754493E+03  0.16848798909E+03  0.47000000000E+01 0. -1.
         -5    1    1    2    0  502 -0.10117783147E+03 -0.65310528412E+01  0.59669044839E+03  0.60526125717E+03  0.47000000000E+01 0. -1.
        -11    1    1    2    0    0  0.82220301552E+02  0.51488491819E+01  0.20247638598E+03  0.21859408847E+03  0.00000000000E+00 0. -1.
         11    1    1    2    0    0  0.30179443958E+02 -0.59536805968E+02  0.10851551015E+03  0.12740112262E+03  0.00000000000E+00 0.  1.
<mgrwt>
<rscale>  0 0.17005692E+03</rscale>
<asrwt>0</asrwt>
<pdfrwt beam="1">  1        2 0.16800338E+00 0.17667757E+03</pdfrwt>
<pdfrwt beam="2">  1       -2 0.42649676E-02 0.17667757E+03</pdfrwt>
<totfact> 0.56762577E+03</totfact>
</mgrwt>
</event>
<event>
 6    1  0.5258538E-006  0.1335581E+03  0.7546771E-02  0.1235455E+00
         -2   -1    0    0    0  501 -0.00000000000E+00  0.00000000000E+00  0.35898449243E+02  0.35898449243E+02  0.00000000000E+00 0.  1.
          2   -1    0    0  501    0  0.00000000000E+00 -0.00000000000E+00 -0.39553622901E+03  0.39553622901E+03  0.00000000000E+00 0. -1.
          5    1    1    2  502    0 -0.88597001602E+01  0.25679712008E+02 -0.16354896066E+03  0.16585624627E+03  0.47000000000E+01 0.  1.
         -5    1    1    2    0  502 -0.37820506963E+02 -0.31451322225E+02 -0.56970454126E+01  0.49740554309E+02  0.47000000000E+01 0.  1.
        -11    1    1    2    0    0  0.10989921747E+02 -0.41177196536E+02 -0.75725865466E+02  0.86895032051E+02  0.00000000000E+00 0.  1.
         11    1    1    2    0    0  0.35690285376E+02  0.46948806753E+02 -0.11466590823E+03  0.12894284562E+03  0.00000000000E+00 0. -1.
<mgrwt>
<rscale>  0 0.12475324E+03</rscale>
<asrwt>0</asrwt>
<pdfrwt beam="2">  1        2 0.60851723E-01 0.13355811E+03</pdfrwt>
<pdfrwt beam="1">  1       -2 0.55228387E-02 0.13355811E+03</pdfrwt>
<totfact> 0.12825809E+04</totfact>
</mgrwt>
</event>
<event>
 6    1  0.5258538E-006  0.1349315E+03  0.7546771E-02  0.1237948E+00
         -2   -1    0    0    0  501 -0.00000000000E+00  0.00000000000E+00  0.60337197574E+02  0.60337197574E+02  0.00000000000E+00 0.  1.
          2   -1    0    0  501    0  0.00000000000E+00 -0.00000000000E+00 -0.23214163747E+03  0.23214163747E+03  0.00000000000E+00 0. -1.
          5    1    1    2  502    0  0.16512715024E+02  0.35769977705E+02 -0.13370407772E+03  0.13946695473E+03  0.47000000000E+01 0. -1.
         -5    1    1    2    0  502 -0.39517200834E+02 -0.35188931801E+02 -0.39172657129E+01  0.53266359494E+02  0.47000000000E+01 0.  1.
        -11    1    1    2    0    0  0.46038681215E+01 -0.39269622502E+02  0.71909189331E+01  0.40187164223E+02  0.00000000000E+00 0.  1.
         11    1    1    2    0    0  0.18400617688E+02  0.38688576599E+02 -0.41374015394E+02  0.59558356595E+02  0.00000000000E+00 0. -1.
<mgrwt>
<rscale>  0 0.12317596E+03</rscale>
<asrwt>0</asrwt>
<pdfrwt beam="2">  1        2 0.35714098E-01 0.13493145E+03</pdfrwt>
<pdfrwt beam="1">  1       -2 0.92826458E-02 0.13493145E+03</pdfrwt>
<totfact> 0.10198134E+04</totfact>
</mgrwt>
</event>
<event>
 6    1  0.5258538E-006  0.1468765E+03  0.7546771E-02  0.1213375E+00
          2   -1    0    0  501    0  0.00000000000E+00  0.00000000000E+00  0.12550675621E+03  0.12550675621E+03  0.00000000000E+00 0. -1.
         -2   -1    0    0    0  501 -0.00000000000E+00 -0.00000000000E+00 -0.14354402291E+03  0.14354402291E+03  0.00000000000E+00 0.  1.
          5    1    1    2  502    0 -0.81025820699E+02  0.71099904474E+02 -0.13513068041E+02  0.10874315171E+03  0.47000000000E+01 0.  1.
         -5    1    1    2    0  502  0.13716992872E+02 -0.33419650129E+02  0.11325756013E+02  0.38149595770E+02  0.47000000000E+01 0.  1.
        -11    1    1    2    0    0  0.68619423207E+02 -0.57787878260E+02  0.90041882748E+01  0.90161740897E+02  0.00000000000E+00 0. -1.
         11    1    1    2    0    0 -0.13105953802E+01  0.20107623915E+02 -0.24854142951E+02  0.31996290747E+02  0.00000000000E+00 0.  1.
<mgrwt>
<rscale>  0 0.13996613E+03</rscale>
<asrwt>0</asrwt>
<pdfrwt beam="1">  1        2 0.19308732E-01 0.14687646E+03</pdfrwt>
<pdfrwt beam="2">  1       -2 0.22083696E-01 0.14687646E+03</pdfrwt>
<totfact> 0.49077456E+03</totfact>
</mgrwt>
</event>
<event>
 6    1  0.5258538E-006  0.1255935E+03  0.7546771E-02  0.1245249E+00
          2   -1    0    0  501    0  0.00000000000E+00  0.00000000000E+00  0.48275491759E+02  0.48275491759E+02  0.00000000000E+00 0. -1.
         -2   -1    0    0    0  501 -0.00000000000E+00 -0.00000000000E+00 -0.26540551891E+03  0.26540551891E+03  0.00000000000E+00 0.  1.
          5    1    1    2  502    0  0.43181989700E+02  0.46097315395E+02 -0.97351699045E+02  0.11614254185E+03  0.47000000000E+01 0. -1.
         -5    1    1    2    0  502 -0.46918087784E+02 -0.13600142977E+02 -0.12325419417E+02  0.50599177998E+02  0.47000000000E+01 0.  1.
        -11    1    1    2    0    0 -0.48763188842E+01 -0.65697047763E+02 -0.68480955114E+02  0.95023795882E+02  0.00000000000E+00 0.  1.
         11    1    1    2    0    0  0.86124169681E+01  0.33199875344E+02 -0.38971953578E+02  0.51915494938E+02  0.00000000000E+00 0. -1.
<mgrwt>
<rscale>  0 0.11870508E+03</rscale>
<asrwt>0</asrwt>
<pdfrwt beam="1">  1        2 0.74269988E-02 0.12559351E+03</pdfrwt>
<pdfrwt beam="2">  1       -2 0.40831618E-01 0.12559351E+03</pdfrwt>
<totfact> 0.50574921E+03</totfact>
</mgrwt>
</event>
<event>
 6    1  0.5258538E-006  0.2465827E+03  0.7546771E-02  0.1115484E+00
          1   -1    0    0  501    0  0.00000000000E+00  0.00000000000E+00  0.17116046420E+03  0.17116046420E+03  0.00000000000E+00 0. -1.
         -1   -1    0    0    0  501 -0.00000000000E+00 -0.00000000000E+00 -0.88809958368E+02  0.88809958368E+02  0.00000000000E+00 0.  1.
          5    1    1    2  502    0  0.33985383528E+01  0.38812934961E+01 -0.37325302431E+02  0.37972130619E+02  0.47000000000E+01 0. -1.
         -5    1    1    2    0  502  0.60096738725E+02 -0.29221711268E+01  0.97358963461E+02  0.11454699846E+03  0.47000000000E+01 0. -1.
        -11    1    1    2    0    0  0.10202229446E+02  0.22758448482E+02 -0.48413110902E+01  0.25406116509E+02  0.00000000000E+00 0.  1.
         11    1    1    2    0    0 -0.73697506524E+02 -0.23717570851E+02  0.27158155896E+02  0.82045176986E+02  0.00000000000E+00 0. -1.
<mgrwt>
<rscale>  0 0.24658267E+03</rscale>
<asrwt>0</asrwt>
<pdfrwt beam="1">  1        1 0.26332379E-01 0.24658267E+03</pdfrwt>
<pdfrwt beam="2">  1       -1 0.13663071E-01 0.24658267E+03</pdfrwt>
<totfact> 0.65817660E+03</totfact>
</mgrwt>
</event>
<event>
 6    1  0.5258538E-006  0.1280008E+03  0.7546771E-02  0.1269306E+00
          4   -1    0    0  501    0  0.00000000000E+00  0.00000000000E+00  0.57456911920E+02  0.57456911920E+02  0.00000000000E+00 0. -1.
         -4   -1    0    0    0  501 -0.00000000000E+00 -0.00000000000E+00 -0.24012969738E+03  0.24012969738E+03  0.00000000000E+00 0.  1.
          5    1    1    2  502    0 -0.37506818385E+02 -0.41516681334E+02  0.24784383216E+02  0.61373869894E+02  0.47000000000E+01 0. -1.
         -5    1    1    2    0  502  0.44014561188E+02  0.14681887070E+02 -0.51327410007E+02  0.69350071540E+02  0.47000000000E+01 0. -1.
        -11    1    1    2    0    0  0.20477188221E+02  0.65989248216E+01 -0.91100199475E+02  0.93606129023E+02  0.00000000000E+00 0.  1.
         11    1    1    2    0    0 -0.26984931024E+02  0.20235869442E+02 -0.65029559192E+02  0.73256538843E+02  0.00000000000E+00 0. -1.
<mgrwt>
<rscale>  0 0.10541401E+03</rscale>
<asrwt>0</asrwt>
<pdfrwt beam="1">  1        4 0.88395248E-02 0.12800085E+03</pdfrwt>
<pdfrwt beam="2">  1       -4 0.36943031E-01 0.12800085E+03</pdfrwt>
<totfact> 0.10833608E+03</totfact>
</mgrwt>
</event>
<event>
 6    1  0.5258538E-006  0.1275208E+03  0.7546771E-02  0.1245583E+00
          2   -1    0    0  501    0  0.00000000000E+00  0.00000000000E+00  0.39083799381E+03  0.39083799381E+03  0.00000000000E+00 0. -1.
         -2   -1    0    0    0  501 -0.00000000000E+00 -0.00000000000E+00 -0.31744047550E+02  0.31744047550E+02  0.00000000000E+00 0.  1.
          5    1    1    2  502    0 -0.54870150682E+02 -0.18462205409E+02  0.15658465648E+03  0.16701027246E+03  0.47000000000E+01 0. -1.
         -5    1    1    2    0  502  0.53985755190E+02 -0.66926527949E+01  0.41544988621E+02  0.68609980647E+02  0.47000000000E+01 0. -1.
        -11    1    1    2    0    0  0.37431405349E+02  0.89774873233E+01  0.13227897519E+03  0.13776586175E+03  0.00000000000E+00 0. -1.
         11    1    1    2    0    0 -0.36547009858E+02  0.16177370880E+02  0.28685325967E+02  0.49195926498E+02  0.00000000000E+00 0.  1.
<mgrwt>
<rscale>  0 0.11850536E+03</rscale>
<asrwt>0</asrwt>
<pdfrwt beam="1">  1        2 0.60128919E-01 0.12752077E+03</pdfrwt>
<pdfrwt beam="2">  1       -2 0.48836999E-02 0.12752077E+03</pdfrwt>
<totfact> 0.15567920E+04</totfact>
</mgrwt>
</event>
<event>
 6    1  0.5258538E-006  0.2297956E+03  0.7546771E-02  0.1129516E+00
         -1   -1    0    0    0  501 -0.00000000000E+00  0.00000000000E+00  0.37062141076E+03  0.37062141076E+03  0.00000000000E+00 0.  1.
          1   -1    0    0  501    0  0.00000000000E+00 -0.00000000000E+00 -0.15152112315E+03  0.15152112315E+03  0.00000000000E+00 0. -1.
          5    1    1    2  502    0  0.13925677179E+03  0.51731128179E+02  0.69217393791E+02  0.16395638358E+03  0.47000000000E+01 0.  1.
         -5    1    1    2    0  502  0.47496423231E+02 -0.36602754299E+01 -0.46781177966E+02  0.66931879160E+02  0.47000000000E+01 0.  1.
        -11    1    1    2    0    0 -0.34467394093E+02 -0.51926895900E+02  0.62444452706E+02  0.88225356033E+02  0.00000000000E+00 0. -1.
         11    1    1    2    0    0 -0.15228580093E+03  0.38560431505E+01  0.13421961909E+03  0.20302891514E+03  0.00000000000E+00 0.  1.
<mgrwt>
<rscale>  0 0.22595940E+03</rscale>
<asrwt>0</asrwt>
<pdfrwt beam="2">  1        1 0.23310942E-01 0.22979557E+03</pdfrwt>
<pdfrwt beam="1">  1       -1 0.57018678E-01 0.22979557E+03</pdfrwt>
<totfact> 0.67227557E+02</totfact>
</mgrwt>
</event>
<event>
 6    1  0.5258538E-006  0.1396143E+03  0.7546771E-02  0.1224830E+00
         -1   -1    0    0    0  501 -0.00000000000E+00  0.00000000000E+00  0.19565427436E+03  0.19565427436E+03  0.00000000000E+00 0.  1.
          1   -1    0    0  501    0  0.00000000000E+00 -0.00000000000E+00 -0.19662013336E+03  0.19662013336E+03  0.00000000000E+00 0. -1.
          5    1    1    2  502    0 -0.96928901603E+02 -0.15662379551E+02 -0.11818285595E+03  0.15371987360E+03  0.47000000000E+01 0. -1.
         -5    1    1    2    0  502  0.39321958644E+02 -0.72372796129E+01 -0.32874014274E+02  0.51974854134E+02  0.47000000000E+01 0. -1.
        -11    1    1    2    0    0  0.58329759823E+02 -0.24454362462E+02  0.91702307344E+02  0.11139878768E+03  0.00000000000E+00 0. -1.
         11    1    1    2    0    0 -0.72281686390E+00  0.47354021625E+02  0.58388703872E+02  0.75180892307E+02  0.00000000000E+00 0.  1.
<mgrwt>
<rscale>  0 0.13178554E+03</rscale>
<asrwt>0</asrwt>
<pdfrwt beam="2">  1        1 0.30249251E-01 0.13961426E+03</pdfrwt>
<pdfrwt beam="1">  1       -1 0.30100658E-01 0.13961426E+03</pdfrwt>
<totfact> 0.14968505E+03</totfact>
</mgrwt>
</event>
<event>
 6    1  0.5258538E-006  0.1334474E+03  0.7546771E-02  0.1235964E+00
         -3   -1    0    0    0  501 -0.00000000000E+00  0.00000000000E+00  0.64405859257E+03  0.64405859257E+03  0.00000000000E+00 0.  1.
          3   -1    0    0  501    0  0.00000000000E+00 -0.00000000000E+00 -0.28002437415E+02  0.28002437415E+02  0.00000000000E+00 0. -1.
          5    1    1    2  502    0 -0.56409188556E+02  0.23680331218E+02  0.28087011974E+02  0.67481292828E+02  0.47000000000E+01 0. -1.
         -5    1    1    2    0  502  0.11776066721E+02 -0.37522344013E+02  0.14949595825E+03  0.15465359220E+03  0.47000000000E+01 0. -1.
        -11    1    1    2    0    0  0.56630630384E+02 -0.22715204169E+02  0.23143561483E+03  0.23934379584E+03  0.00000000000E+00 0.  1.
         11    1    1    2    0    0 -0.11997508548E+02  0.36557216963E+02  0.20703757011E+03  0.21058234912E+03  0.00000000000E+00 0. -1.
<mgrwt>
<rscale>  0 0.12442946E+03</rscale>
<asrwt>0</asrwt>
<pdfrwt beam="2">  1        3 0.43080678E-02 0.13344735E+03</pdfrwt>
<pdfrwt beam="1">  1       -3 0.99085926E-01 0.13344735E+03</pdfrwt>
<totfact> 0.61692221E+02</totfact>
</mgrwt>
</event>
<event>
 6    1  0.5258538E-006  0.1321096E+03  0.7546771E-02  0.1236538E+00
          2   -1    0    0  501    0  0.00000000000E+00  0.00000000000E+00  0.76495496859E+02  0.76495496859E+02  0.00000000000E+00 0.  1.
         -2   -1    0    0    0  501 -0.00000000000E+00 -0.00000000000E+00 -0.18058551487E+03  0.18058551487E+03  0.00000000000E+00 0. -1.
          5    1    1    2  502    0 -0.31010992500E+02  0.51525953335E+02 -0.60147332828E+02  0.85184489018E+02  0.47000000000E+01 0.  1.
         -5    1    1    2    0  502 -0.11647958414E+02 -0.55416432990E+02  0.69259367208E+01  0.57242594106E+02  0.47000000000E+01 0.  1.
        -11    1    1    2    0    0  0.38373716646E+02  0.45795487325E+02 -0.22381239798E+02  0.63801948900E+02  0.00000000000E+00 0.  1.
         11    1    1    2    0    0  0.42852342678E+01 -0.41905007671E+02 -0.28487382106E+02  0.50851979705E+02  0.00000000000E+00 0. -1.
<mgrwt>
<rscale>  0 0.12406467E+03</rscale>
<asrwt>0</asrwt>
<pdfrwt beam="1">  1        2 0.11768538E-01 0.13210964E+03</pdfrwt>
<pdfrwt beam="2">  1       -2 0.27782387E-01 0.13210964E+03</pdfrwt>
<totfact> 0.58290968E+03</totfact>
</mgrwt>
</event>
<event>
 6    1  0.5258538E-006  0.3231708E+03  0.7546771E-02  0.1097854E+00
          1   -1    0    0  501    0  0.00000000000E+00  0.00000000000E+00  0.96841342973E+03  0.96841342973E+03  0.00000000000E+00 0. -1.
         -1   -1    0    0    0  501 -0.00000000000E+00 -0.00000000000E+00 -0.64905093870E+02  0.64905093870E+02  0.00000000000E+00 0.  1.
          5    1    1    2  502    0  0.20325194816E+03  0.92034267834E+02  0.49211157476E+03  0.54034947294E+03  0.47000000000E+01 0. -1.
         -5    1    1    2    0  502 -0.97876471260E+02  0.95779412048E+01  0.17095469155E+03  0.19727933786E+03  0.47000000000E+01 0.  1.
        -11    1    1    2    0    0 -0.95489319685E+02 -0.54343748680E+02  0.10531577241E+03  0.15219351206E+03  0.00000000000E+00 0.  1.
         11    1    1    2    0    0 -0.98861572170E+01 -0.47268460359E+02  0.13512629714E+03  0.14349620074E+03  0.00000000000E+00 0. -1.
<mgrwt>
<rscale>  0 0.27607195E+03</rscale>
<asrwt>0</asrwt>
<pdfrwt beam="1">  1        1 0.14898667E+00 0.32317084E+03</pdfrwt>
<pdfrwt beam="2">  1       -1 0.99853997E-02 0.32317084E+03</pdfrwt>
<totfact> 0.10321928E+03</totfact>
</mgrwt>
</event>
<event>
 6    1  0.5258538E-006  0.2483578E+03  0.7546771E-02  0.1114347E+00
         -2   -1    0    0    0  501 -0.00000000000E+00  0.00000000000E+00  0.11299888385E+02  0.11299888385E+02  0.00000000000E+00 0.  1.
          2   -1    0    0  501    0  0.00000000000E+00 -0.00000000000E+00 -0.13646509582E+04  0.13646509582E+04  0.00000000000E+00 0. -1.
          5    1    1    2  502    0  0.49821951853E+01 -0.18209914786E+01 -0.90780011805E+03  0.90782778246E+03  0.47000000000E+01 0.  1.
         -5    1    1    2    0  502 -0.10390848758E+02  0.41423121063E+02 -0.10516525335E+03  0.11360310387E+03  0.47000000000E+01 0.  1.
        -11    1    1    2    0    0  0.34743885823E+02 -0.53963433125E+02 -0.18737527477E+03  0.19806232178E+03  0.00000000000E+00 0. -1.
         11    1    1    2    0    0 -0.29335232250E+02  0.14361303541E+02 -0.15301042370E+03  0.15645763852E+03  0.00000000000E+00 0.  1.
<mgrwt>
<rscale>  0 0.24835783E+03</rscale>
<asrwt>0</asrwt>
<pdfrwt beam="2">  1        2 0.20994621E+00 0.24835783E+03</pdfrwt>
<pdfrwt beam="1">  1       -2 0.17384451E-02 0.24835783E+03</pdfrwt>
<totfact> 0.15286872E+04</totfact>
</mgrwt>
</event>
<event>
 6    1  0.5258538E-006  0.2371063E+03  0.7546771E-02  0.1121736E+00
          1   -1    0    0  501    0  0.00000000000E+00  0.00000000000E+00  0.22143727337E+03  0.22143727337E+03  0.00000000000E+00 0. -1.
         -1   -1    0    0    0  501 -0.00000000000E+00 -0.00000000000E+00 -0.63471032270E+02  0.63471032270E+02  0.00000000000E+00 0.  1.
          5    1    1    2  502    0 -0.55338315985E+02 -0.26722327343E+02  0.14325417769E+03  0.15594954768E+03  0.47000000000E+01 0. -1.
         -5    1    1    2    0  502  0.26402060606E+02 -0.21007982728E+01 -0.33089600808E+01  0.27102054801E+02  0.47000000000E+01 0.  1.
        -11    1    1    2    0    0  0.15033089645E+02  0.19777763636E+02 -0.36901328177E+02  0.44484398838E+02  0.00000000000E+00 0.  1.
         11    1    1    2    0    0  0.13903165734E+02  0.90453619795E+01  0.54922351660E+02  0.57372304317E+02  0.00000000000E+00 0. -1.
<mgrwt>
<rscale>  0 0.23710632E+03</rscale>
<asrwt>0</asrwt>
<pdfrwt beam="1">  1        1 0.34067272E-01 0.23710632E+03</pdfrwt>
<pdfrwt beam="2">  1       -1 0.97647743E-02 0.23710632E+03</pdfrwt>
<totfact> 0.80107135E+03</totfact>
</mgrwt>
</event>
<event>
 6    1  0.5258538E-006  0.1283811E+03  0.7546771E-02  0.1243565E+00
         -2   -1    0    0    0  501 -0.00000000000E+00  0.00000000000E+00  0.11950561897E+03  0.11950561897E+03  0.00000000000E+00 0.  1.
          2   -1    0    0  501    0  0.00000000000E+00 -0.00000000000E+00 -0.10634139739E+03  0.10634139739E+03  0.00000000000E+00 0. -1.
          5    1    1    2  502    0 -0.40075489301E+02  0.60170546746E+02  0.15493845622E+02  0.74085685463E+02  0.47000000000E+01 0. -1.
         -5    1    1    2    0  502  0.43633376331E+02 -0.31088104634E+02 -0.86742623521E+01  0.54476367419E+02  0.47000000000E+01 0. -1.
        -11    1    1    2    0    0  0.23409729683E+02 -0.26554821983E+01 -0.34426225380E+02  0.41716088305E+02  0.00000000000E+00 0. -1.
         11    1    1    2    0    0 -0.26967616713E+02 -0.26426959913E+02  0.40770863695E+02  0.55568875172E+02  0.00000000000E+00 0.  1.
<mgrwt>
<rscale>  0 0.11971698E+03</rscale>
<asrwt>0</asrwt>
<pdfrwt beam="2">  1        2 0.16360215E-01 0.12838105E+03</pdfrwt>
<pdfrwt beam="1">  1       -2 0.18385480E-01 0.12838105E+03</pdfrwt>
<totfact> 0.80214622E+03</totfact>
</mgrwt>
</event>
<event>
 6    1  0.5258538E-006  0.1422403E+03  0.7546771E-02  0.1225039E+00
          1   -1    0    0  501    0  0.00000000000E+00  0.00000000000E+00  0.50490555011E+03  0.50490555011E+03  0.00000000000E+00 0. -1.
         -1   -1    0    0    0  501 -0.00000000000E+00 -0.00000000000E+00 -0.54493491028E+02  0.54493491028E+02  0.00000000000E+00 0.  1.
          5    1    1    2  502    0 -0.29753698411E+02 -0.67078590398E+02  0.30808576910E+03  0.31673924761E+03  0.47000000000E+01 0. -1.
         -5    1    1    2    0  502 -0.14055392267E+02  0.58856938608E+02  0.12211323584E+03  0.13636504553E+03  0.47000000000E+01 0.  1.
        -11    1    1    2    0    0  0.39556358724E+02 -0.28296886387E+01  0.55988416901E+02  0.68610607637E+02  0.00000000000E+00 0.  1.
         11    1    1    2    0    0  0.42527319543E+01  0.11051340429E+02 -0.35775362756E+02  0.37684140360E+02  0.00000000000E+00 0. -1.
<mgrwt>
<rscale>  0 0.13164235E+03</rscale>
<asrwt>0</asrwt>
<pdfrwt beam="1">  1        1 0.77677774E-01 0.14224035E+03</pdfrwt>
<pdfrwt beam="2">  1       -1 0.83836144E-02 0.14224035E+03</pdfrwt>
<totfact> 0.34744853E+03</totfact>
</mgrwt>
</event>
<event>
 6    1  0.5258538E-006  0.1671332E+03  0.7546771E-02  0.1187617E+00
          2   -1    0    0  501    0  0.00000000000E+00  0.00000000000E+00  0.10946921070E+03  0.10946921070E+03  0.00000000000E+00 0. -1.
         -2   -1    0    0    0  501 -0.00000000000E+00 -0.00000000000E+00 -0.23785132287E+03  0.23785132287E+03  0.00000000000E+00 0.  1.
          5    1    1    2  502    0 -0.78164233203E+02 -0.75356606265E+02 -0.49470989618E+02  0.11940575478E+03  0.47000000000E+01 0. -1.
         -5    1    1    2    0  502  0.31786041333E+02 -0.25418470827E+02  0.27240460440E+02  0.49199428530E+02  0.47000000000E+01 0. -1.
        -11    1    1    2    0    0 -0.18565540005E+02  0.11069546228E+02 -0.50160567709E+02  0.54619563182E+02  0.00000000000E+00 0.  1.
         11    1    1    2    0    0  0.64943731875E+02  0.89705530864E+02 -0.55991015282E+02  0.12409578707E+03  0.00000000000E+00 0. -1.
<mgrwt>
<rscale>  0 0.16095976E+03</rscale>
<asrwt>0</asrwt>
<pdfrwt beam="1">  1        2 0.16841417E-01 0.16713321E+03</pdfrwt>
<pdfrwt beam="2">  1       -2 0.36592511E-01 0.16713321E+03</pdfrwt>
<totfact> 0.23425007E+03</totfact>
</mgrwt>
</event>
<event>
 6    1  0.5258538E-006  0.1264395E+03  0.7546771E-02  0.1252655E+00
          2   -1    0    0  501    0  0.00000000000E+00  0.00000000000E+00  0.10672883246E+04  0.10672883246E+04  0.00000000000E+00 0. -1.
         -2   -1    0    0    0  501 -0.00000000000E+00 -0.00000000000E+00 -0.11740328478E+02  0.11740328478E+02  0.00000000000E+00 0.  1.
          5    1    1    2  502    0 -0.43507223987E+01 -0.38617226977E+02  0.76762353298E+02  0.86167092841E+02  0.47000000000E+01 0.  1.
         -5    1    1    2    0  502  0.15634980755E+02  0.23369424742E+02  0.72010311176E+03  0.72066716603E+03  0.47000000000E+01 0.  1.
        -11    1    1    2    0    0  0.21876247451E+02  0.37394249886E+02  0.10907299461E+03  0.11736191154E+03  0.00000000000E+00 0.  1.
         11    1    1    2    0    0 -0.33160505807E+02 -0.22146447652E+02  0.14960953647E+03  0.15483248267E+03  0.00000000000E+00 0. -1.
<mgrwt>
<rscale>  0 0.11438676E+03</rscale>
<asrwt>0</asrwt>
<pdfrwt beam="1">  1        2 0.16419813E+00 0.12643952E+03</pdfrwt>
<pdfrwt beam="2">  1       -2 0.18062052E-02 0.12643952E+03</pdfrwt>
<totfact> 0.20389523E+04</totfact>
</mgrwt>
</event>
<event>
 6    1  0.5258538E-006  0.1423585E+03  0.7546771E-02  0.1221589E+00
         -2   -1    0    0    0  501 -0.00000000000E+00  0.00000000000E+00  0.45519431653E+02  0.45519431653E+02  0.00000000000E+00 0.  1.
          2   -1    0    0  501    0  0.00000000000E+00 -0.00000000000E+00 -0.81109261295E+03  0.81109261295E+03  0.00000000000E+00 0. -1.
          5    1    1    2  502    0 -0.56529796694E+02  0.28986591615E+02 -0.44497927311E+03  0.44951583277E+03  0.47000000000E+01 0. -1.
         -5    1    1    2    0  502  0.10412001521E+02 -0.71788736009E+02 -0.27807056222E+03  0.28741496128E+03  0.47000000000E+01 0.  1.
        -11    1    1    2    0    0  0.65359085930E+02  0.42567242478E+02 -0.57903234084E+01  0.78213221970E+02  0.00000000000E+00 0.  1.
         11    1    1    2    0    0 -0.19241290757E+02  0.23490191663E+00 -0.36733022562E+02  0.41468028593E+02  0.00000000000E+00 0. -1.
<mgrwt>
<rscale>  0 0.13403490E+03</rscale>
<asrwt>0</asrwt>
<pdfrwt beam="2">  1        2 0.12478347E+00 0.14235846E+03</pdfrwt>
<pdfrwt beam="1">  1       -2 0.70029899E-02 0.14235846E+03</pdfrwt>
<totfact> 0.39683383E+03</totfact>
</mgrwt>
</event>
<event>
 6    1  0.1198084E-005  0.2493889E+03  0.7546771E-02  0.1116116E+00
          3   -1    0    0  501    0  0.00000000000E+00  0.00000000000E+00  0.13030269350E+04  0.13030269350E+04  0.00000000000E+00 0. -1.
         -3   -1    0    0    0  501 -0.00000000000E+00 -0.00000000000E+00 -0.45724028742E+02  0.45724028742E+02  0.00000000000E+00 0.  1.
          5    1    1    2  502    0 -0.18188635959E+02 -0.42395036593E+01  0.62144320931E+02  0.65060022236E+02  0.47000000000E+01 0. -1.
         -5    1    1    2    0  502  0.20704055976E+03 -0.10018615874E+03  0.67369075186E+03  0.71188789772E+03  0.47000000000E+01 0. -1.
        -11    1    1    2    0    0 -0.10857612358E+03  0.20676192784E+02  0.18062432928E+03  0.21175794645E+03  0.00000000000E+00 0.  1.
         11    1    1    2    0    0 -0.80275800216E+02  0.83749469613E+02  0.34084350420E+03  0.36004509734E+03  0.00000000000E+00 0. -1.
<mgrwt>
<rscale>  0 0.24560250E+03</rscale>
<asrwt>0</asrwt>
<pdfrwt beam="1">  1        3 0.20046565E+00 0.24938889E+03</pdfrwt>
<pdfrwt beam="2">  1       -3 0.70344669E-02 0.24938889E+03</pdfrwt>
<totfact> 0.52164940E+01</totfact>
</mgrwt>
</event>
<event>
 6    1  0.5258538E-006  0.2598427E+03  0.7546771E-02  0.1107238E+00
         -3   -1    0    0    0  501 -0.00000000000E+00  0.00000000000E+00  0.30408311139E+02  0.30408311139E+02  0.00000000000E+00 0.  1.
          3   -1    0    0  501    0  0.00000000000E+00 -0.00000000000E+00 -0.55509671101E+03  0.55509671101E+03  0.00000000000E+00 0. -1.
          5    1    1    2  502    0 -0.10486415166E+03 -0.75165974296E+01 -0.21014523541E+03  0.23502361478E+03  0.47000000000E+01 0. -1.
         -5    1    1    2    0  502  0.34982092825E+02 -0.15424518592E+01 -0.11675898127E+03  0.12198719475E+03  0.47000000000E+01 0. -1.
        -11    1    1    2    0    0  0.40606103951E+02  0.11609188894E+02 -0.19437512241E+03  0.19891032441E+03  0.00000000000E+00 0. -1.
         11    1    1    2    0    0  0.29275954883E+02 -0.25501396048E+01 -0.34090607900E+01  0.29583888213E+02  0.00000000000E+00 0.  1.
<mgrwt>
<rscale>  0 0.25984267E+03</rscale>
<asrwt>0</asrwt>
<pdfrwt beam="2">  1        3 0.85399487E-01 0.25984267E+03</pdfrwt>
<pdfrwt beam="1">  1       -3 0.46782021E-02 0.25984267E+03</pdfrwt>
<totfact> 0.82752609E+02</totfact>
</mgrwt>
</event>
<event>
 6    1  0.5258538E-006  0.1965751E+03  0.7546771E-02  0.1157020E+00
         -1   -1    0    0    0  501 -0.00000000000E+00  0.00000000000E+00  0.88542943613E+02  0.88542943613E+02  0.00000000000E+00 0.  1.
          1   -1    0    0  501    0  0.00000000000E+00 -0.00000000000E+00 -0.51420725177E+03  0.51420725177E+03  0.00000000000E+00 0. -1.
          5    1    1    2  502    0 -0.13856637353E+03 -0.60613632545E+02 -0.29727835666E+03  0.33357332576E+03  0.47000000000E+01 0. -1.
         -5    1    1    2    0  502 -0.12069267658E+02  0.42594989330E+02 -0.68891225561E+02  0.82024943140E+02  0.47000000000E+01 0. -1.
        -11    1    1    2    0    0  0.46552143304E+01  0.12020683479E+02  0.17709632969E+02  0.21904313540E+02  0.00000000000E+00 0.  1.
         11    1    1    2    0    0  0.14598042686E+03  0.59979597366E+01 -0.77204358906E+02  0.16524761294E+03  0.00000000000E+00 0. -1.
<mgrwt>
<rscale>  0 0.19160701E+03</rscale>
<asrwt>0</asrwt>
<pdfrwt beam="2">  1        1 0.79108809E-01 0.19657507E+03</pdfrwt>
<pdfrwt beam="1">  1       -1 0.13621991E-01 0.19657507E+03</pdfrwt>
<totfact> 0.16208436E+03</totfact>
</mgrwt>
</event>
<event>
 6    1  0.5258538E-006  0.2093767E+03  0.7546771E-02  0.1146345E+00
         -1   -1    0    0    0  501 -0.00000000000E+00  0.00000000000E+00  0.31050044558E+03  0.31050044558E+03  0.00000000000E+00 0.  1.
          1   -1    0    0  501    0  0.00000000000E+00 -0.00000000000E+00 -0.24444154435E+03  0.24444154435E+03  0.00000000000E+00 0. -1.
          5    1    1    2  502    0  0.23314817228E+02  0.18528262852E+03 -0.12958651991E+03  0.22734992693E+03  0.47000000000E+01 0.  1.
         -5    1    1    2    0  502 -0.86600435483E+01 -0.17950260315E+02 -0.28073551354E+02  0.34747985341E+02  0.47000000000E+01 0.  1.
        -11    1    1    2    0    0  0.16016885720E+02 -0.76960287356E+02  0.15948429942E+03  0.17780514115E+03  0.00000000000E+00 0.  1.
         11    1    1    2    0    0 -0.30671659400E+02 -0.90372080849E+02  0.64234673081E+02  0.11503893651E+03  0.00000000000E+00 0. -1.
<mgrwt>
<rscale>  0 0.20407566E+03</rscale>
<asrwt>0</asrwt>
<pdfrwt beam="2">  1        1 0.37606392E-01 0.20937674E+03</pdfrwt>
<pdfrwt beam="1">  1       -1 0.47769299E-01 0.20937674E+03</pdfrwt>
<totfact> 0.51090171E+02</totfact>
</mgrwt>
</event>
<event>
 6    1  0.5258538E-006  0.1474807E+03  0.7546771E-02  0.1212929E+00
          2   -1    0    0  501    0  0.00000000000E+00  0.00000000000E+00  0.90477322691E+02  0.90477322691E+02  0.00000000000E+00 0.  1.
         -2   -1    0    0    0  501 -0.00000000000E+00 -0.00000000000E+00 -0.24481215395E+03  0.24481215395E+03  0.00000000000E+00 0. -1.
          5    1    1    2  502    0  0.13584704968E+01  0.38592954042E+02  0.20006214003E+02  0.43744715595E+02  0.47000000000E+01 0. -1.
         -5    1    1    2    0  502  0.70198683084E+02 -0.70231218778E+02 -0.31061370640E+02  0.10414978610E+03  0.47000000000E+01 0. -1.
        -11    1    1    2    0    0 -0.28804533780E+02 -0.46452219890E+01  0.43274138154E+01  0.29495860115E+02  0.00000000000E+00 0.  1.
         11    1    1    2    0    0 -0.42752619801E+02  0.36283486725E+02 -0.14760708844E+03  0.15789911483E+03  0.00000000000E+00 0. -1.
<mgrwt>
<rscale>  0 0.14029760E+03</rscale>
<asrwt>0</asrwt>
<pdfrwt beam="1">  1        2 0.13919588E-01 0.14748073E+03</pdfrwt>
<pdfrwt beam="2">  1       -2 0.37663408E-01 0.14748073E+03</pdfrwt>
<totfact> 0.27580916E+03</totfact>
</mgrwt>
</event>
<event>
 6    1  0.5258538E-006  0.1304404E+03  0.7546771E-02  0.1240680E+00
         -2   -1    0    0    0  501 -0.00000000000E+00  0.00000000000E+00  0.11410657739E+02  0.11410657739E+02  0.00000000000E+00 0.  1.
          2   -1    0    0  501    0  0.00000000000E+00 -0.00000000000E+00 -0.12141884619E+04  0.12141884619E+04  0.00000000000E+00 0. -1.
          5    1    1    2  502    0  0.48401158905E+02  0.52551757911E+02 -0.67882948011E+03  0.68259498424E+03  0.47000000000E+01 0.  1.
         -5    1    1    2    0  502 -0.40868758484E+02 -0.16214068402E+02 -0.14813477144E+03  0.15459350550E+03  0.47000000000E+01 0.  1.
        -11    1    1    2    0    0 -0.44273594618E+02 -0.38262059213E+02 -0.27331685221E+03  0.27951071188E+03  0.00000000000E+00 0.  1.
         11    1    1    2    0    0  0.36741194197E+02  0.19243697042E+01 -0.10249670038E+03  0.10889991799E+03  0.00000000000E+00 0. -1.
<mgrwt>
<rscale>  0 0.12147737E+03</rscale>
<asrwt>0</asrwt>
<pdfrwt beam="2">  1        2 0.18679820E+00 0.13044038E+03</pdfrwt>
<pdfrwt beam="1">  1       -2 0.17554860E-02 0.13044038E+03</pdfrwt>
<totfact> 0.17600154E+04</totfact>
</mgrwt>
</event>
<event>
 6    1  0.5258538E-006  0.1464798E+03  0.7546771E-02  0.1213702E+00
         -2   -1    0    0    0  501 -0.00000000000E+00  0.00000000000E+00  0.13125023151E+03  0.13125023151E+03  0.00000000000E+00 0.  1.
          2   -1    0    0  501    0  0.00000000000E+00 -0.00000000000E+00 -0.14872771503E+03  0.14872771503E+03  0.00000000000E+00 0. -1.
          5    1    1    2  502    0 -0.63652694064E+02  0.33155288434E+02  0.19192343399E+02  0.74440410113E+02  0.47000000000E+01 0.  1.
         -5    1    1    2    0  502 -0.12483556593E+02 -0.39260036468E+02 -0.68581277324E+02  0.80141570038E+02  0.47000000000E+01 0.  1.
        -11    1    1    2    0    0  0.30711785924E+02  0.36474572116E+02  0.48776240303E+02  0.68210921587E+02  0.00000000000E+00 0.  1.
         11    1    1    2    0    0  0.45424464732E+02 -0.30369824082E+02 -0.16864789891E+02  0.57185044802E+02  0.00000000000E+00 0. -1.
<mgrwt>
<rscale>  0 0.13972346E+03</rscale>
<asrwt>0</asrwt>
<pdfrwt beam="2">  1        2 0.22881187E-01 0.14647977E+03</pdfrwt>
<pdfrwt beam="1">  1       -2 0.20192343E-01 0.14647977E+03</pdfrwt>
<totfact> 0.47222209E+03</totfact>
</mgrwt>
</event>
<event>
 6    1  0.5258538E-006  0.3930129E+03  0.7546771E-02  0.1046226E+00
         -1   -1    0    0    0  501 -0.00000000000E+00  0.00000000000E+00  0.25760658116E+02  0.25760658116E+02  0.00000000000E+00 0.  1.
          1   -1    0    0  501    0  0.00000000000E+00 -0.00000000000E+00 -0.14989832371E+04  0.14989832371E+04  0.00000000000E+00 0. -1.
          5    1    1    2  502    0  0.79661885395E+02  0.13921879825E+03 -0.47757521226E+03  0.50381352020E+03  0.47000000000E+01 0. -1.
         -5    1    1    2    0  502  0.26559720433E+01  0.25396025936E+01 -0.31740489769E+03  0.31746096271E+03  0.47000000000E+01 0. -1.
        -11    1    1    2    0    0  0.10215842714E+02 -0.29286664579E+02 -0.52300076423E+02  0.60806004295E+02  0.00000000000E+00 0. -1.
         11    1    1    2    0    0 -0.92533700152E+02 -0.11247173627E+03 -0.62594239259E+03  0.64266340799E+03  0.00000000000E+00 0.  1.
<mgrwt>
<rscale>  0 0.39301295E+03</rscale>
<asrwt>0</asrwt>
<pdfrwt beam="2">  1        1 0.23061280E+00 0.39301295E+03</pdfrwt>
<pdfrwt beam="1">  1       -1 0.39631782E-02 0.39301295E+03</pdfrwt>
<totfact> 0.17821737E+03</totfact>
</mgrwt>
</event>
<event>
 6    1  0.5258538E-006  0.1261396E+03  0.7546771E-02  0.1251127E+00
          1   -1    0    0  501    0  0.00000000000E+00  0.00000000000E+00  0.67673954206E+03  0.67673954206E+03  0.00000000000E+00 0. -1.
         -1   -1    0    0    0  501 -0.00000000000E+00 -0.00000000000E+00 -0.31805869735E+02  0.31805869735E+02  0.00000000000E+00 0.  1.
          5    1    1    2  502    0  0.39901929289E+02  0.80429481313E+01  0.60331625161E+02  0.72930432401E+02  0.47000000000E+01 0.  1.
         -5    1    1    2    0  502 -0.26087878918E+02  0.17383779110E+01  0.53298911066E+03  0.53365071111E+03  0.47000000000E+01 0.  1.
        -11    1    1    2    0    0  0.21747964465E+02 -0.36524841054E+02  0.17830983506E+02  0.46097526454E+02  0.00000000000E+00 0.  1.
         11    1    1    2    0    0 -0.35562014835E+02  0.26743515012E+02  0.33781952994E+02  0.55866741828E+02  0.00000000000E+00 0. -1.
<mgrwt>
<rscale>  0 0.11526055E+03</rscale>
<asrwt>0</asrwt>
<pdfrwt beam="1">  1        1 0.10411377E+00 0.12613956E+03</pdfrwt>
<pdfrwt beam="2">  1       -1 0.48932112E-02 0.12613956E+03</pdfrwt>
<totfact> 0.51946526E+03</totfact>
</mgrwt>
</event>
<event>
 6    1  0.5258538E-006  0.1209358E+03  0.7546771E-02  0.1248187E+00
          2   -1    0    0  501    0  0.00000000000E+00  0.00000000000E+00  0.16090398024E+04  0.16090398024E+04  0.00000000000E+00 0. -1.
         -2   -1    0    0    0  501 -0.00000000000E+00 -0.00000000000E+00 -0.99490355693E+01  0.99490355693E+01  0.00000000000E+00 0.  1.
          5    1    1    2  502    0 -0.25631826426E+02  0.14688994698E+02  0.10466963612E+04  0.10471237366E+04  0.47000000000E+01 0. -1.
         -5    1    1    2    0  502  0.27356460495E+02  0.31678831587E+02  0.15427228542E+03  0.15991858038E+03  0.47000000000E+01 0.  1.
        -11    1    1    2    0    0 -0.47957463681E+02 -0.27674324255E+02  0.18774501384E+03  0.19573956363E+03  0.00000000000E+00 0. -1.
         11    1    1    2    0    0  0.46232829612E+02 -0.18693502030E+02  0.21037710637E+03  0.21620695742E+03  0.00000000000E+00 0.  1.
<mgrwt>
<rscale>  0 0.11696668E+03</rscale>
<asrwt>0</asrwt>
<pdfrwt beam="1">  1        2 0.24754438E+00 0.12093579E+03</pdfrwt>
<pdfrwt beam="2">  1       -2 0.15306221E-02 0.12093579E+03</pdfrwt>
<totfact> 0.13218850E+04</totfact>
</mgrwt>
</event>
<event>
 6    1  0.5258538E-006  0.2783830E+03  0.7546771E-02  0.1098501E+00
         -2   -1    0    0    0  501 -0.00000000000E+00  0.00000000000E+00  0.19140022007E+03  0.19140022007E+03  0.00000000000E+00 0.  1.
          2   -1    0    0  501    0  0.00000000000E+00 -0.00000000000E+00 -0.51169805541E+03  0.51169805541E+03  0.00000000000E+00 0. -1.
          5    1    1    2  502    0  0.49691212278E+02  0.61595344331E+01 -0.12957965845E+03  0.13899688603E+03  0.47000000000E+01 0. -1.
         -5    1    1    2    0  502  0.11334484763E+03  0.18170739859E+03 -0.20826693923E+03  0.29876720229E+03  0.47000000000E+01 0. -1.
        -11    1    1    2    0    0 -0.42180835820E+02 -0.31540638856E+02 -0.31990839663E+02  0.61623442230E+02  0.00000000000E+00 0. -1.
         11    1    1    2    0    0 -0.12085522409E+03 -0.15632629416E+03  0.49539602000E+02  0.20371074494E+03  0.00000000000E+00 0.  1.
<mgrwt>
<rscale>  0 0.27491112E+03</rscale>
<asrwt>0</asrwt>
<pdfrwt beam="2">  1        2 0.78722778E-01 0.27838296E+03</pdfrwt>
<pdfrwt beam="1">  1       -2 0.29446188E-01 0.27838296E+03</pdfrwt>
<totfact> 0.64416516E+02</totfact>
</mgrwt>
</event>
<event>
 6    1  0.5258538E-006  0.1422990E+03  0.7546771E-02  0.1217962E+00
          2   -1    0    0  501    0  0.00000000000E+00  0.00000000000E+00  0.15130732780E+04  0.15130732780E+04  0.00000000000E+00 0. -1.
         -2   -1    0    0    0  501 -0.00000000000E+00 -0.00000000000E+00 -0.18281301373E+02  0.18281301373E+02  0.00000000000E+00 0.  1.
          5    1    1    2  502    0  0.38896738213E+02 -0.20485909200E+02  0.22383084811E+03  0.22815557693E+03  0.47000000000E+01 0. -1.
         -5    1    1    2    0  502 -0.18929564296E+02  0.85507872789E+02  0.10289377591E+04  0.10326688370E+04  0.47000000000E+01 0. -1.
        -11    1    1    2    0    0 -0.46942629832E+02 -0.43310957938E+02  0.68788974319E+02  0.93868911578E+02  0.00000000000E+00 0.  1.
         11    1    1    2    0    0  0.26975455915E+02 -0.21711005651E+02  0.17323439509E+03  0.17666125390E+03  0.00000000000E+00 0. -1.
<mgrwt>
<rscale>  0 0.13661156E+03</rscale>
<asrwt>0</asrwt>
<pdfrwt beam="1">  1        2 0.23278041E+00 0.14229905E+03</pdfrwt>
<pdfrwt beam="2">  1       -2 0.28125091E-02 0.14229905E+03</pdfrwt>
<totfact> 0.61629938E+03</totfact>
</mgrwt>
</event>
<event>
 6    1  0.5258538E-006  0.2975784E+03  0.7546771E-02  0.1086457E+00
          1   -1    0    0  501    0  0.00000000000E+00  0.00000000000E+00  0.52361763349E+03  0.52361763349E+03  0.00000000000E+00 0. -1.
         -1   -1    0    0    0  501 -0.00000000000E+00 -0.00000000000E+00 -0.42279368943E+02  0.42279368943E+02  0.00000000000E+00 0.  1.
          5    1    1    2  502    0  0.84448456542E+01 -0.70946692846E+00  0.26336576783E+03  0.26354399334E+03  0.47000000000E+01 0. -1.
         -5    1    1    2    0  502 -0.25922980989E+02  0.80410462941E+02  0.11166503100E+03  0.14010357826E+03  0.47000000000E+01 0. -1.
        -11    1    1    2    0    0 -0.19595908824E+02  0.26463046606E+01  0.54859912581E+02  0.58314771537E+02  0.00000000000E+00 0. -1.
         11    1    1    2    0    0  0.37074044158E+02 -0.82347300673E+02  0.51447553134E+02  0.10393465929E+03  0.00000000000E+00 0.  1.
<mgrwt>
<rscale>  0 0.29757838E+03</rscale>
<asrwt>0</asrwt>
<pdfrwt beam="1">  1        1 0.80556554E-01 0.29757838E+03</pdfrwt>
<pdfrwt beam="2">  1       -1 0.65045187E-02 0.29757838E+03</pdfrwt>
<totfact> 0.50079872E+03</totfact>
</mgrwt>
</event>
<event>
 6    1  0.5258538E-006  0.1388714E+03  0.7546771E-02  0.1226268E+00
         -1   -1    0    0    0  501 -0.00000000000E+00  0.00000000000E+00  0.20121945250E+02  0.20121945250E+02  0.00000000000E+00 0.  1.
          1   -1    0    0  501    0  0.00000000000E+00 -0.00000000000E+00 -0.81235180903E+03  0.81235180903E+03  0.00000000000E+00 0. -1.
          5    1    1    2  502    0  0.53148410463E+02 -0.95199427955E+01 -0.91733301037E+02  0.10654797682E+03  0.47000000000E+01 0.  1.
         -5    1    1    2    0  502 -0.23856588075E+02 -0.43404612107E+02 -0.44841598681E+03  0.45116746822E+03  0.47000000000E+01 0.  1.
        -11    1    1    2    0    0 -0.47228932471E+02  0.24141107453E+02 -0.61631461765E+02  0.81312989188E+02  0.00000000000E+00 0.  1.
         11    1    1    2    0    0  0.17937110084E+02  0.28783447450E+02 -0.19044911416E+03  0.19344532005E+03  0.00000000000E+00 0. -1.
<mgrwt>
<rscale>  0 0.13080348E+03</rscale>
<asrwt>0</asrwt>
<pdfrwt beam="2">  1        1 0.12497720E+00 0.13887140E+03</pdfrwt>
<pdfrwt beam="1">  1       -1 0.30956840E-02 0.13887140E+03</pdfrwt>
<totfact> 0.78249912E+03</totfact>
</mgrwt>
</event>
<event>
 6    1  0.5258538E-006  0.1462932E+03  0.7546771E-02  0.1215443E+00
         -2   -1    0    0    0  501 -0.00000000000E+00  0.00000000000E+00  0.12486476885E+02  0.12486476885E+02  0.00000000000E+00 0.  1.
          2   -1    0    0  501    0  0.00000000000E+00 -0.00000000000E+00 -0.15195930949E+04  0.15195930949E+04  0.00000000000E+00 0. -1.
          5    1    1    2  502    0  0.45242861565E+02  0.25963314625E+01 -0.23765844671E+03  0.24198612512E+03  0.47000000000E+01 0. -1.
         -5    1    1    2    0  502 -0.58940404238E+02 -0.77342939700E+02 -0.81302113333E+03  0.81882925865E+03  0.47000000000E+01 0. -1.
        -11    1    1    2    0    0  0.46405674645E+02  0.14244040696E+02 -0.18789443095E+03  0.19406364038E+03  0.00000000000E+00 0. -1.
         11    1    1    2    0    0 -0.32708131971E+02  0.60502567541E+02 -0.26853260706E+03  0.27720054768E+03  0.00000000000E+00 0.  1.
<mgrwt>
<rscale>  0 0.13844024E+03</rscale>
<asrwt>0</asrwt>
<pdfrwt beam="2">  1        2 0.23378366E+00 0.14629319E+03</pdfrwt>
<pdfrwt beam="1">  1       -2 0.19209956E-02 0.14629319E+03</pdfrwt>
<totfact> 0.10680649E+04</totfact>
</mgrwt>
</event>
<event>
 6    1  0.5258538E-006  0.2453766E+03  0.7546771E-02  0.1119059E+00
         -2   -1    0    0    0  501 -0.00000000000E+00  0.00000000000E+00  0.89858232495E+02  0.89858232495E+02  0.00000000000E+00 0.  1.
          2   -1    0    0  501    0  0.00000000000E+00 -0.00000000000E+00 -0.74509417288E+03  0.74509417288E+03  0.00000000000E+00 0. -1.
          5    1    1    2  502    0  0.62634828041E+02  0.15827540882E+03 -0.26554996988E+03  0.31545697524E+03  0.47000000000E+01 0.  1.
         -5    1    1    2    0  502  0.53332587591E+02  0.18177481568E+02 -0.23898585681E+03  0.24558321500E+03  0.47000000000E+01 0.  1.
        -11    1    1    2    0    0 -0.12820334294E+02 -0.66100137755E+01 -0.48221831375E+02  0.50332874692E+02  0.00000000000E+00 0. -1.
         11    1    1    2    0    0 -0.10314708134E+03 -0.16984287662E+03 -0.10247828232E+03  0.22357934044E+03  0.00000000000E+00 0.  1.
<mgrwt>
<rscale>  0 0.24110469E+03</rscale>
<asrwt>0</asrwt>
<pdfrwt beam="2">  1        2 0.11462987E+00 0.24537664E+03</pdfrwt>
<pdfrwt beam="1">  1       -2 0.13824343E-01 0.24537664E+03</pdfrwt>
<totfact> 0.15206723E+03</totfact>
</mgrwt>
</event>
<event>
 6    1  0.5258538E-006  0.3040352E+03  0.7546771E-02  0.1083241E+00
          1   -1    0    0  501    0  0.00000000000E+00  0.00000000000E+00  0.21584891064E+03  0.21584891064E+03  0.00000000000E+00 0. -1.
         -1   -1    0    0    0  501 -0.00000000000E+00 -0.00000000000E+00 -0.10706262309E+03  0.10706262309E+03  0.00000000000E+00 0.  1.
          5    1    1    2  502    0  0.10509400361E+03 -0.21192043789E+02  0.62652417528E+02  0.12426289767E+03  0.47000000000E+01 0.  1.
         -5    1    1    2    0  502 -0.39509603141E+01  0.50851105465E+02  0.11047503839E+01  0.51232367580E+02  0.47000000000E+01 0.  1.
        -11    1    1    2    0    0 -0.35954887727E+02 -0.56629786335E+02  0.36466941768E+02  0.76351322803E+02  0.00000000000E+00 0.  1.
         11    1    1    2    0    0 -0.65188155571E+02  0.26970724660E+02  0.85621778689E+01  0.71064945686E+02  0.00000000000E+00 0. -1.
<mgrwt>
<rscale>  0 0.30403520E+03</rscale>
<asrwt>0</asrwt>
<pdfrwt beam="1">  1        1 0.33207525E-01 0.30403520E+03</pdfrwt>
<pdfrwt beam="2">  1       -1 0.16471173E-01 0.30403520E+03</pdfrwt>
<totfact> 0.36742387E+03</totfact>
</mgrwt>
</event>
<event>
 6    1  0.5939799E-006  0.4130428E+03  0.7546771E-02  0.1039355E+00
          3   -1    0    0  501    0  0.00000000000E+00  0.00000000000E+00  0.28967091908E+03  0.28967091908E+03  0.00000000000E+00 0. -1.
         -3   -1    0    0    0  501 -0.00000000000E+00 -0.00000000000E+00 -0.14723979783E+03  0.14723979783E+03  0.00000000000E+00 0.  1.
          5    1    1    2  502    0  0.96899375426E+01 -0.18804460840E+02  0.57292859401E+02  0.61254096805E+02  0.47000000000E+01 0. -1.
         -5    1    1    2    0  502  0.73012262276E+02  0.14618807370E+03  0.11077271481E+03  0.19747006781E+03  0.47000000000E+01 0. -1.
        -11    1    1    2    0    0 -0.41091117951E+02 -0.60239300747E+02 -0.57646757597E+02  0.92953762647E+02  0.00000000000E+00 0.  1.
         11    1    1    2    0    0 -0.41611081868E+02 -0.67144312109E+02  0.32012304646E+02  0.85232789650E+02  0.00000000000E+00 0. -1.
<mgrwt>
<rscale>  0 0.41304279E+03</rscale>
<asrwt>0</asrwt>
<pdfrwt beam="1">  1        3 0.44564757E-01 0.41304279E+03</pdfrwt>
<pdfrwt beam="2">  1       -3 0.22652277E-01 0.41304279E+03</pdfrwt>
<totfact> 0.23553419E+02</totfact>
</mgrwt>
</event>
<event>
 6    1  0.5258538E-006  0.1295159E+03  0.7546771E-02  0.1241570E+00
         -2   -1    0    0    0  501 -0.00000000000E+00  0.00000000000E+00  0.84468623316E+01  0.84468623316E+01  0.00000000000E+00 0.  1.
          2   -1    0    0  501    0  0.00000000000E+00 -0.00000000000E+00 -0.17487362771E+04  0.17487362771E+04  0.00000000000E+00 0. -1.
          5    1    1    2  502    0  0.78278349181E+02 -0.21876555964E+02 -0.75150387496E+03  0.75590095101E+03  0.47000000000E+01 0.  1.
         -5    1    1    2    0  502 -0.45634698680E+02  0.12801867860E+02 -0.52547165869E+03  0.52762578371E+03  0.47000000000E+01 0.  1.
        -11    1    1    2    0    0 -0.65306054175E+02  0.47371071979E+01 -0.31199510151E+03  0.31879188237E+03  0.00000000000E+00 0.  1.
         11    1    1    2    0    0  0.32662403675E+02  0.43375809062E+01 -0.15131877963E+03  0.15486452237E+03  0.00000000000E+00 0. -1.
<mgrwt>
<rscale>  0 0.12093063E+03</rscale>
<asrwt>0</asrwt>
<pdfrwt beam="2">  1        2 0.26903624E+00 0.12951589E+03</pdfrwt>
<pdfrwt beam="1">  1       -2 0.12995178E-02 0.12951589E+03</pdfrwt>
<totfact> 0.14235885E+04</totfact>
</mgrwt>
</event>
<event>
 6    1  0.5258538E-006  0.1835652E+03  0.7546771E-02  0.1169287E+00
         -1   -1    0    0    0  501 -0.00000000000E+00  0.00000000000E+00  0.52105445026E+03  0.52105445026E+03  0.00000000000E+00 0.  1.
          1   -1    0    0  501    0  0.00000000000E+00 -0.00000000000E+00 -0.58177466993E+02  0.58177466993E+02  0.00000000000E+00 0. -1.
          5    1    1    2  502    0 -0.92020832724E+02 -0.60245659737E+02  0.20715056151E+03  0.23458648364E+03  0.47000000000E+01 0.  1.
         -5    1    1    2    0  502 -0.41999200376E+02  0.49726150286E+02  0.54440288800E+02  0.84985045150E+02  0.47000000000E+01 0.  1.
        -11    1    1    2    0    0  0.12133597567E+03 -0.57739510049E+01  0.10310395279E+03  0.15933041952E+03  0.00000000000E+00 0. -1.
         11    1    1    2    0    0  0.12684057427E+02  0.16293460456E+02  0.98182180172E+02  0.10032996895E+03  0.00000000000E+00 0.  1.
<mgrwt>
<rscale>  0 0.17847475E+03</rscale>
<asrwt>0</asrwt>
<pdfrwt beam="2">  1        1 0.89503799E-02 0.18356522E+03</pdfrwt>
<pdfrwt beam="1">  1       -1 0.80162220E-01 0.18356522E+03</pdfrwt>
<totfact> 0.11996704E+03</totfact>
</mgrwt>
</event>
<event>
 6    1  0.5258538E-006  0.1620654E+03  0.7546771E-02  0.1194379E+00
          1   -1    0    0  501    0  0.00000000000E+00  0.00000000000E+00  0.12052362337E+03  0.12052362337E+03  0.00000000000E+00 0. -1.
         -1   -1    0    0    0  501 -0.00000000000E+00 -0.00000000000E+00 -0.20524217353E+03  0.20524217353E+03  0.00000000000E+00 0.  1.
          5    1    1    2  502    0 -0.67120384207E+02 -0.23097617914E+02 -0.56334449226E+02  0.90743077416E+02  0.47000000000E+01 0. -1.
         -5    1    1    2    0  502 -0.25528837548E+02 -0.22239985610E+02  0.62741710314E+02  0.71448937848E+02  0.47000000000E+01 0. -1.
        -11    1    1    2    0    0  0.26067759816E+02 -0.30869037491E+01 -0.75291381284E+02  0.79736122130E+02  0.00000000000E+00 0.  1.
         11    1    1    2    0    0  0.66581461939E+02  0.48424507273E+02 -0.15834429970E+02  0.83837659503E+02  0.00000000000E+00 0. -1.
<mgrwt>
<rscale>  0 0.15506885E+03</rscale>
<asrwt>0</asrwt>
<pdfrwt beam="1">  1        1 0.18542096E-01 0.16206541E+03</pdfrwt>
<pdfrwt beam="2">  1       -1 0.31575719E-01 0.16206541E+03</pdfrwt>
<totfact> 0.25753729E+03</totfact>
</mgrwt>
</event>
<event>
 6    1  0.5258538E-006  0.1287701E+03  0.7546771E-02  0.1244453E+00
         -2   -1    0    0    0  501 -0.00000000000E+00  0.00000000000E+00  0.26044157449E+02  0.26044157449E+02  0.00000000000E+00 0.  1.
          2   -1    0    0  501    0  0.00000000000E+00 -0.00000000000E+00 -0.52705304883E+03  0.52705304883E+03  0.00000000000E+00 0. -1.
          5    1    1    2  502    0 -0.28540735147E+02 -0.21355599114E+02 -0.26345225434E+03  0.26589436905E+03  0.47000000000E+01 0.  1.
         -5    1    1    2    0  502  0.52413509031E+02  0.41043961358E+02 -0.10502435446E+03  0.12443467251E+03  0.47000000000E+01 0.  1.
        -11    1    1    2    0    0 -0.49238242843E+02  0.80573796673E+01 -0.10474305134E+03  0.11601910502E+03  0.00000000000E+00 0. -1.
         11    1    1    2    0    0  0.25365468959E+02 -0.27745741911E+02 -0.27789231238E+02  0.46749059697E+02  0.00000000000E+00 0.  1.
<mgrwt>
<rscale>  0 0.11918174E+03</rscale>
<asrwt>0</asrwt>
<pdfrwt beam="2">  1        2 0.81085080E-01 0.12877014E+03</pdfrwt>
<pdfrwt beam="1">  1       -2 0.40067936E-02 0.12877014E+03</pdfrwt>
<totfact> 0.15142151E+04</totfact>
</mgrwt>
</event>
<event>
 6    1  0.5258538E-006  0.1304329E+03  0.7546771E-02  0.1240443E+00
         -1   -1    0    0    0  501 -0.00000000000E+00  0.00000000000E+00  0.13064512193E+02  0.13064512193E+02  0.00000000000E+00 0.  1.
          1   -1    0    0  501    0  0.00000000000E+00 -0.00000000000E+00 -0.17419302853E+04  0.17419302853E+04  0.00000000000E+00 0. -1.
          5    1    1    2  502    0 -0.37557511691E+02  0.58031041219E+02 -0.65188162305E+03  0.65555313202E+03  0.47000000000E+01 0.  1.
         -5    1    1    2    0  502  0.52662473577E+02 -0.24038706772E+02 -0.84978178552E+03  0.85176426818E+03  0.47000000000E+01 0.  1.
        -11    1    1    2    0    0 -0.18768691702E+01 -0.62712423647E+02 -0.18202045337E+03  0.19253003964E+03  0.00000000000E+00 0. -1.
         11    1    1    2    0    0 -0.13228092716E+02  0.28720089200E+02 -0.45181911194E+02  0.55147357685E+02  0.00000000000E+00 0.  1.
<mgrwt>
<rscale>  0 0.12162322E+03</rscale>
<asrwt>0</asrwt>
<pdfrwt beam="2">  1        1 0.26798914E+00 0.13043294E+03</pdfrwt>
<pdfrwt beam="1">  1       -1 0.20099260E-02 0.13043294E+03</pdfrwt>
<totfact> 0.33505667E+03</totfact>
</mgrwt>
</event>
<event>
 6    1  0.5258538E-006  0.1624112E+03  0.7546771E-02  0.1193398E+00
         -1   -1    0    0    0  501 -0.00000000000E+00  0.00000000000E+00  0.47662841882E+02  0.47662841882E+02  0.00000000000E+00 0.  1.
          1   -1    0    0  501    0  0.00000000000E+00 -0.00000000000E+00 -0.47405503455E+03  0.47405503455E+03  0.00000000000E+00 0. -1.
          5    1    1    2  502    0  0.39652647212E+02  0.26802291658E+02 -0.31510562682E+02  0.57495224407E+02  0.47000000000E+01 0. -1.
         -5    1    1    2    0  502 -0.80017097127E+02  0.68704672258E+02 -0.18729950731E+03  0.21500293780E+03  0.47000000000E+01 0. -1.
        -11    1    1    2    0    0  0.57414637822E+01 -0.13590158147E+02  0.74464422935E+01  0.16525928345E+02  0.00000000000E+00 0.  1.
         11    1    1    2    0    0  0.34622986133E+02 -0.81916805769E+02 -0.21502856497E+03  0.23269378589E+03  0.00000000000E+00 0. -1.
<mgrwt>
<rscale>  0 0.15590631E+03</rscale>
<asrwt>0</asrwt>
<pdfrwt beam="2">  1        1 0.72931543E-01 0.16241121E+03</pdfrwt>
<pdfrwt beam="1">  1       -1 0.73327450E-02 0.16241121E+03</pdfrwt>
<totfact> 0.46459572E+03</totfact>
</mgrwt>
</event>
<event>
 6    1  0.5258538E-006  0.3454633E+03  0.7546771E-02  0.1064493E+00
         -1   -1    0    0    0  501 -0.00000000000E+00  0.00000000000E+00  0.19398363458E+03  0.19398363458E+03  0.00000000000E+00 0.  1.
          1   -1    0    0  501    0  0.00000000000E+00 -0.00000000000E+00 -0.15380793820E+03  0.15380793820E+03  0.00000000000E+00 0. -1.
          5    1    1    2  502    0  0.45041168926E+02  0.19686897597E+02  0.40425526852E+01  0.49545060979E+02  0.47000000000E+01 0. -1.
         -5    1    1    2    0  502 -0.75156612004E+02  0.10954995636E+03  0.10775087341E+02  0.13337129291E+03  0.47000000000E+01 0. -1.
        -11    1    1    2    0    0 -0.32671099104E+02 -0.60550611201E+02  0.20053367712E+02  0.71665296972E+02  0.00000000000E+00 0.  1.
         11    1    1    2    0    0  0.62786542182E+02 -0.68686242752E+02  0.53046886508E+01  0.93209921919E+02  0.00000000000E+00 0. -1.
<mgrwt>
<rscale>  0 0.34546330E+03</rscale>
<asrwt>0</asrwt>
<pdfrwt beam="2">  1        1 0.23662760E-01 0.34546330E+03</pdfrwt>
<pdfrwt beam="1">  1       -1 0.29843636E-01 0.34546330E+03</pdfrwt>
<totfact> 0.21240097E+03</totfact>
</mgrwt>
</event>
<event>
 6    1  0.5258538E-006  0.2459461E+03  0.7546771E-02  0.1115894E+00
         -2   -1    0    0    0  501 -0.00000000000E+00  0.00000000000E+00  0.32404488543E+02  0.32404488543E+02  0.00000000000E+00 0.  1.
          2   -1    0    0  501    0  0.00000000000E+00 -0.00000000000E+00 -0.46667527101E+03  0.46667527101E+03  0.00000000000E+00 0. -1.
          5    1    1    2  502    0 -0.99927576336E+01 -0.12536225531E+02  0.37037082568E+01  0.17111972725E+02  0.47000000000E+01 0. -1.
         -5    1    1    2    0  502  0.29012326108E+02  0.54498151217E+02 -0.32268865710E+03  0.32857544487E+03  0.47000000000E+01 0. -1.
        -11    1    1    2    0    0 -0.28485186806E+02  0.40227573276E+01  0.15667114432E+00  0.28768263586E+02  0.00000000000E+00 0.  1.
         11    1    1    2    0    0  0.94656183314E+01 -0.45984683014E+02 -0.11544250477E+03  0.12462407837E+03  0.00000000000E+00 0. -1.
<mgrwt>
<rscale>  0 0.24594612E+03</rscale>
<asrwt>0</asrwt>
<pdfrwt beam="2">  1        2 0.71796201E-01 0.24594612E+03</pdfrwt>
<pdfrwt beam="1">  1       -2 0.49853056E-02 0.24594612E+03</pdfrwt>
<totfact> 0.13059545E+04</totfact>
</mgrwt>
</event>
<event>
 6    1  0.5258538E-006  0.1741942E+03  0.7546771E-02  0.1179827E+00
         -1   -1    0    0    0  501 -0.00000000000E+00  0.00000000000E+00  0.37191512393E+02  0.37191512393E+02  0.00000000000E+00 0.  1.
          1   -1    0    0  501    0  0.00000000000E+00 -0.00000000000E+00 -0.74222800407E+03  0.74222800407E+03  0.00000000000E+00 0. -1.
          5    1    1    2  502    0 -0.31407186839E+02  0.41351736097E+02 -0.24694737218E+03  0.25239150559E+03  0.47000000000E+01 0. -1.
         -5    1    1    2    0  502 -0.87689839817E+02 -0.64465271957E+02 -0.20876263875E+03  0.23547655644E+03  0.47000000000E+01 0. -1.
        -11    1    1    2    0    0  0.57950909793E+02 -0.33757465283E+02 -0.98770159331E+02  0.11938768271E+03  0.00000000000E+00 0. -1.
         11    1    1    2    0    0  0.61146116863E+02  0.56871001142E+02 -0.15055632141E+03  0.17216377173E+03  0.00000000000E+00 0.  1.
<mgrwt>
<rscale>  0 0.16811595E+03</rscale>
<asrwt>0</asrwt>
<pdfrwt beam="2">  1        1 0.11418892E+00 0.17419424E+03</pdfrwt>
<pdfrwt beam="1">  1       -1 0.57217713E-02 0.17419424E+03</pdfrwt>
<totfact> 0.36527251E+03</totfact>
</mgrwt>
</event>
<event>
 6    1  0.5258538E-006  0.1280041E+03  0.7546771E-02  0.1244999E+00
          3   -1    0    0  501    0  0.00000000000E+00  0.00000000000E+00  0.24917733994E+03  0.24917733994E+03  0.00000000000E+00 0. -1.
         -3   -1    0    0    0  501 -0.00000000000E+00 -0.00000000000E+00 -0.51915008515E+02  0.51915008515E+02  0.00000000000E+00 0.  1.
          5    1    1    2  502    0 -0.10953222132E+02 -0.17252730262E+02  0.14117774549E+03  0.14272657636E+03  0.47000000000E+01 0.  1.
         -5    1    1    2    0  502  0.28626078715E+02  0.38351986176E+02  0.33351454110E+00  0.48088756047E+02  0.47000000000E+01 0.  1.
        -11    1    1    2    0    0 -0.50359602759E+01 -0.56927179416E+02  0.32896354128E+02  0.65941146237E+02  0.00000000000E+00 0.  1.
         11    1    1    2    0    0 -0.12636896306E+02  0.35827923502E+02  0.22854717262E+02  0.44335869811E+02  0.00000000000E+00 0. -1.
<mgrwt>
<rscale>  0 0.11885462E+03</rscale>
<asrwt>0</asrwt>
<pdfrwt beam="1">  1        3 0.38334975E-01 0.12800412E+03</pdfrwt>
<pdfrwt beam="2">  1       -3 0.79869245E-02 0.12800412E+03</pdfrwt>
<totfact> 0.16404009E+03</totfact>
</mgrwt>
</event>
<event>
 6    1  0.5258538E-006  0.1454012E+03  0.7546771E-02  0.1214606E+00
          2   -1    0    0  501    0  0.00000000000E+00  0.00000000000E+00  0.49387091482E+03  0.49387091482E+03  0.00000000000E+00 0. -1.
         -2   -1    0    0    0  501 -0.00000000000E+00 -0.00000000000E+00 -0.37027191390E+02  0.37027191390E+02  0.00000000000E+00 0.  1.
          5    1    1    2  502    0 -0.46640135505E+02 -0.59162092435E+02  0.79365105606E+02  0.10952792068E+03  0.47000000000E+01 0. -1.
         -5    1    1    2    0  502 -0.23588791482E+02  0.34951952495E+02  0.21082008955E+03  0.21504713489E+03  0.47000000000E+01 0. -1.
        -11    1    1    2    0    0  0.84046375176E+02  0.44699401955E+02  0.11682310450E+03  0.15069660733E+03  0.00000000000E+00 0.  1.
         11    1    1    2    0    0 -0.13817448189E+02 -0.20489262015E+02  0.49835423769E+02  0.55626443304E+02  0.00000000000E+00 0. -1.
<mgrwt>
<rscale>  0 0.13905521E+03</rscale>
<asrwt>0</asrwt>
<pdfrwt beam="1">  1        2 0.75980136E-01 0.14540124E+03</pdfrwt>
<pdfrwt beam="2">  1       -2 0.56964913E-02 0.14540124E+03</pdfrwt>
<totfact> 0.96860262E+03</totfact>
</mgrwt>
</event>
<event>
 6    1  0.5258538E-006  0.1296307E+03  0.7546771E-02  0.1241986E+00
          1   -1    0    0  501    0  0.00000000000E+00  0.00000000000E+00  0.70239724546E+02  0.70239724546E+02  0.00000000000E+00 0. -1.
         -1   -1    0    0    0  501 -0.00000000000E+00 -0.00000000000E+00 -0.27298413216E+03  0.27298413216E+03  0.00000000000E+00 0.  1.
          5    1    1    2  502    0 -0.14323422181E+01  0.78781746762E+02 -0.47131096744E+01  0.79075398386E+02  0.47000000000E+01 0.  1.
         -5    1    1    2    0  502  0.16031393840E+02 -0.47660881492E+02 -0.86931861439E+01  0.51246723782E+02  0.47000000000E+01 0.  1.
        -11    1    1    2    0    0 -0.24006038522E+02  0.24701584244E+02 -0.37824621239E+02  0.51158187239E+02  0.00000000000E+00 0.  1.
         11    1    1    2    0    0  0.94069869010E+01 -0.55822449513E+02 -0.15151349056E+03  0.16174354730E+03  0.00000000000E+00 0. -1.
<mgrwt>
<rscale>  0 0.12067627E+03</rscale>
<asrwt>0</asrwt>
<pdfrwt beam="1">  1        1 0.10806111E-01 0.12963073E+03</pdfrwt>
<pdfrwt beam="2">  1       -1 0.41997559E-01 0.12963073E+03</pdfrwt>
<totfact> 0.31404004E+03</totfact>
</mgrwt>
</event>
<event>
 6    1  0.5258538E-006  0.1451160E+03  0.7546771E-02  0.1215869E+00
          1   -1    0    0  501    0  0.00000000000E+00  0.00000000000E+00  0.78231852858E+02  0.78231852858E+02  0.00000000000E+00 0. -1.
         -1   -1    0    0    0  501 -0.00000000000E+00 -0.00000000000E+00 -0.22562668180E+03  0.22562668180E+03  0.00000000000E+00 0.  1.
          5    1    1    2  502    0  0.18440495378E+02  0.30260763445E+02  0.14381106792E+02  0.38531440495E+02  0.47000000000E+01 0.  1.
         -5    1    1    2    0  502 -0.89766775388E+02 -0.11684559917E+02 -0.79325317478E+02  0.12045413607E+03  0.47000000000E+01 0.  1.
        -11    1    1    2    0    0 -0.16127191561E+01 -0.31849732349E+02 -0.59083566933E+02  0.67140704460E+02  0.00000000000E+00 0.  1.
         11    1    1    2    0    0  0.72938999167E+02  0.13273528822E+02 -0.23367051322E+02  0.77732253629E+02  0.00000000000E+00 0. -1.
<mgrwt>
<rscale>  0 0.13812892E+03</rscale>
<asrwt>0</asrwt>
<pdfrwt beam="1">  1        1 0.12035670E-01 0.14511603E+03</pdfrwt>
<pdfrwt beam="2">  1       -1 0.34711797E-01 0.14511603E+03</pdfrwt>
<totfact> 0.38200568E+03</totfact>
</mgrwt>
</event>
<event>
 6    1  0.5258538E-006  0.2651205E+03  0.7546771E-02  0.1104105E+00
          1   -1    0    0  501    0  0.00000000000E+00  0.00000000000E+00  0.93048416921E+02  0.93048416921E+02  0.00000000000E+00 0. -1.
         -1   -1    0    0    0  501 -0.00000000000E+00 -0.00000000000E+00 -0.18885028190E+03  0.18885028190E+03  0.00000000000E+00 0.  1.
          5    1    1    2  502    0 -0.17097821093E+02  0.18343397448E+02  0.28196554364E+02  0.38025667569E+02  0.47000000000E+01 0. -1.
         -5    1    1    2    0  502  0.92592241515E+01 -0.91297236525E+02 -0.61871792112E+02  0.11077512035E+03  0.47000000000E+01 0. -1.
        -11    1    1    2    0    0  0.46893763179E+02  0.50188483530E+02 -0.53528587807E+02  0.87081677848E+02  0.00000000000E+00 0. -1.
         11    1    1    2    0    0 -0.39055166238E+02  0.22765355546E+02 -0.85980394257E+01  0.46016233059E+02  0.00000000000E+00 0.  1.
<mgrwt>
<rscale>  0 0.26512050E+03</rscale>
<asrwt>0</asrwt>
<pdfrwt beam="1">  1        1 0.14315141E-01 0.26512050E+03</pdfrwt>
<pdfrwt beam="2">  1       -1 0.29053889E-01 0.26512050E+03</pdfrwt>
<totfact> 0.42470018E+03</totfact>
</mgrwt>
</event>
<event>
 6    1  0.5258538E-006  0.1258624E+03  0.7546771E-02  0.1246762E+00
         -3   -1    0    0    0  501 -0.00000000000E+00  0.00000000000E+00  0.14345729835E+03  0.14345729835E+03  0.00000000000E+00 0.  1.
          3   -1    0    0  501    0  0.00000000000E+00 -0.00000000000E+00 -0.10721562896E+03  0.10721562896E+03  0.00000000000E+00 0. -1.
          5    1    1    2  502    0 -0.30359292284E+02 -0.51811753054E+02  0.12484003888E+02  0.61514914741E+02  0.47000000000E+01 0.  1.
         -5    1    1    2    0  502  0.16376816343E+02  0.47249793216E+02 -0.47492050912E+02  0.69125450974E+02  0.47000000000E+01 0.  1.
        -11    1    1    2    0    0  0.53010484852E+02 -0.11431579774E+02  0.43809112912E+02  0.69713921812E+02  0.00000000000E+00 0. -1.
         11    1    1    2    0    0 -0.39028008910E+02  0.15993539611E+02  0.27440603506E+02  0.50318639783E+02  0.00000000000E+00 0.  1.
<mgrwt>
<rscale>  0 0.11780527E+03</rscale>
<asrwt>0</asrwt>
<pdfrwt beam="2">  1        3 0.16494712E-01 0.12586239E+03</pdfrwt>
<pdfrwt beam="1">  1       -3 0.22070354E-01 0.12586239E+03</pdfrwt>
<totfact> 0.13458538E+03</totfact>
</mgrwt>
</event>
<event>
 6    1  0.5258538E-006  0.1409994E+03  0.7546771E-02  0.1222797E+00
          2   -1    0    0  501    0  0.00000000000E+00  0.00000000000E+00  0.12039814018E+04  0.12039814018E+04  0.00000000000E+00 0. -1.
         -2   -1    0    0    0  501 -0.00000000000E+00 -0.00000000000E+00 -0.14506907350E+02  0.14506907350E+02  0.00000000000E+00 0.  1.
          5    1    1    2  502    0 -0.58100422638E+02  0.25785379417E+02  0.32428796424E+03  0.33049253949E+03  0.47000000000E+01 0.  1.
         -5    1    1    2    0  502  0.14676318158E+02 -0.74474405376E+02  0.50572220797E+03  0.51140871424E+03  0.47000000000E+01 0.  1.
        -11    1    1    2    0    0 -0.19654215093E+02 -0.49677627219E+01  0.25865669534E+02  0.32863348853E+02  0.00000000000E+00 0.  1.
         11    1    1    2    0    0  0.63078319573E+02  0.53656788681E+02  0.33359865271E+03  0.34372370658E+03  0.00000000000E+00 0. -1.
<mgrwt>
<rscale>  0 0.13319047E+03</rscale>
<asrwt>0</asrwt>
<pdfrwt beam="1">  1        2 0.18522783E+00 0.14099942E+03</pdfrwt>
<pdfrwt beam="2">  1       -2 0.22318328E-02 0.14099942E+03</pdfrwt>
<totfact> 0.12642652E+04</totfact>
</mgrwt>
</event>
<event>
 6    1  0.5258538E-006  0.1404026E+03  0.7546771E-02  0.1221907E+00
          2   -1    0    0  501    0  0.00000000000E+00  0.00000000000E+00  0.70701192615E+03  0.70701192615E+03  0.00000000000E+00 0. -1.
         -2   -1    0    0    0  501 -0.00000000000E+00 -0.00000000000E+00 -0.54091407424E+02  0.54091407424E+02  0.00000000000E+00 0.  1.
          5    1    1    2  502    0  0.66230122351E+02  0.30759611347E+02  0.33488818380E+03  0.34278968544E+03  0.47000000000E+01 0. -1.
         -5    1    1    2    0  502 -0.59784523763E+02  0.30284846068E+02  0.29194504712E+03  0.29957530225E+03  0.47000000000E+01 0.  1.
        -11    1    1    2    0    0 -0.36079805044E+02 -0.69083255375E+02 -0.77511865917E+00  0.77941319685E+02  0.00000000000E+00 0.  1.
         11    1    1    2    0    0  0.29634206456E+02  0.80387979597E+01  0.26862406463E+02  0.40797026189E+02  0.00000000000E+00 0. -1.
<mgrwt>
<rscale>  0 0.13381144E+03</rscale>
<asrwt>0</asrwt>
<pdfrwt beam="1">  1        2 0.10877106E+00 0.14040256E+03</pdfrwt>
<pdfrwt beam="2">  1       -2 0.83217555E-02 0.14040256E+03</pdfrwt>
<totfact> 0.35956436E+03</totfact>
</mgrwt>
</event>
<event>
 6    1  0.5258538E-006  0.1508307E+03  0.7546771E-02  0.1208422E+00
          2   -1    0    0  501    0  0.00000000000E+00  0.00000000000E+00  0.13785452370E+03  0.13785452370E+03  0.00000000000E+00 0.  1.
         -2   -1    0    0    0  501 -0.00000000000E+00 -0.00000000000E+00 -0.13774173968E+03  0.13774173968E+03  0.00000000000E+00 0. -1.
          5    1    1    2  502    0 -0.32839929930E+02 -0.15784683503E+02  0.63863257689E+02  0.73676474629E+02  0.47000000000E+01 0. -1.
         -5    1    1    2    0  502 -0.21523071851E+02 -0.48798875025E+02 -0.55847942305E+02  0.77367018072E+02  0.47000000000E+01 0. -1.
        -11    1    1    2    0    0  0.67121550596E+01  0.37204302886E+02  0.37513602122E+02  0.53258647401E+02  0.00000000000E+00 0.  1.
         11    1    1    2    0    0  0.47650846722E+02  0.27379255642E+02 -0.45416133488E+02  0.71294123277E+02  0.00000000000E+00 0. -1.
<mgrwt>
<rscale>  0 0.14370988E+03</rscale>
<asrwt>0</asrwt>
<pdfrwt beam="1">  1        2 0.21208388E-01 0.15083067E+03</pdfrwt>
<pdfrwt beam="2">  1       -2 0.21191037E-01 0.15083067E+03</pdfrwt>
<totfact> 0.47442715E+03</totfact>
</mgrwt>
</event>
<event>
 6    1  0.1594728E-005  0.2075703E+03  0.7546771E-02  0.1147761E+00
         -3   -1    0    0    0  501 -0.00000000000E+00  0.00000000000E+00  0.12159894824E+03  0.12159894824E+03  0.00000000000E+00 0.  1.
          3   -1    0    0  501    0  0.00000000000E+00 -0.00000000000E+00 -0.32286604701E+03  0.32286604701E+03  0.00000000000E+00 0. -1.
          5    1    1    2  502    0 -0.92842125509E+02  0.79765427896E+02 -0.12664608141E+03  0.17619166749E+03  0.47000000000E+01 0.  1.
         -5    1    1    2    0  502  0.10392735408E+02  0.63978622028E+02  0.36379907367E+01  0.65089154262E+02  0.47000000000E+01 0.  1.
        -11    1    1    2    0    0  0.34492177735E+02 -0.93957837458E+02 -0.88125768967E+02  0.13335642729E+03  0.00000000000E+00 0. -1.
         11    1    1    2    0    0  0.47957212366E+02 -0.49786212466E+02  0.98667608690E+01  0.69827746202E+02  0.00000000000E+00 0.  1.
<mgrwt>
<rscale>  0 0.20236204E+03</rscale>
<asrwt>0</asrwt>
<pdfrwt beam="2">  1        3 0.49671699E-01 0.20757034E+03</pdfrwt>
<pdfrwt beam="1">  1       -3 0.18707531E-01 0.20757034E+03</pdfrwt>
<totfact> 0.25081114E+02</totfact>
</mgrwt>
</event>
<event>
 6    1  0.5258538E-006  0.1132755E+03  0.7546771E-02  0.1262795E+00
          3   -1    0    0  501    0  0.00000000000E+00  0.00000000000E+00  0.49558993406E+03  0.49558993406E+03  0.00000000000E+00 0. -1.
         -3   -1    0    0    0  501 -0.00000000000E+00 -0.00000000000E+00 -0.57256289837E+02  0.57256289837E+02  0.00000000000E+00 0.  1.
          5    1    1    2  502    0 -0.30615265447E+02 -0.27965844988E+02  0.24524340118E+03  0.24876856471E+03  0.47000000000E+01 0. -1.
         -5    1    1    2    0  502  0.57219901461E+02  0.32463924229E+02  0.19681594909E+03  0.20757319508E+03  0.47000000000E+01 0.  1.
        -11    1    1    2    0    0 -0.23028863985E+01  0.17159116613E+02  0.39070925581E+02  0.42734948163E+02  0.00000000000E+00 0. -1.
         11    1    1    2    0    0 -0.24301749616E+02 -0.21657195854E+02 -0.42796631627E+02  0.53769515948E+02  0.00000000000E+00 0.  1.
<mgrwt>
<rscale>  0 0.10880724E+03</rscale>
<asrwt>0</asrwt>
<pdfrwt beam="1">  1        3 0.76244602E-01 0.11327547E+03</pdfrwt>
<pdfrwt beam="2">  1       -3 0.88086603E-02 0.11327547E+03</pdfrwt>
<totfact> 0.34230713E+02</totfact>
</mgrwt>
</event>
<event>
 6    1  0.5258538E-006  0.5055506E+03  0.7546771E-02  0.1012340E+00
          2   -1    0    0  501    0  0.00000000000E+00  0.00000000000E+00  0.95137499791E+03  0.95137499791E+03  0.00000000000E+00 0.  1.
         -2   -1    0    0    0  501 -0.00000000000E+00 -0.00000000000E+00 -0.67161053454E+02  0.67161053454E+02  0.00000000000E+00 0. -1.
          5    1    1    2  502    0 -0.87302615035E+01 -0.36926843661E+02  0.14587151047E+03  0.15079919368E+03  0.47000000000E+01 0. -1.
         -5    1    1    2    0  502 -0.20218284572E+03  0.23829879045E+02  0.47195322938E+03  0.51401138797E+03  0.47000000000E+01 0. -1.
        -11    1    1    2    0    0  0.15354440579E+03  0.12503793704E+02  0.25069614031E+03  0.29424612856E+03  0.00000000000E+00 0.  1.
         11    1    1    2    0    0  0.57368701441E+02  0.59317091155E+00  0.15693064293E+02  0.59479341150E+02  0.00000000000E+00 0. -1.
<mgrwt>
<rscale>  0 0.50555058E+03</rscale>
<asrwt>0</asrwt>
<pdfrwt beam="1">  1        2 0.14636537E+00 0.50555058E+03</pdfrwt>
<pdfrwt beam="2">  1       -2 0.10332470E-01 0.50555058E+03</pdfrwt>
<totfact> 0.17727733E+03</totfact>
</mgrwt>
</event>
<event>
 6    1  0.5258538E-006  0.1352100E+03  0.7546771E-02  0.1232869E+00
         -2   -1    0    0    0  501 -0.00000000000E+00  0.00000000000E+00  0.22127737752E+03  0.22127737752E+03  0.00000000000E+00 0.  1.
          2   -1    0    0  501    0  0.00000000000E+00 -0.00000000000E+00 -0.65331166802E+02  0.65331166802E+02  0.00000000000E+00 0. -1.
          5    1    1    2  502    0 -0.29876894440E+02  0.36804687164E+02  0.65791802311E+02  0.81227243398E+02  0.47000000000E+01 0. -1.
         -5    1    1    2    0  502  0.70655237976E+02 -0.52968820692E+01  0.44722983556E+01  0.71149919646E+02  0.47000000000E+01 0. -1.
        -11    1    1    2    0    0 -0.19028927067E+02 -0.49086581062E+02  0.91596110822E+02  0.10564771660E+03  0.00000000000E+00 0.  1.
         11    1    1    2    0    0 -0.21749416469E+02  0.17578775967E+02 -0.59140007683E+01  0.28583664677E+02  0.00000000000E+00 0. -1.
<mgrwt>
<rscale>  0 0.12641862E+03</rscale>
<asrwt>0</asrwt>
<pdfrwt beam="2">  1        2 0.10050949E-01 0.13521004E+03</pdfrwt>
<pdfrwt beam="1">  1       -2 0.34042673E-01 0.13521004E+03</pdfrwt>
<totfact> 0.49002976E+03</totfact>
</mgrwt>
</event>
<event>
 6    1  0.5258538E-006  0.1300172E+03  0.7546771E-02  0.1246500E+00
          2   -1    0    0  501    0  0.00000000000E+00  0.00000000000E+00  0.79269202105E+03  0.79269202105E+03  0.00000000000E+00 0. -1.
         -2   -1    0    0    0  501 -0.00000000000E+00 -0.00000000000E+00 -0.16623553685E+02  0.16623553685E+02  0.00000000000E+00 0.  1.
          5    1    1    2  502    0 -0.45721333293E+02 -0.10659637990E+02  0.22027108574E+03  0.22526763952E+03  0.47000000000E+01 0.  1.
         -5    1    1    2    0  502  0.80446163928E+02  0.18853384684E+02  0.35928500451E+03  0.36869342260E+03  0.47000000000E+01 0.  1.
        -11    1    1    2    0    0  0.15873117230E+02 -0.18885796700E+02  0.21052571305E+02  0.32432081742E+02  0.00000000000E+00 0.  1.
         11    1    1    2    0    0 -0.50597947866E+02  0.10692050006E+02  0.17545980581E+03  0.18292243087E+03  0.00000000000E+00 0. -1.
<mgrwt>
<rscale>  0 0.11796049E+03</rscale>
<asrwt>0</asrwt>
<pdfrwt beam="1">  1        2 0.12195259E+00 0.13001724E+03</pdfrwt>
<pdfrwt beam="2">  1       -2 0.25574704E-02 0.13001724E+03</pdfrwt>
<totfact> 0.18259905E+04</totfact>
</mgrwt>
</event>
<event>
 6    1  0.5258538E-006  0.1308125E+03  0.7546771E-02  0.1240402E+00
          1   -1    0    0  501    0  0.00000000000E+00  0.00000000000E+00  0.28611203289E+03  0.28611203289E+03  0.00000000000E+00 0. -1.
         -1   -1    0    0    0  501 -0.00000000000E+00 -0.00000000000E+00 -0.47434049756E+02  0.47434049756E+02  0.00000000000E+00 0.  1.
          5    1    1    2  502    0 -0.76880662634E+02  0.30782540049E+02  0.11590171175E+03  0.14252542877E+03  0.47000000000E+01 0.  1.
         -5    1    1    2    0  502  0.46575747352E+02 -0.69114380495E+01  0.51763742460E+02  0.70133039652E+02  0.47000000000E+01 0.  1.
        -11    1    1    2    0    0  0.62375216010E+02 -0.19934165196E+02  0.45966377207E+02  0.80005914456E+02  0.00000000000E+00 0.  1.
         11    1    1    2    0    0 -0.32070300729E+02 -0.39369368030E+01  0.25046151716E+02  0.40881699769E+02  0.00000000000E+00 0. -1.
<mgrwt>
<rscale>  0 0.12164854E+03</rscale>
<asrwt>0</asrwt>
<pdfrwt beam="1">  1        1 0.44017235E-01 0.13081254E+03</pdfrwt>
<pdfrwt beam="2">  1       -1 0.72975463E-02 0.13081254E+03</pdfrwt>
<totfact> 0.87215142E+03</totfact>
</mgrwt>
</event>
<event>
 6    1  0.5258538E-006  0.1361180E+03  0.7546771E-02  0.1230513E+00
          3   -1    0    0  501    0  0.00000000000E+00  0.00000000000E+00  0.52515200800E+02  0.52515200800E+02  0.00000000000E+00 0. -1.
         -3   -1    0    0    0  501 -0.00000000000E+00 -0.00000000000E+00 -0.29002357267E+03  0.29002357267E+03  0.00000000000E+00 0.  1.
          5    1    1    2  502    0 -0.48405559558E+02  0.16089971403E+01 -0.12587785654E+03  0.13495559209E+03  0.47000000000E+01 0.  1.
         -5    1    1    2    0  502 -0.94930605230E+00 -0.23251642387E+02  0.24993766351E+02  0.34471994606E+02  0.47000000000E+01 0.  1.
        -11    1    1    2    0    0  0.69959167570E+02 -0.77724660034E+01 -0.89726698875E+02  0.11404199597E+03  0.00000000000E+00 0. -1.
         11    1    1    2    0    0 -0.20604301960E+02  0.29415111250E+02 -0.46897582804E+02  0.59069190801E+02  0.00000000000E+00 0.  1.
<mgrwt>
<rscale>  0 0.12796101E+03</rscale>
<asrwt>0</asrwt>
<pdfrwt beam="1">  1        3 0.80792617E-02 0.13611799E+03</pdfrwt>
<pdfrwt beam="2">  1       -3 0.44619011E-01 0.13611799E+03</pdfrwt>
<totfact> 0.12123173E+03</totfact>
</mgrwt>
</event>
<event>
 6    1  0.5258538E-006  0.1636046E+03  0.7546771E-02  0.1191750E+00
          2   -1    0    0  501    0  0.00000000000E+00  0.00000000000E+00  0.15802179162E+04  0.15802179162E+04  0.00000000000E+00 0. -1.
         -2   -1    0    0    0  501 -0.00000000000E+00 -0.00000000000E+00 -0.15879210727E+02  0.15879210727E+02  0.00000000000E+00 0.  1.
          5    1    1    2  502    0  0.46105349550E+02  0.69055956494E+02  0.27891444169E+03  0.29104945313E+03  0.47000000000E+01 0.  1.
         -5    1    1    2    0  502  0.15048407581E+02  0.16984305165E+02  0.78757773920E+03  0.78791859128E+03  0.47000000000E+01 0.  1.
        -11    1    1    2    0    0 -0.26180151846E+02 -0.95541569206E+02  0.29832438310E+03  0.31434221694E+03  0.00000000000E+00 0.  1.
         11    1    1    2    0    0 -0.34973605285E+02  0.95013075469E+01  0.19952214148E+03  0.20278686558E+03  0.00000000000E+00 0. -1.
<mgrwt>
<rscale>  0 0.15732552E+03</rscale>
<asrwt>0</asrwt>
<pdfrwt beam="1">  1        2 0.24311032E+00 0.16360461E+03</pdfrwt>
<pdfrwt beam="2">  1       -2 0.24429567E-02 0.16360461E+03</pdfrwt>
<totfact> 0.70197616E+03</totfact>
</mgrwt>
</event>
<event>
 6    1  0.5258538E-006  0.1811340E+03  0.7546771E-02  0.1171843E+00
         -1   -1    0    0    0  501 -0.00000000000E+00  0.00000000000E+00  0.10056619047E+04  0.10056619047E+04  0.00000000000E+00 0.  1.
          1   -1    0    0  501    0  0.00000000000E+00 -0.00000000000E+00 -0.30233075997E+02  0.30233075997E+02  0.00000000000E+00 0. -1.
          5    1    1    2  502    0 -0.55462396223E+02  0.13718573964E+01  0.49956477945E+02  0.74804405459E+02  0.47000000000E+01 0.  1.
         -5    1    1    2    0  502 -0.38456872521E+02  0.90060416289E+02  0.36551551240E+03  0.37843558161E+03  0.47000000000E+01 0.  1.
        -11    1    1    2    0    0  0.37547977704E+02 -0.73132553859E+02  0.45278114493E+03  0.46018364407E+03  0.00000000000E+00 0.  1.
         11    1    1    2    0    0  0.56371291040E+02 -0.18299719826E+02  0.10717569339E+03  0.12247134952E+03  0.00000000000E+00 0. -1.
<mgrwt>
<rscale>  0 0.17588794E+03</rscale>
<asrwt>0</asrwt>
<pdfrwt beam="2">  1        1 0.46512432E-02 0.18113396E+03</pdfrwt>
<pdfrwt beam="1">  1       -1 0.15471719E+00 0.18113396E+03</pdfrwt>
<totfact> 0.63816802E+02</totfact>
</mgrwt>
</event>
<event>
 6    1  0.6491558E-006  0.3794757E+03  0.7546771E-02  0.1051128E+00
          1   -1    0    0  501    0  0.00000000000E+00  0.00000000000E+00  0.38333664522E+03  0.38333664522E+03  0.00000000000E+00 0. -1.
         -1   -1    0    0    0  501 -0.00000000000E+00 -0.00000000000E+00 -0.93913386098E+02  0.93913386098E+02  0.00000000000E+00 0.  1.
          5    1    1    2  502    0  0.83124966162E+02  0.13447705214E+03  0.10259049682E+03  0.18852251215E+03  0.47000000000E+01 0.  1.
         -5    1    1    2    0  502  0.27158288475E+02 -0.25043088542E+02  0.51143695040E+02  0.63265286366E+02  0.47000000000E+01 0.  1.
        -11    1    1    2    0    0 -0.65644997015E+02 -0.29350371755E+02  0.14260285980E+02  0.73308019422E+02  0.00000000000E+00 0.  1.
         11    1    1    2    0    0 -0.44638257621E+02 -0.80083591839E+02  0.12142878128E+03  0.15215421338E+03  0.00000000000E+00 0. -1.
<mgrwt>
<rscale>  0 0.37947565E+03</rscale>
<asrwt>0</asrwt>
<pdfrwt beam="1">  1        1 0.58974868E-01 0.37947565E+03</pdfrwt>
<pdfrwt beam="2">  1       -1 0.14448213E-01 0.37947565E+03</pdfrwt>
<totfact> 0.21938233E+03</totfact>
</mgrwt>
</event>
<event>
 6    1  0.5258538E-006  0.4258820E+03  0.7546771E-02  0.1035169E+00
         -2   -1    0    0    0  501 -0.00000000000E+00  0.00000000000E+00  0.24417121353E+02  0.24417121353E+02  0.00000000000E+00 0. -1.
          2   -1    0    0  501    0  0.00000000000E+00 -0.00000000000E+00 -0.18570524538E+04  0.18570524538E+04  0.00000000000E+00 0.  1.
          5    1    1    2  502    0 -0.16413195742E+03 -0.95024734674E+02 -0.93508449948E+03  0.95413526861E+03  0.47000000000E+01 0. -1.
         -5    1    1    2    0  502  0.63739591430E+01  0.17168400484E+02 -0.22942460411E+03  0.23020234643E+03  0.47000000000E+01 0. -1.
        -11    1    1    2    0    0  0.11921976332E+03  0.28464239410E+02 -0.54922625406E+03  0.56273709940E+03  0.00000000000E+00 0.  1.
         11    1    1    2    0    0  0.38538234958E+02  0.49392094780E+02 -0.11889997483E+03  0.13439486075E+03  0.00000000000E+00 0. -1.
<mgrwt>
<rscale>  0 0.42588203E+03</rscale>
<asrwt>0</asrwt>
<pdfrwt beam="2">  1        2 0.28570040E+00 0.42588203E+03</pdfrwt>
<pdfrwt beam="1">  1       -2 0.37564799E-02 0.42588203E+03</pdfrwt>
<totfact> 0.26549912E+03</totfact>
</mgrwt>
</event>
<event>
 6    1  0.5258538E-006  0.2027529E+03  0.7546771E-02  0.1151503E+00
          2   -1    0    0  501    0  0.00000000000E+00  0.00000000000E+00  0.10534899919E+03  0.10534899919E+03  0.00000000000E+00 0. -1.
         -2   -1    0    0    0  501 -0.00000000000E+00 -0.00000000000E+00 -0.35542219259E+03  0.35542219259E+03  0.00000000000E+00 0.  1.
          5    1    1    2  502    0 -0.59061997606E+02  0.66590368122E+02 -0.90072743450E+01  0.89586928058E+02  0.47000000000E+01 0.  1.
         -5    1    1    2    0  502  0.25037245582E+02  0.89381654503E+02 -0.11586205213E+03  0.14853298944E+03  0.47000000000E+01 0.  1.
        -11    1    1    2    0    0 -0.10481053989E+02 -0.68150979029E+02 -0.77429651936E+01  0.69385603300E+02  0.00000000000E+00 0.  1.
         11    1    1    2    0    0  0.44505806013E+02 -0.87821043596E+02 -0.11746090174E+03  0.15326567099E+03  0.00000000000E+00 0. -1.
<mgrwt>
<rscale>  0 0.19792307E+03</rscale>
<asrwt>0</asrwt>
<pdfrwt beam="1">  1        2 0.16207538E-01 0.20275292E+03</pdfrwt>
<pdfrwt beam="2">  1       -2 0.54680338E-01 0.20275292E+03</pdfrwt>
<totfact> 0.11288966E+03</totfact>
</mgrwt>
</event>
<event>
 6    1  0.5258538E-006  0.4816299E+03  0.7546771E-02  0.1018688E+00
         -1   -1    0    0    0  501 -0.00000000000E+00  0.00000000000E+00  0.11603708198E+03  0.11603708198E+03  0.00000000000E+00 0.  1.
          1   -1    0    0  501    0  0.00000000000E+00 -0.00000000000E+00 -0.49976988518E+03  0.49976988518E+03  0.00000000000E+00 0. -1.
          5    1    1    2  502    0  0.21116475167E+03  0.26538028093E+02 -0.25980234107E+03  0.33587820070E+03  0.47000000000E+01 0. -1.
         -5    1    1    2    0  502 -0.84646600138E+01 -0.23341112706E+02 -0.29428395568E+02  0.38788896313E+02  0.47000000000E+01 0. -1.
        -11    1    1    2    0    0 -0.15524682250E+03 -0.14297536670E+02 -0.27534467228E+02  0.15831658895E+03  0.00000000000E+00 0.  1.
         11    1    1    2    0    0 -0.47453269154E+02  0.11100621283E+02 -0.66967599332E+02  0.82823281187E+02  0.00000000000E+00 0. -1.
<mgrwt>
<rscale>  0 0.48162990E+03</rscale>
<asrwt>0</asrwt>
<pdfrwt beam="2">  1        1 0.76887675E-01 0.48162990E+03</pdfrwt>
<pdfrwt beam="1">  1       -1 0.17851859E-01 0.48162990E+03</pdfrwt>
<totfact> 0.10990062E+03</totfact>
</mgrwt>
</event>
<event>
 6    1  0.5258538E-006  0.4962414E+03  0.7546771E-02  0.1014765E+00
          2   -1    0    0  501    0  0.00000000000E+00  0.00000000000E+00  0.47047010224E+03  0.47047010224E+03  0.00000000000E+00 0. -1.
         -2   -1    0    0    0  501 -0.00000000000E+00 -0.00000000000E+00 -0.13085610308E+03  0.13085610308E+03  0.00000000000E+00 0.  1.
          5    1    1    2  502    0 -0.83893604378E+01  0.29319264111E+02  0.22974440119E+03  0.23180720544E+03  0.47000000000E+01 0.  1.
         -5    1    1    2    0  502 -0.27805311590E+02  0.12408011200E+03  0.14056313692E+03  0.18960246572E+03  0.47000000000E+01 0.  1.
        -11    1    1    2    0    0 -0.68262148730E+01 -0.60154143162E+02 -0.46076028304E+02  0.76079685418E+02  0.00000000000E+00 0.  1.
         11    1    1    2    0    0  0.43020886900E+02 -0.93245232952E+02  0.15382489349E+02  0.10383684874E+03  0.00000000000E+00 0. -1.
<mgrwt>
<rscale>  0 0.49624141E+03</rscale>
<asrwt>0</asrwt>
<pdfrwt beam="1">  1        2 0.72380015E-01 0.49624141E+03</pdfrwt>
<pdfrwt beam="2">  1       -2 0.20131708E-01 0.49624141E+03</pdfrwt>
<totfact> 0.13928130E+03</totfact>
</mgrwt>
</event>
<event>
 6    1  0.5258538E-006  0.1357118E+03  0.7546771E-02  0.1232033E+00
         -2   -1    0    0    0  501 -0.00000000000E+00  0.00000000000E+00  0.34113760151E+02  0.34113760151E+02  0.00000000000E+00 0.  1.
          2   -1    0    0  501    0  0.00000000000E+00 -0.00000000000E+00 -0.51913442388E+03  0.51913442388E+03  0.00000000000E+00 0. -1.
          5    1    1    2  502    0  0.12951222798E+02  0.12268202231E+02 -0.29428881907E+03  0.29486648162E+03  0.47000000000E+01 0.  1.
         -5    1    1    2    0  502 -0.64891975922E+02 -0.21994054330E+02 -0.93713839742E+02  0.11618554439E+03  0.47000000000E+01 0.  1.
        -11    1    1    2    0    0  0.39486302861E+00 -0.34369532554E+02 -0.20849833524E+02  0.40201197032E+02  0.00000000000E+00 0. -1.
         11    1    1    2    0    0  0.51545890095E+02  0.44095384654E+02 -0.76168171395E+02  0.10199496099E+03  0.00000000000E+00 0.  1.
<mgrwt>
<rscale>  0 0.12696316E+03</rscale>
<asrwt>0</asrwt>
<pdfrwt beam="2">  1        2 0.79866830E-01 0.13571184E+03</pdfrwt>
<pdfrwt beam="1">  1       -2 0.52482711E-02 0.13571184E+03</pdfrwt>
<totfact> 0.10327416E+04</totfact>
</mgrwt>
</event>
<event>
 6    1  0.5258538E-006  0.1614977E+03  0.7546771E-02  0.1213979E+00
         -2   -1    0    0    0  501 -0.00000000000E+00  0.00000000000E+00  0.19087043570E+02  0.19087043570E+02  0.00000000000E+00 0.  1.
          2   -1    0    0  501    0  0.00000000000E+00 -0.00000000000E+00 -0.83042641038E+03  0.83042641038E+03  0.00000000000E+00 0. -1.
          5    1    1    2  502    0 -0.28023223090E+02 -0.45034504566E+01 -0.52277898441E+03  0.52356999402E+03  0.47000000000E+01 0. -1.
         -5    1    1    2    0  502  0.36583458421E+02 -0.60482249329E+01 -0.19322024681E+02  0.42075659147E+02  0.47000000000E+01 0.  1.
        -11    1    1    2    0    0  0.20265166211E+02  0.40518102164E+02 -0.10326727624E+03  0.11276756584E+03  0.00000000000E+00 0.  1.
         11    1    1    2    0    0 -0.28825401542E+02 -0.29966426775E+02 -0.16597108148E+03  0.17110023493E+03  0.00000000000E+00 0. -1.
<mgrwt>
<rscale>  0 0.13951768E+03</rscale>
<asrwt>0</asrwt>
<pdfrwt beam="2">  1        2 0.12775792E+00 0.16149768E+03</pdfrwt>
<pdfrwt beam="1">  1       -2 0.29364680E-02 0.16149768E+03</pdfrwt>
<totfact> 0.14280850E+04</totfact>
</mgrwt>
</event>
<event>
 6    1  0.5258538E-006  0.1664198E+03  0.7546771E-02  0.1201704E+00
          1   -1    0    0  501    0  0.00000000000E+00  0.00000000000E+00  0.17258808774E+03  0.17258808774E+03  0.00000000000E+00 0. -1.
         -1   -1    0    0    0  501 -0.00000000000E+00 -0.00000000000E+00 -0.27271586841E+03  0.27271586841E+03  0.00000000000E+00 0.  1.
          5    1    1    2  502    0  0.39273456597E+02 -0.65856894342E+02  0.74579707877E+02  0.10706893925E+03  0.47000000000E+01 0. -1.
         -5    1    1    2    0  502 -0.36095771743E+02  0.78475734788E+02  0.42308339556E+02  0.96298656710E+02  0.47000000000E+01 0.  1.
        -11    1    1    2    0    0 -0.53035556419E+02 -0.26489662104E+00 -0.13638549668E+03  0.14633469896E+03  0.00000000000E+00 0.  1.
         11    1    1    2    0    0  0.49857871564E+02 -0.12353943824E+02 -0.80630331414E+02  0.95601661224E+02  0.00000000000E+00 0. -1.
<mgrwt>
<rscale>  0 0.14900280E+03</rscale>
<asrwt>0</asrwt>
<pdfrwt beam="1">  1        1 0.26552014E-01 0.16641984E+03</pdfrwt>
<pdfrwt beam="2">  1       -1 0.41956287E-01 0.16641984E+03</pdfrwt>
<totfact> 0.99726969E+02</totfact>
</mgrwt>
</event>
<event>
 6    1  0.5258538E-006  0.2850927E+03  0.7546771E-02  0.1092939E+00
         -1   -1    0    0    0  501 -0.00000000000E+00  0.00000000000E+00  0.12615413935E+03  0.12615413935E+03  0.00000000000E+00 0.  1.
          1   -1    0    0  501    0  0.00000000000E+00 -0.00000000000E+00 -0.16106858220E+03  0.16106858220E+03  0.00000000000E+00 0. -1.
          5    1    1    2  502    0 -0.46190391430E+02 -0.26376684236E+02  0.11479278029E+02  0.54618179719E+02  0.47000000000E+01 0. -1.
         -5    1    1    2    0  502  0.48169863936E+02  0.96033381422E+01 -0.66981506689E+02  0.83193582285E+02  0.47000000000E+01 0. -1.
        -11    1    1    2    0    0 -0.22248318706E+02  0.63233624710E+02 -0.33792904851E+02  0.75069563723E+02  0.00000000000E+00 0. -1.
         11    1    1    2    0    0  0.20268846200E+02 -0.46460278615E+02  0.54380690660E+02  0.74341395817E+02  0.00000000000E+00 0.  1.
<mgrwt>
<rscale>  0 0.28509275E+03</rscale>
<asrwt>0</asrwt>
<pdfrwt beam="2">  1        1 0.24779782E-01 0.28509275E+03</pdfrwt>
<pdfrwt beam="1">  1       -1 0.19408329E-01 0.28509275E+03</pdfrwt>
<totfact> 0.40804505E+03</totfact>
</mgrwt>
</event>
<event>
 6    1  0.5258538E-006  0.2925114E+03  0.7546771E-02  0.1139358E+00
         -2   -1    0    0    0  501 -0.00000000000E+00  0.00000000000E+00  0.22644352153E+02  0.22644352153E+02  0.00000000000E+00 0. -1.
          2   -1    0    0  501    0  0.00000000000E+00 -0.00000000000E+00 -0.15814101914E+04  0.15814101914E+04  0.00000000000E+00 0.  1.
          5    1    1    2  502    0 -0.78044628332E+02  0.11703561599E+03 -0.83400829369E+03  0.84580152717E+03  0.47000000000E+01 0.  1.
         -5    1    1    2    0  502  0.12875150105E+03 -0.56745349303E+02 -0.47110092833E+03  0.49168603637E+03  0.47000000000E+01 0. -1.
        -11    1    1    2    0    0 -0.32584993887E+02 -0.39707631241E+02 -0.12737808200E+03  0.13734501658E+03  0.00000000000E+00 0. -1.
         11    1    1    2    0    0 -0.18121878830E+02 -0.20582635443E+02 -0.12627853528E+03  0.12922196348E+03  0.00000000000E+00 0.  1.
<mgrwt>
<rscale>  0 0.21281299E+03</rscale>
<asrwt>0</asrwt>
<pdfrwt beam="2">  1        2 0.24329395E+00 0.29251137E+03</pdfrwt>
<pdfrwt beam="1">  1       -2 0.34837454E-02 0.29251137E+03</pdfrwt>
<totfact> 0.41784133E+03</totfact>
</mgrwt>
</event>
<event>
 6    1  0.5258538E-006  0.3542902E+03  0.7546771E-02  0.1060868E+00
          2   -1    0    0  501    0  0.00000000000E+00  0.00000000000E+00  0.87651543919E+03  0.87651543919E+03  0.00000000000E+00 0. -1.
         -2   -1    0    0    0  501 -0.00000000000E+00 -0.00000000000E+00 -0.35801293331E+02  0.35801293331E+02  0.00000000000E+00 0.  1.
          5    1    1    2  502    0  0.12863824034E+03 -0.60849474401E+02  0.51953080183E+03  0.53868803538E+03  0.47000000000E+01 0.  1.
         -5    1    1    2    0  502 -0.29916086871E+01  0.93658112371E+01 -0.17168476324E+01  0.11032031021E+02  0.47000000000E+01 0.  1.
        -11    1    1    2    0    0 -0.85267493346E+02  0.40527280351E+01  0.26170512463E+03  0.27527539353E+03  0.00000000000E+00 0. -1.
         11    1    1    2    0    0 -0.40379138305E+02  0.47430935128E+02  0.61195067030E+02  0.87321272587E+02  0.00000000000E+00 0.  1.
<mgrwt>
<rscale>  0 0.35429020E+03</rscale>
<asrwt>0</asrwt>
<pdfrwt beam="1">  1        2 0.13484851E+00 0.35429020E+03</pdfrwt>
<pdfrwt beam="2">  1       -2 0.55078920E-02 0.35429020E+03</pdfrwt>
<totfact> 0.53377367E+03</totfact>
</mgrwt>
</event>
<event>
 6    1  0.5258538E-006  0.1305947E+03  0.7546771E-02  0.1240036E+00
          2   -1    0    0  501    0  0.00000000000E+00  0.00000000000E+00  0.16809040282E+04  0.16809040282E+04  0.00000000000E+00 0. -1.
         -2   -1    0    0    0  501 -0.00000000000E+00 -0.00000000000E+00 -0.15153812214E+02  0.15153812214E+02  0.00000000000E+00 0.  1.
          5    1    1    2  502    0  0.54961700799E+02 -0.11363601108E+02  0.76179688794E+03  0.76387597715E+03  0.47000000000E+01 0. -1.
         -5    1    1    2    0  502 -0.68474492522E+02 -0.23943472853E+02  0.71639380553E+03  0.72007237180E+03  0.47000000000E+01 0. -1.
        -11    1    1    2    0    0  0.12668387785E+02 -0.30518224012E+02  0.68841700387E+02  0.76361179653E+02  0.00000000000E+00 0.  1.
         11    1    1    2    0    0  0.84440393817E+00  0.65825297973E+02  0.11871782213E+03  0.13574831182E+03  0.00000000000E+00 0. -1.
<mgrwt>
<rscale>  0 0.12187457E+03</rscale>
<asrwt>0</asrwt>
<pdfrwt beam="1">  1        2 0.25860047E+00 0.13059470E+03</pdfrwt>
<pdfrwt beam="2">  1       -2 0.23313571E-02 0.13059470E+03</pdfrwt>
<totfact> 0.66262891E+03</totfact>
</mgrwt>
</event>
<event>
 6    1  0.5258538E-006  0.1694109E+03  0.7546771E-02  0.1185013E+00
         -1   -1    0    0    0  501 -0.00000000000E+00  0.00000000000E+00  0.98574966446E+02  0.98574966446E+02  0.00000000000E+00 0.  1.
          1   -1    0    0  501    0  0.00000000000E+00 -0.00000000000E+00 -0.25446984522E+03  0.25446984522E+03  0.00000000000E+00 0. -1.
          5    1    1    2  502    0 -0.21117331064E+02 -0.54253486926E+02  0.15640868021E+02  0.60465769385E+02  0.47000000000E+01 0. -1.
         -5    1    1    2    0  502 -0.86765599608E+02  0.16330558562E+02 -0.84833328692E+02  0.12253056792E+03  0.47000000000E+01 0. -1.
        -11    1    1    2    0    0  0.16363936000E+02 -0.23725750971E+01  0.18562038805E+02  0.24858736867E+02  0.00000000000E+00 0.  1.
         11    1    1    2    0    0  0.91518994672E+02  0.40295503461E+02 -0.10526445691E+03  0.14518973749E+03  0.00000000000E+00 0. -1.
<mgrwt>
<rscale>  0 0.16330734E+03</rscale>
<asrwt>0</asrwt>
<pdfrwt beam="2">  1        1 0.39149207E-01 0.16941093E+03</pdfrwt>
<pdfrwt beam="1">  1       -1 0.15165379E-01 0.16941093E+03</pdfrwt>
<totfact> 0.33290695E+03</totfact>
</mgrwt>
</event>
<event>
 6    1  0.5258538E-006  0.1284320E+03  0.7546771E-02  0.1244936E+00
         -2   -1    0    0    0  501 -0.00000000000E+00  0.00000000000E+00  0.23576891229E+02  0.23576891229E+02  0.00000000000E+00 0.  1.
          2   -1    0    0  501    0  0.00000000000E+00 -0.00000000000E+00 -0.52664903490E+03  0.52664903490E+03  0.00000000000E+00 0. -1.
          5    1    1    2  502    0  0.61244112122E+02  0.20837296427E+02 -0.78221514145E+02  0.10161559657E+03  0.47000000000E+01 0. -1.
         -5    1    1    2    0  502 -0.42809849026E+02  0.21922423255E+01 -0.20322454711E+03  0.20774935776E+03  0.47000000000E+01 0. -1.
        -11    1    1    2    0    0  0.33298113315E+02 -0.10498974525E+02 -0.48659137573E+02  0.59889101561E+02  0.00000000000E+00 0.  1.
         11    1    1    2    0    0 -0.51732376411E+02 -0.12530564228E+02 -0.17296694484E+03  0.18097187024E+03  0.00000000000E+00 0. -1.
<mgrwt>
<rscale>  0 0.11889229E+03</rscale>
<asrwt>0</asrwt>
<pdfrwt beam="2">  1        2 0.81022930E-01 0.12843204E+03</pdfrwt>
<pdfrwt beam="1">  1       -2 0.36272140E-02 0.12843204E+03</pdfrwt>
<totfact> 0.17557951E+04</totfact>
</mgrwt>
</event>
<event>
 6    1  0.5258538E-006  0.1330612E+03  0.7546771E-02  0.1237272E+00
          1   -1    0    0  501    0  0.00000000000E+00  0.00000000000E+00  0.30914173078E+04  0.30914173078E+04  0.00000000000E+00 0. -1.
         -1   -1    0    0    0  501 -0.00000000000E+00 -0.00000000000E+00 -0.66888234473E+01  0.66888234473E+01  0.00000000000E+00 0.  1.
          5    1    1    2  502    0  0.72775120490E+02  0.13354071446E+02  0.14705404017E+04  0.14724081338E+04  0.47000000000E+01 0. -1.
         -5    1    1    2    0  502 -0.51999675192E+02  0.27262573695E+02  0.11270695475E+04  0.11286075797E+04  0.47000000000E+01 0. -1.
        -11    1    1    2    0    0  0.12910124127E+02  0.21393680181E+02  0.77236090036E+02  0.81177425807E+02  0.00000000000E+00 0. -1.
         11    1    1    2    0    0 -0.33685569425E+02 -0.62010325322E+02  0.40988244513E+03  0.41591299194E+03  0.00000000000E+00 0.  1.
<mgrwt>
<rscale>  0 0.12360093E+03</rscale>
<asrwt>0</asrwt>
<pdfrwt beam="1">  1        1 0.47560152E+00 0.13306124E+03</pdfrwt>
<pdfrwt beam="2">  1       -1 0.10290522E-02 0.13306124E+03</pdfrwt>
<totfact> 0.11480692E+03</totfact>
</mgrwt>
</event>
<event>
 6    1  0.5258538E-006  0.1307972E+03  0.7546771E-02  0.1242923E+00
          2   -1    0    0  501    0  0.00000000000E+00  0.00000000000E+00  0.83034490160E+03  0.83034490160E+03  0.00000000000E+00 0. -1.
         -2   -1    0    0    0  501 -0.00000000000E+00 -0.00000000000E+00 -0.15286467219E+02  0.15286467219E+02  0.00000000000E+00 0.  1.
          5    1    1    2  502    0 -0.24147741701E+02  0.27021104036E+02  0.61337697281E+02  0.71397875321E+02  0.47000000000E+01 0. -1.
         -5    1    1    2    0  502  0.47965279485E+02 -0.57283934876E+02  0.46267169011E+03  0.46868891609E+03  0.47000000000E+01 0. -1.
        -11    1    1    2    0    0  0.16053466559E+02  0.32120006611E+02  0.52044335211E+02  0.63229909385E+02  0.00000000000E+00 0.  1.
         11    1    1    2    0    0 -0.39871004343E+02 -0.18571757718E+01  0.23900471178E+03  0.24231466803E+03  0.00000000000E+00 0. -1.
<mgrwt>
<rscale>  0 0.12010550E+03</rscale>
<asrwt>0</asrwt>
<pdfrwt beam="1">  1        2 0.12774533E+00 0.13079719E+03</pdfrwt>
<pdfrwt beam="2">  1       -2 0.23517648E-02 0.13079719E+03</pdfrwt>
<totfact> 0.19483216E+04</totfact>
</mgrwt>
</event>
<event>
 6    1  0.5258538E-006  0.1271966E+03  0.7546771E-02  0.1247267E+00
         -2   -1    0    0    0  501 -0.00000000000E+00  0.00000000000E+00  0.53402662968E+02  0.53402662968E+02  0.00000000000E+00 0.  1.
          2   -1    0    0  501    0  0.00000000000E+00 -0.00000000000E+00 -0.22635172328E+03  0.22635172328E+03  0.00000000000E+00 0. -1.
          5    1    1    2  502    0  0.33057176293E+02 -0.58727054040E+02 -0.87727345604E+02  0.11072407574E+03  0.47000000000E+01 0.  1.
         -5    1    1    2    0  502 -0.33027830627E+02  0.35164516304E+02 -0.95415709673E+01  0.49401542277E+02  0.47000000000E+01 0.  1.
        -11    1    1    2    0    0 -0.11283098500E+02  0.22856255163E+02 -0.94396944767E+02  0.97777808797E+02  0.00000000000E+00 0. -1.
         11    1    1    2    0    0  0.11253752834E+02  0.70628257331E+00  0.18716801024E+02  0.21850959441E+02  0.00000000000E+00 0.  1.
<mgrwt>
<rscale>  0 0.11750734E+03</rscale>
<asrwt>0</asrwt>
<pdfrwt beam="2">  1        2 0.34823343E-01 0.12719659E+03</pdfrwt>
<pdfrwt beam="1">  1       -2 0.82157941E-02 0.12719659E+03</pdfrwt>
<totfact> 0.12603937E+04</totfact>
</mgrwt>
</event>
<event>
 6    1  0.5258538E-006  0.2405327E+03  0.7546771E-02  0.1123193E+00
         -1   -1    0    0    0  501 -0.00000000000E+00  0.00000000000E+00  0.21903374534E+03  0.21903374534E+03  0.00000000000E+00 0.  1.
          1   -1    0    0  501    0  0.00000000000E+00 -0.00000000000E+00 -0.24450337877E+03  0.24450337877E+03  0.00000000000E+00 0. -1.
          5    1    1    2  502    0 -0.12669924472E+03  0.16307893748E+03 -0.43584734816E+02  0.21111408663E+03  0.47000000000E+01 0.  1.
         -5    1    1    2    0  502  0.27617188201E+02  0.16956870971E+02  0.27435488904E+01  0.32861247964E+02  0.47000000000E+01 0.  1.
        -11    1    1    2    0    0  0.52710665452E+02 -0.15608804459E+03  0.24561570209E+02  0.16656879254E+03  0.00000000000E+00 0. -1.
         11    1    1    2    0    0  0.46371391069E+02 -0.23947763866E+02 -0.91900177178E+01  0.52992996985E+02  0.00000000000E+00 0.  1.
<mgrwt>
<rscale>  0 0.23496490E+03</rscale>
<asrwt>0</asrwt>
<pdfrwt beam="2">  1        1 0.37615905E-01 0.24053266E+03</pdfrwt>
<pdfrwt beam="1">  1       -1 0.33697499E-01 0.24053266E+03</pdfrwt>
<totfact> 0.94968465E+02</totfact>
</mgrwt>
</event>
<event>
 6    1  0.5258538E-006  0.1561204E+03  0.7546771E-02  0.1201619E+00
          3   -1    0    0  501    0  0.00000000000E+00  0.00000000000E+00  0.35817047158E+03  0.35817047158E+03  0.00000000000E+00 0. -1.
         -3   -1    0    0    0  501 -0.00000000000E+00 -0.00000000000E+00 -0.57330314551E+02  0.57330314551E+02  0.00000000000E+00 0.  1.
          5    1    1    2  502    0  0.33488593951E+02  0.21043557682E+02 -0.71529584398E+01  0.40466925497E+02  0.47000000000E+01 0. -1.
         -5    1    1    2    0  502 -0.32118356776E+02  0.72479934634E+02  0.15693492612E+03  0.17588516368E+03  0.47000000000E+01 0. -1.
        -11    1    1    2    0    0  0.22292615675E+02 -0.74531247519E+02  0.14978247345E+03  0.16877990675E+03  0.00000000000E+00 0. -1.
         11    1    1    2    0    0 -0.23662852850E+02 -0.18992244797E+02  0.12757159017E+01  0.30368790205E+02  0.00000000000E+00 0.  1.
<mgrwt>
<rscale>  0 0.14907088E+03</rscale>
<asrwt>0</asrwt>
<pdfrwt beam="1">  1        3 0.55103148E-01 0.15612043E+03</pdfrwt>
<pdfrwt beam="2">  1       -3 0.88200486E-02 0.15612043E+03</pdfrwt>
<totfact> 0.70421136E+02</totfact>
</mgrwt>
</event>
<event>
 6    1  0.5258538E-006  0.1338148E+03  0.7546771E-02  0.1235130E+00
         -2   -1    0    0    0  501 -0.00000000000E+00  0.00000000000E+00  0.23587279540E+03  0.23587279540E+03  0.00000000000E+00 0.  1.
          2   -1    0    0  501    0  0.00000000000E+00 -0.00000000000E+00 -0.59530333278E+02  0.59530333278E+02  0.00000000000E+00 0. -1.
          5    1    1    2  502    0 -0.67425096485E+01 -0.35972503389E+02 -0.41041173500E+01  0.37127028102E+02  0.47000000000E+01 0. -1.
         -5    1    1    2    0  502 -0.39898973163E+01  0.82502773172E+02  0.88146185573E+02  0.12089030934E+03  0.47000000000E+01 0. -1.
        -11    1    1    2    0    0  0.43200735127E+02  0.26331148613E+00  0.27967962653E+02  0.51464354493E+02  0.00000000000E+00 0. -1.
         11    1    1    2    0    0 -0.32468328162E+02 -0.46793581268E+02  0.64332431245E+02  0.85921436740E+02  0.00000000000E+00 0.  1.
<mgrwt>
<rscale>  0 0.12496101E+03</rscale>
<asrwt>0</asrwt>
<pdfrwt beam="2">  1        2 0.91585130E-02 0.13381483E+03</pdfrwt>
<pdfrwt beam="1">  1       -2 0.36288122E-01 0.13381483E+03</pdfrwt>
<totfact> 0.48798646E+03</totfact>
</mgrwt>
</event>
<event>
 6    1  0.5258538E-006  0.1349290E+03  0.7546771E-02  0.1232658E+00
         -1   -1    0    0    0  501 -0.00000000000E+00  0.00000000000E+00  0.36969948002E+03  0.36969948002E+03  0.00000000000E+00 0.  1.
          1   -1    0    0  501    0  0.00000000000E+00 -0.00000000000E+00 -0.54069124975E+02  0.54069124975E+02  0.00000000000E+00 0. -1.
          5    1    1    2  502    0  0.65187577431E+02 -0.23956192764E+02  0.81098551448E+02  0.10687555600E+03  0.47000000000E+01 0.  1.
         -5    1    1    2    0  502 -0.14954720246E+02  0.31280739561E+02 -0.21027557632E+02  0.40821275152E+02  0.47000000000E+01 0.  1.
        -11    1    1    2    0    0 -0.90392416452E+01  0.35249681000E+02  0.48067988526E+02  0.60289131865E+02  0.00000000000E+00 0. -1.
         11    1    1    2    0    0 -0.41193615540E+02 -0.42574227796E+02  0.20749137270E+03  0.21578264198E+03  0.00000000000E+00 0.  1.
<mgrwt>
<rscale>  0 0.12655588E+03</rscale>
<asrwt>0</asrwt>
<pdfrwt beam="2">  1        1 0.83183272E-02 0.13492898E+03</pdfrwt>
<pdfrwt beam="1">  1       -1 0.56876841E-01 0.13492898E+03</pdfrwt>
<totfact> 0.25673296E+03</totfact>
</mgrwt>
</event>
<event>
 6    1  0.5258538E-006  0.1433336E+03  0.7546771E-02  0.1221769E+00
          2   -1    0    0  501    0  0.00000000000E+00  0.00000000000E+00  0.20265578106E+04  0.20265578106E+04  0.00000000000E+00 0. -1.
         -2   -1    0    0    0  501 -0.00000000000E+00 -0.00000000000E+00 -0.91188006869E+01  0.91188006869E+01  0.00000000000E+00 0.  1.
          5    1    1    2  502    0 -0.46639322974E+01 -0.25518214827E+02  0.79527958857E+03  0.79571643539E+03  0.47000000000E+01 0.  1.
         -5    1    1    2    0  502 -0.55666613089E+01  0.94898790683E+02  0.70527345743E+03  0.71166671128E+03  0.47000000000E+01 0.  1.
        -11    1    1    2    0    0  0.55397100617E+01  0.18979867498E+02  0.70389428903E+02  0.73113579171E+02  0.00000000000E+00 0.  1.
         11    1    1    2    0    0  0.46908835445E+01 -0.88360443353E+02  0.44649653500E+03  0.45517988543E+03  0.00000000000E+00 0. -1.
<mgrwt>
<rscale>  0 0.13390863E+03</rscale>
<asrwt>0</asrwt>
<pdfrwt beam="1">  1        2 0.31177776E+00 0.14333355E+03</pdfrwt>
<pdfrwt beam="2">  1       -2 0.14028940E-02 0.14333355E+03</pdfrwt>
<totfact> 0.92300919E+03</totfact>
</mgrwt>
</event>
<event>
 6    1  0.5258538E-006  0.3558519E+03  0.7546771E-02  0.1061293E+00
          2   -1    0    0  501    0  0.00000000000E+00  0.00000000000E+00  0.72364758072E+03  0.72364758072E+03  0.00000000000E+00 0. -1.
         -2   -1    0    0    0  501 -0.00000000000E+00 -0.00000000000E+00 -0.19837272001E+03  0.19837272001E+03  0.00000000000E+00 0.  1.
          5    1    1    2  502    0 -0.12778185598E+02 -0.55035252520E+02  0.16652455447E+03  0.17591099536E+03  0.47000000000E+01 0. -1.
         -5    1    1    2    0  502 -0.12558617367E+03 -0.24804765552E+03  0.27393737313E+03  0.39033741919E+03  0.47000000000E+01 0. -1.
        -11    1    1    2    0    0  0.93698431923E+02  0.21306327408E+03  0.10146401926E+03  0.25391002759E+03  0.00000000000E+00 0.  1.
         11    1    1    2    0    0  0.44665927346E+02  0.90019633962E+02 -0.16651086152E+02  0.10186185859E+03  0.00000000000E+00 0. -1.
<mgrwt>
<rscale>  0 0.35323894E+03</rscale>
<asrwt>0</asrwt>
<pdfrwt beam="1">  1        2 0.11133040E+00 0.35585188E+03</pdfrwt>
<pdfrwt beam="2">  1       -2 0.30518880E-01 0.35585188E+03</pdfrwt>
<totfact> 0.39933467E+02</totfact>
</mgrwt>
</event>
<event>
 6    1  0.5258538E-006  0.2447100E+03  0.7546771E-02  0.1119341E+00
          1   -1    0    0  501    0  0.00000000000E+00  0.00000000000E+00  0.11035993499E+04  0.11035993499E+04  0.00000000000E+00 0. -1.
         -1   -1    0    0    0  501 -0.00000000000E+00 -0.00000000000E+00 -0.51162335787E+02  0.51162335787E+02  0.00000000000E+00 0.  1.
          5    1    1    2  502    0  0.16654407065E+02 -0.17571674153E+03  0.31352378570E+03  0.35982356333E+03  0.47000000000E+01 0. -1.
         -5    1    1    2    0  502  0.17699937073E+02 -0.31822274182E+02  0.27660147217E+03  0.27902761389E+03  0.47000000000E+01 0. -1.
        -11    1    1    2    0    0 -0.27513571182E+02  0.45782105063E+02  0.20547121435E+03  0.21230030068E+03  0.00000000000E+00 0. -1.
         11    1    1    2    0    0 -0.68407729557E+01  0.16175691064E+03  0.25684054193E+03  0.30361020783E+03  0.00000000000E+00 0.  1.
<mgrwt>
<rscale>  0 0.24067882E+03</rscale>
<asrwt>0</asrwt>
<pdfrwt beam="1">  1        1 0.16978450E+00 0.24471005E+03</pdfrwt>
<pdfrwt beam="2">  1       -1 0.78711294E-02 0.24471005E+03</pdfrwt>
<totfact> 0.11857584E+03</totfact>
</mgrwt>
</event>
<event>
 6    1  0.5258538E-006  0.1858080E+03  0.7546771E-02  0.1167333E+00
          1   -1    0    0  501    0  0.00000000000E+00  0.00000000000E+00  0.27676546200E+03  0.27676546200E+03  0.00000000000E+00 0. -1.
         -1   -1    0    0    0  501 -0.00000000000E+00 -0.00000000000E+00 -0.12726778380E+03  0.12726778380E+03  0.00000000000E+00 0.  1.
          5    1    1    2  502    0 -0.16006101247E+02 -0.74414425717E+02  0.56551458262E+02  0.94941347492E+02  0.47000000000E+01 0. -1.
         -5    1    1    2    0  502  0.10496653020E+03 -0.30396114414E+02  0.93152674674E+02  0.14367117677E+03  0.47000000000E+01 0. -1.
        -11    1    1    2    0    0  0.14343444380E+02  0.39279747367E+02 -0.89835917350E+01  0.42770759525E+02  0.00000000000E+00 0. -1.
         11    1    1    2    0    0 -0.10330387334E+03  0.65530792765E+02  0.87771369974E+01  0.12264996201E+03  0.00000000000E+00 0.  1.
<mgrwt>
<rscale>  0 0.18048690E+03</rscale>
<asrwt>0</asrwt>
<pdfrwt beam="1">  1        1 0.42579302E-01 0.18580799E+03</pdfrwt>
<pdfrwt beam="2">  1       -1 0.19579659E-01 0.18580799E+03</pdfrwt>
<totfact> 0.20015143E+03</totfact>
</mgrwt>
</event>
<event>
 6    1  0.5258538E-006  0.3073058E+03  0.7546771E-02  0.1081645E+00
         -3   -1    0    0    0  501 -0.00000000000E+00  0.00000000000E+00  0.93017441121E+02  0.93017441121E+02  0.00000000000E+00 0.  1.
          3   -1    0    0  501    0  0.00000000000E+00 -0.00000000000E+00 -0.25381487670E+03  0.25381487670E+03  0.00000000000E+00 0. -1.
          5    1    1    2  502    0 -0.76038298325E+01 -0.25662444547E+00 -0.93630980623E+02  0.94057081693E+02  0.47000000000E+01 0.  1.
         -5    1    1    2    0  502 -0.98918899193E+02 -0.14029297810E+02 -0.96697573678E+01  0.10048564088E+03  0.47000000000E+01 0.  1.
        -11    1    1    2    0    0 -0.35971008667E+01  0.23544419910E+02 -0.30196251116E+02  0.38458970670E+02  0.00000000000E+00 0. -1.
         11    1    1    2    0    0  0.11011982989E+03 -0.92584976550E+01 -0.27300446468E+02  0.11383062458E+03  0.00000000000E+00 0.  1.
<mgrwt>
<rscale>  0 0.30730578E+03</rscale>
<asrwt>0</asrwt>
<pdfrwt beam="2">  1        3 0.39048441E-01 0.30730578E+03</pdfrwt>
<pdfrwt beam="1">  1       -3 0.14310376E-01 0.30730578E+03</pdfrwt>
<totfact> 0.67274271E+02</totfact>
</mgrwt>
</event>
<event>
 6    1  0.6511181E-006  0.2156048E+03  0.7546771E-02  0.1140925E+00
         -1   -1    0    0    0  501 -0.00000000000E+00  0.00000000000E+00  0.25542428213E+02  0.25542428213E+02  0.00000000000E+00 0.  1.
          1   -1    0    0  501    0  0.00000000000E+00 -0.00000000000E+00 -0.20407135604E+04  0.20407135604E+04  0.00000000000E+00 0. -1.
          5    1    1    2  502    0 -0.37996709847E+01  0.11027297566E+03 -0.56823682462E+03  0.57886936826E+03  0.47000000000E+01 0. -1.
         -5    1    1    2    0  502  0.82894742898E+02  0.46585637487E+02 -0.91822626636E+03  0.92314859381E+03  0.47000000000E+01 0. -1.
        -11    1    1    2    0    0 -0.31635993782E+02 -0.13431793631E+03 -0.44007331276E+03  0.46120132776E+03  0.00000000000E+00 0. -1.
         11    1    1    2    0    0 -0.47459078131E+02 -0.22540676834E+02 -0.88634728430E+02  0.10303669877E+03  0.00000000000E+00 0.  1.
<mgrwt>
<rscale>  0 0.21081090E+03</rscale>
<asrwt>0</asrwt>
<pdfrwt beam="2">  1        1 0.31395597E+00 0.21560482E+03</pdfrwt>
<pdfrwt beam="1">  1       -1 0.39296039E-02 0.21560482E+03</pdfrwt>
<totfact> 0.80669399E+02</totfact>
</mgrwt>
</event>
<event>
 6    1  0.5258538E-006  0.1604006E+03  0.7546771E-02  0.1195589E+00
         -1   -1    0    0    0  501 -0.00000000000E+00  0.00000000000E+00  0.86760799460E+02  0.86760799460E+02  0.00000000000E+00 0.  1.
          1   -1    0    0  501    0  0.00000000000E+00 -0.00000000000E+00 -0.28397028007E+03  0.28397028007E+03  0.00000000000E+00 0. -1.
          5    1    1    2  502    0 -0.46100903647E+02  0.68284012395E+01 -0.16568499486E+03  0.17217876728E+03  0.47000000000E+01 0.  1.
         -5    1    1    2    0  502 -0.52776623928E+02 -0.24901404217E+02 -0.16228582386E+00  0.58545437925E+02  0.47000000000E+01 0.  1.
        -11    1    1    2    0    0  0.74982800237E+02  0.35333227907E+02  0.15807507030E+02  0.84384445274E+02  0.00000000000E+00 0.  1.
         11    1    1    2    0    0  0.23894727338E+02 -0.17260224930E+02 -0.47169706960E+02  0.55622429054E+02  0.00000000000E+00 0. -1.
<mgrwt>
<rscale>  0 0.15404479E+03</rscale>
<asrwt>0</asrwt>
<pdfrwt beam="2">  1        1 0.43687736E-01 0.16040056E+03</pdfrwt>
<pdfrwt beam="1">  1       -1 0.13347815E-01 0.16040056E+03</pdfrwt>
<totfact> 0.35403605E+03</totfact>
</mgrwt>
</event>
<event>
 6    1  0.5258538E-006  0.1569111E+03  0.7546771E-02  0.1199197E+00
          1   -1    0    0  501    0  0.00000000000E+00  0.00000000000E+00  0.16205814896E+03  0.16205814896E+03  0.00000000000E+00 0. -1.
         -1   -1    0    0    0  501 -0.00000000000E+00 -0.00000000000E+00 -0.15133492317E+03  0.15133492317E+03  0.00000000000E+00 0.  1.
          5    1    1    2  502    0 -0.22749308589E+02 -0.67663839955E+02  0.36169369829E+02  0.80163829702E+02  0.47000000000E+01 0. -1.
         -5    1    1    2    0  502 -0.72995186736E+02  0.42817989012E+02  0.26554749575E+02  0.88819604788E+02  0.47000000000E+01 0.  1.
        -11    1    1    2    0    0  0.22248821465E+02  0.34056503982E+02  0.16138849149E+02  0.43764345898E+02  0.00000000000E+00 0. -1.
         11    1    1    2    0    0  0.73495673860E+02 -0.92106530388E+01 -0.68139742766E+02  0.10064529174E+03  0.00000000000E+00 0.  1.
<mgrwt>
<rscale>  0 0.15104277E+03</rscale>
<asrwt>0</asrwt>
<pdfrwt beam="1">  1        1 0.24932023E-01 0.15691108E+03</pdfrwt>
<pdfrwt beam="2">  1       -1 0.23282296E-01 0.15691108E+03</pdfrwt>
<totfact> 0.29317579E+03</totfact>
</mgrwt>
</event>
<event>
 6    1  0.5258538E-006  0.1151378E+03  0.7546771E-02  0.1262603E+00
          1   -1    0    0  501    0  0.00000000000E+00  0.00000000000E+00  0.73914979807E+03  0.73914979807E+03  0.00000000000E+00 0. -1.
         -1   -1    0    0    0  501 -0.00000000000E+00 -0.00000000000E+00 -0.15558499174E+02  0.15558499174E+02  0.00000000000E+00 0.  1.
          5    1    1    2  502    0  0.27917469926E+01 -0.53444540314E+02  0.14066125981E+03  0.15057155359E+03  0.47000000000E+01 0. -1.
         -5    1    1    2    0  502 -0.18417926910E+02  0.44565961046E+02  0.35474802479E+03  0.35804133282E+03  0.47000000000E+01 0.  1.
        -11    1    1    2    0    0 -0.19537060810E+02 -0.11110605758E+02  0.10715048659E+02  0.24898886986E+02  0.00000000000E+00 0.  1.
         11    1    1    2    0    0  0.35163240727E+02  0.19989185025E+02  0.21746696564E+03  0.22119652385E+03  0.00000000000E+00 0. -1.
<mgrwt>
<rscale>  0 0.10890923E+03</rscale>
<asrwt>0</asrwt>
<pdfrwt beam="1">  1        1 0.11371533E+00 0.11513778E+03</pdfrwt>
<pdfrwt beam="2">  1       -1 0.23936158E-02 0.11513778E+03</pdfrwt>
<totfact> 0.12910717E+04</totfact>
</mgrwt>
</event>
<event>
 6    1  0.5258538E-006  0.1492704E+03  0.7546771E-02  0.1210805E+00
         -2   -1    0    0    0  501 -0.00000000000E+00  0.00000000000E+00  0.27284689152E+02  0.27284689152E+02  0.00000000000E+00 0.  1.
          2   -1    0    0  501    0  0.00000000000E+00 -0.00000000000E+00 -0.80416274128E+03  0.80416274128E+03  0.00000000000E+00 0. -1.
          5    1    1    2  502    0 -0.15695749404E+02  0.97481159802E+02 -0.51553999629E+03  0.52493095817E+03  0.47000000000E+01 0. -1.
         -5    1    1    2    0  502  0.33033189266E+02 -0.17764111342E+02 -0.72541694448E+02  0.81799405121E+02  0.47000000000E+01 0. -1.
        -11    1    1    2    0    0  0.30466555950E+02 -0.23822241087E+02 -0.11151642510E+03  0.11803229756E+03  0.00000000000E+00 0.  1.
         11    1    1    2    0    0 -0.47803995812E+02 -0.55894807373E+02 -0.77279936292E+02  0.10668476958E+03  0.00000000000E+00 0. -1.
<mgrwt>
<rscale>  0 0.14189256E+03</rscale>
<asrwt>0</asrwt>
<pdfrwt beam="2">  1        2 0.12371735E+00 0.14927042E+03</pdfrwt>
<pdfrwt beam="1">  1       -2 0.41976444E-02 0.14927042E+03</pdfrwt>
<totfact> 0.87118148E+03</totfact>
</mgrwt>
</event>
<event>
 6    1  0.5258538E-006  0.1453982E+03  0.7546771E-02  0.1215309E+00
          2   -1    0    0  501    0  0.00000000000E+00  0.00000000000E+00  0.28319745293E+03  0.28319745293E+03  0.00000000000E+00 0. -1.
         -2   -1    0    0    0  501 -0.00000000000E+00 -0.00000000000E+00 -0.64316468762E+02  0.64316468762E+02  0.00000000000E+00 0.  1.
          5    1    1    2  502    0 -0.37698037751E+02  0.31403321517E+02  0.15910177626E+02  0.51793188787E+02  0.47000000000E+01 0. -1.
         -5    1    1    2    0  502  0.74175081903E+02  0.33268709961E+02  0.13579017649E+03  0.15833449361E+03  0.47000000000E+01 0. -1.
        -11    1    1    2    0    0 -0.19975394339E+02 -0.30491047010E+02  0.87172822928E+02  0.94487149306E+02  0.00000000000E+00 0. -1.
         11    1    1    2    0    0 -0.16501649813E+02 -0.34180984468E+02 -0.19992192872E+02  0.42899089986E+02  0.00000000000E+00 0.  1.
<mgrwt>
<rscale>  0 0.13853842E+03</rscale>
<asrwt>0</asrwt>
<pdfrwt beam="1">  1        2 0.43568838E-01 0.14539823E+03</pdfrwt>
<pdfrwt beam="2">  1       -2 0.98948415E-02 0.14539823E+03</pdfrwt>
<totfact> 0.75057292E+03</totfact>
</mgrwt>
</event>
<event>
 6    1  0.5258538E-006  0.1290655E+03  0.7546771E-02  0.1239991E+00
          1   -1    0    0  501    0  0.00000000000E+00  0.00000000000E+00  0.89950907096E+03  0.89950907096E+03  0.00000000000E+00 0. -1.
         -1   -1    0    0    0  501 -0.00000000000E+00 -0.00000000000E+00 -0.15632045951E+02  0.15632045951E+02  0.00000000000E+00 0.  1.
          5    1    1    2  502    0 -0.18599876453E+02 -0.31066823156E+02  0.41144919214E+02  0.55009974388E+02  0.47000000000E+01 0. -1.
         -5    1    1    2    0  502 -0.65300492876E+01 -0.11158244403E+02  0.54512479427E+03  0.54529833971E+03  0.47000000000E+01 0.  1.
        -11    1    1    2    0    0  0.55659290975E+02  0.45638047585E+02  0.20619544882E+03  0.21839723252E+03  0.00000000000E+00 0.  1.
         11    1    1    2    0    0 -0.30529365234E+02 -0.34129800255E+01  0.91411862701E+02  0.96435570288E+02  0.00000000000E+00 0. -1.
<mgrwt>
<rscale>  0 0.12190231E+03</rscale>
<asrwt>0</asrwt>
<pdfrwt beam="1">  1        1 0.13838597E+00 0.12906547E+03</pdfrwt>
<pdfrwt beam="2">  1       -1 0.24049309E-02 0.12906547E+03</pdfrwt>
<totfact> 0.95979449E+03</totfact>
</mgrwt>
</event>
<event>
 6    1  0.5258538E-006  0.1253515E+03  0.7546771E-02  0.1250049E+00
         -2   -1    0    0    0  501 -0.00000000000E+00  0.00000000000E+00  0.21789935810E+02  0.21789935810E+02  0.00000000000E+00 0.  1.
          2   -1    0    0  501    0  0.00000000000E+00 -0.00000000000E+00 -0.53986052545E+03  0.53986052545E+03  0.00000000000E+00 0. -1.
          5    1    1    2  502    0 -0.48645967276E+02 -0.20379298067E+02 -0.25685163326E+03  0.26225292645E+03  0.47000000000E+01 0. -1.
         -5    1    1    2    0  502  0.42115160225E+02  0.13475516835E+02 -0.39339578887E+02  0.59371447193E+02  0.47000000000E+01 0.  1.
        -11    1    1    2    0    0  0.45636678269E+02 -0.98858534055E+01 -0.89118697902E+02  0.10061102731E+03  0.00000000000E+00 0.  1.
         11    1    1    2    0    0 -0.39105871218E+02  0.16789634638E+02 -0.13276067959E+03  0.13941506031E+03  0.00000000000E+00 0. -1.
<mgrwt>
<rscale>  0 0.11588203E+03</rscale>
<asrwt>0</asrwt>
<pdfrwt beam="2">  1        2 0.83055457E-01 0.12535152E+03</pdfrwt>
<pdfrwt beam="1">  1       -2 0.33522982E-02 0.12535152E+03</pdfrwt>
<totfact> 0.19149100E+04</totfact>
</mgrwt>
</event>
<event>
 6    1  0.5258538E-006  0.1195097E+03  0.7546771E-02  0.1257748E+00
         -2   -1    0    0    0  501 -0.00000000000E+00  0.00000000000E+00  0.13213876424E+02  0.13213876424E+02  0.00000000000E+00 0.  1.
          2   -1    0    0  501    0  0.00000000000E+00 -0.00000000000E+00 -0.93829223469E+03  0.93829223469E+03  0.00000000000E+00 0. -1.
          5    1    1    2  502    0 -0.61334000638E+01  0.27969851149E+02 -0.57253191853E+03  0.57326679558E+03  0.47000000000E+01 0. -1.
         -5    1    1    2    0  502  0.24993706751E+02 -0.38064776343E+02 -0.10244064265E+03  0.11220422381E+03  0.47000000000E+01 0.  1.
        -11    1    1    2    0    0  0.23512425067E+02 -0.25945485701E+02 -0.10011042992E+03  0.10605706265E+03  0.00000000000E+00 0.  1.
         11    1    1    2    0    0 -0.42372731755E+02  0.36040410896E+02 -0.14999536717E+03  0.15997802907E+03  0.00000000000E+00 0. -1.
<mgrwt>
<rscale>  0 0.11153801E+03</rscale>
<asrwt>0</asrwt>
<pdfrwt beam="2">  1        2 0.14435265E+00 0.11950967E+03</pdfrwt>
<pdfrwt beam="1">  1       -2 0.20329041E-02 0.11950967E+03</pdfrwt>
<totfact> 0.20414651E+04</totfact>
</mgrwt>
</event>
<event>
 6    1  0.5258538E-006  0.2259490E+03  0.7546771E-02  0.1132657E+00
          2   -1    0    0  501    0  0.00000000000E+00  0.00000000000E+00  0.10988999848E+04  0.10988999848E+04  0.00000000000E+00 0.  1.
         -2   -1    0    0    0  501 -0.00000000000E+00 -0.00000000000E+00 -0.48544191975E+02  0.48544191975E+02  0.00000000000E+00 0. -1.
          5    1    1    2  502    0 -0.86359710697E+02  0.10615536954E+03  0.45168205401E+03  0.47198064582E+03  0.47000000000E+01 0. -1.
         -5    1    1    2    0  502 -0.84561548144E+02 -0.27330004152E+02  0.28361197229E+03  0.29724640516E+03  0.47000000000E+01 0. -1.
        -11    1    1    2    0    0  0.84511933367E+02 -0.39813128106E+01  0.19434283714E+03  0.21196050595E+03  0.00000000000E+00 0.  1.
         11    1    1    2    0    0  0.86409325473E+02 -0.74844052575E+02  0.12071892939E+03  0.16625661986E+03  0.00000000000E+00 0. -1.
<mgrwt>
<rscale>  0 0.22165248E+03</rscale>
<asrwt>0</asrwt>
<pdfrwt beam="1">  1        2 0.16906152E+00 0.22594900E+03</pdfrwt>
<pdfrwt beam="2">  1       -2 0.74683381E-02 0.22594900E+03</pdfrwt>
<totfact> 0.24042049E+03</totfact>
</mgrwt>
</event>
<event>
 6    1  0.5258538E-006  0.1477309E+03  0.7546771E-02  0.1212613E+00
         -1   -1    0    0    0  501 -0.00000000000E+00  0.00000000000E+00  0.32415645548E+02  0.32415645548E+02  0.00000000000E+00 0.  1.
          1   -1    0    0  501    0  0.00000000000E+00 -0.00000000000E+00 -0.72390150445E+03  0.72390150445E+03  0.00000000000E+00 0. -1.
          5    1    1    2  502    0 -0.83785505132E+02  0.22979827743E+02 -0.41378508529E+03  0.42283361995E+03  0.47000000000E+01 0. -1.
         -5    1    1    2    0  502  0.11168681765E+02 -0.53312394756E+02 -0.13939600554E+03  0.14973405506E+03  0.47000000000E+01 0. -1.
        -11    1    1    2    0    0  0.44988879376E+02  0.52303834170E+02 -0.41032949542E+02  0.80270749869E+02  0.00000000000E+00 0.  1.
         11    1    1    2    0    0  0.27627943992E+02 -0.21971267157E+02 -0.97271818538E+02  0.10347872512E+03  0.00000000000E+00 0. -1.
<mgrwt>
<rscale>  0 0.14053357E+03</rscale>
<asrwt>0</asrwt>
<pdfrwt beam="2">  1        1 0.11136945E+00 0.14773091E+03</pdfrwt>
<pdfrwt beam="1">  1       -1 0.49870229E-02 0.14773091E+03</pdfrwt>
<totfact> 0.46205553E+03</totfact>
</mgrwt>
</event>
<event>
 6    1  0.5258538E-006  0.1375410E+03  0.7546771E-02  0.1227556E+00
         -3   -1    0    0    0  501 -0.00000000000E+00  0.00000000000E+00  0.57626181233E+02  0.57626181233E+02  0.00000000000E+00 0.  1.
          3   -1    0    0  501    0  0.00000000000E+00 -0.00000000000E+00 -0.53668019530E+03  0.53668019530E+03  0.00000000000E+00 0. -1.
          5    1    1    2  502    0 -0.25879930485E+02 -0.51555375578E+02 -0.16698113733E+03  0.17672724118E+03  0.47000000000E+01 0. -1.
         -5    1    1    2    0  502 -0.27109614828E+02  0.73577691012E+02 -0.29675073771E+03  0.30697181981E+03  0.47000000000E+01 0. -1.
        -11    1    1    2    0    0  0.90327320114E+01 -0.26295564714E+02  0.34316210172E+02  0.44166155049E+02  0.00000000000E+00 0.  1.
         11    1    1    2    0    0  0.43956813303E+02  0.42732492799E+01 -0.49638349207E+02  0.66441160489E+02  0.00000000000E+00 0. -1.
<mgrwt>
<rscale>  0 0.12993263E+03</rscale>
<asrwt>0</asrwt>
<pdfrwt beam="2">  1        3 0.82566183E-01 0.13754101E+03</pdfrwt>
<pdfrwt beam="1">  1       -3 0.88655665E-02 0.13754101E+03</pdfrwt>
<totfact> 0.29290140E+02</totfact>
</mgrwt>
</event>
<event>
 6    1  0.5258538E-006  0.1688643E+03  0.7546771E-02  0.1183321E+00
         -1   -1    0    0    0  501 -0.00000000000E+00  0.00000000000E+00  0.38854776291E+02  0.38854776291E+02  0.00000000000E+00 0.  1.
          1   -1    0    0  501    0  0.00000000000E+00 -0.00000000000E+00 -0.16565620665E+04  0.16565620665E+04  0.00000000000E+00 0. -1.
          5    1    1    2  502    0  0.89794745268E+02  0.42234627804E+02 -0.52179423528E+03  0.53116680434E+03  0.47000000000E+01 0. -1.
         -5    1    1    2    0  502  0.50983918932E+01  0.20103855247E+02 -0.95720893226E+03  0.95744513607E+03  0.47000000000E+01 0. -1.
        -11    1    1    2    0    0 -0.10867973047E+03 -0.50318225263E+02 -0.76841383523E+02  0.14229478497E+03  0.00000000000E+00 0.  1.
         11    1    1    2    0    0  0.13786593309E+02 -0.12020257788E+02 -0.61862739152E+02  0.64510117406E+02  0.00000000000E+00 0. -1.
<mgrwt>
<rscale>  0 0.16485600E+03</rscale>
<asrwt>0</asrwt>
<pdfrwt beam="2">  1        1 0.25485568E+00 0.16886426E+03</pdfrwt>
<pdfrwt beam="1">  1       -1 0.59776584E-02 0.16886426E+03</pdfrwt>
<totfact> 0.76764488E+02</totfact>
</mgrwt>
</event>
<event>
 6    1  0.5258538E-006  0.1509453E+03  0.7546771E-02  0.1217270E+00
          2   -1    0    0  501    0  0.00000000000E+00  0.00000000000E+00  0.31304763529E+02  0.31304763529E+02  0.00000000000E+00 0. -1.
         -2   -1    0    0    0  501 -0.00000000000E+00 -0.00000000000E+00 -0.51695926252E+03  0.51695926252E+03  0.00000000000E+00 0.  1.
          5    1    1    2  502    0  0.14505438274E+02  0.33328885258E+02 -0.67954207982E+01  0.37275864522E+02  0.47000000000E+01 0. -1.
         -5    1    1    2    0  502  0.35721632906E+02 -0.59319997856E+02 -0.26163609765E+03  0.27068512113E+03  0.47000000000E+01 0.  1.
        -11    1    1    2    0    0 -0.71498757510E+02  0.96659487470E+01 -0.18379839356E+03  0.19745215209E+03  0.00000000000E+00 0.  1.
         11    1    1    2    0    0  0.21271686330E+02  0.16325163851E+02 -0.33424586979E+02  0.42850888308E+02  0.00000000000E+00 0. -1.
<mgrwt>
<rscale>  0 0.13711069E+03</rscale>
<asrwt>0</asrwt>
<pdfrwt beam="1">  1        2 0.48161174E-02 0.15094532E+03</pdfrwt>
<pdfrwt beam="2">  1       -2 0.79532195E-01 0.15094532E+03</pdfrwt>
<totfact> 0.23027113E+03</totfact>
</mgrwt>
</event>
<event>
 6    1  0.5258538E-006  0.1306970E+03  0.7546771E-02  0.1239111E+00
         -1   -1    0    0    0  501 -0.00000000000E+00  0.00000000000E+00  0.15113932479E+03  0.15113932479E+03  0.00000000000E+00 0.  1.
          1   -1    0    0  501    0  0.00000000000E+00 -0.00000000000E+00 -0.88566696636E+02  0.88566696636E+02  0.00000000000E+00 0. -1.
          5    1    1    2  502    0  0.48251718604E+02  0.30401612383E+02  0.20358295189E+02  0.60737439580E+02  0.47000000000E+01 0. -1.
         -5    1    1    2    0  502 -0.72961987085E+02 -0.12923712704E+01  0.14823752653E+02  0.74612032713E+02  0.47000000000E+01 0. -1.
        -11    1    1    2    0    0  0.81556991013E+01 -0.13191291155E+02 -0.34779236219E+02  0.38080452494E+02  0.00000000000E+00 0. -1.
         11    1    1    2    0    0  0.16554569380E+02 -0.15917949958E+02  0.62169816526E+02  0.66276096634E+02  0.00000000000E+00 0.  1.
<mgrwt>
<rscale>  0 0.12244870E+03</rscale>
<asrwt>0</asrwt>
<pdfrwt beam="2">  1        1 0.13625646E-01 0.13069699E+03</pdfrwt>
<pdfrwt beam="1">  1       -1 0.23252204E-01 0.13069699E+03</pdfrwt>
<totfact> 0.62997384E+03</totfact>
</mgrwt>
</event>
<event>
 6    1  0.5258538E-006  0.1573641E+03  0.7546771E-02  0.1199812E+00
          2   -1    0    0  501    0  0.00000000000E+00  0.00000000000E+00  0.50391800735E+02  0.50391800735E+02  0.00000000000E+00 0. -1.
         -2   -1    0    0    0  501 -0.00000000000E+00 -0.00000000000E+00 -0.41574585084E+03  0.41574585084E+03  0.00000000000E+00 0.  1.
          5    1    1    2  502    0 -0.83751446108E+01  0.96840540743E+02 -0.10930674654E+03  0.14634988287E+03  0.47000000000E+01 0. -1.
         -5    1    1    2    0  502  0.55856038914E+02 -0.13874933115E+02 -0.10058367760E+03  0.11598093400E+03  0.47000000000E+01 0. -1.
        -11    1    1    2    0    0  0.53970307868E+01 -0.20100780826E+02 -0.10577147032E+03  0.10779969047E+03  0.00000000000E+00 0.  1.
         11    1    1    2    0    0 -0.52877925090E+02 -0.62864826803E+02 -0.49692155650E+02  0.96007144234E+02  0.00000000000E+00 0. -1.
<mgrwt>
<rscale>  0 0.15053896E+03</rscale>
<asrwt>0</asrwt>
<pdfrwt beam="1">  1        2 0.77525848E-02 0.15736412E+03</pdfrwt>
<pdfrwt beam="2">  1       -2 0.63960899E-01 0.15736412E+03</pdfrwt>
<totfact> 0.19903530E+03</totfact>
</mgrwt>
</event>
<event>
 6    1  0.5258538E-006  0.1282013E+03  0.7546771E-02  0.1244192E+00
          4   -1    0    0  501    0  0.00000000000E+00  0.00000000000E+00  0.98716018638E+03  0.98716018638E+03  0.00000000000E+00 0. -1.
         -4   -1    0    0    0  501 -0.00000000000E+00 -0.00000000000E+00 -0.17035349238E+02  0.17035349238E+02  0.00000000000E+00 0.  1.
          5    1    1    2  502    0 -0.48903858769E+02 -0.19716201493E+02  0.44598269258E+03  0.44911353585E+03  0.47000000000E+01 0. -1.
         -5    1    1    2    0  502  0.70467184771E+02  0.11090029342E+01  0.34041185130E+03  0.34766244049E+03  0.47000000000E+01 0. -1.
        -11    1    1    2    0    0  0.32066433646E+01  0.52037314662E+02  0.78228658566E+02  0.94010040421E+02  0.00000000000E+00 0.  1.
         11    1    1    2    0    0 -0.24769969367E+02 -0.33430116103E+02  0.10550163469E+03  0.11340951886E+03  0.00000000000E+00 0. -1.
<mgrwt>
<rscale>  0 0.11933868E+03</rscale>
<asrwt>0</asrwt>
<pdfrwt beam="1">  1        4 0.15187075E+00 0.12820132E+03</pdfrwt>
<pdfrwt beam="2">  1       -4 0.26208237E-02 0.12820132E+03</pdfrwt>
<totfact> 0.33980047E+02</totfact>
</mgrwt>
</event>
<event>
 6    1  0.5258538E-006  0.3375617E+03  0.7546771E-02  0.1067839E+00
         -1   -1    0    0    0  501 -0.00000000000E+00  0.00000000000E+00  0.27406696009E+03  0.27406696009E+03  0.00000000000E+00 0.  1.
          1   -1    0    0  501    0  0.00000000000E+00 -0.00000000000E+00 -0.10394164397E+03  0.10394164397E+03  0.00000000000E+00 0. -1.
          5    1    1    2  502    0  0.26412633815E+02 -0.61449548198E+02 -0.76049694119E+02  0.10138698227E+03  0.47000000000E+01 0.  1.
         -5    1    1    2    0  502  0.13137319757E+01 -0.23183361284E+01  0.44721199817E+02  0.45046379291E+02  0.47000000000E+01 0.  1.
        -11    1    1    2    0    0 -0.25314794091E+02 -0.13575324471E+02  0.99610815999E+02  0.10366987459E+03  0.00000000000E+00 0.  1.
         11    1    1    2    0    0 -0.24115716993E+01  0.77343208798E+02  0.10184299442E+03  0.12790536790E+03  0.00000000000E+00 0. -1.
<mgrwt>
<rscale>  0 0.33756167E+03</rscale>
<asrwt>0</asrwt>
<pdfrwt beam="2">  1        1 0.15991022E-01 0.33756167E+03</pdfrwt>
<pdfrwt beam="1">  1       -1 0.42164147E-01 0.33756167E+03</pdfrwt>
<totfact> 0.19283292E+03</totfact>
</mgrwt>
</event>
<event>
 6    1  0.5258538E-006  0.4359370E+03  0.7546771E-02  0.1032001E+00
          1   -1    0    0  501    0  0.00000000000E+00  0.00000000000E+00  0.25910270213E+03  0.25910270213E+03  0.00000000000E+00 0. -1.
         -1   -1    0    0    0  501 -0.00000000000E+00 -0.00000000000E+00 -0.18336462836E+03  0.18336462836E+03  0.00000000000E+00 0.  1.
          5    1    1    2  502    0  0.22225996981E+02 -0.63831431888E+01 -0.26449679045E+02  0.35445944484E+02  0.47000000000E+01 0.  1.
         -5    1    1    2    0  502  0.14019931685E+03 -0.46335401078E+02  0.14557060273E+03  0.20740228595E+03  0.47000000000E+01 0.  1.
        -11    1    1    2    0    0 -0.23176556352E+02  0.33036381110E+02  0.20376314513E+02  0.45207847044E+02  0.00000000000E+00 0.  1.
         11    1    1    2    0    0 -0.13924875748E+03  0.19682163156E+02 -0.63759164437E+02  0.15441125301E+03  0.00000000000E+00 0. -1.
<mgrwt>
<rscale>  0 0.43593702E+03</rscale>
<asrwt>0</asrwt>
<pdfrwt beam="1">  1        1 0.39861954E-01 0.43593702E+03</pdfrwt>
<pdfrwt beam="2">  1       -1 0.28209943E-01 0.43593702E+03</pdfrwt>
<totfact> 0.12036468E+03</totfact>
</mgrwt>
</event>
<event>
 6    1  0.5258538E-006  0.2812410E+03  0.7546771E-02  0.1096801E+00
         -2   -1    0    0    0  501 -0.00000000000E+00  0.00000000000E+00  0.45367668979E+02  0.45367668979E+02  0.00000000000E+00 0.  1.
          2   -1    0    0  501    0  0.00000000000E+00 -0.00000000000E+00 -0.18549641376E+04  0.18549641376E+04  0.00000000000E+00 0. -1.
          5    1    1    2  502    0  0.20360552580E+03  0.87479615637E+02 -0.90130096847E+03  0.92815592389E+03  0.47000000000E+01 0. -1.
         -5    1    1    2    0  502  0.29587620579E+01  0.56751712325E+02 -0.32667576507E+03  0.33161522373E+03  0.47000000000E+01 0. -1.
        -11    1    1    2    0    0 -0.16364276515E+03 -0.15341562297E+03 -0.47718274584E+03  0.52727476792E+03  0.00000000000E+00 0. -1.
         11    1    1    2    0    0 -0.42921522706E+02  0.91842950098E+01 -0.10443698922E+03  0.11328589102E+03  0.00000000000E+00 0.  1.
<mgrwt>
<rscale>  0 0.27797323E+03</rscale>
<asrwt>0</asrwt>
<pdfrwt beam="2">  1        2 0.28537907E+00 0.28124098E+03</pdfrwt>
<pdfrwt beam="1">  1       -2 0.69796420E-02 0.28124098E+03</pdfrwt>
<totfact> 0.10360526E+03</totfact>
</mgrwt>
</event>
<event>
 6    1  0.5258538E-006  0.2655449E+03  0.7546771E-02  0.1130638E+00
          2   -1    0    0  501    0  0.00000000000E+00  0.00000000000E+00  0.51727032052E+03  0.51727032052E+03  0.00000000000E+00 0. -1.
         -2   -1    0    0    0  501 -0.00000000000E+00 -0.00000000000E+00 -0.92814511988E+02  0.92814511988E+02  0.00000000000E+00 0.  1.
          5    1    1    2  502    0  0.55360478306E+02 -0.86715339117E+02  0.37892312124E+03  0.39266926848E+03  0.47000000000E+01 0. -1.
         -5    1    1    2    0  502 -0.75851129570E+02 -0.89927004486E+01  0.84642814754E+01  0.76993484006E+02  0.47000000000E+01 0.  1.
        -11    1    1    2    0    0 -0.11162590637E+02  0.10234549938E+03  0.25395626421E+02  0.10603840113E+03  0.00000000000E+00 0.  1.
         11    1    1    2    0    0  0.31653241901E+02 -0.66374598107E+01  0.11672779391E+02  0.34383678894E+02  0.00000000000E+00 0. -1.
<mgrwt>
<rscale>  0 0.22440944E+03</rscale>
<asrwt>0</asrwt>
<pdfrwt beam="1">  1        2 0.79580048E-01 0.26554491E+03</pdfrwt>
<pdfrwt beam="2">  1       -2 0.14279156E-01 0.26554491E+03</pdfrwt>
<totfact> 0.22194833E+03</totfact>
</mgrwt>
</event>
<event>
 6    1  0.5258538E-006  0.2764947E+03  0.7546771E-02  0.1097619E+00
         -2   -1    0    0    0  501 -0.00000000000E+00  0.00000000000E+00  0.27758369159E+02  0.27758369159E+02  0.00000000000E+00 0. -1.
          2   -1    0    0  501    0  0.00000000000E+00 -0.00000000000E+00 -0.68852478314E+03  0.68852478314E+03  0.00000000000E+00 0.  1.
          5    1    1    2  502    0 -0.47274545961E+02 -0.76560306179E+02 -0.42417334383E+03  0.43363749699E+03  0.47000000000E+01 0.  1.
         -5    1    1    2    0  502  0.12059034776E+02  0.17137390696E+02 -0.10509130527E+02  0.23909042307E+02  0.47000000000E+01 0.  1.
        -11    1    1    2    0    0 -0.30296860078E+02  0.34192900128E+02 -0.43337836649E+02  0.62970010601E+02  0.00000000000E+00 0.  1.
         11    1    1    2    0    0  0.65512371263E+02  0.25230015355E+02 -0.18274610297E+03  0.19576660240E+03  0.00000000000E+00 0. -1.
<mgrwt>
<rscale>  0 0.27649467E+03</rscale>
<asrwt>0</asrwt>
<pdfrwt beam="2">  1        2 0.10592690E+00 0.27649467E+03</pdfrwt>
<pdfrwt beam="1">  1       -2 0.42705178E-02 0.27649467E+03</pdfrwt>
<totfact> 0.10612607E+04</totfact>
</mgrwt>
</event>
<event>
 6    1  0.5258538E-006  0.1269727E+03  0.7546771E-02  0.1246731E+00
          2   -1    0    0  501    0  0.00000000000E+00  0.00000000000E+00  0.12869145071E+04  0.12869145071E+04  0.00000000000E+00 0. -1.
         -2   -1    0    0    0  501 -0.00000000000E+00 -0.00000000000E+00 -0.12742651688E+02  0.12742651688E+02  0.00000000000E+00 0.  1.
          5    1    1    2  502    0  0.34401912920E+02  0.39263538667E+02  0.36632082910E+03  0.37005155980E+03  0.47000000000E+01 0.  1.
         -5    1    1    2    0  502 -0.54153006511E+02 -0.49533946515E+02  0.66645751512E+03  0.67050269905E+03  0.47000000000E+01 0.  1.
        -11    1    1    2    0    0  0.35812436115E+02 -0.28992708583E+02  0.16926482049E+03  0.17542430614E+03  0.00000000000E+00 0. -1.
         11    1    1    2    0    0 -0.16061342524E+02  0.39263116431E+02  0.72128690689E+02  0.83678593775E+02  0.00000000000E+00 0.  1.
<mgrwt>
<rscale>  0 0.11782386E+03</rscale>
<asrwt>0</asrwt>
<pdfrwt beam="1">  1        2 0.19798674E+00 0.12697266E+03</pdfrwt>
<pdfrwt beam="2">  1       -2 0.19604090E-02 0.12697266E+03</pdfrwt>
<totfact> 0.13671603E+04</totfact>
</mgrwt>
</event>
<event>
 6    1  0.5258538E-006  0.1415708E+03  0.7546771E-02  0.1227088E+00
          4   -1    0    0  501    0  0.00000000000E+00  0.00000000000E+00  0.25849466080E+03  0.25849466080E+03  0.00000000000E+00 0. -1.
         -4   -1    0    0    0  501 -0.00000000000E+00 -0.00000000000E+00 -0.24625617810E+03  0.24625617810E+03  0.00000000000E+00 0.  1.
          5    1    1    2  502    0 -0.64881473142E+02 -0.11360454149E+02  0.23606972347E+03  0.24513194369E+03  0.47000000000E+01 0. -1.
         -5    1    1    2    0  502  0.16705601867E+02  0.10439815025E+02 -0.92329659986E+01  0.22257684799E+02  0.47000000000E+01 0.  1.
        -11    1    1    2    0    0 -0.16142871221E+02  0.16115752151E+02 -0.11884873349E+03  0.12101789624E+03  0.00000000000E+00 0. -1.
         11    1    1    2    0    0  0.64318742496E+02 -0.15195113027E+02 -0.95749541288E+02  0.11634331417E+03  0.00000000000E+00 0.  1.
<mgrwt>
<rscale>  0 0.13024807E+03</rscale>
<asrwt>0</asrwt>
<pdfrwt beam="1">  1        4 0.39768410E-01 0.14157083E+03</pdfrwt>
<pdfrwt beam="2">  1       -4 0.37885566E-01 0.14157083E+03</pdfrwt>
<totfact> 0.70510510E+01</totfact>
</mgrwt>
</event>
<event>
 6    1  0.8735022E-006  0.1635140E+03  0.7546771E-02  0.1191884E+00
          1   -1    0    0  501    0  0.00000000000E+00  0.00000000000E+00  0.50327557972E+03  0.50327557972E+03  0.00000000000E+00 0. -1.
         -1   -1    0    0    0  501 -0.00000000000E+00 -0.00000000000E+00 -0.49743342554E+02  0.49743342554E+02  0.00000000000E+00 0.  1.
          5    1    1    2  502    0  0.45798333531E+02 -0.29094108348E+02  0.10372142223E+03  0.11715023655E+03  0.47000000000E+01 0.  1.
         -5    1    1    2    0  502  0.26735026951E+02  0.10558320589E+03  0.21823335691E+03  0.24394766468E+03  0.47000000000E+01 0.  1.
        -11    1    1    2    0    0 -0.57318838702E+02 -0.38465450702E+02  0.18221634829E+02  0.71393754235E+02  0.00000000000E+00 0.  1.
         11    1    1    2    0    0 -0.15214521780E+02 -0.38023646842E+02  0.11335582320E+03  0.12052726681E+03  0.00000000000E+00 0. -1.
<mgrwt>
<rscale>  0 0.15720959E+03</rscale>
<asrwt>0</asrwt>
<pdfrwt beam="1">  1        1 0.77427009E-01 0.16351396E+03</pdfrwt>
<pdfrwt beam="2">  1       -1 0.76528223E-02 0.16351396E+03</pdfrwt>
<totfact> 0.40292579E+03</totfact>
</mgrwt>
</event>
<event>
 6    1  0.5258538E-006  0.2668436E+03  0.7546771E-02  0.1103100E+00
          2   -1    0    0  501    0  0.00000000000E+00  0.00000000000E+00  0.12437872541E+04  0.12437872541E+04  0.00000000000E+00 0. -1.
         -2   -1    0    0    0  501 -0.00000000000E+00 -0.00000000000E+00 -0.14312241222E+02  0.14312241222E+02  0.00000000000E+00 0.  1.
          5    1    1    2  502    0  0.32845391129E+02  0.16094862949E+02  0.15459094187E+03  0.15892864323E+03  0.47000000000E+01 0. -1.
         -5    1    1    2    0  502 -0.89531022497E+02 -0.36565861443E+02  0.75629981051E+03  0.76247253039E+03  0.47000000000E+01 0. -1.
        -11    1    1    2    0    0  0.57070186364E+02 -0.25820976890E+02  0.18038101886E+03  0.19094774412E+03  0.00000000000E+00 0.  1.
         11    1    1    2    0    0 -0.38455499519E+00  0.46291975383E+02  0.13820324165E+03  0.14575057759E+03  0.00000000000E+00 0. -1.
<mgrwt>
<rscale>  0 0.26684365E+03</rscale>
<asrwt>0</asrwt>
<pdfrwt beam="1">  1        2 0.19135180E+00 0.26684365E+03</pdfrwt>
<pdfrwt beam="2">  1       -2 0.22018842E-02 0.26684365E+03</pdfrwt>
<totfact> 0.12628008E+04</totfact>
</mgrwt>
</event>
<event>
 6    1  0.9315077E-006  0.3592189E+03  0.7546771E-02  0.1058894E+00
         -1   -1    0    0    0  501 -0.00000000000E+00  0.00000000000E+00  0.12461378960E+03  0.12461378960E+03  0.00000000000E+00 0.  1.
          1   -1    0    0  501    0  0.00000000000E+00 -0.00000000000E+00 -0.25887622620E+03  0.25887622620E+03  0.00000000000E+00 0. -1.
          5    1    1    2  502    0  0.18378533213E+02 -0.15286830401E+02  0.30187827526E+02  0.38792429641E+02  0.47000000000E+01 0. -1.
         -5    1    1    2    0  502 -0.68639477857E+01 -0.12700365482E+03 -0.10565250728E+03  0.16541337434E+03  0.47000000000E+01 0. -1.
        -11    1    1    2    0    0  0.23697290006E+02  0.61263549957E+02  0.11115093406E+02  0.66620788110E+02  0.00000000000E+00 0.  1.
         11    1    1    2    0    0 -0.35211875432E+02  0.81026935264E+02 -0.69912850250E+02  0.11266342370E+03  0.00000000000E+00 0. -1.
<mgrwt>
<rscale>  0 0.35921886E+03</rscale>
<asrwt>0</asrwt>
<pdfrwt beam="2">  1        1 0.39827111E-01 0.35921886E+03</pdfrwt>
<pdfrwt beam="1">  1       -1 0.19171352E-01 0.35921886E+03</pdfrwt>
<totfact> 0.22917168E+03</totfact>
</mgrwt>
</event>
<event>
 6    1  0.5258538E-006  0.2822435E+03  0.7546771E-02  0.1095497E+00
         -2   -1    0    0    0  501 -0.00000000000E+00  0.00000000000E+00  0.19169531074E+03  0.19169531074E+03  0.00000000000E+00 0.  1.
          2   -1    0    0  501    0  0.00000000000E+00 -0.00000000000E+00 -0.56809360953E+03  0.56809360953E+03  0.00000000000E+00 0. -1.
          5    1    1    2  502    0  0.93317289242E+02 -0.59106602767E+02 -0.20850305620E+03  0.23600279957E+03  0.47000000000E+01 0. -1.
         -5    1    1    2    0  502  0.16322893520E+03  0.27374371747E+02 -0.18528062218E+03  0.24848348128E+03  0.47000000000E+01 0.  1.
        -11    1    1    2    0    0 -0.56522185059E+02 -0.30713478981E+02 -0.52337514626E+01  0.64540431896E+02  0.00000000000E+00 0. -1.
         11    1    1    2    0    0 -0.20002403938E+03  0.62445710001E+02  0.22619131053E+02  0.21076220752E+03  0.00000000000E+00 0.  1.
<mgrwt>
<rscale>  0 0.28035195E+03</rscale>
<asrwt>0</asrwt>
<pdfrwt beam="2">  1        2 0.87399016E-01 0.28224346E+03</pdfrwt>
<pdfrwt beam="1">  1       -2 0.29491586E-01 0.28224346E+03</pdfrwt>
<totfact> 0.56999527E+02</totfact>
</mgrwt>
</event>
<event>
 6    1  0.5258538E-006  0.1310655E+03  0.7546771E-02  0.1240507E+00
         -1   -1    0    0    0  501 -0.00000000000E+00  0.00000000000E+00  0.23527153671E+02  0.23527153671E+02  0.00000000000E+00 0.  1.
          1   -1    0    0  501    0  0.00000000000E+00 -0.00000000000E+00 -0.56088110525E+03  0.56088110525E+03  0.00000000000E+00 0. -1.
          5    1    1    2  502    0 -0.28907051943E+02 -0.41849371544E+02 -0.26536852176E+03  0.27023976372E+03  0.47000000000E+01 0. -1.
         -5    1    1    2    0  502 -0.90577368305E+01  0.30634631363E+02 -0.85219489350E+01  0.33395162058E+02  0.47000000000E+01 0. -1.
        -11    1    1    2    0    0  0.42182014858E+02 -0.30672468445E+02 -0.17831875533E+03  0.18578940013E+03  0.00000000000E+00 0. -1.
         11    1    1    2    0    0 -0.42172260842E+01  0.41887208626E+02 -0.85144725557E+02  0.94983933023E+02  0.00000000000E+00 0.  1.
<mgrwt>
<rscale>  0 0.12158404E+03</rscale>
<asrwt>0</asrwt>
<pdfrwt beam="2">  1        1 0.86289398E-01 0.13106555E+03</pdfrwt>
<pdfrwt beam="1">  1       -1 0.36195622E-02 0.13106555E+03</pdfrwt>
<totfact> 0.10485606E+04</totfact>
</mgrwt>
</event>
<event>
 6    1  0.5258538E-006  0.1248099E+03  0.7546771E-02  0.1251642E+00
         -2   -1    0    0    0  501 -0.00000000000E+00  0.00000000000E+00  0.26673296520E+02  0.26673296520E+02  0.00000000000E+00 0.  1.
          2   -1    0    0  501    0  0.00000000000E+00 -0.00000000000E+00 -0.43192277498E+03  0.43192277498E+03  0.00000000000E+00 0. -1.
          5    1    1    2  502    0  0.49150271062E+00  0.61701332004E+02 -0.13852272455E+03  0.15171661465E+03  0.47000000000E+01 0. -1.
         -5    1    1    2    0  502  0.46201564907E+01 -0.61268475952E+02 -0.99283185479E+02  0.11685209844E+03  0.47000000000E+01 0. -1.
        -11    1    1    2    0    0  0.20712557195E+02  0.19855045228E+02 -0.11912049395E+02  0.31066537743E+02  0.00000000000E+00 0.  1.
         11    1    1    2    0    0 -0.25824216396E+02 -0.20287901280E+02 -0.15553151903E+03  0.15896082066E+03  0.00000000000E+00 0. -1.
<mgrwt>
<rscale>  0 0.11496520E+03</rscale>
<asrwt>0</asrwt>
<pdfrwt beam="2">  1        2 0.66449650E-01 0.12480987E+03</pdfrwt>
<pdfrwt beam="1">  1       -2 0.41035846E-02 0.12480987E+03</pdfrwt>
<totfact> 0.18101497E+04</totfact>
</mgrwt>
</event>
<event>
 6    1  0.5258538E-006  0.1895534E+03  0.7546771E-02  0.1163779E+00
          2   -1    0    0  501    0  0.00000000000E+00  0.00000000000E+00  0.18956244348E+04  0.18956244348E+04  0.00000000000E+00 0. -1.
         -2   -1    0    0    0  501 -0.00000000000E+00 -0.00000000000E+00 -0.16974472193E+02  0.16974472193E+02  0.00000000000E+00 0.  1.
          5    1    1    2  502    0  0.26793221876E+02 -0.10370574476E+03  0.36938196284E+03  0.38462693966E+03  0.47000000000E+01 0. -1.
         -5    1    1    2    0  502  0.52301212397E+02 -0.14818601536E+02  0.64573469020E+03  0.64803579214E+03  0.47000000000E+01 0. -1.
        -11    1    1    2    0    0 -0.64331497504E+01 -0.95605006152E+01  0.16074914134E+02  0.19778560416E+02  0.00000000000E+00 0.  1.
         11    1    1    2    0    0 -0.72661284523E+02  0.12808484691E+03  0.84745839543E+03  0.86015761478E+03  0.00000000000E+00 0. -1.
<mgrwt>
<rscale>  0 0.18422157E+03</rscale>
<asrwt>0</asrwt>
<pdfrwt beam="1">  1        2 0.29163436E+00 0.18955342E+03</pdfrwt>
<pdfrwt beam="2">  1       -2 0.26114588E-02 0.18955342E+03</pdfrwt>
<totfact> 0.43797615E+03</totfact>
</mgrwt>
</event>
<event>
 6    1  0.5258538E-006  0.1395586E+03  0.7546771E-02  0.1224189E+00
         -1   -1    0    0    0  501 -0.00000000000E+00  0.00000000000E+00  0.21567839730E+03  0.21567839730E+03  0.00000000000E+00 0.  1.
          1   -1    0    0  501    0  0.00000000000E+00 -0.00000000000E+00 -0.83165467858E+02  0.83165467858E+02  0.00000000000E+00 0. -1.
          5    1    1    2  502    0  0.53081461620E+02  0.48660855569E+02 -0.24967676813E+01  0.72206954522E+02  0.47000000000E+01 0. -1.
         -5    1    1    2    0  502 -0.63129098794E+02  0.12580424779E+02  0.24701058535E+02  0.69107036508E+02  0.47000000000E+01 0. -1.
        -11    1    1    2    0    0  0.23635964739E+02 -0.80929510409E+02  0.10170735448E+03  0.13210840412E+03  0.00000000000E+00 0.  1.
         11    1    1    2    0    0 -0.13588327565E+02  0.19688230061E+02  0.86012841064E+01  0.25421470005E+02  0.00000000000E+00 0. -1.
<mgrwt>
<rscale>  0 0.13222660E+03</rscale>
<asrwt>0</asrwt>
<pdfrwt beam="2">  1        1 0.12794687E-01 0.13955864E+03</pdfrwt>
<pdfrwt beam="1">  1       -1 0.33181292E-01 0.13955864E+03</pdfrwt>
<totfact> 0.37999859E+03</totfact>
</mgrwt>
</event>
<event>
 6    1  0.5258538E-006  0.3094704E+03  0.7546771E-02  0.1111094E+00
         -1   -1    0    0    0  501 -0.00000000000E+00  0.00000000000E+00  0.62456748516E+03  0.62456748516E+03  0.00000000000E+00 0.  1.
          1   -1    0    0  501    0  0.00000000000E+00 -0.00000000000E+00 -0.13200925777E+03  0.13200925777E+03  0.00000000000E+00 0. -1.
          5    1    1    2  502    0  0.15861832716E+03  0.47332884257E+02 -0.53499262614E+02  0.17402424183E+03  0.47000000000E+01 0. -1.
         -5    1    1    2    0  502 -0.60431740985E+02 -0.10553464564E+02  0.13141393771E+03  0.14510370070E+03  0.47000000000E+01 0.  1.
        -11    1    1    2    0    0 -0.33632173706E+02 -0.60878612003E+02  0.23366408685E+03  0.24379547574E+03  0.00000000000E+00 0. -1.
         11    1    1    2    0    0 -0.64554412474E+02  0.24099192310E+02  0.18097946544E+03  0.19365332466E+03  0.00000000000E+00 0.  1.
<mgrwt>
<rscale>  0 0.25353011E+03</rscale>
<asrwt>0</asrwt>
<pdfrwt beam="2">  1        1 0.20309117E-01 0.30947043E+03</pdfrwt>
<pdfrwt beam="1">  1       -1 0.96087304E-01 0.30947043E+03</pdfrwt>
<totfact> 0.27621284E+02</totfact>
</mgrwt>
</event>
<event>
 6    1  0.5258538E-006  0.1228652E+03  0.7546771E-02  0.1247010E+00
          1   -1    0    0  501    0  0.00000000000E+00  0.00000000000E+00  0.21636645844E+03  0.21636645844E+03  0.00000000000E+00 0. -1.
         -1   -1    0    0    0  501 -0.00000000000E+00 -0.00000000000E+00 -0.24095952094E+03  0.24095952094E+03  0.00000000000E+00 0.  1.
          5    1    1    2  502    0 -0.81244956677E+02  0.70048105975E+01  0.13260137056E+03  0.15574024474E+03  0.47000000000E+01 0. -1.
         -5    1    1    2    0  502  0.38097835336E+02 -0.13682693894E+02  0.53302557114E+02  0.67096302166E+02  0.47000000000E+01 0.  1.
        -11    1    1    2    0    0  0.42959545250E+02 -0.27826246958E+02 -0.18399510705E+03  0.19098173203E+03  0.00000000000E+00 0.  1.
         11    1    1    2    0    0  0.18757609116E+00  0.34504130255E+02 -0.26501883120E+02  0.43507700449E+02  0.00000000000E+00 0. -1.
<mgrwt>
<rscale>  0 0.11765877E+03</rscale>
<asrwt>0</asrwt>
<pdfrwt beam="1">  1        1 0.33287147E-01 0.12286520E+03</pdfrwt>
<pdfrwt beam="2">  1       -1 0.37070696E-01 0.12286520E+03</pdfrwt>
<totfact> 0.92949601E+02</totfact>
</mgrwt>
</event>
<event>
 6    1  0.5258538E-006  0.2821088E+03  0.7546771E-02  0.1094543E+00
          2   -1    0    0  501    0  0.00000000000E+00  0.00000000000E+00  0.31539999521E+03  0.31539999521E+03  0.00000000000E+00 0. -1.
         -2   -1    0    0    0  501 -0.00000000000E+00 -0.00000000000E+00 -0.63082891303E+02  0.63082891303E+02  0.00000000000E+00 0.  1.
          5    1    1    2  502    0 -0.13320285603E+02 -0.80363257552E+01 -0.15866350089E+02  0.22712190677E+02  0.47000000000E+01 0. -1.
         -5    1    1    2    0  502  0.40199654847E+02 -0.73543208114E+02  0.19315553973E+03  0.21060809157E+03  0.47000000000E+01 0. -1.
        -11    1    1    2    0    0  0.25828650461E+02  0.17115505506E+02 -0.28952190678E+01  0.31119800880E+02  0.00000000000E+00 0.  1.
         11    1    1    2    0    0 -0.52708019706E+02  0.64464028363E+02  0.77923133336E+02  0.11404280338E+03  0.00000000000E+00 0. -1.
<mgrwt>
<rscale>  0 0.28210880E+03</rscale>
<asrwt>0</asrwt>
<pdfrwt beam="1">  1        2 0.48523075E-01 0.28210880E+03</pdfrwt>
<pdfrwt beam="2">  1       -2 0.97050604E-02 0.28210880E+03</pdfrwt>
<totfact> 0.71650235E+03</totfact>
</mgrwt>
</event>
<event>
 6    1  0.5258538E-006  0.3452640E+03  0.7546771E-02  0.1064576E+00
          2   -1    0    0  501    0  0.00000000000E+00  0.00000000000E+00  0.20328480753E+03  0.20328480753E+03  0.00000000000E+00 0.  1.
         -2   -1    0    0    0  501 -0.00000000000E+00 -0.00000000000E+00 -0.14660125769E+03  0.14660125769E+03  0.00000000000E+00 0. -1.
          5    1    1    2  502    0 -0.30767594438E+02  0.10086437861E+03  0.12656406300E+03  0.16480539974E+03  0.47000000000E+01 0. -1.
         -5    1    1    2    0  502 -0.11896985383E+02  0.73516065855E+01 -0.28506745052E+02  0.32098425102E+02  0.47000000000E+01 0. -1.
        -11    1    1    2    0    0 -0.10298378053E+02 -0.62163872810E+02  0.12829295010E+02  0.64303922770E+02  0.00000000000E+00 0. -1.
         11    1    1    2    0    0  0.52962957874E+02 -0.46052112387E+02 -0.54203063116E+02  0.88678317605E+02  0.00000000000E+00 0.  1.
<mgrwt>
<rscale>  0 0.34526401E+03</rscale>
<asrwt>0</asrwt>
<pdfrwt beam="1">  1        2 0.31274586E-01 0.34526401E+03</pdfrwt>
<pdfrwt beam="2">  1       -2 0.22554040E-01 0.34526401E+03</pdfrwt>
<totfact> 0.28658126E+03</totfact>
</mgrwt>
</event>
<event>
 6    1  0.5258538E-006  0.2692348E+03  0.7546771E-02  0.1103698E+00
          2   -1    0    0  501    0  0.00000000000E+00  0.00000000000E+00  0.46040125829E+03  0.46040125829E+03  0.00000000000E+00 0. -1.
         -2   -1    0    0    0  501 -0.00000000000E+00 -0.00000000000E+00 -0.15016635255E+03  0.15016635255E+03  0.00000000000E+00 0.  1.
          5    1    1    2  502    0  0.27767679429E+02  0.80374931403E+02  0.45507960948E+02  0.96562094678E+02  0.47000000000E+01 0. -1.
         -5    1    1    2    0  502  0.18049731765E+03  0.35763861001E+02  0.96478334473E+02  0.20781841703E+03  0.47000000000E+01 0. -1.
        -11    1    1    2    0    0 -0.59037733604E+02 -0.49671834025E+02  0.83656005160E+01  0.77606239160E+02  0.00000000000E+00 0. -1.
         11    1    1    2    0    0 -0.14922726348E+03 -0.66466958380E+02  0.15988300981E+03  0.22858085998E+03  0.00000000000E+00 0.  1.
<mgrwt>
<rscale>  0 0.26581609E+03</rscale>
<asrwt>0</asrwt>
<pdfrwt beam="1">  1        2 0.70830962E-01 0.26923482E+03</pdfrwt>
<pdfrwt beam="2">  1       -2 0.23102516E-01 0.26923482E+03</pdfrwt>
<totfact> 0.11177431E+03</totfact>
</mgrwt>
</event>
<event>
 6    1  0.5258538E-006  0.3310052E+03  0.7546771E-02  0.1070693E+00
         -2   -1    0    0    0  501 -0.00000000000E+00  0.00000000000E+00  0.29935572380E+03  0.29935572380E+03  0.00000000000E+00 0.  1.
          2   -1    0    0  501    0  0.00000000000E+00 -0.00000000000E+00 -0.91500201766E+02  0.91500201766E+02  0.00000000000E+00 0. -1.
          5    1    1    2  502    0 -0.19918174626E+02 -0.24018687166E+00 -0.21279304308E+02  0.29524399435E+02  0.47000000000E+01 0. -1.
         -5    1    1    2    0  502  0.95705413548E+02 -0.85043055152E+02  0.72937612691E+02  0.14742398976E+03  0.47000000000E+01 0. -1.
        -11    1    1    2    0    0 -0.50152422893E+02  0.38399999837E+02  0.14658610843E+03  0.15961614171E+03  0.00000000000E+00 0.  1.
         11    1    1    2    0    0 -0.25634816030E+02  0.46883242187E+02  0.96111052229E+01  0.54291394663E+02  0.00000000000E+00 0. -1.
<mgrwt>
<rscale>  0 0.33100519E+03</rscale>
<asrwt>0</asrwt>
<pdfrwt beam="2">  1        2 0.14076954E-01 0.33100519E+03</pdfrwt>
<pdfrwt beam="1">  1       -2 0.46054726E-01 0.33100519E+03</pdfrwt>
<totfact> 0.19103833E+03</totfact>
</mgrwt>
</event>
<event>
 6    1  0.5258538E-006  0.1405198E+03  0.7546771E-02  0.1232504E+00
          2   -1    0    0  501    0  0.00000000000E+00  0.00000000000E+00  0.33534243944E+03  0.33534243944E+03  0.00000000000E+00 0. -1.
         -2   -1    0    0    0  501 -0.00000000000E+00 -0.00000000000E+00 -0.43326880828E+03  0.43326880828E+03  0.00000000000E+00 0.  1.
          5    1    1    2  502    0 -0.55613375701E+02 -0.39811472562E+02  0.99663923564E+02  0.12096606369E+03  0.47000000000E+01 0. -1.
         -5    1    1    2    0  502  0.34504817262E+02  0.50678086233E+02  0.21558826219E+03  0.22418572575E+03  0.47000000000E+01 0.  1.
        -11    1    1    2    0    0 -0.32401167065E+02  0.11316552601E+02 -0.13311061635E+03  0.13746394500E+03  0.00000000000E+00 0. -1.
         11    1    1    2    0    0  0.53509725504E+02 -0.22183166273E+02 -0.28006793824E+03  0.28599551328E+03  0.00000000000E+00 0.  1.
<mgrwt>
<rscale>  0 0.12665557E+03</rscale>
<asrwt>0</asrwt>
<pdfrwt beam="1">  1        2 0.51591144E-01 0.14051981E+03</pdfrwt>
<pdfrwt beam="2">  1       -2 0.66656740E-01 0.14051981E+03</pdfrwt>
<totfact> 0.20874936E+02</totfact>
</mgrwt>
</event>
<event>
 6    1  0.5258538E-006  0.1371263E+03  0.7546771E-02  0.1229001E+00
          2   -1    0    0  501    0  0.00000000000E+00  0.00000000000E+00  0.16581562313E+04  0.16581562313E+04  0.00000000000E+00 0.  1.
         -2   -1    0    0    0  501 -0.00000000000E+00 -0.00000000000E+00 -0.97500580280E+01  0.97500580280E+01  0.00000000000E+00 0. -1.
          5    1    1    2  502    0  0.14751602464E+02  0.26748913679E+02  0.76511161830E+02  0.82517646857E+02  0.47000000000E+01 0. -1.
         -5    1    1    2    0  502  0.29963429264E+02 -0.61020605689E+02  0.10694336615E+04  0.10716024299E+04  0.47000000000E+01 0. -1.
        -11    1    1    2    0    0 -0.64276684710E+02 -0.18071826716E+01  0.35215627260E+03  0.35797876814E+03  0.00000000000E+00 0.  1.
         11    1    1    2    0    0  0.19561652983E+02  0.36078874681E+02  0.15030507725E+03  0.15580744435E+03  0.00000000000E+00 0. -1.
<mgrwt>
<rscale>  0 0.12896431E+03</rscale>
<asrwt>0</asrwt>
<pdfrwt beam="1">  1        2 0.25510073E+00 0.13712627E+03</pdfrwt>
<pdfrwt beam="2">  1       -2 0.15000102E-02 0.13712627E+03</pdfrwt>
<totfact> 0.12918794E+04</totfact>
</mgrwt>
</event>
<event>
 6    1  0.5258538E-006  0.2125532E+03  0.7546771E-02  0.1142960E+00
          2   -1    0    0  501    0  0.00000000000E+00  0.00000000000E+00  0.44688283434E+03  0.44688283434E+03  0.00000000000E+00 0. -1.
         -2   -1    0    0    0  501 -0.00000000000E+00 -0.00000000000E+00 -0.95440805963E+02  0.95440805963E+02  0.00000000000E+00 0.  1.
          5    1    1    2  502    0 -0.52823673324E+02 -0.31191434048E+02  0.49399032892E+01  0.61723080496E+02  0.47000000000E+01 0. -1.
         -5    1    1    2    0  502 -0.11254142627E+03  0.78151398280E+02  0.13733601198E+03  0.19405278629E+03  0.47000000000E+01 0. -1.
        -11    1    1    2    0    0  0.23415054416E+01  0.11380793158E+02 -0.36621954782E+01  0.12182642421E+02  0.00000000000E+00 0.  1.
         11    1    1    2    0    0  0.16302359416E+03 -0.58340757390E+02  0.21282830859E+03  0.27436513110E+03  0.00000000000E+00 0. -1.
<mgrwt>
<rscale>  0 0.20824969E+03</rscale>
<asrwt>0</asrwt>
<pdfrwt beam="1">  1        2 0.68751204E-01 0.21255319E+03</pdfrwt>
<pdfrwt beam="2">  1       -2 0.14683201E-01 0.21255319E+03</pdfrwt>
<totfact> 0.24812239E+03</totfact>
</mgrwt>
</event>
<event>
 6    1  0.5258538E-006  0.2568545E+03  0.7546771E-02  0.1109048E+00
          2   -1    0    0  501    0  0.00000000000E+00  0.00000000000E+00  0.54703994079E+03  0.54703994079E+03  0.00000000000E+00 0. -1.
         -2   -1    0    0    0  501 -0.00000000000E+00 -0.00000000000E+00 -0.30150554488E+02  0.30150554488E+02  0.00000000000E+00 0.  1.
          5    1    1    2  502    0  0.42777800393E+02  0.11789508836E+02  0.11543034368E+03  0.12375454322E+03  0.47000000000E+01 0. -1.
         -5    1    1    2    0  502 -0.89428437339E+02  0.37084856381E+02  0.20437228096E+03  0.22619206706E+03  0.47000000000E+01 0. -1.
        -11    1    1    2    0    0 -0.32975906395E+01 -0.48745301780E+02  0.15303665064E+03  0.16064617950E+03  0.00000000000E+00 0. -1.
         11    1    1    2    0    0  0.49948227585E+02 -0.12906343716E+00  0.44050111029E+02  0.66597705501E+02  0.00000000000E+00 0.  1.
<mgrwt>
<rscale>  0 0.25685449E+03</rscale>
<asrwt>0</asrwt>
<pdfrwt beam="1">  1        2 0.84159983E-01 0.25685449E+03</pdfrwt>
<pdfrwt beam="2">  1       -2 0.46385473E-02 0.25685449E+03</pdfrwt>
<totfact> 0.12218936E+04</totfact>
</mgrwt>
</event>
<event>
 6    1  0.5258538E-006  0.3035274E+03  0.7546771E-02  0.1083490E+00
         -1   -1    0    0    0  501 -0.00000000000E+00  0.00000000000E+00  0.56024358061E+03  0.56024358061E+03  0.00000000000E+00 0.  1.
          1   -1    0    0  501    0  0.00000000000E+00 -0.00000000000E+00 -0.41111083736E+02  0.41111083736E+02  0.00000000000E+00 0. -1.
          5    1    1    2  502    0 -0.48215118499E+02 -0.10069412415E+03  0.21208999971E+03  0.23972538929E+03  0.47000000000E+01 0. -1.
         -5    1    1    2    0  502  0.12150631566E+02  0.42551717987E+01 -0.92208511628E+01  0.16518427003E+02  0.47000000000E+01 0.  1.
        -11    1    1    2    0    0  0.12342077503E+02  0.96254060468E+02  0.30249958253E+03  0.31768407021E+03  0.00000000000E+00 0.  1.
         11    1    1    2    0    0  0.23722409430E+02  0.18489188718E+00  0.13763765796E+02  0.27426777847E+02  0.00000000000E+00 0. -1.
<mgrwt>
<rscale>  0 0.30352740E+03</rscale>
<asrwt>0</asrwt>
<pdfrwt beam="2">  1        1 0.63247825E-02 0.30352740E+03</pdfrwt>
<pdfrwt beam="1">  1       -1 0.86191315E-01 0.30352740E+03</pdfrwt>
<totfact> 0.16767425E+03</totfact>
</mgrwt>
</event>
<event>
 6    1  0.5258538E-006  0.2205946E+03  0.7546771E-02  0.1165336E+00
          2   -1    0    0  501    0  0.00000000000E+00  0.00000000000E+00  0.26527761358E+03  0.26527761358E+03  0.00000000000E+00 0. -1.
         -2   -1    0    0    0  501 -0.00000000000E+00 -0.00000000000E+00 -0.12552681158E+03  0.12552681158E+03  0.00000000000E+00 0.  1.
          5    1    1    2  502    0  0.15342633983E+02  0.86966282063E+02  0.20609743653E+03  0.22426942274E+03  0.47000000000E+01 0. -1.
         -5    1    1    2    0  502 -0.35666605499E+02 -0.31727994203E+02 -0.31221220011E+02  0.57233093075E+02  0.47000000000E+01 0.  1.
        -11    1    1    2    0    0  0.31198295246E+02 -0.72382829283E+02 -0.14094566057E+02  0.80070371509E+02  0.00000000000E+00 0. -1.
         11    1    1    2    0    0 -0.10874323730E+02  0.17144541423E+02 -0.21030848461E+02  0.29231537835E+02  0.00000000000E+00 0.  1.
<mgrwt>
<rscale>  0 0.18257260E+03</rscale>
<asrwt>0</asrwt>
<pdfrwt beam="1">  1        2 0.40811940E-01 0.22059459E+03</pdfrwt>
<pdfrwt beam="2">  1       -2 0.19311817E-01 0.22059459E+03</pdfrwt>
<totfact> 0.27598164E+03</totfact>
</mgrwt>
</event>
<event>
 6    1  0.5258538E-006  0.4310201E+03  0.7546771E-02  0.1033538E+00
          2   -1    0    0  501    0  0.00000000000E+00  0.00000000000E+00  0.53801716412E+03  0.53801716412E+03  0.00000000000E+00 0. -1.
         -2   -1    0    0    0  501 -0.00000000000E+00 -0.00000000000E+00 -0.86325480260E+02  0.86325480260E+02  0.00000000000E+00 0.  1.
          5    1    1    2  502    0  0.58486745610E+02 -0.13208715892E+03  0.36568703318E+03  0.39321344484E+03  0.47000000000E+01 0.  1.
         -5    1    1    2    0  502  0.12524470018E+02 -0.16504539822E+02 -0.56307961212E+01  0.21978581595E+02  0.47000000000E+01 0.  1.
        -11    1    1    2    0    0 -0.17465408293E+02  0.10137457015E+03  0.14226041080E+02  0.10384711938E+03  0.00000000000E+00 0.  1.
         11    1    1    2    0    0 -0.53545807335E+02  0.47217128595E+02  0.77409405716E+02  0.10530349856E+03  0.00000000000E+00 0. -1.
<mgrwt>
<rscale>  0 0.43102014E+03</rscale>
<asrwt>0</asrwt>
<pdfrwt beam="1">  1        2 0.82771870E-01 0.43102014E+03</pdfrwt>
<pdfrwt beam="2">  1       -2 0.13280843E-01 0.43102014E+03</pdfrwt>
<totfact> 0.24125415E+03</totfact>
</mgrwt>
</event>
<event>
 6    1  0.5258538E-006  0.1438822E+03  0.7546771E-02  0.1219483E+00
          2   -1    0    0  501    0  0.00000000000E+00  0.00000000000E+00  0.10336562083E+03  0.10336562083E+03  0.00000000000E+00 0. -1.
         -2   -1    0    0    0  501 -0.00000000000E+00 -0.00000000000E+00 -0.16222218437E+03  0.16222218437E+03  0.00000000000E+00 0.  1.
          5    1    1    2  502    0  0.42981932710E+02  0.91948067828E+02 -0.36955592499E+02  0.10811891386E+03  0.47000000000E+01 0. -1.
         -5    1    1    2    0  502 -0.16495320082E+02 -0.25803297156E+02  0.19818834751E+02  0.36780184062E+02  0.47000000000E+01 0. -1.
        -11    1    1    2    0    0  0.24241665636E+02 -0.22742496674E+02 -0.42459485968E+02  0.53922977073E+02  0.00000000000E+00 0.  1.
         11    1    1    2    0    0 -0.50728278264E+02 -0.43402273998E+02  0.73968017764E+00  0.66765730211E+02  0.00000000000E+00 0. -1.
<mgrwt>
<rscale>  0 0.13552311E+03</rscale>
<asrwt>0</asrwt>
<pdfrwt beam="1">  1        2 0.15902403E-01 0.14388217E+03</pdfrwt>
<pdfrwt beam="2">  1       -2 0.24957259E-01 0.14388217E+03</pdfrwt>
<totfact> 0.49579412E+03</totfact>
</mgrwt>
</event>
<event>
 6    1  0.5258538E-006  0.2774334E+03  0.7546771E-02  0.1098295E+00
          1   -1    0    0  501    0  0.00000000000E+00  0.00000000000E+00  0.29618756298E+03  0.29618756298E+03  0.00000000000E+00 0. -1.
         -1   -1    0    0    0  501 -0.00000000000E+00 -0.00000000000E+00 -0.28615787291E+03  0.28615787291E+03  0.00000000000E+00 0.  1.
          5    1    1    2  502    0 -0.31352539053E+02  0.24810737624E+02  0.70751303079E+02  0.81402649183E+02  0.47000000000E+01 0.  1.
         -5    1    1    2    0  502 -0.74549545036E+02  0.19908761347E+03  0.34991663580E+02  0.21549946408E+03  0.47000000000E+01 0.  1.
        -11    1    1    2    0    0  0.82184690557E+02 -0.15987006676E+03 -0.11633403100E+03  0.21411765079E+03  0.00000000000E+00 0.  1.
         11    1    1    2    0    0  0.23717393533E+02 -0.64028284327E+02  0.20620754419E+02  0.71325671835E+02  0.00000000000E+00 0. -1.
<mgrwt>
<rscale>  0 0.27527958E+03</rscale>
<asrwt>0</asrwt>
<pdfrwt beam="1">  1        1 0.45567317E-01 0.27743340E+03</pdfrwt>
<pdfrwt beam="2">  1       -1 0.44024288E-01 0.27743340E+03</pdfrwt>
<totfact> 0.46469678E+02</totfact>
</mgrwt>
</event>
<event>
 6    1  0.5258538E-006  0.1275303E+03  0.7546771E-02  0.1246967E+00
          2   -1    0    0  501    0  0.00000000000E+00  0.00000000000E+00  0.13887074738E+04  0.13887074738E+04  0.00000000000E+00 0. -1.
         -2   -1    0    0    0  501 -0.00000000000E+00 -0.00000000000E+00 -0.12224550952E+02  0.12224550952E+02  0.00000000000E+00 0.  1.
          5    1    1    2  502    0  0.54296670909E+02  0.46648944513E+02  0.65620344782E+03  0.66011310200E+03  0.47000000000E+01 0. -1.
         -5    1    1    2    0  502 -0.28982441040E+02 -0.47384651853E+02  0.48217279380E+03  0.48538436337E+03  0.47000000000E+01 0. -1.
        -11    1    1    2    0    0 -0.53588122649E+02  0.81386149258E+01  0.95011941451E+02  0.10938552445E+03  0.00000000000E+00 0.  1.
         11    1    1    2    0    0  0.28273892780E+02 -0.74029075853E+01  0.14309473978E+03  0.14604903494E+03  0.00000000000E+00 0. -1.
<mgrwt>
<rscale>  0 0.11768433E+03</rscale>
<asrwt>0</asrwt>
<pdfrwt beam="1">  1        2 0.21364718E+00 0.12753029E+03</pdfrwt>
<pdfrwt beam="2">  1       -2 0.18807012E-02 0.12753029E+03</pdfrwt>
<totfact> 0.12815654E+04</totfact>
</mgrwt>
</event>
<event>
 6    1  0.5258538E-006  0.2697322E+03  0.7546771E-02  0.1103494E+00
         -2   -1    0    0    0  501 -0.00000000000E+00  0.00000000000E+00  0.84390987155E+02  0.84390987155E+02  0.00000000000E+00 0.  1.
          2   -1    0    0  501    0  0.00000000000E+00 -0.00000000000E+00 -0.81868352250E+03  0.81868352250E+03  0.00000000000E+00 0. -1.
          5    1    1    2  502    0  0.23771123899E+03  0.57375915076E+02 -0.34783417018E+03  0.42521680201E+03  0.47000000000E+01 0.  1.
         -5    1    1    2    0  502 -0.12009587872E+02  0.21314812941E+02 -0.42087199995E+02  0.48907809754E+02  0.47000000000E+01 0.  1.
        -11    1    1    2    0    0 -0.48894599634E+02 -0.49318183213E+02 -0.55086192260E+02  0.88642279114E+02  0.00000000000E+00 0.  1.
         11    1    1    2    0    0 -0.17680705148E+03 -0.29372544804E+02 -0.28928497292E+03  0.34030761878E+03  0.00000000000E+00 0. -1.
<mgrwt>
<rscale>  0 0.26616580E+03</rscale>
<asrwt>0</asrwt>
<pdfrwt beam="2">  1        2 0.12595131E+00 0.26973222E+03</pdfrwt>
<pdfrwt beam="1">  1       -2 0.12983229E-01 0.26973222E+03</pdfrwt>
<totfact> 0.14968382E+03</totfact>
</mgrwt>
</event>
<event>
 6    1  0.5258538E-006  0.1543905E+03  0.7546771E-02  0.1202781E+00
         -2   -1    0    0    0  501 -0.00000000000E+00  0.00000000000E+00  0.18087108720E+03  0.18087108720E+03  0.00000000000E+00 0.  1.
          2   -1    0    0  501    0  0.00000000000E+00 -0.00000000000E+00 -0.13888981453E+03  0.13888981453E+03  0.00000000000E+00 0. -1.
          5    1    1    2  502    0 -0.29429150960E+02  0.12149379870E+02  0.41436067019E+02  0.52466370252E+02  0.47000000000E+01 0.  1.
         -5    1    1    2    0  502 -0.61119017691E+02 -0.16357749235E+02 -0.88588908509E+02  0.10896419134E+03  0.47000000000E+01 0.  1.
        -11    1    1    2    0    0  0.58114023361E+02  0.33624023914E+02  0.92631315460E+02  0.11440443741E+03  0.00000000000E+00 0.  1.
         11    1    1    2    0    0  0.32434145289E+02 -0.29415654549E+02 -0.34972013010E+01  0.43925902724E+02  0.00000000000E+00 0. -1.
<mgrwt>
<rscale>  0 0.14813746E+03</rscale>
<asrwt>0</asrwt>
<pdfrwt beam="2">  1        2 0.21367664E-01 0.15439053E+03</pdfrwt>
<pdfrwt beam="1">  1       -2 0.27826321E-01 0.15439053E+03</pdfrwt>
<totfact> 0.29293642E+03</totfact>
</mgrwt>
</event>
<event>
 6    1  0.5258538E-006  0.1645087E+03  0.7546771E-02  0.1190916E+00
          3   -1    0    0  501    0  0.00000000000E+00  0.00000000000E+00  0.64013200473E+02  0.64013200473E+02  0.00000000000E+00 0. -1.
         -3   -1    0    0    0  501 -0.00000000000E+00 -0.00000000000E+00 -0.48765113595E+03  0.48765113595E+03  0.00000000000E+00 0.  1.
          5    1    1    2  502    0  0.60979281929E+01  0.10306749879E+03 -0.66576879305E+01  0.10356886040E+03  0.47000000000E+01 0.  1.
         -5    1    1    2    0  502 -0.22175918654E+02  0.26748882886E+01 -0.78345839597E+02  0.81603228966E+02  0.47000000000E+01 0.  1.
        -11    1    1    2    0    0 -0.24916340415E+02 -0.23225600658E+02 -0.17868367194E+03  0.18190136658E+03  0.00000000000E+00 0.  1.
         11    1    1    2    0    0  0.40994330875E+02 -0.82516786424E+02 -0.15995073601E+03  0.18459088048E+03  0.00000000000E+00 0. -1.
<mgrwt>
<rscale>  0 0.15804961E+03</rscale>
<asrwt>0</asrwt>
<pdfrwt beam="1">  1        3 0.98481846E-02 0.16450867E+03</pdfrwt>
<pdfrwt beam="2">  1       -3 0.75023252E-01 0.16450867E+03</pdfrwt>
<totfact> 0.30968735E+02</totfact>
</mgrwt>
</event>
<event>
 6    1  0.5258538E-006  0.2017295E+03  0.7546771E-02  0.1152549E+00
         -1   -1    0    0    0  501 -0.00000000000E+00  0.00000000000E+00  0.18783767027E+03  0.18783767027E+03  0.00000000000E+00 0.  1.
          1   -1    0    0  501    0  0.00000000000E+00 -0.00000000000E+00 -0.24920882420E+03  0.24920882420E+03  0.00000000000E+00 0. -1.
          5    1    1    2  502    0 -0.10181987397E+03 -0.45945698263E+02 -0.15862928848E+02  0.11292482648E+03  0.47000000000E+01 0. -1.
         -5    1    1    2    0  502 -0.26769833845E+02 -0.46436734089E+02 -0.11657614350E+03  0.12839424251E+03  0.47000000000E+01 0. -1.
        -11    1    1    2    0    0  0.82987514786E+02  0.37221510612E+02 -0.52461029356E+01  0.91103732408E+02  0.00000000000E+00 0. -1.
         11    1    1    2    0    0  0.45602193030E+02  0.55160921739E+02  0.76314021355E+02  0.10462369307E+03  0.00000000000E+00 0.  1.
<mgrwt>
<rscale>  0 0.19670482E+03</rscale>
<asrwt>0</asrwt>
<pdfrwt beam="2">  1        1 0.38339819E-01 0.20172949E+03</pdfrwt>
<pdfrwt beam="1">  1       -1 0.28898103E-01 0.20172949E+03</pdfrwt>
<totfact> 0.12029354E+03</totfact>
</mgrwt>
</event>
<event>
 6    1  0.5258538E-006  0.2319945E+03  0.7546771E-02  0.1128288E+00
         -2   -1    0    0    0  501 -0.00000000000E+00  0.00000000000E+00  0.18593414311E+02  0.18593414311E+02  0.00000000000E+00 0.  1.
          2   -1    0    0  501    0  0.00000000000E+00 -0.00000000000E+00 -0.27755853206E+04  0.27755853206E+04  0.00000000000E+00 0. -1.
          5    1    1    2  502    0  0.30289955737E+02 -0.12324236266E+03 -0.97172277193E+03  0.97998642687E+03  0.47000000000E+01 0.  1.
         -5    1    1    2    0  502 -0.81425665690E+02 -0.65390222325E+02 -0.70387855623E+03  0.71159899671E+03  0.47000000000E+01 0.  1.
        -11    1    1    2    0    0 -0.79009980303E+01  0.22086269331E+02 -0.40429718760E+02  0.46741750308E+02  0.00000000000E+00 0.  1.
         11    1    1    2    0    0  0.59036707983E+02  0.16654631566E+03 -0.10409608594E+04  0.10558515610E+04  0.00000000000E+00 0. -1.
<mgrwt>
<rscale>  0 0.22767397E+03</rscale>
<asrwt>0</asrwt>
<pdfrwt beam="2">  1        2 0.42701261E+00 0.23199447E+03</pdfrwt>
<pdfrwt beam="1">  1       -2 0.28605288E-02 0.23199447E+03</pdfrwt>
<totfact> 0.12868218E+03</totfact>
</mgrwt>
</event>
<event>
 6    1  0.5258538E-006  0.1396691E+03  0.7546771E-02  0.1224182E+00
          1   -1    0    0  501    0  0.00000000000E+00  0.00000000000E+00  0.28673085030E+02  0.28673085030E+02  0.00000000000E+00 0. -1.
         -1   -1    0    0    0  501 -0.00000000000E+00 -0.00000000000E+00 -0.55697159471E+03  0.55697159471E+03  0.00000000000E+00 0.  1.
          5    1    1    2  502    0  0.65098838938E+02  0.61478610479E+02 -0.13394230573E+03  0.16118346578E+03  0.47000000000E+01 0. -1.
         -5    1    1    2    0  502 -0.55681799239E+01 -0.43034320735E+02 -0.13473473894E+03  0.14162802429E+03  0.47000000000E+01 0. -1.
        -11    1    1    2    0    0 -0.56889345380E+02  0.27894228527E+02 -0.12001093951E+03  0.13570965774E+03  0.00000000000E+00 0.  1.
         11    1    1    2    0    0 -0.26413136342E+01 -0.46338518270E+02 -0.13961052551E+03  0.14712353193E+03  0.00000000000E+00 0. -1.
<mgrwt>
<rscale>  0 0.13223122E+03</rscale>
<asrwt>0</asrwt>
<pdfrwt beam="1">  1        1 0.44112438E-02 0.13966905E+03</pdfrwt>
<pdfrwt beam="2">  1       -1 0.85687939E-01 0.13966905E+03</pdfrwt>
<totfact> 0.27066246E+03</totfact>
</mgrwt>
</event>
<event>
 6    1  0.5258538E-006  0.2941086E+03  0.7546771E-02  0.1089857E+00
          2   -1    0    0  501    0  0.00000000000E+00  0.00000000000E+00  0.14710216237E+04  0.14710216237E+04  0.00000000000E+00 0.  1.
         -2   -1    0    0    0  501 -0.00000000000E+00 -0.00000000000E+00 -0.58167439033E+02  0.58167439033E+02  0.00000000000E+00 0. -1.
          5    1    1    2  502    0 -0.11504551713E+02 -0.37593904327E+01  0.20360263804E+03  0.20401620510E+03  0.47000000000E+01 0. -1.
         -5    1    1    2    0  502 -0.23945643374E+03  0.92596990872E+02  0.65316640521E+03  0.70182763501E+03  0.47000000000E+01 0. -1.
        -11    1    1    2    0    0  0.13800691889E+03 -0.52602444429E+02  0.40608073038E+03  0.43210471694E+03  0.00000000000E+00 0. -1.
         11    1    1    2    0    0  0.11295406656E+03 -0.36235156010E+02  0.15000441109E+03  0.19124050572E+03  0.00000000000E+00 0.  1.
<mgrwt>
<rscale>  0 0.29094407E+03</rscale>
<asrwt>0</asrwt>
<pdfrwt beam="1">  1        2 0.22631099E+00 0.29410860E+03</pdfrwt>
<pdfrwt beam="2">  1       -2 0.89488379E-02 0.29410860E+03</pdfrwt>
<totfact> 0.11200983E+03</totfact>
</mgrwt>
</event>
<event>
 6    1  0.5331063E-006  0.3742684E+03  0.7546771E-02  0.1054234E+00
          2   -1    0    0  501    0  0.00000000000E+00  0.00000000000E+00  0.35262243305E+04  0.35262243305E+04  0.00000000000E+00 0.  1.
         -2   -1    0    0    0  501 -0.00000000000E+00 -0.00000000000E+00 -0.58439278122E+02  0.58439278122E+02  0.00000000000E+00 0. -1.
          5    1    1    2  502    0  0.49700799365E+02  0.31868200703E+02  0.22573420177E+03  0.23337474482E+03  0.47000000000E+01 0. -1.
         -5    1    1    2    0  502  0.29622907139E+03  0.37299394886E+02  0.25750904375E+04  0.25923456095E+04  0.47000000000E+01 0. -1.
        -11    1    1    2    0    0 -0.21237167692E+03 -0.75294490878E+02  0.46532485528E+03  0.51700890752E+03  0.00000000000E+00 0. -1.
         11    1    1    2    0    0 -0.13355819384E+03  0.61268952890E+01  0.20163555783E+03  0.24193434682E+03  0.00000000000E+00 0.  1.
<mgrwt>
<rscale>  0 0.37120347E+03</rscale>
<asrwt>0</asrwt>
<pdfrwt beam="1">  1        2 0.54249588E+00 0.37426843E+03</pdfrwt>
<pdfrwt beam="2">  1       -2 0.89906609E-02 0.37426843E+03</pdfrwt>
<totfact> 0.73999669E+01</totfact>
</mgrwt>
</event>
<event>
 6    1  0.1226180E-005  0.2574060E+03  0.7546771E-02  0.1111017E+00
          1   -1    0    0  501    0  0.00000000000E+00  0.00000000000E+00  0.19247937416E+04  0.19247937416E+04  0.00000000000E+00 0. -1.
         -1   -1    0    0    0  501 -0.00000000000E+00 -0.00000000000E+00 -0.32717147043E+02  0.32717147043E+02  0.00000000000E+00 0.  1.
          5    1    1    2  502    0  0.11936660193E+02  0.95638159922E+02  0.45387674297E+03  0.46402082852E+03  0.47000000000E+01 0.  1.
         -5    1    1    2    0  502 -0.12512476974E+03  0.98838912199E+02  0.60166381578E+03  0.62245222772E+03  0.47000000000E+01 0.  1.
        -11    1    1    2    0    0  0.64047002784E+02 -0.98916063835E+02  0.27298331207E+03  0.29733196081E+03  0.00000000000E+00 0.  1.
         11    1    1    2    0    0  0.49141106759E+02 -0.95561008286E+02  0.56355272372E+03  0.57370587159E+03  0.00000000000E+00 0. -1.
<mgrwt>
<rscale>  0 0.25365394E+03</rscale>
<asrwt>0</asrwt>
<pdfrwt beam="1">  1        1 0.29612203E+00 0.25740596E+03</pdfrwt>
<pdfrwt beam="2">  1       -1 0.50334087E-02 0.25740596E+03</pdfrwt>
<totfact> 0.65879762E+02</totfact>
</mgrwt>
</event>
<event>
 6    1  0.5258538E-006  0.1305251E+03  0.7546771E-02  0.1237111E+00
          2   -1    0    0  501    0  0.00000000000E+00  0.00000000000E+00  0.12487046283E+03  0.12487046283E+03  0.00000000000E+00 0.  1.
         -2   -1    0    0    0  501 -0.00000000000E+00 -0.00000000000E+00 -0.11685709461E+03  0.11685709461E+03  0.00000000000E+00 0. -1.
          5    1    1    2  502    0  0.37604268811E+02 -0.57687941316E+02 -0.47692665232E+01  0.69186816008E+02  0.47000000000E+01 0.  1.
         -5    1    1    2    0  502 -0.20098344378E+00  0.54212188321E+02  0.35295736514E+02  0.64860471575E+02  0.47000000000E+01 0.  1.
        -11    1    1    2    0    0 -0.18769214516E+02  0.31440305590E+01  0.39005586936E+02  0.43400508683E+02  0.00000000000E+00 0.  1.
         11    1    1    2    0    0 -0.18634070852E+02  0.33172243589E+00 -0.61518688709E+02  0.64279761176E+02  0.00000000000E+00 0. -1.
<mgrwt>
<rscale>  0 0.12370243E+03</rscale>
<asrwt>0</asrwt>
<pdfrwt beam="1">  1        2 0.19210840E-01 0.13052513E+03</pdfrwt>
<pdfrwt beam="2">  1       -2 0.17978015E-01 0.13052513E+03</pdfrwt>
<totfact> 0.69362467E+03</totfact>
</mgrwt>
</event>
<event>
 6    1  0.5258538E-006  0.1511188E+03  0.7546771E-02  0.1210156E+00
         -1   -1    0    0    0  501 -0.00000000000E+00  0.00000000000E+00  0.19203314812E+02  0.19203314812E+02  0.00000000000E+00 0.  1.
          1   -1    0    0  501    0  0.00000000000E+00 -0.00000000000E+00 -0.10434089368E+04  0.10434089368E+04  0.00000000000E+00 0. -1.
          5    1    1    2  502    0  0.33668011938E+02 -0.30008377636E+02 -0.53051358144E+03  0.53244792031E+03  0.47000000000E+01 0.  1.
         -5    1    1    2    0  502 -0.51584158468E+02 -0.53003446671E+02 -0.19435157294E+03  0.20800219871E+03  0.47000000000E+01 0.  1.
        -11    1    1    2    0    0 -0.22414652436E+01  0.95248997560E+02 -0.23144857805E+03  0.25029151002E+03  0.00000000000E+00 0.  1.
         11    1    1    2    0    0  0.20157611774E+02 -0.12237173254E+02 -0.67891889574E+02  0.71870622591E+02  0.00000000000E+00 0. -1.
<mgrwt>
<rscale>  0 0.14238447E+03</rscale>
<asrwt>0</asrwt>
<pdfrwt beam="2">  1        1 0.16052445E+00 0.15111878E+03</pdfrwt>
<pdfrwt beam="1">  1       -1 0.29543561E-02 0.15111878E+03</pdfrwt>
<totfact> 0.56085408E+03</totfact>
</mgrwt>
</event>
<event>
 6    1  0.5258538E-006  0.1390858E+03  0.7546771E-02  0.1226251E+00
         -1   -1    0    0    0  501 -0.00000000000E+00  0.00000000000E+00  0.14123400171E+02  0.14123400171E+02  0.00000000000E+00 0.  1.
          1   -1    0    0  501    0  0.00000000000E+00 -0.00000000000E+00 -0.11413084657E+04  0.11413084657E+04  0.00000000000E+00 0. -1.
          5    1    1    2  502    0  0.33077152472E+02 -0.47419140401E+02 -0.21964700843E+03  0.22717740029E+03  0.47000000000E+01 0. -1.
         -5    1    1    2    0  502 -0.74509913847E+02  0.26628119887E+01 -0.53343447897E+03  0.53864018712E+03  0.47000000000E+01 0. -1.
        -11    1    1    2    0    0  0.46746274836E+02  0.67456218182E+02 -0.24384160652E+03  0.25728249970E+03  0.00000000000E+00 0.  1.
         11    1    1    2    0    0 -0.53135134609E+01 -0.22699889770E+02 -0.13026197164E+03  0.13233177878E+03  0.00000000000E+00 0. -1.
<mgrwt>
<rscale>  0 0.13081500E+03</rscale>
<asrwt>0</asrwt>
<pdfrwt beam="2">  1        1 0.17558596E+00 0.13908577E+03</pdfrwt>
<pdfrwt beam="1">  1       -1 0.21728303E-02 0.13908577E+03</pdfrwt>
<totfact> 0.74433254E+03</totfact>
</mgrwt>
</event>
<event>
 6    1  0.5258538E-006  0.1406472E+03  0.7546771E-02  0.1223592E+00
         -1   -1    0    0    0  501 -0.00000000000E+00  0.00000000000E+00  0.29905344229E+02  0.29905344229E+02  0.00000000000E+00 0.  1.
          1   -1    0    0  501    0  0.00000000000E+00 -0.00000000000E+00 -0.78267261906E+03  0.78267261906E+03  0.00000000000E+00 0. -1.
          5    1    1    2  502    0  0.37270072534E+02 -0.17602319968E+02 -0.12441402798E+03  0.13114816176E+03  0.47000000000E+01 0.  1.
         -5    1    1    2    0  502 -0.47906394305E+02  0.81185817333E+02 -0.51132697307E+03  0.51996492472E+03  0.47000000000E+01 0.  1.
        -11    1    1    2    0    0 -0.13851902762E+02  0.18711750321E+02 -0.39139771363E+02  0.45540383316E+02  0.00000000000E+00 0. -1.
         11    1    1    2    0    0  0.24488224533E+02 -0.82295247686E+02 -0.77886502419E+02  0.11592449349E+03  0.00000000000E+00 0.  1.
<mgrwt>
<rscale>  0 0.13263855E+03</rscale>
<asrwt>0</asrwt>
<pdfrwt beam="2">  1        1 0.12041116E+00 0.14064719E+03</pdfrwt>
<pdfrwt beam="1">  1       -1 0.46008226E-02 0.14064719E+03</pdfrwt>
<totfact> 0.46310113E+03</totfact>
</mgrwt>
</event>
<event>
 6    1  0.5258538E-006  0.2591370E+03  0.7546771E-02  0.1107663E+00
         -2   -1    0    0    0  501 -0.00000000000E+00  0.00000000000E+00  0.14912656330E+03  0.14912656330E+03  0.00000000000E+00 0.  1.
          2   -1    0    0  501    0  0.00000000000E+00 -0.00000000000E+00 -0.11257546673E+03  0.11257546673E+03  0.00000000000E+00 0. -1.
          5    1    1    2  502    0 -0.79448767643E+02  0.25826707297E+02  0.74799671320E+02  0.11223282193E+03  0.47000000000E+01 0. -1.
         -5    1    1    2    0  502  0.17551722026E+02 -0.77586042242E+01 -0.29525825005E+02  0.35526373693E+02  0.47000000000E+01 0. -1.
        -11    1    1    2    0    0  0.19683268026E+02 -0.43577954241E+01  0.41972766212E+02  0.46563231467E+02  0.00000000000E+00 0.  1.
         11    1    1    2    0    0  0.42213777592E+02 -0.13710307649E+02 -0.50695515958E+02  0.67379602942E+02  0.00000000000E+00 0. -1.
<mgrwt>
<rscale>  0 0.25913697E+03</rscale>
<asrwt>0</asrwt>
<pdfrwt beam="2">  1        2 0.17319303E-01 0.25913697E+03</pdfrwt>
<pdfrwt beam="1">  1       -2 0.22942548E-01 0.25913697E+03</pdfrwt>
<totfact> 0.53806179E+03</totfact>
</mgrwt>
</event>
<event>
 6    1  0.5258538E-006  0.3354019E+03  0.7546771E-02  0.1107675E+00
         -1   -1    0    0    0  501 -0.00000000000E+00  0.00000000000E+00  0.64241483669E+02  0.64241483669E+02  0.00000000000E+00 0.  1.
          1   -1    0    0  501    0  0.00000000000E+00 -0.00000000000E+00 -0.80810670578E+03  0.80810670578E+03  0.00000000000E+00 0. -1.
          5    1    1    2  502    0  0.11924579511E+03  0.10431136106E+03 -0.26567172389E+03  0.30936058988E+03  0.47000000000E+01 0. -1.
         -5    1    1    2    0  502 -0.17000324920E+03 -0.48597983969E+02 -0.30510261172E+03  0.35266494363E+03  0.47000000000E+01 0.  1.
        -11    1    1    2    0    0  0.76136559223E+02 -0.35289369060E+02 -0.14389769673E+03  0.16657929746E+03  0.00000000000E+00 0. -1.
         11    1    1    2    0    0 -0.25379105133E+02 -0.20424008035E+02 -0.29193189770E+02  0.43743358473E+02  0.00000000000E+00 0.  1.
<mgrwt>
<rscale>  0 0.25911755E+03</rscale>
<asrwt>0</asrwt>
<pdfrwt beam="2">  1        1 0.12432411E+00 0.33540195E+03</pdfrwt>
<pdfrwt beam="1">  1       -1 0.98833052E-02 0.33540195E+03</pdfrwt>
<totfact> 0.14089353E+03</totfact>
</mgrwt>
</event>
<event>
 6    1  0.5258538E-006  0.2036535E+03  0.7546771E-02  0.1151120E+00
         -2   -1    0    0    0  501 -0.00000000000E+00  0.00000000000E+00  0.47333325138E+02  0.47333325138E+02  0.00000000000E+00 0. -1.
          2   -1    0    0  501    0  0.00000000000E+00 -0.00000000000E+00 -0.97872164197E+03  0.97872164197E+03  0.00000000000E+00 0.  1.
          5    1    1    2  502    0 -0.22580220600E+02 -0.56426160058E+02 -0.50036046499E+03  0.50405997939E+03  0.47000000000E+01 0. -1.
         -5    1    1    2    0  502 -0.82169880897E+02 -0.65553727145E+02 -0.20953723840E+03  0.23447201271E+03  0.47000000000E+01 0. -1.
        -11    1    1    2    0    0  0.10616689799E+03  0.10562680629E+03 -0.22543045591E+03  0.27064242625E+03  0.00000000000E+00 0.  1.
         11    1    1    2    0    0 -0.14167964967E+01  0.16353080914E+02  0.39398424595E+01  0.16880548756E+02  0.00000000000E+00 0. -1.
<mgrwt>
<rscale>  0 0.19837170E+03</rscale>
<asrwt>0</asrwt>
<pdfrwt beam="2">  1        2 0.15057254E+00 0.20365351E+03</pdfrwt>
<pdfrwt beam="1">  1       -2 0.72820511E-02 0.20365351E+03</pdfrwt>
<totfact> 0.29468790E+03</totfact>
</mgrwt>
</event>
<event>
 6    1  0.5258538E-006  0.2863576E+03  0.7546771E-02  0.1092266E+00
         -1   -1    0    0    0  501 -0.00000000000E+00  0.00000000000E+00  0.36252172728E+02  0.36252172728E+02  0.00000000000E+00 0.  1.
          1   -1    0    0  501    0  0.00000000000E+00 -0.00000000000E+00 -0.56548812027E+03  0.56548812027E+03  0.00000000000E+00 0. -1.
          5    1    1    2  502    0 -0.27315429556E+02 -0.26044799783E+02 -0.36488748897E+02  0.52706575336E+02  0.47000000000E+01 0.  1.
         -5    1    1    2    0  502 -0.24298942971E+02  0.89136796898E+02 -0.33781873980E+03  0.35025618931E+03  0.47000000000E+01 0.  1.
        -11    1    1    2    0    0  0.43794080733E+02 -0.95726615590E+01 -0.13310855862E+03  0.14045442583E+03  0.00000000000E+00 0.  1.
         11    1    1    2    0    0  0.78202917947E+01 -0.53519335555E+02 -0.21819900223E+02  0.58323102522E+02  0.00000000000E+00 0. -1.
<mgrwt>
<rscale>  0 0.28635763E+03</rscale>
<asrwt>0</asrwt>
<pdfrwt beam="2">  1        1 0.86998172E-01 0.28635763E+03</pdfrwt>
<pdfrwt beam="1">  1       -1 0.55772574E-02 0.28635763E+03</pdfrwt>
<totfact> 0.56866572E+03</totfact>
</mgrwt>
</event>
<event>
 6    1  0.5258538E-006  0.1308271E+03  0.7546771E-02  0.1237798E+00
         -1   -1    0    0    0  501 -0.00000000000E+00  0.00000000000E+00  0.11895135548E+02  0.11895135548E+02  0.00000000000E+00 0.  1.
          1   -1    0    0  501    0  0.00000000000E+00 -0.00000000000E+00 -0.11695239468E+04  0.11695239468E+04  0.00000000000E+00 0. -1.
          5    1    1    2  502    0  0.26097839806E+02 -0.56017516032E+02 -0.37408584142E+03  0.37918513433E+03  0.47000000000E+01 0. -1.
         -5    1    1    2    0  502 -0.58572877197E+02  0.34975437733E+02 -0.34741177139E+03  0.35407780513E+03  0.47000000000E+01 0. -1.
        -11    1    1    2    0    0 -0.32296449962E+02  0.12014260192E+02 -0.10136596803E+03  0.10706289087E+03  0.00000000000E+00 0.  1.
         11    1    1    2    0    0  0.64771487352E+02  0.90278181074E+01 -0.33476523046E+03  0.34109325206E+03  0.00000000000E+00 0. -1.
<mgrwt>
<rscale>  0 0.12327014E+03</rscale>
<asrwt>0</asrwt>
<pdfrwt beam="2">  1        1 0.17992677E+00 0.13082711E+03</pdfrwt>
<pdfrwt beam="1">  1       -1 0.18300208E-02 0.13082711E+03</pdfrwt>
<totfact> 0.90879055E+03</totfact>
</mgrwt>
</event>
<event>
 6    1  0.5258538E-006  0.3705365E+03  0.7546771E-02  0.1054488E+00
         -2   -1    0    0    0  501 -0.00000000000E+00  0.00000000000E+00  0.38023623852E+02  0.38023623852E+02  0.00000000000E+00 0.  1.
          2   -1    0    0  501    0  0.00000000000E+00 -0.00000000000E+00 -0.90271040021E+03  0.90271040021E+03  0.00000000000E+00 0. -1.
          5    1    1    2  502    0 -0.10228387834E+03 -0.31276609234E+02 -0.53849389992E+03  0.54903368595E+03  0.47000000000E+01 0. -1.
         -5    1    1    2    0  502 -0.26738378303E+02  0.48729838650E+02 -0.12038489868E+03  0.13268063868E+03  0.47000000000E+01 0.  1.
        -11    1    1    2    0    0  0.57186110536E+02 -0.48366024687E+02 -0.13041386238E+03  0.15039048867E+03  0.00000000000E+00 0.  1.
         11    1    1    2    0    0  0.71836146107E+02  0.30912795271E+02 -0.75394115386E+02  0.10862921078E+03  0.00000000000E+00 0. -1.
<mgrwt>
<rscale>  0 0.37053648E+03</rscale>
<asrwt>0</asrwt>
<pdfrwt beam="2">  1        2 0.13887853E+00 0.37053648E+03</pdfrwt>
<pdfrwt beam="1">  1       -2 0.58497880E-02 0.37053648E+03</pdfrwt>
<totfact> 0.46782997E+03</totfact>
</mgrwt>
</event>
<event>
 6    1  0.5258538E-006  0.1156526E+03  0.7546771E-02  0.1260817E+00
          1   -1    0    0  501    0  0.00000000000E+00  0.00000000000E+00  0.49091382099E+03  0.49091382099E+03  0.00000000000E+00 0. -1.
         -1   -1    0    0    0  501 -0.00000000000E+00 -0.00000000000E+00 -0.54548724476E+02  0.54548724476E+02  0.00000000000E+00 0.  1.
          5    1    1    2  502    0  0.70860848856E+02  0.11222365755E+02  0.26634616490E+03  0.27587963127E+03  0.47000000000E+01 0. -1.
         -5    1    1    2    0  502 -0.43033052304E+02 -0.61679351704E+01  0.16985614165E+03  0.17539408733E+03  0.47000000000E+01 0.  1.
        -11    1    1    2    0    0 -0.24151879768E+02  0.10162098236E+02  0.42008681281E+02  0.49510714394E+02  0.00000000000E+00 0. -1.
         11    1    1    2    0    0 -0.36759167840E+01 -0.15216528820E+02 -0.41845891316E+02  0.44678112467E+02  0.00000000000E+00 0.  1.
<mgrwt>
<rscale>  0 0.10986672E+03</rscale>
<asrwt>0</asrwt>
<pdfrwt beam="1">  1        1 0.75525200E-01 0.11565257E+03</pdfrwt>
<pdfrwt beam="2">  1       -1 0.83921118E-02 0.11565257E+03</pdfrwt>
<totfact> 0.35655594E+03</totfact>
</mgrwt>
</event>
<event>
 6    1  0.5258538E-006  0.1251959E+03  0.7546771E-02  0.1247067E+00
          2   -1    0    0  501    0  0.00000000000E+00  0.00000000000E+00  0.25043969868E+03  0.25043969868E+03  0.00000000000E+00 0. -1.
         -2   -1    0    0    0  501 -0.00000000000E+00 -0.00000000000E+00 -0.60808717563E+02  0.60808717563E+02  0.00000000000E+00 0.  1.
          5    1    1    2  502    0 -0.12084381620E+02  0.41026595186E+02  0.16988448311E+03  0.17524851324E+03  0.47000000000E+01 0.  1.
         -5    1    1    2    0  502  0.78860613677E+01 -0.35502255559E+02  0.11205363667E+01  0.36687132832E+02  0.47000000000E+01 0.  1.
        -11    1    1    2    0    0  0.86770623998E+01 -0.31948538495E+02 -0.29425182328E+02  0.44292684259E+02  0.00000000000E+00 0.  1.
         11    1    1    2    0    0 -0.44787421475E+01  0.26424198868E+02  0.48051143973E+02  0.55020085916E+02  0.00000000000E+00 0. -1.
<mgrwt>
<rscale>  0 0.11762505E+03</rscale>
<asrwt>0</asrwt>
<pdfrwt beam="1">  1        2 0.38529184E-01 0.12519585E+03</pdfrwt>
<pdfrwt beam="2">  1       -2 0.93551874E-02 0.12519585E+03</pdfrwt>
<totfact> 0.92383393E+03</totfact>
</mgrwt>
</event>
<event>
 6    1  0.5258538E-006  0.2750683E+03  0.7546771E-02  0.1099025E+00
         -1   -1    0    0    0  501 -0.00000000000E+00  0.00000000000E+00  0.43934730368E+03  0.43934730368E+03  0.00000000000E+00 0.  1.
          1   -1    0    0  501    0  0.00000000000E+00 -0.00000000000E+00 -0.53364183525E+03  0.53364183525E+03  0.00000000000E+00 0. -1.
          5    1    1    2  502    0 -0.66977379241E+02 -0.12864974895E+03 -0.27025496694E+03  0.30675163307E+03  0.47000000000E+01 0. -1.
         -5    1    1    2    0  502  0.54771240573E+02 -0.11115202800E+03 -0.17863784653E+03  0.21745857614E+03  0.47000000000E+01 0. -1.
        -11    1    1    2    0    0 -0.49632612635E+02  0.15262941377E+03  0.15920596550E+03  0.22606564010E+03  0.00000000000E+00 0. -1.
         11    1    1    2    0    0  0.61838751303E+02  0.87172363188E+02  0.19539231639E+03  0.22271328962E+03  0.00000000000E+00 0.  1.
<mgrwt>
<rscale>  0 0.27397580E+03</rscale>
<asrwt>0</asrwt>
<pdfrwt beam="2">  1        1 0.82098744E-01 0.27506833E+03</pdfrwt>
<pdfrwt beam="1">  1       -1 0.67591893E-01 0.27506833E+03</pdfrwt>
<totfact> 0.96238045E+01</totfact>
</mgrwt>
</event>
<event>
 6    1  0.5258538E-006  0.2203026E+03  0.7546771E-02  0.1137041E+00
          1   -1    0    0  501    0  0.00000000000E+00  0.00000000000E+00  0.57462583395E+03  0.57462583395E+03  0.00000000000E+00 0. -1.
         -1   -1    0    0    0  501 -0.00000000000E+00 -0.00000000000E+00 -0.82036971392E+02  0.82036971392E+02  0.00000000000E+00 0.  1.
          5    1    1    2  502    0 -0.46881715071E+02 -0.15498489656E+03  0.16789255857E+03  0.23329855249E+03  0.47000000000E+01 0. -1.
         -5    1    1    2    0  502 -0.14423468539E+02 -0.15744657951E+02  0.16151093458E+03  0.16298405655E+03  0.47000000000E+01 0. -1.
        -11    1    1    2    0    0 -0.12766060804E+02  0.13789330095E+02 -0.42151734661E+01  0.19258390906E+02  0.00000000000E+00 0.  1.
         11    1    1    2    0    0  0.74071244414E+02  0.15694022441E+03  0.16740054287E+03  0.24112180540E+03  0.00000000000E+00 0. -1.
<mgrwt>
<rscale>  0 0.21581679E+03</rscale>
<asrwt>0</asrwt>
<pdfrwt beam="1">  1        1 0.88403972E-01 0.22030262E+03</pdfrwt>
<pdfrwt beam="2">  1       -1 0.12621073E-01 0.22030262E+03</pdfrwt>
<totfact> 0.15755261E+03</totfact>
</mgrwt>
</event>
<event>
 6    1  0.5258538E-006  0.2031440E+03  0.7546771E-02  0.1151600E+00
          1   -1    0    0  501    0  0.00000000000E+00  0.00000000000E+00  0.62053442905E+03  0.62053442905E+03  0.00000000000E+00 0. -1.
         -1   -1    0    0    0  501 -0.00000000000E+00 -0.00000000000E+00 -0.60000152754E+02  0.60000152754E+02  0.00000000000E+00 0.  1.
          5    1    1    2  502    0  0.43878568251E+02  0.12108592804E+03  0.11206721911E+03  0.17078724285E+03  0.47000000000E+01 0. -1.
         -5    1    1    2    0  502 -0.77020473408E+00  0.33121942490E+02  0.19201275585E+03  0.19490675899E+03  0.47000000000E+01 0. -1.
        -11    1    1    2    0    0 -0.99691342827E+01 -0.14212569233E+03  0.23076622029E+03  0.27120498610E+03  0.00000000000E+00 0. -1.
         11    1    1    2    0    0 -0.33139229234E+02 -0.12082178206E+02  0.25688081049E+02  0.43635593870E+02  0.00000000000E+00 0.  1.
<mgrwt>
<rscale>  0 0.19781050E+03</rscale>
<asrwt>0</asrwt>
<pdfrwt beam="1">  1        1 0.95466831E-01 0.20314397E+03</pdfrwt>
<pdfrwt beam="2">  1       -1 0.92307931E-02 0.20314397E+03</pdfrwt>
<totfact> 0.22975716E+03</totfact>
</mgrwt>
</event>
<event>
 6    1  0.5258538E-006  0.2070410E+03  0.7546771E-02  0.1152689E+00
          1   -1    0    0  501    0  0.00000000000E+00  0.00000000000E+00  0.60149004825E+03  0.60149004825E+03  0.00000000000E+00 0. -1.
         -1   -1    0    0    0  501 -0.00000000000E+00 -0.00000000000E+00 -0.58893258251E+02  0.58893258251E+02  0.00000000000E+00 0.  1.
          5    1    1    2  502    0 -0.68328567484E+01  0.32161563432E+02  0.79268450729E+02  0.85945513988E+02  0.47000000000E+01 0. -1.
         -5    1    1    2    0  502  0.93010050232E+02 -0.14351439867E+03  0.24670451927E+03  0.30022068865E+03  0.47000000000E+01 0.  1.
        -11    1    1    2    0    0  0.49201183978E+00  0.47961961637E+02  0.12202258136E+03  0.13111103005E+03  0.00000000000E+00 0.  1.
         11    1    1    2    0    0 -0.86669205323E+02  0.63390873600E+02  0.94601238644E+02  0.14310607381E+03  0.00000000000E+00 0. -1.
<mgrwt>
<rscale>  0 0.19654241E+03</rscale>
<asrwt>0</asrwt>
<pdfrwt beam="1">  1        1 0.92536927E-01 0.20704096E+03</pdfrwt>
<pdfrwt beam="2">  1       -1 0.90605017E-02 0.20704096E+03</pdfrwt>
<totfact> 0.24698173E+03</totfact>
</mgrwt>
</event>
<event>
 6    1  0.5258538E-006  0.1277206E+03  0.7546771E-02  0.1245560E+00
          3   -1    0    0  501    0  0.00000000000E+00  0.00000000000E+00  0.28982945405E+02  0.28982945405E+02  0.00000000000E+00 0. -1.
         -3   -1    0    0    0  501 -0.00000000000E+00 -0.00000000000E+00 -0.43504720626E+03  0.43504720626E+03  0.00000000000E+00 0.  1.
          5    1    1    2  502    0  0.41180087886E+02 -0.50199506651E+02 -0.15887266197E+03  0.17169275707E+03  0.47000000000E+01 0. -1.
         -5    1    1    2    0  502 -0.14986012432E+02  0.48904859639E+02 -0.42020817149E+02  0.66363430734E+02  0.47000000000E+01 0. -1.
        -11    1    1    2    0    0  0.29508472840E+02 -0.17038553653E+02 -0.54284282131E+02  0.64092476676E+02  0.00000000000E+00 0. -1.
         11    1    1    2    0    0 -0.55702548294E+02  0.18333200664E+02 -0.15088649960E+03  0.16188148719E+03  0.00000000000E+00 0.  1.
<mgrwt>
<rscale>  0 0.11851952E+03</rscale>
<asrwt>0</asrwt>
<pdfrwt beam="1">  1        3 0.44589149E-02 0.12772063E+03</pdfrwt>
<pdfrwt beam="2">  1       -3 0.66930336E-01 0.12772063E+03</pdfrwt>
<totfact> 0.13635120E+03</totfact>
</mgrwt>
</event>
<event>
 6    1  0.5258538E-006  0.1782083E+03  0.7546771E-02  0.1175644E+00
          2   -1    0    0  501    0  0.00000000000E+00  0.00000000000E+00  0.15479755457E+03  0.15479755457E+03  0.00000000000E+00 0. -1.
         -2   -1    0    0    0  501 -0.00000000000E+00 -0.00000000000E+00 -0.35117210624E+03  0.35117210624E+03  0.00000000000E+00 0.  1.
          5    1    1    2  502    0 -0.98627917803E+02  0.11269615743E+03  0.70388851353E+02  0.16554325859E+03  0.47000000000E+01 0. -1.
         -5    1    1    2    0  502  0.53491197982E+01 -0.26486627892E+02  0.46470378366E+01  0.27817970816E+02  0.47000000000E+01 0. -1.
        -11    1    1    2    0    0  0.10506450282E+03 -0.79302055131E+02 -0.19684709489E+03  0.23680402122E+03  0.00000000000E+00 0.  1.
         11    1    1    2    0    0 -0.11785704820E+02 -0.69074744065E+01 -0.74563345973E+02  0.75804410185E+02  0.00000000000E+00 0. -1.
<mgrwt>
<rscale>  0 0.17213085E+03</rscale>
<asrwt>0</asrwt>
<pdfrwt beam="1">  1        2 0.23815008E-01 0.17820825E+03</pdfrwt>
<pdfrwt beam="2">  1       -2 0.54026478E-01 0.17820825E+03</pdfrwt>
<totfact> 0.74240634E+02</totfact>
</mgrwt>
</event>
<event>
 6    1  0.5258538E-006  0.1360610E+03  0.7546771E-02  0.1232436E+00
         -2   -1    0    0    0  501 -0.00000000000E+00  0.00000000000E+00  0.65597555452E+03  0.65597555452E+03  0.00000000000E+00 0.  1.
          2   -1    0    0  501    0  0.00000000000E+00 -0.00000000000E+00 -0.21707212968E+02  0.21707212968E+02  0.00000000000E+00 0. -1.
          5    1    1    2  502    0 -0.27881780378E+02 -0.66489453287E+02  0.32095951211E+03  0.32899139729E+03  0.47000000000E+01 0. -1.
         -5    1    1    2    0  502 -0.12957557423E+02  0.31572285460E+02  0.24433861648E+02  0.42235187919E+02  0.47000000000E+01 0. -1.
        -11    1    1    2    0    0  0.54145571296E+02  0.81254388093E+01  0.25690019109E+03  0.26266989517E+03  0.00000000000E+00 0. -1.
         11    1    1    2    0    0 -0.13306233495E+02  0.26791729018E+02  0.31974776702E+02  0.43786287108E+02  0.00000000000E+00 0.  1.
<mgrwt>
<rscale>  0 0.12669987E+03</rscale>
<asrwt>0</asrwt>
<pdfrwt beam="2">  1        2 0.33395717E-02 0.13606100E+03</pdfrwt>
<pdfrwt beam="1">  1       -2 0.10091930E+00 0.13606100E+03</pdfrwt>
<totfact> 0.21768870E+03</totfact>
</mgrwt>
</event>
<event>
 6    1  0.5258538E-006  0.1151458E+03  0.7546771E-02  0.1261883E+00
         -1   -1    0    0    0  501 -0.00000000000E+00  0.00000000000E+00  0.69212434260E+02  0.69212434260E+02  0.00000000000E+00 0.  1.
          1   -1    0    0  501    0  0.00000000000E+00 -0.00000000000E+00 -0.16929808945E+03  0.16929808945E+03  0.00000000000E+00 0. -1.
          5    1    1    2  502    0 -0.26749170012E+00 -0.13526329557E+02 -0.11226014941E+03  0.11317006799E+03  0.47000000000E+01 0. -1.
         -5    1    1    2    0  502  0.21247667906E+01 -0.16453288857E+02  0.25654132185E+02  0.30910351766E+02  0.47000000000E+01 0.  1.
        -11    1    1    2    0    0 -0.33902716809E+02  0.23812196665E+02  0.21428984173E+02  0.46643502010E+02  0.00000000000E+00 0. -1.
         11    1    1    2    0    0  0.32045441718E+02  0.61674217490E+01 -0.34908622137E+02  0.47786601945E+02  0.00000000000E+00 0.  1.
<mgrwt>
<rscale>  0 0.10929397E+03</rscale>
<asrwt>0</asrwt>
<pdfrwt beam="2">  1        1 0.26045860E-01 0.11514584E+03</pdfrwt>
<pdfrwt beam="1">  1       -1 0.10648067E-01 0.11514584E+03</pdfrwt>
<totfact> 0.93325341E+03</totfact>
</mgrwt>
</event>
<event>
 6    1  0.5258538E-006  0.3483841E+03  0.7546771E-02  0.1063280E+00
          2   -1    0    0  501    0  0.00000000000E+00  0.00000000000E+00  0.16490231499E+03  0.16490231499E+03  0.00000000000E+00 0.  1.
         -2   -1    0    0    0  501 -0.00000000000E+00 -0.00000000000E+00 -0.18400512376E+03  0.18400512376E+03  0.00000000000E+00 0. -1.
          5    1    1    2  502    0 -0.12368484345E+03 -0.16203562454E+02  0.53132453212E+02  0.13566740036E+03  0.47000000000E+01 0. -1.
         -5    1    1    2    0  502  0.19836703521E+02 -0.39353987690E+02  0.71952865181E+00  0.44326503078E+02  0.47000000000E+01 0. -1.
        -11    1    1    2    0    0  0.39319696702E+02  0.30188310758E+02 -0.85134870194E+02  0.98515576322E+02  0.00000000000E+00 0.  1.
         11    1    1    2    0    0  0.64528443230E+02  0.25369239385E+02  0.12180079558E+02  0.70397958995E+02  0.00000000000E+00 0. -1.
<mgrwt>
<rscale>  0 0.34838410E+03</rscale>
<asrwt>0</asrwt>
<pdfrwt beam="1">  1        2 0.25369587E-01 0.34838410E+03</pdfrwt>
<pdfrwt beam="2">  1       -2 0.28308481E-01 0.34838410E+03</pdfrwt>
<totfact> 0.24154756E+03</totfact>
</mgrwt>
</event>
<event>
 6    1  0.5258538E-006  0.4794620E+03  0.7546771E-02  0.1046022E+00
          2   -1    0    0  501    0  0.00000000000E+00  0.00000000000E+00  0.62421063466E+03  0.62421063466E+03  0.00000000000E+00 0. -1.
         -2   -1    0    0    0  501 -0.00000000000E+00 -0.00000000000E+00 -0.19938076585E+03  0.19938076585E+03  0.00000000000E+00 0.  1.
          5    1    1    2  502    0  0.50831124645E+02 -0.15037922027E+03  0.26560508432E+03  0.30946060159E+03  0.47000000000E+01 0. -1.
         -5    1    1    2    0  502 -0.24533141611E+03  0.11511731140E+03  0.83422413571E+02  0.28358576869E+03  0.47000000000E+01 0.  1.
        -11    1    1    2    0    0  0.69315579664E+02 -0.11969008824E+02  0.65887669422E+02  0.96379934313E+02  0.00000000000E+00 0.  1.
         11    1    1    2    0    0  0.12518471180E+03  0.47230917689E+02  0.99147014975E+01  0.13416509591E+03  0.00000000000E+00 0. -1.
<mgrwt>
<rscale>  0 0.39358965E+03</rscale>
<asrwt>0</asrwt>
<pdfrwt beam="1">  1        2 0.96032404E-01 0.47946199E+03</pdfrwt>
<pdfrwt beam="2">  1       -2 0.30673964E-01 0.47946199E+03</pdfrwt>
<totfact> 0.47121667E+02</totfact>
</mgrwt>
</event>
<event>
 6    1  0.5258538E-006  0.1304859E+03  0.7546771E-02  0.1241012E+00
         -3   -1    0    0    0  501 -0.00000000000E+00  0.00000000000E+00  0.11109267125E+03  0.11109267125E+03  0.00000000000E+00 0.  1.
          3   -1    0    0  501    0  0.00000000000E+00 -0.00000000000E+00 -0.11705251270E+03  0.11705251270E+03  0.00000000000E+00 0. -1.
          5    1    1    2  502    0 -0.71270967637E+02  0.86149640526E+01 -0.35646158580E+02  0.80290142951E+02  0.47000000000E+01 0.  1.
         -5    1    1    2    0  502  0.40361035622E+02  0.12431134561E+02  0.27226762839E+02  0.50467146914E+02  0.47000000000E+01 0.  1.
        -11    1    1    2    0    0  0.18460631465E+02  0.29968862039E+02 -0.19763162684E+02  0.40367192190E+02  0.00000000000E+00 0. -1.
         11    1    1    2    0    0  0.12449300551E+02 -0.51014960653E+02  0.22222716979E+02  0.57020701895E+02  0.00000000000E+00 0.  1.
<mgrwt>
<rscale>  0 0.12127308E+03</rscale>
<asrwt>0</asrwt>
<pdfrwt beam="2">  1        3 0.18008079E-01 0.13048595E+03</pdfrwt>
<pdfrwt beam="1">  1       -3 0.17091180E-01 0.13048595E+03</pdfrwt>
<totfact> 0.18214363E+03</totfact>
</mgrwt>
</event>
<event>
 6    1  0.5258538E-006  0.1518175E+03  0.7546771E-02  0.1207053E+00
          2   -1    0    0  501    0  0.00000000000E+00  0.00000000000E+00  0.16004172719E+03  0.16004172719E+03  0.00000000000E+00 0.  1.
         -2   -1    0    0    0  501 -0.00000000000E+00 -0.00000000000E+00 -0.12922897662E+03  0.12922897662E+03  0.00000000000E+00 0. -1.
          5    1    1    2  502    0  0.88041982328E+02 -0.32590683546E+02  0.52586649779E+02  0.10770788755E+03  0.47000000000E+01 0.  1.
         -5    1    1    2    0  502 -0.38050454562E+02 -0.37586264534E+02  0.23437535353E+01  0.53741488206E+02  0.47000000000E+01 0.  1.
        -11    1    1    2    0    0 -0.62663974176E+02  0.99558273334E+01 -0.18137820696E+02  0.65991459274E+02  0.00000000000E+00 0. -1.
         11    1    1    2    0    0  0.12672446410E+02  0.60221120747E+02 -0.59798320414E+01  0.61829868779E+02  0.00000000000E+00 0.  1.
<mgrwt>
<rscale>  0 0.14476857E+03</rscale>
<asrwt>0</asrwt>
<pdfrwt beam="1">  1        2 0.24621804E-01 0.15181749E+03</pdfrwt>
<pdfrwt beam="2">  1       -2 0.19881381E-01 0.15181749E+03</pdfrwt>
<totfact> 0.44780298E+03</totfact>
</mgrwt>
</event>
<event>
 6    1  0.5258538E-006  0.1584591E+03  0.7546771E-02  0.1208898E+00
          1   -1    0    0  501    0  0.00000000000E+00  0.00000000000E+00  0.13286625935E+03  0.13286625935E+03  0.00000000000E+00 0. -1.
         -1   -1    0    0    0  501 -0.00000000000E+00 -0.00000000000E+00 -0.13173618226E+03  0.13173618226E+03  0.00000000000E+00 0.  1.
          5    1    1    2  502    0  0.45941337339E+02  0.67279089586E+02 -0.12739014496E+02  0.82592099273E+02  0.47000000000E+01 0. -1.
         -5    1    1    2    0  502  0.22340861057E+02 -0.71422350070E+02  0.11579895210E+02  0.75871273453E+02  0.47000000000E+01 0.  1.
        -11    1    1    2    0    0 -0.63468057019E+02  0.35914630587E+02 -0.53121585994E+01  0.73118219214E+02  0.00000000000E+00 0. -1.
         11    1    1    2    0    0 -0.48141413767E+01 -0.31771370103E+02  0.76013549714E+01  0.33020849669E+02  0.00000000000E+00 0.  1.
<mgrwt>
<rscale>  0 0.14334466E+03</rscale>
<asrwt>0</asrwt>
<pdfrwt beam="1">  1        1 0.20440963E-01 0.15845913E+03</pdfrwt>
<pdfrwt beam="2">  1       -1 0.20267105E-01 0.15845913E+03</pdfrwt>
<totfact> 0.47267424E+03</totfact>
</mgrwt>
</event>
<event>
 6    1  0.5258538E-006  0.1261975E+03  0.7546771E-02  0.1246088E+00
         -1   -1    0    0    0  501 -0.00000000000E+00  0.00000000000E+00  0.19130785230E+03  0.19130785230E+03  0.00000000000E+00 0.  1.
          1   -1    0    0  501    0  0.00000000000E+00 -0.00000000000E+00 -0.67040958329E+02  0.67040958329E+02  0.00000000000E+00 0. -1.
          5    1    1    2  502    0 -0.37444057624E+02 -0.41486242871E+02  0.32172241233E+02  0.64655308405E+02  0.47000000000E+01 0. -1.
         -5    1    1    2    0  502  0.54752673815E+02  0.41138233056E+02  0.16487363334E+02  0.70598389915E+02  0.47000000000E+01 0. -1.
        -11    1    1    2    0    0 -0.13027195606E+02  0.44134438322E+02  0.61667301102E+02  0.76944216784E+02  0.00000000000E+00 0.  1.
         11    1    1    2    0    0 -0.42814205845E+01 -0.43786428507E+02  0.13939988299E+02  0.46150895521E+02  0.00000000000E+00 0. -1.
<mgrwt>
<rscale>  0 0.11820510E+03</rscale>
<asrwt>0</asrwt>
<pdfrwt beam="2">  1        1 0.10313994E-01 0.12619749E+03</pdfrwt>
<pdfrwt beam="1">  1       -1 0.29431977E-01 0.12619749E+03</pdfrwt>
<totfact> 0.61361862E+03</totfact>
</mgrwt>
</event>
<event>
 6    1  0.5258538E-006  0.1886107E+03  0.7546771E-02  0.1162466E+00
         -1   -1    0    0    0  501 -0.00000000000E+00  0.00000000000E+00  0.79145129122E+02  0.79145129122E+02  0.00000000000E+00 0.  1.
          1   -1    0    0  501    0  0.00000000000E+00 -0.00000000000E+00 -0.76931377862E+03  0.76931377862E+03  0.00000000000E+00 0. -1.
          5    1    1    2  502    0  0.45261460172E+01 -0.74569387535E+02 -0.41617747870E+03  0.42285560577E+03  0.47000000000E+01 0.  1.
         -5    1    1    2    0  502 -0.85688736474E+02 -0.20182227172E+02 -0.20777940564E+03  0.22570833671E+03  0.47000000000E+01 0.  1.
        -11    1    1    2    0    0  0.52630104957E+02  0.11752180748E+03 -0.89299005003E+02  0.15670231484E+03  0.00000000000E+00 0. -1.
         11    1    1    2    0    0  0.28532485500E+02 -0.22770192771E+02  0.23087239841E+02  0.43192650429E+02  0.00000000000E+00 0.  1.
<mgrwt>
<rscale>  0 0.18562665E+03</rscale>
<asrwt>0</asrwt>
<pdfrwt beam="2">  1        1 0.11835597E+00 0.18861071E+03</pdfrwt>
<pdfrwt beam="1">  1       -1 0.12176173E-01 0.18861071E+03</pdfrwt>
<totfact> 0.10971210E+03</totfact>
</mgrwt>
</event>
<event>
 6    1  0.5258538E-006  0.1453188E+03  0.7546771E-02  0.1223788E+00
         -2   -1    0    0    0  501 -0.00000000000E+00  0.00000000000E+00  0.36253139847E+02  0.36253139847E+02  0.00000000000E+00 0.  1.
          2   -1    0    0  501    0  0.00000000000E+00 -0.00000000000E+00 -0.42517053516E+03  0.42517053516E+03  0.00000000000E+00 0. -1.
          5    1    1    2  502    0  0.36839492571E+02  0.52367168992E+02 -0.42971427328E+02  0.77253492916E+02  0.47000000000E+01 0. -1.
         -5    1    1    2    0  502  0.10897923375E+01 -0.38236708904E+02 -0.21862488490E+03  0.22199586449E+03  0.47000000000E+01 0.  1.
        -11    1    1    2    0    0  0.26010064425E+02 -0.23664099485E+02 -0.53817035016E+02  0.64286750686E+02  0.00000000000E+00 0.  1.
         11    1    1    2    0    0 -0.63939349333E+02  0.95336393961E+01 -0.73504048070E+02  0.97887566912E+02  0.00000000000E+00 0. -1.
<mgrwt>
<rscale>  0 0.13250336E+03</rscale>
<asrwt>0</asrwt>
<pdfrwt beam="2">  1        2 0.65410853E-01 0.14531878E+03</pdfrwt>
<pdfrwt beam="1">  1       -2 0.55774060E-02 0.14531878E+03</pdfrwt>
<totfact> 0.11769164E+04</totfact>
</mgrwt>
</event>
<event>
 6    1  0.5258538E-006  0.1521826E+03  0.7546771E-02  0.1200026E+00
         -1   -1    0    0    0  501 -0.00000000000E+00  0.00000000000E+00  0.24717153283E+02  0.24717153283E+02  0.00000000000E+00 0.  1.
          1   -1    0    0  501    0  0.00000000000E+00 -0.00000000000E+00 -0.96879618565E+03  0.96879618565E+03  0.00000000000E+00 0. -1.
          5    1    1    2  502    0  0.72673404158E+02  0.86634040044E+01 -0.35493372129E+03  0.36243139317E+03  0.47000000000E+01 0. -1.
         -5    1    1    2    0  502 -0.20566635486E+02  0.73899853315E+02 -0.26601512104E+03  0.27689404009E+03  0.47000000000E+01 0.  1.
        -11    1    1    2    0    0 -0.31708954816E+02 -0.98208341000E+02 -0.30689855446E+03  0.32378551355E+03  0.00000000000E+00 0. -1.
         11    1    1    2    0    0 -0.20397813856E+02  0.15645083681E+02 -0.16231635574E+02  0.30402392124E+02  0.00000000000E+00 0.  1.
<mgrwt>
<rscale>  0 0.15036406E+03</rscale>
<asrwt>0</asrwt>
<pdfrwt beam="2">  1        1 0.14904555E+00 0.15218260E+03</pdfrwt>
<pdfrwt beam="1">  1       -1 0.38026395E-02 0.15218260E+03</pdfrwt>
<totfact> 0.43964308E+03</totfact>
</mgrwt>
</event>
<event>
 6    1  0.5258538E-006  0.1476178E+03  0.7546771E-02  0.1212899E+00
          1   -1    0    0  501    0  0.00000000000E+00  0.00000000000E+00  0.51023682637E+02  0.51023682637E+02  0.00000000000E+00 0. -1.
         -1   -1    0    0    0  501 -0.00000000000E+00 -0.00000000000E+00 -0.37413604242E+03  0.37413604242E+03  0.00000000000E+00 0.  1.
          5    1    1    2  502    0  0.12888347148E+02 -0.87807512539E+01 -0.95932314405E+02  0.97305241544E+02  0.47000000000E+01 0. -1.
         -5    1    1    2    0  502 -0.91418012639E+02  0.82760229218E+01 -0.29862798618E+02  0.96641721485E+02  0.47000000000E+01 0. -1.
        -11    1    1    2    0    0  0.66073820115E+02  0.97100108641E+01 -0.20376954308E+03  0.21443428061E+03  0.00000000000E+00 0.  1.
         11    1    1    2    0    0  0.12455845376E+02 -0.92052825321E+01  0.64522963249E+01  0.16778481409E+02  0.00000000000E+00 0. -1.
<mgrwt>
<rscale>  0 0.14031997E+03</rscale>
<asrwt>0</asrwt>
<pdfrwt beam="1">  1        1 0.78497974E-02 0.14761780E+03</pdfrwt>
<pdfrwt beam="2">  1       -1 0.57559390E-01 0.14761780E+03</pdfrwt>
<totfact> 0.27255298E+03</totfact>
</mgrwt>
</event>
<event>
 6    1  0.5258538E-006  0.1329889E+03  0.7546771E-02  0.1235661E+00
         -3   -1    0    0    0  501 -0.00000000000E+00  0.00000000000E+00  0.17467048416E+03  0.17467048416E+03  0.00000000000E+00 0.  1.
          3   -1    0    0  501    0  0.00000000000E+00 -0.00000000000E+00 -0.82456489028E+02  0.82456489028E+02  0.00000000000E+00 0. -1.
          5    1    1    2  502    0 -0.41753865673E+02  0.72826866747E+02  0.65675825202E+02  0.10668899585E+03  0.47000000000E+01 0.  1.
         -5    1    1    2    0  502  0.35586954990E+02 -0.27843807911E+02  0.10703961604E+02  0.46673052166E+02  0.47000000000E+01 0.  1.
        -11    1    1    2    0    0  0.17929772619E+02 -0.23546703759E+02  0.52162770181E+02  0.59973982667E+02  0.00000000000E+00 0.  1.
         11    1    1    2    0    0 -0.11762861935E+02 -0.21436355078E+02 -0.36328561851E+02  0.43790942512E+02  0.00000000000E+00 0. -1.
<mgrwt>
<rscale>  0 0.12462211E+03</rscale>
<asrwt>0</asrwt>
<pdfrwt beam="2">  1        3 0.12685614E-01 0.13298889E+03</pdfrwt>
<pdfrwt beam="1">  1       -3 0.26872382E-01 0.13298889E+03</pdfrwt>
<totfact> 0.14909359E+03</totfact>
</mgrwt>
</event>
<event>
 6    1  0.5258538E-006  0.1960866E+03  0.7546771E-02  0.1153540E+00
          2   -1    0    0  501    0  0.00000000000E+00  0.00000000000E+00  0.71089911583E+03  0.71089911583E+03  0.00000000000E+00 0. -1.
         -2   -1    0    0    0  501 -0.00000000000E+00 -0.00000000000E+00 -0.53644722416E+02  0.53644722416E+02  0.00000000000E+00 0.  1.
          5    1    1    2  502    0  0.66205887037E+02 -0.91201528241E+02  0.20318709902E+03  0.23239626813E+03  0.47000000000E+01 0. -1.
         -5    1    1    2    0  502  0.74663771831E+02  0.36588252121E+02  0.14642157561E+03  0.16844805377E+03  0.47000000000E+01 0. -1.
        -11    1    1    2    0    0 -0.12197481253E+03  0.25472251195E+02  0.12043794003E+03  0.17329739718E+03  0.00000000000E+00 0.  1.
         11    1    1    2    0    0 -0.18894846338E+02  0.29141024926E+02  0.18720777877E+03  0.19040211917E+03  0.00000000000E+00 0. -1.
<mgrwt>
<rscale>  0 0.19555988E+03</rscale>
<asrwt>0</asrwt>
<pdfrwt beam="1">  1        2 0.10936909E+00 0.19608658E+03</pdfrwt>
<pdfrwt beam="2">  1       -2 0.82530347E-02 0.19608658E+03</pdfrwt>
<totfact> 0.36595382E+03</totfact>
</mgrwt>
</event>
<event>
 6    1  0.5258538E-006  0.1441243E+03  0.7546771E-02  0.1220174E+00
         -4   -1    0    0    0  501 -0.00000000000E+00  0.00000000000E+00  0.76309550324E+02  0.76309550324E+02  0.00000000000E+00 0.  1.
          4   -1    0    0  501    0  0.00000000000E+00 -0.00000000000E+00 -0.21726499181E+03  0.21726499181E+03  0.00000000000E+00 0. -1.
          5    1    1    2  502    0  0.57220007893E+02  0.37409473038E+02 -0.15530696361E+02  0.70263009512E+02  0.47000000000E+01 0. -1.
         -5    1    1    2    0  502 -0.68974006301E+02  0.24836392219E+02 -0.44323236926E+02  0.85795683197E+02  0.47000000000E+01 0.  1.
        -11    1    1    2    0    0 -0.33064146735E+02 -0.12545981628E+02 -0.55609150383E+02  0.65901571003E+02  0.00000000000E+00 0.  1.
         11    1    1    2    0    0  0.44818145143E+02 -0.49699883629E+02 -0.25492357814E+02  0.71614278421E+02  0.00000000000E+00 0. -1.
<mgrwt>
<rscale>  0 0.13503217E+03</rscale>
<asrwt>0</asrwt>
<pdfrwt beam="2">  1        4 0.33425383E-01 0.14412433E+03</pdfrwt>
<pdfrwt beam="1">  1       -4 0.11739931E-01 0.14412433E+03</pdfrwt>
<totfact> 0.83446671E+02</totfact>
</mgrwt>
</event>
<event>
 6    1  0.5258538E-006  0.1266061E+03  0.7546771E-02  0.1247245E+00
         -1   -1    0    0    0  501 -0.00000000000E+00  0.00000000000E+00  0.24851188859E+02  0.24851188859E+02  0.00000000000E+00 0.  1.
          1   -1    0    0  501    0  0.00000000000E+00 -0.00000000000E+00 -0.14668820467E+04  0.14668820467E+04  0.00000000000E+00 0. -1.
          5    1    1    2  502    0 -0.33501472687E+02  0.58384509578E+02 -0.74275925552E+03  0.74581800815E+03  0.47000000000E+01 0. -1.
         -5    1    1    2    0  502  0.13425515642E+02 -0.57356307432E+02 -0.62042540170E+03  0.62323331069E+03  0.47000000000E+01 0. -1.
        -11    1    1    2    0    0 -0.20599891703E+02 -0.14509696671E+02  0.74980668129E+01  0.26288930020E+02  0.00000000000E+00 0.  1.
         11    1    1    2    0    0  0.40675848748E+02  0.13481494525E+02 -0.86344267444E+02  0.96392986708E+02  0.00000000000E+00 0. -1.
<mgrwt>
<rscale>  0 0.11751991E+03</rscale>
<asrwt>0</asrwt>
<pdfrwt beam="2">  1        1 0.22567413E+00 0.12660610E+03</pdfrwt>
<pdfrwt beam="1">  1       -1 0.38232603E-02 0.12660610E+03</pdfrwt>
<totfact> 0.19770853E+03</totfact>
</mgrwt>
</event>
<event>
 6    1  0.5258538E-006  0.1474334E+03  0.7546771E-02  0.1210052E+00
         -1   -1    0    0    0  501 -0.00000000000E+00  0.00000000000E+00  0.83713609826E+02  0.83713609826E+02  0.00000000000E+00 0.  1.
          1   -1    0    0  501    0  0.00000000000E+00 -0.00000000000E+00 -0.33374084728E+03  0.33374084728E+03  0.00000000000E+00 0. -1.
          5    1    1    2  502    0  0.54344461421E+02  0.60876390509E+02 -0.20567406443E+03  0.22132140924E+03  0.47000000000E+01 0. -1.
         -5    1    1    2    0  502  0.33029612062E+02 -0.40304909618E+02 -0.42784290426E+02  0.67587177183E+02  0.47000000000E+01 0.  1.
        -11    1    1    2    0    0  0.13897192364E+02  0.15698049727E+02 -0.13862299630E+00  0.20966161718E+02  0.00000000000E+00 0. -1.
         11    1    1    2    0    0 -0.10127126585E+03 -0.36269530618E+02 -0.14302595960E+01  0.10757970896E+03  0.00000000000E+00 0.  1.
<mgrwt>
<rscale>  0 0.14246344E+03</rscale>
<asrwt>0</asrwt>
<pdfrwt beam="2">  1        1 0.51344746E-01 0.14743343E+03</pdfrwt>
<pdfrwt beam="1">  1       -1 0.12879017E-01 0.14743343E+03</pdfrwt>
<totfact> 0.30501694E+03</totfact>
</mgrwt>
</event>
<event>
 6    1  0.5258538E-006  0.1578462E+03  0.7546771E-02  0.1198842E+00
         -2   -1    0    0    0  501 -0.00000000000E+00  0.00000000000E+00  0.18778200896E+02  0.18778200896E+02  0.00000000000E+00 0.  1.
          2   -1    0    0  501    0  0.00000000000E+00 -0.00000000000E+00 -0.12166483598E+04  0.12166483598E+04  0.00000000000E+00 0. -1.
          5    1    1    2  502    0 -0.10914882008E+03 -0.15520257730E+02 -0.47522012680E+03  0.48786330282E+03  0.47000000000E+01 0. -1.
         -5    1    1    2    0  502  0.25596890703E+02 -0.32553621654E+02 -0.33562268873E+03  0.33820055926E+03  0.47000000000E+01 0. -1.
        -11    1    1    2    0    0  0.31346343594E+02 -0.27220177047E+02 -0.10973591087E+03  0.11732647369E+03  0.00000000000E+00 0.  1.
         11    1    1    2    0    0  0.52205585787E+02  0.75294056431E+02 -0.27729143250E+03  0.29203622491E+03  0.00000000000E+00 0. -1.
<mgrwt>
<rscale>  0 0.15133539E+03</rscale>
<asrwt>0</asrwt>
<pdfrwt beam="2">  1        2 0.18717664E+00 0.15784623E+03</pdfrwt>
<pdfrwt beam="1">  1       -2 0.28889544E-02 0.15784623E+03</pdfrwt>
<totfact> 0.85700079E+03</totfact>
</mgrwt>
</event>
<event>
 6    1  0.5258538E-006  0.1270270E+03  0.7546771E-02  0.1245251E+00
         -2   -1    0    0    0  501 -0.00000000000E+00  0.00000000000E+00  0.22407260616E+02  0.22407260616E+02  0.00000000000E+00 0.  1.
          2   -1    0    0  501    0  0.00000000000E+00 -0.00000000000E+00 -0.69446397459E+03  0.69446397459E+03  0.00000000000E+00 0. -1.
          5    1    1    2  502    0 -0.16526373495E+02  0.44916592351E+02 -0.31639980435E+03  0.32003366617E+03  0.47000000000E+01 0.  1.
         -5    1    1    2    0  502  0.25581291612E+02 -0.65629717703E+02 -0.21306673256E+03  0.22445753462E+03  0.47000000000E+01 0.  1.
        -11    1    1    2    0    0 -0.42050803849E+02  0.40211486252E+02 -0.78627318189E+02  0.97813541479E+02  0.00000000000E+00 0. -1.
         11    1    1    2    0    0  0.32995885732E+02 -0.19498360900E+02 -0.63962858878E+02  0.74566492937E+02  0.00000000000E+00 0.  1.
<mgrwt>
<rscale>  0 0.11870369E+03</rscale>
<asrwt>0</asrwt>
<pdfrwt beam="2">  1        2 0.10684060E+00 0.12702698E+03</pdfrwt>
<pdfrwt beam="1">  1       -2 0.34472711E-02 0.12702698E+03</pdfrwt>
<totfact> 0.13799711E+04</totfact>
</mgrwt>
</event>
<event>
 6    1  0.5258538E-006  0.1408853E+03  0.7546771E-02  0.1223039E+00
          2   -1    0    0  501    0  0.00000000000E+00  0.00000000000E+00  0.10935271086E+04  0.10935271086E+04  0.00000000000E+00 0. -1.
         -2   -1    0    0    0  501 -0.00000000000E+00 -0.00000000000E+00 -0.18294657851E+02  0.18294657851E+02  0.00000000000E+00 0.  1.
          5    1    1    2  502    0 -0.48297340562E+02  0.86071072104E+02  0.58619351553E+03  0.59446260623E+03  0.47000000000E+01 0.  1.
         -5    1    1    2    0  502  0.35313993038E+02 -0.22390551455E+02  0.24848659810E+03  0.25202399556E+03  0.47000000000E+01 0.  1.
        -11    1    1    2    0    0 -0.31984326716E+02 -0.51556373877E+02  0.17261058396E+03  0.18296303052E+03  0.00000000000E+00 0.  1.
         11    1    1    2    0    0  0.44967674239E+02 -0.12124146773E+02  0.67941753167E+02  0.82372134153E+02  0.00000000000E+00 0. -1.
<mgrwt>
<rscale>  0 0.13302244E+03</rscale>
<asrwt>0</asrwt>
<pdfrwt beam="1">  1        2 0.16823489E+00 0.14088533E+03</pdfrwt>
<pdfrwt beam="2">  1       -2 0.28145636E-02 0.14088533E+03</pdfrwt>
<totfact> 0.10392642E+04</totfact>
</mgrwt>
</event>
<event>
 6    1  0.5258538E-006  0.1633120E+03  0.7546771E-02  0.1190933E+00
          1   -1    0    0  501    0  0.00000000000E+00  0.00000000000E+00  0.26522149899E+03  0.26522149899E+03  0.00000000000E+00 0. -1.
         -1   -1    0    0    0  501 -0.00000000000E+00 -0.00000000000E+00 -0.11074510310E+03  0.11074510310E+03  0.00000000000E+00 0.  1.
          5    1    1    2  502    0  0.88659762887E+02 -0.13893716982E+02  0.16871134319E+03  0.19115228549E+03  0.47000000000E+01 0. -1.
         -5    1    1    2    0  502  0.13521845031E+02  0.38480640078E+02 -0.34328494492E+01  0.41200417585E+02  0.47000000000E+01 0. -1.
        -11    1    1    2    0    0 -0.11066625317E+03  0.33182800330E+01  0.42395343768E+01  0.11079713094E+03  0.00000000000E+00 0. -1.
         11    1    1    2    0    0  0.84846452503E+01 -0.27905203129E+02 -0.15041632231E+02  0.32816768075E+02  0.00000000000E+00 0.  1.
<mgrwt>
<rscale>  0 0.15803549E+03</rscale>
<asrwt>0</asrwt>
<pdfrwt beam="1">  1        1 0.40803307E-01 0.16331197E+03</pdfrwt>
<pdfrwt beam="2">  1       -1 0.17037708E-01 0.16331197E+03</pdfrwt>
<totfact> 0.26259211E+03</totfact>
</mgrwt>
</event>
<event>
 6    1  0.5258538E-006  0.1973161E+03  0.7546771E-02  0.1157720E+00
          2   -1    0    0  501    0  0.00000000000E+00  0.00000000000E+00  0.60085481297E+02  0.60085481297E+02  0.00000000000E+00 0. -1.
         -2   -1    0    0    0  501 -0.00000000000E+00 -0.00000000000E+00 -0.64554426113E+03  0.64554426113E+03  0.00000000000E+00 0.  1.
          5    1    1    2  502    0 -0.31302610786E+02 -0.80978659040E+02 -0.11291316209E+03  0.14250918860E+03  0.47000000000E+01 0. -1.
         -5    1    1    2    0  502 -0.10539538322E+03  0.12991518254E+02 -0.76098438195E+02  0.13072883632E+03  0.47000000000E+01 0. -1.
        -11    1    1    2    0    0  0.43502748053E+02  0.66243207504E+01 -0.42132820971E+02  0.60922453304E+02  0.00000000000E+00 0. -1.
         11    1    1    2    0    0  0.93195245955E+02  0.61362820035E+02 -0.35431435857E+03  0.37146926420E+03  0.00000000000E+00 0.  1.
<mgrwt>
<rscale>  0 0.19082476E+03</rscale>
<asrwt>0</asrwt>
<pdfrwt beam="1">  1        2 0.92439205E-02 0.19731607E+03</pdfrwt>
<pdfrwt beam="2">  1       -2 0.99314499E-01 0.19731607E+03</pdfrwt>
<totfact> 0.61209773E+02</totfact>
</mgrwt>
</event>
<event>
 6    1  0.5258538E-006  0.1316445E+03  0.7546771E-02  0.1238463E+00
         -1   -1    0    0    0  501 -0.00000000000E+00  0.00000000000E+00  0.35786777048E+03  0.35786777048E+03  0.00000000000E+00 0.  1.
          1   -1    0    0  501    0  0.00000000000E+00 -0.00000000000E+00 -0.53850857565E+02  0.53850857565E+02  0.00000000000E+00 0. -1.
          5    1    1    2  502    0  0.12601211145E+02  0.65533729552E+02  0.90065521480E+01  0.67503097803E+02  0.47000000000E+01 0. -1.
         -5    1    1    2    0  502 -0.43083082716E+02 -0.41268330029E+02  0.44608181163E+02  0.74640517860E+02  0.47000000000E+01 0.  1.
        -11    1    1    2    0    0 -0.26490954206E+02  0.15190987401E+02  0.78171356411E+02  0.83924357108E+02  0.00000000000E+00 0. -1.
         11    1    1    2    0    0  0.56972825776E+02 -0.39456386924E+02  0.17223082320E+03  0.18565065528E+03  0.00000000000E+00 0.  1.
<mgrwt>
<rscale>  0 0.12285301E+03</rscale>
<asrwt>0</asrwt>
<pdfrwt beam="2">  1        1 0.82847475E-02 0.13164448E+03</pdfrwt>
<pdfrwt beam="1">  1       -1 0.55056579E-01 0.13164448E+03</pdfrwt>
<totfact> 0.27395147E+03</totfact>
</mgrwt>
</event>
<event>
 6    1  0.5258538E-006  0.4337806E+03  0.7546771E-02  0.1032672E+00
          1   -1    0    0  501    0  0.00000000000E+00  0.00000000000E+00  0.15239070615E+03  0.15239070615E+03  0.00000000000E+00 0. -1.
         -1   -1    0    0    0  501 -0.00000000000E+00 -0.00000000000E+00 -0.30868940289E+03  0.30868940289E+03  0.00000000000E+00 0.  1.
          5    1    1    2  502    0  0.72247924634E+02 -0.17609114462E+03 -0.27421943134E+01  0.19041392664E+03  0.47000000000E+01 0. -1.
         -5    1    1    2    0  502 -0.14670296103E+02  0.14908572395E+02 -0.26272872840E+01  0.21598049845E+02  0.47000000000E+01 0. -1.
        -11    1    1    2    0    0 -0.42389282325E+02  0.80756240177E+02 -0.13915063860E+03  0.16637704711E+03  0.00000000000E+00 0.  1.
         11    1    1    2    0    0 -0.15188346206E+02  0.80426332051E+02 -0.11778576543E+02  0.82691085451E+02  0.00000000000E+00 0. -1.
<mgrwt>
<rscale>  0 0.43378057E+03</rscale>
<asrwt>0</asrwt>
<pdfrwt beam="1">  1        1 0.23444724E-01 0.43378057E+03</pdfrwt>
<pdfrwt beam="2">  1       -1 0.47490677E-01 0.43378057E+03</pdfrwt>
<totfact> 0.94308815E+02</totfact>
</mgrwt>
</event>
<event>
 6    1  0.5258538E-006  0.1311959E+03  0.7546771E-02  0.1238950E+00
          2   -1    0    0  501    0  0.00000000000E+00  0.00000000000E+00  0.23861309764E+03  0.23861309764E+03  0.00000000000E+00 0. -1.
         -2   -1    0    0    0  501 -0.00000000000E+00 -0.00000000000E+00 -0.56784499370E+02  0.56784499370E+02  0.00000000000E+00 0.  1.
          5    1    1    2  502    0 -0.54672192250E+02  0.20050016615E+02  0.51280741537E+02  0.77735810437E+02  0.47000000000E+01 0. -1.
         -5    1    1    2    0  502  0.70702135159E+02  0.16344767854E+02  0.69574197711E+02  0.10064095756E+03  0.47000000000E+01 0. -1.
        -11    1    1    2    0    0  0.29385629822E+02 -0.11915261998E+02 -0.62109181567E+01  0.32311982497E+02  0.00000000000E+00 0.  1.
         11    1    1    2    0    0 -0.45415572731E+02 -0.24479522471E+02  0.67184577182E+02  0.84708846516E+02  0.00000000000E+00 0. -1.
<mgrwt>
<rscale>  0 0.12254910E+03</rscale>
<asrwt>0</asrwt>
<pdfrwt beam="1">  1        2 0.36709707E-01 0.13119587E+03</pdfrwt>
<pdfrwt beam="2">  1       -2 0.87360770E-02 0.13119587E+03</pdfrwt>
<totfact> 0.10860648E+04</totfact>
</mgrwt>
</event>
<event>
 6    1  0.5258538E-006  0.4608806E+03  0.7546771E-02  0.1024526E+00
         -1   -1    0    0    0  501 -0.00000000000E+00  0.00000000000E+00  0.12369847538E+03  0.12369847538E+03  0.00000000000E+00 0.  1.
          1   -1    0    0  501    0  0.00000000000E+00 -0.00000000000E+00 -0.42929172642E+03  0.42929172642E+03  0.00000000000E+00 0. -1.
          5    1    1    2  502    0  0.16560310419E+02  0.27799408526E+02 -0.31914592331E+01  0.32853103470E+02  0.47000000000E+01 0. -1.
         -5    1    1    2    0  502 -0.67432337720E+02  0.41717360342E+02 -0.25049612695E+03  0.26278861836E+03  0.47000000000E+01 0. -1.
        -11    1    1    2    0    0 -0.43659744284E+02 -0.13079256842E+03 -0.42565842921E+02  0.14430772747E+03  0.00000000000E+00 0.  1.
         11    1    1    2    0    0  0.94531771585E+02  0.61275799550E+02 -0.93398219311E+01  0.11304075249E+03  0.00000000000E+00 0. -1.
<mgrwt>
<rscale>  0 0.46088060E+03</rscale>
<asrwt>0</asrwt>
<pdfrwt beam="2">  1        1 0.66044879E-01 0.46088060E+03</pdfrwt>
<pdfrwt beam="1">  1       -1 0.19030535E-01 0.46088060E+03</pdfrwt>
<totfact> 0.12128838E+03</totfact>
</mgrwt>
</event>
<event>
 6    1  0.5258538E-006  0.1331076E+03  0.7546771E-02  0.1235889E+00
          2   -1    0    0  501    0  0.00000000000E+00  0.00000000000E+00  0.97142806700E+03  0.97142806700E+03  0.00000000000E+00 0. -1.
         -2   -1    0    0    0  501 -0.00000000000E+00 -0.00000000000E+00 -0.14536453647E+02  0.14536453647E+02  0.00000000000E+00 0.  1.
          5    1    1    2  502    0  0.32219277494E+02 -0.39668931770E+02  0.10211511940E+03  0.11428601664E+03  0.47000000000E+01 0. -1.
         -5    1    1    2    0  502  0.13288733281E+02  0.43912256889E+02  0.51285677308E+03  0.51492624368E+03  0.47000000000E+01 0. -1.
        -11    1    1    2    0    0 -0.95755223909E+01  0.32050790783E+02  0.48475143508E+02  0.58896378132E+02  0.00000000000E+00 0.  1.
         11    1    1    2    0    0 -0.35932488385E+02 -0.36294115902E+02  0.29344457737E+03  0.29785588219E+03  0.00000000000E+00 0. -1.
<mgrwt>
<rscale>  0 0.12447677E+03</rscale>
<asrwt>0</asrwt>
<pdfrwt beam="1">  1        2 0.14945042E+00 0.13310763E+03</pdfrwt>
<pdfrwt beam="2">  1       -2 0.22363782E-02 0.13310763E+03</pdfrwt>
<totfact> 0.17104650E+04</totfact>
</mgrwt>
</event>
<event>
 6    1  0.5258538E-006  0.1578952E+03  0.7546771E-02  0.1204203E+00
         -2   -1    0    0    0  501 -0.00000000000E+00  0.00000000000E+00  0.20347018636E+02  0.20347018636E+02  0.00000000000E+00 0.  1.
          2   -1    0    0  501    0  0.00000000000E+00 -0.00000000000E+00 -0.13767206385E+04  0.13767206385E+04  0.00000000000E+00 0. -1.
          5    1    1    2  502    0 -0.33267277838E+02 -0.32993102411E+02 -0.46167686590E+03  0.46407205808E+03  0.47000000000E+01 0. -1.
         -5    1    1    2    0  502 -0.14961012227E+02  0.10639404228E+03 -0.67312703015E+03  0.68166385620E+03  0.47000000000E+01 0.  1.
        -11    1    1    2    0    0  0.68552703842E+02 -0.42276949862E+02 -0.16552956324E+03  0.18408381243E+03  0.00000000000E+00 0.  1.
         11    1    1    2    0    0 -0.20324413776E+02 -0.31123990009E+02 -0.56040160537E+02  0.67247930395E+02  0.00000000000E+00 0. -1.
<mgrwt>
<rscale>  0 0.14700459E+03</rscale>
<asrwt>0</asrwt>
<pdfrwt beam="2">  1        2 0.21180322E+00 0.15789523E+03</pdfrwt>
<pdfrwt beam="1">  1       -2 0.31303100E-02 0.15789523E+03</pdfrwt>
<totfact> 0.62309154E+03</totfact>
</mgrwt>
</event>
<event>
 6    1  0.5258538E-006  0.2760080E+03  0.7546771E-02  0.1097890E+00
         -2   -1    0    0    0  501 -0.00000000000E+00  0.00000000000E+00  0.32253139866E+02  0.32253139866E+02  0.00000000000E+00 0.  1.
          2   -1    0    0  501    0  0.00000000000E+00 -0.00000000000E+00 -0.59048816317E+03  0.59048816317E+03  0.00000000000E+00 0. -1.
          5    1    1    2  502    0  0.10124697666E+03 -0.11541748875E+02 -0.34659852981E+03  0.36129875881E+03  0.47000000000E+01 0. -1.
         -5    1    1    2    0  502 -0.33233799945E+02  0.14893431814E+02 -0.71710171319E+02  0.80565119255E+02  0.47000000000E+01 0. -1.
        -11    1    1    2    0    0 -0.33568388793E+02 -0.40245982519E+02 -0.11088201933E+03  0.12264337751E+03  0.00000000000E+00 0. -1.
         11    1    1    2    0    0 -0.34444787924E+02  0.36894299579E+02 -0.29044302845E+02  0.58234047466E+02  0.00000000000E+00 0.  1.
<mgrwt>
<rscale>  0 0.27600795E+03</rscale>
<asrwt>0</asrwt>
<pdfrwt beam="2">  1        2 0.90844325E-01 0.27600795E+03</pdfrwt>
<pdfrwt beam="1">  1       -2 0.49620219E-02 0.27600795E+03</pdfrwt>
<totfact> 0.10136907E+04</totfact>
</mgrwt>
</event>
<event>
 6    1  0.5258538E-006  0.1388572E+03  0.7546771E-02  0.1221109E+00
          1   -1    0    0  501    0  0.00000000000E+00  0.00000000000E+00  0.39562128449E+03  0.39562128449E+03  0.00000000000E+00 0. -1.
         -1   -1    0    0    0  501 -0.00000000000E+00 -0.00000000000E+00 -0.43337680820E+02  0.43337680820E+02  0.00000000000E+00 0.  1.
          5    1    1    2  502    0  0.86013854141E+02 -0.44469878653E+02  0.10152168458E+03  0.14037341505E+03  0.47000000000E+01 0. -1.
         -5    1    1    2    0  502 -0.39613620188E+02  0.56731658597E+01  0.64641603550E+02  0.76171192881E+02  0.47000000000E+01 0. -1.
        -11    1    1    2    0    0 -0.71267478436E+02  0.49924333752E+02  0.10242308299E+03  0.13439486788E+03  0.00000000000E+00 0.  1.
         11    1    1    2    0    0  0.24867244483E+02 -0.11127620958E+02  0.83697232546E+02  0.88019489502E+02  0.00000000000E+00 0. -1.
<mgrwt>
<rscale>  0 0.13437219E+03</rscale>
<asrwt>0</asrwt>
<pdfrwt beam="1">  1        1 0.60864810E-01 0.13885722E+03</pdfrwt>
<pdfrwt beam="2">  1       -1 0.66673358E-02 0.13885722E+03</pdfrwt>
<totfact> 0.66969765E+03</totfact>
</mgrwt>
</event>
<event>
 6    1  0.5258538E-006  0.1337968E+03  0.7546771E-02  0.1235153E+00
         -1   -1    0    0    0  501 -0.00000000000E+00  0.00000000000E+00  0.33796153661E+03  0.33796153661E+03  0.00000000000E+00 0.  1.
          1   -1    0    0  501    0  0.00000000000E+00 -0.00000000000E+00 -0.41044145388E+02  0.41044145388E+02  0.00000000000E+00 0. -1.
          5    1    1    2  502    0  0.67816653621E+02 -0.19726429154E+02  0.52531953023E+02  0.88147187159E+02  0.47000000000E+01 0. -1.
         -5    1    1    2    0  502 -0.46380499524E+02 -0.22409281894E+02  0.11621780045E+03  0.12720846589E+03  0.47000000000E+01 0. -1.
        -11    1    1    2    0    0 -0.50076858158E+02  0.52558517522E+00  0.76146832695E+02  0.91138949370E+02  0.00000000000E+00 0.  1.
         11    1    1    2    0    0  0.28640704061E+02  0.41610125872E+02  0.52020805052E+02  0.72511079584E+02  0.00000000000E+00 0. -1.
<mgrwt>
<rscale>  0 0.12494670E+03</rscale>
<asrwt>0</asrwt>
<pdfrwt beam="2">  1        1 0.63144841E-02 0.13379678E+03</pdfrwt>
<pdfrwt beam="1">  1       -1 0.51994081E-01 0.13379678E+03</pdfrwt>
<totfact> 0.43938276E+03</totfact>
</mgrwt>
</event>
<event>
 6    1  0.5258538E-006  0.1315862E+03  0.7546771E-02  0.1238091E+00
         -1   -1    0    0    0  501 -0.00000000000E+00  0.00000000000E+00  0.12585732999E+02  0.12585732999E+02  0.00000000000E+00 0.  1.
          1   -1    0    0  501    0  0.00000000000E+00 -0.00000000000E+00 -0.11388436506E+04  0.11388436506E+04  0.00000000000E+00 0. -1.
          5    1    1    2  502    0 -0.70816083366E+02 -0.26977317510E+02 -0.40295682631E+03  0.41004754260E+03  0.47000000000E+01 0.  1.
         -5    1    1    2    0  502  0.53590785324E+02 -0.10365671689E+02 -0.36870865167E+03  0.37275672930E+03  0.47000000000E+01 0.  1.
        -11    1    1    2    0    0  0.91104631789E+01 -0.30787218127E+02 -0.11665023427E+03  0.12098814196E+03  0.00000000000E+00 0.  1.
         11    1    1    2    0    0  0.81148348624E+01  0.68130207326E+02 -0.23794220537E+03  0.24763696976E+03  0.00000000000E+00 0. -1.
<mgrwt>
<rscale>  0 0.12308605E+03</rscale>
<asrwt>0</asrwt>
<pdfrwt beam="2">  1        1 0.17520678E+00 0.13158616E+03</pdfrwt>
<pdfrwt beam="1">  1       -1 0.19362659E-02 0.13158616E+03</pdfrwt>
<totfact> 0.88012065E+03</totfact>
</mgrwt>
</event>
<event>
 6    1  0.5258538E-006  0.3399889E+03  0.7546771E-02  0.1067996E+00
         -2   -1    0    0    0  501 -0.00000000000E+00  0.00000000000E+00  0.68077313255E+02  0.68077313255E+02  0.00000000000E+00 0.  1.
          2   -1    0    0  501    0  0.00000000000E+00 -0.00000000000E+00 -0.16965299778E+04  0.16965299778E+04  0.00000000000E+00 0. -1.
          5    1    1    2  502    0 -0.11673779312E+02 -0.36867887659E+01 -0.22153127519E+02  0.25743360186E+02  0.47000000000E+01 0. -1.
         -5    1    1    2    0  502  0.16523707393E+03  0.28006602756E+03 -0.96128744856E+03  0.10148083165E+04  0.47000000000E+01 0. -1.
        -11    1    1    2    0    0 -0.18829789798E+02 -0.68056308165E+02 -0.22943752234E+03  0.24005790702E+03  0.00000000000E+00 0. -1.
         11    1    1    2    0    0 -0.13473350483E+03 -0.20832293063E+03 -0.41557456613E+03  0.48399770739E+03  0.00000000000E+00 0.  1.
<mgrwt>
<rscale>  0 0.33719795E+03</rscale>
<asrwt>0</asrwt>
<pdfrwt beam="2">  1        2 0.26100463E+00 0.33998886E+03</pdfrwt>
<pdfrwt beam="1">  1       -2 0.10473432E-01 0.33998886E+03</pdfrwt>
<totfact> 0.65708170E+02</totfact>
</mgrwt>
</event>
<event>
 6    1  0.5258538E-006  0.4499357E+03  0.7546771E-02  0.1027741E+00
          2   -1    0    0  501    0  0.00000000000E+00  0.00000000000E+00  0.11889678234E+04  0.11889678234E+04  0.00000000000E+00 0. -1.
         -2   -1    0    0    0  501 -0.00000000000E+00 -0.00000000000E+00 -0.42566777104E+02  0.42566777104E+02  0.00000000000E+00 0.  1.
          5    1    1    2  502    0  0.20382821137E+02 -0.57985903693E+01  0.34336903104E+03  0.34405444994E+03  0.47000000000E+01 0. -1.
         -5    1    1    2    0  502 -0.99746950991E+02  0.93800138673E+02  0.67249846903E+03  0.68631202896E+03  0.47000000000E+01 0. -1.
        -11    1    1    2    0    0  0.47096410951E+02 -0.53996477930E+02  0.10639624472E+02  0.72435441340E+02  0.00000000000E+00 0.  1.
         11    1    1    2    0    0  0.32267718903E+02 -0.34005070374E+02  0.11989392179E+03  0.12873268030E+03  0.00000000000E+00 0. -1.
<mgrwt>
<rscale>  0 0.44993568E+03</rscale>
<asrwt>0</asrwt>
<pdfrwt beam="1">  1        2 0.18291810E+00 0.44993568E+03</pdfrwt>
<pdfrwt beam="2">  1       -2 0.65487359E-02 0.44993568E+03</pdfrwt>
<totfact> 0.26230508E+03</totfact>
</mgrwt>
</event>
<event>
 6    1  0.5258538E-006  0.1428686E+03  0.7546771E-02  0.1221998E+00
          3   -1    0    0  501    0  0.00000000000E+00  0.00000000000E+00  0.11239566014E+03  0.11239566014E+03  0.00000000000E+00 0. -1.
         -3   -1    0    0    0  501 -0.00000000000E+00 -0.00000000000E+00 -0.14488496822E+03  0.14488496822E+03  0.00000000000E+00 0.  1.
          5    1    1    2  502    0  0.37318927027E+02 -0.11756005263E+02  0.25664604900E+01  0.39491552181E+02  0.47000000000E+01 0. -1.
         -5    1    1    2    0  502 -0.77787647223E+02  0.67872495852E+02 -0.26721220778E+01  0.10337709606E+03  0.47000000000E+01 0. -1.
        -11    1    1    2    0    0  0.13258111602E+02 -0.51780965187E+02 -0.56512744785E+02  0.77786478273E+02  0.00000000000E+00 0.  1.
         11    1    1    2    0    0  0.27210608594E+02 -0.43355254020E+01  0.24129098295E+02  0.36625501840E+02  0.00000000000E+00 0. -1.
<mgrwt>
<rscale>  0 0.13374798E+03</rscale>
<asrwt>0</asrwt>
<pdfrwt beam="1">  1        3 0.17291640E-01 0.14286861E+03</pdfrwt>
<pdfrwt beam="2">  1       -3 0.22289995E-01 0.14286861E+03</pdfrwt>
<totfact> 0.12443254E+03</totfact>
</mgrwt>
</event>
<event>
 6    1  0.5258538E-006  0.3252005E+03  0.7546771E-02  0.1073280E+00
          2   -1    0    0  501    0  0.00000000000E+00  0.00000000000E+00  0.43639791923E+03  0.43639791923E+03  0.00000000000E+00 0. -1.
         -2   -1    0    0    0  501 -0.00000000000E+00 -0.00000000000E+00 -0.60584237862E+02  0.60584237862E+02  0.00000000000E+00 0.  1.
          5    1    1    2  502    0  0.30902271671E+01  0.31453941726E+02  0.66555571414E+02  0.73828409438E+02  0.47000000000E+01 0. -1.
         -5    1    1    2    0  502  0.72152184048E+02 -0.11333633354E+03  0.20650261818E+03  0.24640714982E+03  0.47000000000E+01 0. -1.
        -11    1    1    2    0    0 -0.45198666413E+02  0.19831105929E+00  0.70868177977E+02  0.84055085644E+02  0.00000000000E+00 0. -1.
         11    1    1    2    0    0 -0.30043744802E+02  0.81684080759E+02  0.31887313790E+02  0.92691512189E+02  0.00000000000E+00 0.  1.
<mgrwt>
<rscale>  0 0.32520046E+03</rscale>
<asrwt>0</asrwt>
<pdfrwt beam="1">  1        2 0.67138139E-01 0.32520046E+03</pdfrwt>
<pdfrwt beam="2">  1       -2 0.93206523E-02 0.32520046E+03</pdfrwt>
<totfact> 0.53903566E+03</totfact>
</mgrwt>
</event>
<event>
 6    1  0.5258538E-006  0.1288242E+03  0.7546771E-02  0.1243059E+00
          2   -1    0    0  501    0  0.00000000000E+00  0.00000000000E+00  0.71472505201E+03  0.71472505201E+03  0.00000000000E+00 0. -1.
         -2   -1    0    0    0  501 -0.00000000000E+00 -0.00000000000E+00 -0.23229137036E+02  0.23229137036E+02  0.00000000000E+00 0.  1.
          5    1    1    2  502    0 -0.60393480195E+02  0.70436913990E+01  0.20457915089E+03  0.21347530307E+03  0.47000000000E+01 0. -1.
         -5    1    1    2    0  502  0.59225257549E+02  0.24107225263E+02  0.35475042340E+03  0.36049790894E+03  0.47000000000E+01 0. -1.
        -11    1    1    2    0    0 -0.22804233257E+02 -0.46944884476E+02  0.35444062467E+02  0.63088325363E+02  0.00000000000E+00 0.  1.
         11    1    1    2    0    0  0.23972455903E+02  0.15793967814E+02  0.96722278209E+02  0.10089265168E+03  0.00000000000E+00 0. -1.
<mgrwt>
<rscale>  0 0.12002313E+03</rscale>
<asrwt>0</asrwt>
<pdfrwt beam="1">  1        2 0.10995768E+00 0.12882420E+03</pdfrwt>
<pdfrwt beam="2">  1       -2 0.35737139E-02 0.12882420E+03</pdfrwt>
<totfact> 0.12659099E+04</totfact>
</mgrwt>
</event>
<event>
 6    1  0.5258538E-006  0.2668401E+03  0.7546771E-02  0.1103102E+00
          2   -1    0    0  501    0  0.00000000000E+00  0.00000000000E+00  0.17566400675E+03  0.17566400675E+03  0.00000000000E+00 0. -1.
         -2   -1    0    0    0  501 -0.00000000000E+00 -0.00000000000E+00 -0.10133498167E+03  0.10133498167E+03  0.00000000000E+00 0.  1.
          5    1    1    2  502    0 -0.12468204203E+02  0.34060601477E+02 -0.14306418220E+02  0.39272691419E+02  0.47000000000E+01 0. -1.
         -5    1    1    2    0  502 -0.45112939419E+02 -0.83895454655E+02  0.65891247767E+02  0.11591967541E+03  0.47000000000E+01 0. -1.
        -11    1    1    2    0    0  0.30474470481E+00  0.60098828976E+02  0.20759651653E+02  0.63584001529E+02  0.00000000000E+00 0. -1.
         11    1    1    2    0    0  0.57276398918E+02 -0.10263975798E+02  0.19845438776E+01  0.58222620059E+02  0.00000000000E+00 0.  1.
<mgrwt>
<rscale>  0 0.26684009E+03</rscale>
<asrwt>0</asrwt>
<pdfrwt beam="1">  1        2 0.27025232E-01 0.26684009E+03</pdfrwt>
<pdfrwt beam="2">  1       -2 0.15589997E-01 0.26684009E+03</pdfrwt>
<totfact> 0.62651178E+03</totfact>
</mgrwt>
</event>
<event>
 6    1  0.5258538E-006  0.1774080E+03  0.7546771E-02  0.1197289E+00
          1   -1    0    0  501    0  0.00000000000E+00  0.00000000000E+00  0.78016658358E+03  0.78016658358E+03  0.00000000000E+00 0. -1.
         -1   -1    0    0    0  501 -0.00000000000E+00 -0.00000000000E+00 -0.34535444393E+02  0.34535444393E+02  0.00000000000E+00 0.  1.
          5    1    1    2  502    0  0.43318724832E+02 -0.19922462441E+02  0.60354203210E+03  0.60544074106E+03  0.47000000000E+01 0. -1.
         -5    1    1    2    0  502 -0.53138685629E+02 -0.15990938306E+02  0.61996136579E+02  0.83336912403E+02  0.47000000000E+01 0.  1.
        -11    1    1    2    0    0 -0.32955717236E+02 -0.88099652647E+01  0.38076199154E+02  0.51122321235E+02  0.00000000000E+00 0. -1.
         11    1    1    2    0    0  0.42775678032E+02  0.44723366011E+02  0.42016771359E+02  0.74802053274E+02  0.00000000000E+00 0.  1.
<mgrwt>
<rscale>  0 0.15262065E+03</rscale>
<asrwt>0</asrwt>
<pdfrwt beam="1">  1        1 0.12002562E+00 0.17740801E+03</pdfrwt>
<pdfrwt beam="2">  1       -1 0.53131459E-02 0.17740801E+03</pdfrwt>
<totfact> 0.37906633E+03</totfact>
</mgrwt>
</event>
<event>
 6    1  0.5258538E-006  0.1838594E+03  0.7546771E-02  0.1176459E+00
         -4   -1    0    0    0  501 -0.00000000000E+00  0.00000000000E+00  0.59063720016E+02  0.59063720016E+02  0.00000000000E+00 0.  1.
          4   -1    0    0  501    0  0.00000000000E+00 -0.00000000000E+00 -0.46686640805E+03  0.46686640805E+03  0.00000000000E+00 0. -1.
          5    1    1    2  502    0  0.26169844814E+02 -0.88280135851E+02 -0.26331587973E+03  0.27899029675E+03  0.47000000000E+01 0. -1.
         -5    1    1    2    0  502  0.57097878253E+02 -0.17747139368E+02 -0.29687979702E+02  0.66922304171E+02  0.47000000000E+01 0. -1.
        -11    1    1    2    0    0 -0.45461435084E+02  0.81965117561E+02 -0.74114099572E+02  0.11949026041E+03  0.00000000000E+00 0. -1.
         11    1    1    2    0    0 -0.37806287984E+02  0.24062157658E+02 -0.40684729031E+02  0.60527266736E+02  0.00000000000E+00 0.  1.
<mgrwt>
<rscale>  0 0.17133843E+03</rscale>
<asrwt>0</asrwt>
<pdfrwt beam="2">  1        4 0.71825601E-01 0.18385936E+03</pdfrwt>
<pdfrwt beam="1">  1       -4 0.90867262E-02 0.18385936E+03</pdfrwt>
<totfact> 0.28232329E+02</totfact>
</mgrwt>
</event>
<event>
 6    1  0.5258538E-006  0.1251630E+03  0.7546771E-02  0.1250048E+00
         -1   -1    0    0    0  501 -0.00000000000E+00  0.00000000000E+00  0.40464927828E+03  0.40464927828E+03  0.00000000000E+00 0.  1.
          1   -1    0    0  501    0  0.00000000000E+00 -0.00000000000E+00 -0.29163007565E+02  0.29163007565E+02  0.00000000000E+00 0. -1.
          5    1    1    2  502    0  0.77514169147E+01  0.61577345270E+02  0.12638523705E+03  0.14087999169E+03  0.47000000000E+01 0. -1.
         -5    1    1    2    0  502 -0.13287301818E+01 -0.61939511212E+02  0.97422161439E+02  0.11554841458E+03  0.47000000000E+01 0. -1.
        -11    1    1    2    0    0  0.22233944095E+02 -0.86486193865E+01  0.11474812319E+01  0.23884379843E+02  0.00000000000E+00 0. -1.
         11    1    1    2    0    0 -0.28656630827E+02  0.90107853277E+01  0.15053139099E+03  0.15349949973E+03  0.00000000000E+00 0.  1.
<mgrwt>
<rscale>  0 0.11588281E+03</rscale>
<asrwt>0</asrwt>
<pdfrwt beam="2">  1        1 0.44866169E-02 0.12516300E+03</pdfrwt>
<pdfrwt beam="1">  1       -1 0.62253731E-01 0.12516300E+03</pdfrwt>
<totfact> 0.49699697E+03</totfact>
</mgrwt>
</event>
<event>
 6    1  0.5258538E-006  0.1387141E+03  0.7546771E-02  0.1228389E+00
          2   -1    0    0  501    0  0.00000000000E+00  0.00000000000E+00  0.13005521377E+03  0.13005521377E+03  0.00000000000E+00 0. -1.
         -2   -1    0    0    0  501 -0.00000000000E+00 -0.00000000000E+00 -0.12524606380E+03  0.12524606380E+03  0.00000000000E+00 0.  1.
          5    1    1    2  502    0 -0.42163795991E+02  0.34896041705E+02  0.39905867439E+01  0.55077529007E+02  0.47000000000E+01 0. -1.
         -5    1    1    2    0  502  0.10027269863E+01 -0.78731577818E+02 -0.38966768518E+02  0.87978212393E+02  0.47000000000E+01 0. -1.
        -11    1    1    2    0    0 -0.21928364501E+02 -0.73133584688E+01  0.14032831489E+02  0.27041796194E+02  0.00000000000E+00 0.  1.
         11    1    1    2    0    0  0.63089433506E+02  0.51148894582E+02  0.25752500254E+02  0.85203739979E+02  0.00000000000E+00 0. -1.
<mgrwt>
<rscale>  0 0.12937324E+03</rscale>
<asrwt>0</asrwt>
<pdfrwt beam="1">  1        2 0.20008494E-01 0.13871414E+03</pdfrwt>
<pdfrwt beam="2">  1       -2 0.19268625E-01 0.13871414E+03</pdfrwt>
<totfact> 0.59223584E+03</totfact>
</mgrwt>
</event>
<event>
 6    1  0.5258538E-006  0.1725005E+03  0.7546771E-02  0.1181545E+00
          2   -1    0    0  501    0  0.00000000000E+00  0.00000000000E+00  0.11734351785E+03  0.11734351785E+03  0.00000000000E+00 0. -1.
         -2   -1    0    0    0  501 -0.00000000000E+00 -0.00000000000E+00 -0.22356829399E+03  0.22356829399E+03  0.00000000000E+00 0.  1.
          5    1    1    2  502    0  0.74339456709E+01 -0.84645578989E+02 -0.80839457356E+02  0.11737651152E+03  0.47000000000E+01 0. -1.
         -5    1    1    2    0  502  0.32609380613E+02 -0.27282711756E+02  0.41449628328E+02  0.59564081066E+02  0.47000000000E+01 0. -1.
        -11    1    1    2    0    0 -0.16914193968E+02 -0.43279740348E+01 -0.38238659393E+02  0.42035894055E+02  0.00000000000E+00 0.  1.
         11    1    1    2    0    0 -0.23129132316E+02  0.11625626478E+03 -0.28596287715E+02  0.12193532521E+03  0.00000000000E+00 0. -1.
<mgrwt>
<rscale>  0 0.16650272E+03</rscale>
<asrwt>0</asrwt>
<pdfrwt beam="1">  1        2 0.18052849E-01 0.17250048E+03</pdfrwt>
<pdfrwt beam="2">  1       -2 0.34395122E-01 0.17250048E+03</pdfrwt>
<totfact> 0.24287647E+03</totfact>
</mgrwt>
</event>
<event>
 6    1  0.5258538E-006  0.1320819E+03  0.7546771E-02  0.1237656E+00
         -1   -1    0    0    0  501 -0.00000000000E+00  0.00000000000E+00  0.33476849294E+02  0.33476849294E+02  0.00000000000E+00 0.  1.
          1   -1    0    0  501    0  0.00000000000E+00 -0.00000000000E+00 -0.40493705773E+03  0.40493705773E+03  0.00000000000E+00 0. -1.
          5    1    1    2  502    0 -0.41975162306E+02 -0.44697329467E+02 -0.15509286300E+03  0.16684019799E+03  0.47000000000E+01 0. -1.
         -5    1    1    2    0  502  0.61744777202E+02  0.68807341498E+01 -0.66469617195E+02  0.91104676193E+02  0.47000000000E+01 0. -1.
        -11    1    1    2    0    0 -0.11181322806E+02  0.67980016234E+02 -0.97068390031E+02  0.11903183158E+03  0.00000000000E+00 0. -1.
         11    1    1    2    0    0 -0.85882920909E+01 -0.30163420917E+02 -0.52829338203E+02  0.61437201250E+02  0.00000000000E+00 0.  1.
<mgrwt>
<rscale>  0 0.12335911E+03</rscale>
<asrwt>0</asrwt>
<pdfrwt beam="2">  1        1 0.62298012E-01 0.13208189E+03</pdfrwt>
<pdfrwt beam="1">  1       -1 0.51502842E-02 0.13208189E+03</pdfrwt>
<totfact> 0.95183132E+03</totfact>
</mgrwt>
</event>
<event>
 6    1  0.5258538E-006  0.2395981E+03  0.7546771E-02  0.1120061E+00
         -2   -1    0    0    0  501 -0.00000000000E+00  0.00000000000E+00  0.71256262423E+02  0.71256262423E+02  0.00000000000E+00 0. -1.
          2   -1    0    0  501    0  0.00000000000E+00 -0.00000000000E+00 -0.20141118436E+03  0.20141118436E+03  0.00000000000E+00 0.  1.
          5    1    1    2  502    0  0.36585866554E+01 -0.26713013003E+01  0.28117368469E+02  0.28865160948E+02  0.47000000000E+01 0.  1.
         -5    1    1    2    0  502  0.24969421444E+02  0.39423722555E+02 -0.13237797348E+03  0.14044116124E+03  0.47000000000E+01 0.  1.
        -11    1    1    2    0    0 -0.96666953297E+01  0.12914729486E+02 -0.44265164231E+02  0.47113055522E+02  0.00000000000E+00 0.  1.
         11    1    1    2    0    0 -0.18961312770E+02 -0.49667150741E+02  0.18370847300E+02  0.56248069079E+02  0.00000000000E+00 0. -1.
<mgrwt>
<rscale>  0 0.23959807E+03</rscale>
<asrwt>0</asrwt>
<pdfrwt beam="2">  1        2 0.30986336E-01 0.23959807E+03</pdfrwt>
<pdfrwt beam="1">  1       -2 0.10962502E-01 0.23959807E+03</pdfrwt>
<totfact> 0.95149247E+03</totfact>
</mgrwt>
</event>
<event>
 6    1  0.5258538E-006  0.2353711E+03  0.7546771E-02  0.1125477E+00
          2   -1    0    0  501    0  0.00000000000E+00  0.00000000000E+00  0.30052471920E+03  0.30052471920E+03  0.00000000000E+00 0. -1.
         -2   -1    0    0    0  501 -0.00000000000E+00 -0.00000000000E+00 -0.34307175489E+03  0.34307175489E+03  0.00000000000E+00 0.  1.
          5    1    1    2  502    0  0.14207301321E+03  0.70665481274E+02  0.89005977701E+02  0.18199589389E+03  0.47000000000E+01 0.  1.
         -5    1    1    2    0  502  0.10302750447E+02  0.58003891472E+02  0.11578650726E+03  0.12999693595E+03  0.47000000000E+01 0.  1.
        -11    1    1    2    0    0 -0.54814820408E+02 -0.30340089483E+02 -0.20691649588E+02  0.65979769087E+02  0.00000000000E+00 0. -1.
         11    1    1    2    0    0 -0.97560943245E+02 -0.98329283263E+02 -0.22664787107E+03  0.26562387516E+03  0.00000000000E+00 0.  1.
<mgrwt>
<rscale>  0 0.23165928E+03</rscale>
<asrwt>0</asrwt>
<pdfrwt beam="1">  1        2 0.46234572E-01 0.23537112E+03</pdfrwt>
<pdfrwt beam="2">  1       -2 0.52780270E-01 0.23537112E+03</pdfrwt>
<totfact> 0.37808013E+02</totfact>
</mgrwt>
</event>
<event>
 6    1  0.5258538E-006  0.2219543E+03  0.7546771E-02  0.1135695E+00
         -2   -1    0    0    0  501 -0.00000000000E+00  0.00000000000E+00  0.35099454656E+02  0.35099454656E+02  0.00000000000E+00 0. -1.
          2   -1    0    0  501    0  0.00000000000E+00 -0.00000000000E+00 -0.13435171203E+04  0.13435171203E+04  0.00000000000E+00 0.  1.
          5    1    1    2  502    0  0.11514967668E+03  0.25367170028E+02 -0.46524015412E+03  0.47997232458E+03  0.47000000000E+01 0.  1.
         -5    1    1    2    0  502  0.17223698275E+02  0.10158401972E+03 -0.34037056356E+03  0.35565457875E+03  0.47000000000E+01 0.  1.
        -11    1    1    2    0    0 -0.99350517515E+02 -0.11309205789E+03 -0.47306077198E+03  0.49643411735E+03  0.00000000000E+00 0.  1.
         11    1    1    2    0    0 -0.33022857440E+02 -0.13859131860E+02 -0.29746176021E+02  0.46555554311E+02  0.00000000000E+00 0. -1.
<mgrwt>
<rscale>  0 0.21758725E+03</rscale>
<asrwt>0</asrwt>
<pdfrwt beam="2">  1        2 0.20669498E+00 0.22195426E+03</pdfrwt>
<pdfrwt beam="1">  1       -2 0.53999151E-02 0.22195426E+03</pdfrwt>
<totfact> 0.28840620E+03</totfact>
</mgrwt>
</event>
<event>
 6    1  0.5258538E-006  0.1276152E+03  0.7546771E-02  0.1246490E+00
          2   -1    0    0  501    0  0.00000000000E+00  0.00000000000E+00  0.76248302756E+03  0.76248302756E+03  0.00000000000E+00 0. -1.
         -2   -1    0    0    0  501 -0.00000000000E+00 -0.00000000000E+00 -0.24420288966E+02  0.24420288966E+02  0.00000000000E+00 0.  1.
          5    1    1    2  502    0 -0.36217515793E+02  0.47403378319E+02  0.52577449219E+03  0.52916887226E+03  0.47000000000E+01 0.  1.
         -5    1    1    2    0  502  0.10903590879E+02 -0.44642898313E+02  0.11033173005E+03  0.11961211192E+03  0.47000000000E+01 0.  1.
        -11    1    1    2    0    0  0.56678611846E+02 -0.14617405693E+02  0.54224768636E+02  0.79790094144E+02  0.00000000000E+00 0. -1.
         11    1    1    2    0    0 -0.31364686932E+02  0.11856925686E+02  0.47731747721E+02  0.58332238201E+02  0.00000000000E+00 0.  1.
<mgrwt>
<rscale>  0 0.11796640E+03</rscale>
<asrwt>0</asrwt>
<pdfrwt beam="1">  1        2 0.11730506E+00 0.12761520E+03</pdfrwt>
<pdfrwt beam="2">  1       -2 0.37569681E-02 0.12761520E+03</pdfrwt>
<totfact> 0.10868271E+04</totfact>
</mgrwt>
</event>
<event>
 6    1  0.5258538E-006  0.1371889E+03  0.7546771E-02  0.1229212E+00
          4   -1    0    0  501    0  0.00000000000E+00  0.00000000000E+00  0.40545597892E+03  0.40545597892E+03  0.00000000000E+00 0.  1.
         -4   -1    0    0    0  501 -0.00000000000E+00 -0.00000000000E+00 -0.36799738122E+02  0.36799738122E+02  0.00000000000E+00 0. -1.
          5    1    1    2  502    0 -0.62082914471E+02  0.10000755871E+02  0.95730835304E+02  0.11463326836E+03  0.47000000000E+01 0.  1.
         -5    1    1    2    0  502  0.39740851925E+02 -0.62163803654E+02  0.98317351400E+02  0.12301246027E+03  0.47000000000E+01 0.  1.
        -11    1    1    2    0    0  0.37690968185E+02 -0.12847141071E+02  0.62312853396E+02  0.73949643777E+02  0.00000000000E+00 0.  1.
         11    1    1    2    0    0 -0.15348905639E+02  0.65010188854E+02  0.11229520070E+03  0.13066034463E+03  0.00000000000E+00 0. -1.
<mgrwt>
<rscale>  0 0.12882318E+03</rscale>
<asrwt>0</asrwt>
<pdfrwt beam="1">  1        4 0.62377840E-01 0.13718890E+03</pdfrwt>
<pdfrwt beam="2">  1       -4 0.56614985E-02 0.13718890E+03</pdfrwt>
<totfact> 0.79117296E+02</totfact>
</mgrwt>
</event>
<event>
 6    1  0.5258538E-006  0.1334465E+03  0.7546771E-02  0.1236090E+00
         -2   -1    0    0    0  501 -0.00000000000E+00  0.00000000000E+00  0.11292313192E+02  0.11292313192E+02  0.00000000000E+00 0.  1.
          2   -1    0    0  501    0  0.00000000000E+00 -0.00000000000E+00 -0.13192577263E+04  0.13192577263E+04  0.00000000000E+00 0. -1.
          5    1    1    2  502    0 -0.61838956315E+02  0.81029840559E+01 -0.67559816403E+03  0.67848705522E+03  0.47000000000E+01 0.  1.
         -5    1    1    2    0  502  0.34915643380E+02 -0.46301431026E+02 -0.24996347573E+03  0.25664519062E+03  0.47000000000E+01 0.  1.
        -11    1    1    2    0    0 -0.21187603269E+02 -0.16080108636E+02 -0.75125710753E+02  0.79695400382E+02  0.00000000000E+00 0.  1.
         11    1    1    2    0    0  0.48110916204E+02  0.54278555606E+02 -0.30727806255E+03  0.31572239322E+03  0.00000000000E+00 0. -1.
<mgrwt>
<rscale>  0 0.12434886E+03</rscale>
<asrwt>0</asrwt>
<pdfrwt beam="2">  1        2 0.20296269E+00 0.13344650E+03</pdfrwt>
<pdfrwt beam="1">  1       -2 0.17372793E-02 0.13344650E+03</pdfrwt>
<totfact> 0.15690390E+04</totfact>
</mgrwt>
</event>
<event>
 6    1  0.6526586E-006  0.2399091E+03  0.7546771E-02  0.1122437E+00
         -1   -1    0    0    0  501 -0.00000000000E+00  0.00000000000E+00  0.28573013066E+02  0.28573013066E+02  0.00000000000E+00 0.  1.
          1   -1    0    0  501    0  0.00000000000E+00 -0.00000000000E+00 -0.22179211709E+04  0.22179211709E+04  0.00000000000E+00 0. -1.
          5    1    1    2  502    0 -0.72570737115E+02 -0.75485487679E+02 -0.59090796075E+03  0.60013238440E+03  0.47000000000E+01 0.  1.
         -5    1    1    2    0  502  0.40811726506E+02 -0.12680703559E+03 -0.96519263552E+03  0.97435339326E+03  0.47000000000E+01 0.  1.
        -11    1    1    2    0    0 -0.32303976582E+02  0.84934739272E+02 -0.23794053949E+03  0.25470209495E+03  0.00000000000E+00 0. -1.
         11    1    1    2    0    0  0.64062987191E+02  0.11735778400E+03 -0.39530702206E+03  0.41730631133E+03  0.00000000000E+00 0.  1.
<mgrwt>
<rscale>  0 0.23607295E+03</rscale>
<asrwt>0</asrwt>
<pdfrwt beam="2">  1        1 0.34121856E+00 0.23990915E+03</pdfrwt>
<pdfrwt beam="1">  1       -1 0.43958493E-02 0.23990915E+03</pdfrwt>
<totfact> 0.52199380E+02</totfact>
</mgrwt>
</event>
<event>
 6    1  0.5258538E-006  0.1503609E+03  0.7546771E-02  0.1209232E+00
         -3   -1    0    0    0  501 -0.00000000000E+00  0.00000000000E+00  0.53816268674E+03  0.53816268674E+03  0.00000000000E+00 0.  1.
          3   -1    0    0  501    0  0.00000000000E+00 -0.00000000000E+00 -0.34794575966E+02  0.34794575966E+02  0.00000000000E+00 0. -1.
          5    1    1    2  502    0  0.93726980921E+02  0.13288265949E+02  0.10064564415E+03  0.13824963165E+03  0.47000000000E+01 0. -1.
         -5    1    1    2    0  502 -0.10624334038E+02 -0.58706803068E+01  0.17715554799E+03  0.17763310374E+03  0.47000000000E+01 0. -1.
        -11    1    1    2    0    0  0.10956818999E+02  0.19497158459E+02  0.22794296760E+02  0.31933854064E+02  0.00000000000E+00 0.  1.
         11    1    1    2    0    0 -0.94059465882E+02 -0.26914744102E+02  0.20277262188E+03  0.22514067326E+03  0.00000000000E+00 0. -1.
<mgrwt>
<rscale>  0 0.14308898E+03</rscale>
<asrwt>0</asrwt>
<pdfrwt beam="2">  1        3 0.53530121E-02 0.15036090E+03</pdfrwt>
<pdfrwt beam="1">  1       -3 0.82794254E-01 0.15036090E+03</pdfrwt>
<totfact> 0.66419782E+02</totfact>
</mgrwt>
</event>
<event>
 6    1  0.5258538E-006  0.1422318E+03  0.7546771E-02  0.1220521E+00
         -2   -1    0    0    0  501 -0.00000000000E+00  0.00000000000E+00  0.29242463418E+02  0.29242463418E+02  0.00000000000E+00 0. -1.
          2   -1    0    0  501    0  0.00000000000E+00 -0.00000000000E+00 -0.66136853397E+03  0.66136853397E+03  0.00000000000E+00 0.  1.
          5    1    1    2  502    0  0.16053276156E+02 -0.14511668550E+02 -0.41532342084E+03  0.41591336850E+03  0.47000000000E+01 0.  1.
         -5    1    1    2    0  502 -0.79302346760E+01 -0.52847076747E+02 -0.61197391228E+02  0.81381280623E+02  0.47000000000E+01 0.  1.
        -11    1    1    2    0    0 -0.41204904104E+02  0.65733921559E+02 -0.83560353077E+02  0.11402247661E+03  0.00000000000E+00 0. -1.
         11    1    1    2    0    0  0.33081862625E+02  0.16248237382E+01 -0.72044905409E+02  0.79293871656E+02  0.00000000000E+00 0.  1.
<mgrwt>
<rscale>  0 0.13478673E+03</rscale>
<asrwt>0</asrwt>
<pdfrwt beam="2">  1        2 0.10174901E+00 0.14223180E+03</pdfrwt>
<pdfrwt beam="1">  1       -2 0.44988404E-02 0.14223180E+03</pdfrwt>
<totfact> 0.99185308E+03</totfact>
</mgrwt>
</event>
<event>
 6    1  0.5258538E-006  0.1429873E+03  0.7546771E-02  0.1279195E+00
         -2   -1    0    0    0  501 -0.00000000000E+00  0.00000000000E+00  0.15103962812E+02  0.15103962812E+02  0.00000000000E+00 0.  1.
          2   -1    0    0  501    0  0.00000000000E+00 -0.00000000000E+00 -0.10336978498E+04  0.10336978498E+04  0.00000000000E+00 0. -1.
          5    1    1    2  502    0 -0.35626112112E+02 -0.26200525340E+02 -0.98670177955E+03  0.98770348747E+03  0.47000000000E+01 0. -1.
         -5    1    1    2    0  502  0.16354091398E+02 -0.21938020761E+01 -0.11424311700E+02  0.20612471245E+02  0.47000000000E+01 0.  1.
        -11    1    1    2    0    0  0.52809526265E+01  0.89888460426E+01 -0.29502017433E+01  0.10834735998E+02  0.00000000000E+00 0. -1.
         11    1    1    2    0    0  0.13991068088E+02  0.19405481373E+02 -0.17517594004E+02  0.29651117909E+02  0.00000000000E+00 0.  1.
<mgrwt>
<rscale>  0 0.10052542E+03</rscale>
<asrwt>0</asrwt>
<pdfrwt beam="2">  1        2 0.15903043E+00 0.14298734E+03</pdfrwt>
<pdfrwt beam="1">  1       -2 0.23236867E-02 0.14298734E+03</pdfrwt>
<totfact> 0.14919058E+04</totfact>
</mgrwt>
</event>
<event>
 6    1  0.5258538E-006  0.1808370E+03  0.7546771E-02  0.1172581E+00
          2   -1    0    0  501    0  0.00000000000E+00  0.00000000000E+00  0.25129595356E+04  0.25129595356E+04  0.00000000000E+00 0. -1.
         -2   -1    0    0    0  501 -0.00000000000E+00 -0.00000000000E+00 -0.24785253126E+02  0.24785253126E+02  0.00000000000E+00 0.  1.
          5    1    1    2  502    0  0.36860864801E+02  0.64260555932E+02  0.42721611038E+03  0.43361715530E+03  0.47000000000E+01 0.  1.
         -5    1    1    2    0  502  0.46795089893E+02  0.36212349397E+02  0.17818535164E+04  0.17828418771E+04  0.47000000000E+01 0.  1.
        -11    1    1    2    0    0 -0.64346552758E+02 -0.55165891938E+02  0.81312422368E+02  0.11745409536E+03  0.00000000000E+00 0.  1.
         11    1    1    2    0    0 -0.19309401936E+02 -0.45307013391E+02  0.19779223333E+03  0.20383166101E+03  0.00000000000E+00 0. -1.
<mgrwt>
<rscale>  0 0.17514972E+03</rscale>
<asrwt>0</asrwt>
<pdfrwt beam="1">  1        2 0.38660896E+00 0.18083702E+03</pdfrwt>
<pdfrwt beam="2">  1       -2 0.38131178E-02 0.18083702E+03</pdfrwt>
<totfact> 0.11829549E+03</totfact>
</mgrwt>
</event>
<event>
 6    1  0.5258538E-006  0.3559696E+03  0.7546771E-02  0.1060191E+00
         -2   -1    0    0    0  501 -0.00000000000E+00  0.00000000000E+00  0.22821572068E+02  0.22821572068E+02  0.00000000000E+00 0.  1.
          2   -1    0    0  501    0  0.00000000000E+00 -0.00000000000E+00 -0.13880985293E+04  0.13880985293E+04  0.00000000000E+00 0. -1.
          5    1    1    2  502    0 -0.68789397723E+02 -0.12722331089E+03 -0.83943177740E+03  0.85181309627E+03  0.47000000000E+01 0.  1.
         -5    1    1    2    0  502  0.14117936539E+02  0.31657483408E+01 -0.12047482390E+02  0.19405409725E+02  0.47000000000E+01 0.  1.
        -11    1    1    2    0    0  0.12972863246E+02  0.33529583580E+02 -0.33396264031E+02  0.49069732087E+02  0.00000000000E+00 0.  1.
         11    1    1    2    0    0  0.41698597939E+02  0.90527978969E+02 -0.48040143345E+03  0.49063186332E+03  0.00000000000E+00 0. -1.
<mgrwt>
<rscale>  0 0.35596961E+03</rscale>
<asrwt>0</asrwt>
<pdfrwt beam="2">  1        2 0.21355362E+00 0.35596961E+03</pdfrwt>
<pdfrwt beam="1">  1       -2 0.35110111E-02 0.35596961E+03</pdfrwt>
<totfact> 0.52654436E+03</totfact>
</mgrwt>
</event>
<event>
 6    1  0.5258538E-006  0.1277757E+03  0.7546771E-02  0.1244645E+00
         -1   -1    0    0    0  501 -0.00000000000E+00  0.00000000000E+00  0.33737919269E+02  0.33737919269E+02  0.00000000000E+00 0.  1.
          1   -1    0    0  501    0  0.00000000000E+00 -0.00000000000E+00 -0.45492568738E+03  0.45492568738E+03  0.00000000000E+00 0. -1.
          5    1    1    2  502    0 -0.57128928377E+02 -0.33777135216E+02 -0.28191195300E+03  0.28965677718E+03  0.47000000000E+01 0.  1.
         -5    1    1    2    0  502  0.42935602739E+02  0.11414473532E+02 -0.56198989144E+02  0.71792566255E+02  0.47000000000E+01 0.  1.
        -11    1    1    2    0    0 -0.76304226210E+00 -0.34807980667E+02 -0.45074270535E+02  0.56954961293E+02  0.00000000000E+00 0. -1.
         11    1    1    2    0    0  0.14956367900E+02  0.57170642351E+02 -0.38002555433E+02  0.70259301925E+02  0.00000000000E+00 0.  1.
<mgrwt>
<rscale>  0 0.11906650E+03</rscale>
<asrwt>0</asrwt>
<pdfrwt beam="2">  1        1 0.69988558E-01 0.12777566E+03</pdfrwt>
<pdfrwt beam="1">  1       -1 0.51904498E-02 0.12777566E+03</pdfrwt>
<totfact> 0.80974470E+03</totfact>
</mgrwt>
</event>
<event>
 6    1  0.5258538E-006  0.1789351E+03  0.7546771E-02  0.1173107E+00
          2   -1    0    0  501    0  0.00000000000E+00  0.00000000000E+00  0.81177817570E+02  0.81177817570E+02  0.00000000000E+00 0. -1.
         -2   -1    0    0    0  501 -0.00000000000E+00 -0.00000000000E+00 -0.56996259016E+03  0.56996259016E+03  0.00000000000E+00 0.  1.
          5    1    1    2  502    0  0.51305282971E+02 -0.37256836925E+02 -0.37852016649E+02  0.73994385752E+02  0.47000000000E+01 0.  1.
         -5    1    1    2    0  502  0.65037056980E+02  0.90714912077E+02 -0.15932148213E+02  0.11284917988E+03  0.47000000000E+01 0.  1.
        -11    1    1    2    0    0 -0.62787508732E+02 -0.59359166356E+02 -0.36957731786E+03  0.37954337797E+03  0.00000000000E+00 0.  1.
         11    1    1    2    0    0 -0.53554831218E+02  0.59010912045E+01 -0.65423289868E+02  0.84753464126E+02  0.00000000000E+00 0. -1.
<mgrwt>
<rscale>  0 0.17462689E+03</rscale>
<asrwt>0</asrwt>
<pdfrwt beam="1">  1        2 0.12488895E-01 0.17893513E+03</pdfrwt>
<pdfrwt beam="2">  1       -2 0.87686550E-01 0.17893513E+03</pdfrwt>
<totfact> 0.56034353E+02</totfact>
</mgrwt>
</event>
<event>
 6    1  0.5258538E-006  0.2808434E+03  0.7546771E-02  0.1095229E+00
          1   -1    0    0  501    0  0.00000000000E+00  0.00000000000E+00  0.40484168491E+03  0.40484168491E+03  0.00000000000E+00 0. -1.
         -1   -1    0    0    0  501 -0.00000000000E+00 -0.00000000000E+00 -0.48706091866E+02  0.48706091866E+02  0.00000000000E+00 0.  1.
          5    1    1    2  502    0  0.79940455255E+01  0.26648428945E+02  0.15712630046E+02  0.32295824375E+02  0.47000000000E+01 0. -1.
         -5    1    1    2    0  502 -0.37589326857E+02 -0.90413551124E+02  0.27317318573E+03  0.29022964549E+03  0.47000000000E+01 0. -1.
        -11    1    1    2    0    0 -0.26951695951E+02  0.32119143755E+02  0.69398737597E+01  0.42499354795E+02  0.00000000000E+00 0.  1.
         11    1    1    2    0    0  0.56546977282E+02  0.31645978424E+02  0.60309903507E+02  0.88522952115E+02  0.00000000000E+00 0. -1.
<mgrwt>
<rscale>  0 0.28084342E+03</rscale>
<asrwt>0</asrwt>
<pdfrwt beam="1">  1        1 0.62283334E-01 0.28084342E+03</pdfrwt>
<pdfrwt beam="2">  1       -1 0.74932452E-02 0.28084342E+03</pdfrwt>
<totfact> 0.56524397E+03</totfact>
</mgrwt>
</event>
<event>
 6    1  0.5258538E-006  0.2640431E+03  0.7546771E-02  0.1104738E+00
          2   -1    0    0  501    0  0.00000000000E+00  0.00000000000E+00  0.57475512832E+03  0.57475512832E+03  0.00000000000E+00 0.  1.
         -2   -1    0    0    0  501 -0.00000000000E+00 -0.00000000000E+00 -0.30325427834E+02  0.30325427834E+02  0.00000000000E+00 0. -1.
          5    1    1    2  502    0  0.64311331663E+02  0.11175923528E+02  0.36369930340E+03  0.36954041990E+03  0.47000000000E+01 0. -1.
         -5    1    1    2    0  502  0.60700367108E+01 -0.22170637443E+01 -0.96761810498E+01  0.12549071560E+02  0.47000000000E+01 0. -1.
        -11    1    1    2    0    0 -0.29860454200E+02 -0.34352636215E+02  0.27428102076E+02  0.53141802034E+02  0.00000000000E+00 0. -1.
         11    1    1    2    0    0 -0.40520914175E+02  0.25393776432E+02  0.16297847606E+03  0.16984926266E+03  0.00000000000E+00 0.  1.
<mgrwt>
<rscale>  0 0.26404314E+03</rscale>
<asrwt>0</asrwt>
<pdfrwt beam="1">  1        2 0.88423858E-01 0.26404314E+03</pdfrwt>
<pdfrwt beam="2">  1       -2 0.46654509E-02 0.26404314E+03</pdfrwt>
<totfact> 0.11461645E+04</totfact>
</mgrwt>
</event>
<event>
 6    1  0.5258538E-006  0.1288949E+03  0.7546771E-02  0.1242469E+00
          1   -1    0    0  501    0  0.00000000000E+00  0.00000000000E+00  0.82408821322E+03  0.82408821322E+03  0.00000000000E+00 0. -1.
         -1   -1    0    0    0  501 -0.00000000000E+00 -0.00000000000E+00 -0.15664588123E+02  0.15664588123E+02  0.00000000000E+00 0.  1.
          5    1    1    2  502    0 -0.32031910700E+02  0.14367988518E+02  0.35104340031E+02  0.49868698461E+02  0.47000000000E+01 0.  1.
         -5    1    1    2    0  502  0.16247379489E+02 -0.41589611694E+02  0.44424059821E+03  0.44650360831E+03  0.47000000000E+01 0.  1.
        -11    1    1    2    0    0  0.49334656240E+02  0.24829264120E+02  0.12654114774E+03  0.13806905060E+03  0.00000000000E+00 0.  1.
         11    1    1    2    0    0 -0.33550125029E+02  0.23923590562E+01  0.20253753912E+03  0.20531144397E+03  0.00000000000E+00 0. -1.
<mgrwt>
<rscale>  0 0.12038127E+03</rscale>
<asrwt>0</asrwt>
<pdfrwt beam="1">  1        1 0.12678277E+00 0.12889491E+03</pdfrwt>
<pdfrwt beam="2">  1       -1 0.24099373E-02 0.12889491E+03</pdfrwt>
<totfact> 0.10964344E+04</totfact>
</mgrwt>
</event>
<event>
 6    1  0.5258538E-006  0.1462641E+03  0.7546771E-02  0.1215660E+00
         -1   -1    0    0    0  501 -0.00000000000E+00  0.00000000000E+00  0.97030838745E+02  0.97030838745E+02  0.00000000000E+00 0.  1.
          1   -1    0    0  501    0  0.00000000000E+00 -0.00000000000E+00 -0.19252262595E+03  0.19252262595E+03  0.00000000000E+00 0. -1.
          5    1    1    2  502    0  0.28575188757E+02 -0.24088067798E+02 -0.91531552593E+02  0.98979248041E+02  0.47000000000E+01 0. -1.
         -5    1    1    2    0  502  0.35995692361E+02  0.64093075859E+02 -0.17978803649E+00  0.73659585699E+02  0.47000000000E+01 0. -1.
        -11    1    1    2    0    0 -0.87156842525E+02 -0.30561377784E+02 -0.36988677556E+01  0.92433731039E+02  0.00000000000E+00 0.  1.
         11    1    1    2    0    0  0.22585961407E+02 -0.94436302772E+01 -0.81578817940E-01  0.24480899914E+02  0.00000000000E+00 0. -1.
<mgrwt>
<rscale>  0 0.13828141E+03</rscale>
<asrwt>0</asrwt>
<pdfrwt beam="2">  1        1 0.29618865E-01 0.14626413E+03</pdfrwt>
<pdfrwt beam="1">  1       -1 0.14927822E-01 0.14626413E+03</pdfrwt>
<totfact> 0.47943035E+03</totfact>
</mgrwt>
</event>
<event>
 6    1  0.5258538E-006  0.1277205E+03  0.7546771E-02  0.1244929E+00
         -1   -1    0    0    0  501 -0.00000000000E+00  0.00000000000E+00  0.67797980858E+02  0.67797980858E+02  0.00000000000E+00 0.  1.
          1   -1    0    0  501    0  0.00000000000E+00 -0.00000000000E+00 -0.24310555198E+03  0.24310555198E+03  0.00000000000E+00 0. -1.
          5    1    1    2  502    0  0.44140001287E+02  0.18214282415E+02 -0.13592498020E+03  0.14414503127E+03  0.47000000000E+01 0. -1.
         -5    1    1    2    0  502 -0.40840734866E+02 -0.44240561094E+02 -0.36973938023E+02  0.70812110287E+02  0.47000000000E+01 0. -1.
        -11    1    1    2    0    0 -0.35471962053E+02  0.18344394653E+01  0.28220190855E+02  0.45365233736E+02  0.00000000000E+00 0.  1.
         11    1    1    2    0    0  0.32172695632E+02  0.24191839214E+02 -0.30628843750E+02  0.50581157541E+02  0.00000000000E+00 0. -1.
<mgrwt>
<rscale>  0 0.11889634E+03</rscale>
<asrwt>0</asrwt>
<pdfrwt beam="2">  1        1 0.37400854E-01 0.12772054E+03</pdfrwt>
<pdfrwt beam="1">  1       -1 0.10430459E-01 0.12772054E+03</pdfrwt>
<totfact> 0.61997986E+03</totfact>
</mgrwt>
</event>
<event>
 6    1  0.5258538E-006  0.1684337E+03  0.7546771E-02  0.1186161E+00
          2   -1    0    0  501    0  0.00000000000E+00  0.00000000000E+00  0.10327040198E+04  0.10327040198E+04  0.00000000000E+00 0. -1.
         -2   -1    0    0    0  501 -0.00000000000E+00 -0.00000000000E+00 -0.30996374800E+02  0.30996374800E+02  0.00000000000E+00 0.  1.
          5    1    1    2  502    0  0.13459356519E+03 -0.42861157810E+00  0.74015532223E+03  0.75230818321E+03  0.47000000000E+01 0. -1.
         -5    1    1    2    0  502 -0.21880708290E+02  0.68397673988E+01  0.45119762496E+02  0.50827460895E+02  0.47000000000E+01 0. -1.
        -11    1    1    2    0    0  0.12393826257E+02 -0.14134248062E+02  0.19183649438E+02  0.26858821704E+02  0.00000000000E+00 0.  1.
         11    1    1    2    0    0 -0.12510668315E+03  0.77230922417E+01  0.19724891080E+03  0.23370592875E+03  0.00000000000E+00 0. -1.
<mgrwt>
<rscale>  0 0.16226716E+03</rscale>
<asrwt>0</asrwt>
<pdfrwt beam="1">  1        2 0.15887751E+00 0.16843368E+03</pdfrwt>
<pdfrwt beam="2">  1       -2 0.47686738E-02 0.16843368E+03</pdfrwt>
<totfact> 0.51920038E+03</totfact>
</mgrwt>
</event>
<event>
 6    1  0.5258538E-006  0.2489091E+03  0.7546771E-02  0.1113996E+00
         -1   -1    0    0    0  501 -0.00000000000E+00  0.00000000000E+00  0.21330295235E+02  0.21330295235E+02  0.00000000000E+00 0.  1.
          1   -1    0    0  501    0  0.00000000000E+00 -0.00000000000E+00 -0.72614700623E+03  0.72614700623E+03  0.00000000000E+00 0. -1.
          5    1    1    2  502    0  0.21709291303E+01 -0.28544288352E+02 -0.29001252099E+02  0.41020140835E+02  0.47000000000E+01 0.  1.
         -5    1    1    2    0  502  0.26717135435E+02  0.74052311881E+02 -0.45407040058E+03  0.46086827717E+03  0.47000000000E+01 0.  1.
        -11    1    1    2    0    0 -0.49377105439E+02 -0.80545582199E+01 -0.59091139183E+02  0.77425688112E+02  0.00000000000E+00 0.  1.
         11    1    1    2    0    0  0.20489040873E+02 -0.37453465309E+02 -0.16265391913E+03  0.16816319535E+03  0.00000000000E+00 0. -1.
<mgrwt>
<rscale>  0 0.24890906E+03</rscale>
<asrwt>0</asrwt>
<pdfrwt beam="2">  1        1 0.11171493E+00 0.24890906E+03</pdfrwt>
<pdfrwt beam="1">  1       -1 0.32815837E-02 0.24890906E+03</pdfrwt>
<totfact> 0.87541338E+03</totfact>
</mgrwt>
</event>
<event>
 6    1  0.5258538E-006  0.1511329E+03  0.7546771E-02  0.1219478E+00
          2   -1    0    0  501    0  0.00000000000E+00  0.00000000000E+00  0.25523021713E+03  0.25523021713E+03  0.00000000000E+00 0. -1.
         -2   -1    0    0    0  501 -0.00000000000E+00 -0.00000000000E+00 -0.73036171977E+02  0.73036171977E+02  0.00000000000E+00 0.  1.
          5    1    1    2  502    0  0.12414609244E+02  0.61110173447E+02  0.10275719613E+03  0.12029009593E+03  0.47000000000E+01 0. -1.
         -5    1    1    2    0  502  0.87063706484E+01 -0.83406214793E+02  0.70828557199E+02  0.10986888582E+03  0.47000000000E+01 0.  1.
        -11    1    1    2    0    0  0.32888202513E+02 -0.98994170298E+01  0.78224598219E+01  0.35225320435E+02  0.00000000000E+00 0. -1.
         11    1    1    2    0    0 -0.54009182406E+02  0.32195458375E+02  0.78583199794E+00  0.62882086925E+02  0.00000000000E+00 0.  1.
<mgrwt>
<rscale>  0 0.13552676E+03</rscale>
<asrwt>0</asrwt>
<pdfrwt beam="1">  1        2 0.39266187E-01 0.15113287E+03</pdfrwt>
<pdfrwt beam="2">  1       -2 0.11236334E-01 0.15113287E+03</pdfrwt>
<totfact> 0.68741558E+03</totfact>
</mgrwt>
</event>
<event>
 6    1  0.5258538E-006  0.1694944E+03  0.7546771E-02  0.1194745E+00
          1   -1    0    0  501    0  0.00000000000E+00  0.00000000000E+00  0.43566199384E+03  0.43566199384E+03  0.00000000000E+00 0. -1.
         -1   -1    0    0    0  501 -0.00000000000E+00 -0.00000000000E+00 -0.48327743870E+02  0.48327743870E+02  0.00000000000E+00 0.  1.
          5    1    1    2  502    0 -0.10359272209E+03 -0.53234793994E+02  0.19024364265E+03  0.22311460940E+03  0.47000000000E+01 0. -1.
         -5    1    1    2    0  502  0.52270802626E+02  0.14334671886E+01  0.71194652819E+02  0.88459370478E+02  0.47000000000E+01 0.  1.
        -11    1    1    2    0    0  0.63043450542E+02  0.42359817715E+01  0.96308630839E+02  0.11518581758E+03  0.00000000000E+00 0.  1.
         11    1    1    2    0    0 -0.11721531081E+02  0.47565345034E+02  0.29587323660E+02  0.57229940245E+02  0.00000000000E+00 0. -1.
<mgrwt>
<rscale>  0 0.15475871E+03</rscale>
<asrwt>0</asrwt>
<pdfrwt beam="1">  1        1 0.67024919E-01 0.16949443E+03</pdfrwt>
<pdfrwt beam="2">  1       -1 0.74350378E-02 0.16949443E+03</pdfrwt>
<totfact> 0.50843274E+03</totfact>
</mgrwt>
</event>
<event>
 6    1  0.5258538E-006  0.1547257E+03  0.7546771E-02  0.1202424E+00
         -1   -1    0    0    0  501 -0.00000000000E+00  0.00000000000E+00  0.71345053904E+02  0.71345053904E+02  0.00000000000E+00 0.  1.
          1   -1    0    0  501    0  0.00000000000E+00 -0.00000000000E+00 -0.33894283804E+03  0.33894283804E+03  0.00000000000E+00 0. -1.
          5    1    1    2  502    0  0.12628357855E+02 -0.22889822660E+02 -0.99406432974E+02  0.10289386921E+03  0.47000000000E+01 0.  1.
         -5    1    1    2    0  502 -0.11044238683E+02  0.11405879244E+03 -0.12452660269E+03  0.16929367418E+03  0.47000000000E+01 0.  1.
        -11    1    1    2    0    0  0.14895211004E+02 -0.10459396117E+03 -0.48581067866E+02  0.11628363677E+03  0.00000000000E+00 0. -1.
         11    1    1    2    0    0 -0.16479330175E+02  0.13424991394E+02  0.49163193932E+01  0.21816711790E+02  0.00000000000E+00 0.  1.
<mgrwt>
<rscale>  0 0.14842351E+03</rscale>
<asrwt>0</asrwt>
<pdfrwt beam="2">  1        1 0.52145051E-01 0.15472574E+03</pdfrwt>
<pdfrwt beam="1">  1       -1 0.10976162E-01 0.15472574E+03</pdfrwt>
<totfact> 0.38391682E+03</totfact>
</mgrwt>
</event>
<event>
 6    1  0.5258538E-006  0.1646768E+03  0.7546771E-02  0.1190551E+00
          1   -1    0    0  501    0  0.00000000000E+00  0.00000000000E+00  0.14456343723E+04  0.14456343723E+04  0.00000000000E+00 0. -1.
         -1   -1    0    0    0  501 -0.00000000000E+00 -0.00000000000E+00 -0.20157635640E+02  0.20157635640E+02  0.00000000000E+00 0.  1.
          5    1    1    2  502    0 -0.10671543601E+03 -0.36238593907E+02  0.70274891095E+03  0.71174401425E+03  0.47000000000E+01 0. -1.
         -5    1    1    2    0  502  0.31576242485E+02 -0.40227138928E+02  0.38073552737E+03  0.38418343743E+03  0.47000000000E+01 0. -1.
        -11    1    1    2    0    0  0.44368195628E+01 -0.20211402353E+02  0.60876604158E+02  0.64297333434E+02  0.00000000000E+00 0.  1.
         11    1    1    2    0    0  0.70702373963E+02  0.96677135188E+02  0.28111569418E+03  0.30556722283E+03  0.00000000000E+00 0. -1.
<mgrwt>
<rscale>  0 0.15836891E+03</rscale>
<asrwt>0</asrwt>
<pdfrwt beam="1">  1        1 0.22240521E+00 0.16467681E+03</pdfrwt>
<pdfrwt beam="2">  1       -1 0.31011758E-02 0.16467681E+03</pdfrwt>
<totfact> 0.27806236E+03</totfact>
</mgrwt>
</event>
<event>
 6    1  0.5258538E-006  0.1283444E+03  0.7546771E-02  0.1244567E+00
         -2   -1    0    0    0  501 -0.00000000000E+00  0.00000000000E+00  0.60358019239E+02  0.60358019239E+02  0.00000000000E+00 0.  1.
          2   -1    0    0  501    0  0.00000000000E+00 -0.00000000000E+00 -0.20702387507E+03  0.20702387507E+03  0.00000000000E+00 0. -1.
          5    1    1    2  502    0  0.23794737366E+02  0.20199441391E+02 -0.11006168609E+03  0.11449834804E+03  0.47000000000E+01 0.  1.
         -5    1    1    2    0  502  0.45801579587E+01 -0.26659155076E+02  0.26897334700E+02  0.38434945170E+02  0.47000000000E+01 0.  1.
        -11    1    1    2    0    0  0.53561757504E+01 -0.26903774864E+02 -0.61063629347E+02  0.66942277745E+02  0.00000000000E+00 0. -1.
         11    1    1    2    0    0 -0.33731071075E+02  0.33363488549E+02 -0.24378750978E+01  0.47506323358E+02  0.00000000000E+00 0.  1.
<mgrwt>
<rscale>  0 0.11911320E+03</rscale>
<asrwt>0</asrwt>
<pdfrwt beam="2">  1        2 0.31849827E-01 0.12834439E+03</pdfrwt>
<pdfrwt beam="1">  1       -2 0.92858492E-02 0.12834439E+03</pdfrwt>
<totfact> 0.11478596E+04</totfact>
</mgrwt>
</event>
<event>
 6    1  0.5258538E-006  0.1394791E+03  0.7546771E-02  0.1225110E+00
         -1   -1    0    0    0  501 -0.00000000000E+00  0.00000000000E+00  0.16463837529E+02  0.16463837529E+02  0.00000000000E+00 0.  1.
          1   -1    0    0  501    0  0.00000000000E+00 -0.00000000000E+00 -0.10714642106E+04  0.10714642106E+04  0.00000000000E+00 0. -1.
          5    1    1    2  502    0 -0.61364118174E+02 -0.42817379604E+02 -0.26505468728E+03  0.27545409825E+03  0.47000000000E+01 0.  1.
         -5    1    1    2    0  502  0.43900203930E+02 -0.16546408859E+02 -0.49939623111E+03  0.50161708225E+03  0.47000000000E+01 0.  1.
        -11    1    1    2    0    0 -0.35694103627E+02  0.20717742106E+02 -0.76204980161E+02  0.86663099835E+02  0.00000000000E+00 0.  1.
         11    1    1    2    0    0  0.53158017870E+02  0.38646046358E+02 -0.21434447454E+03  0.22419376782E+03  0.00000000000E+00 0. -1.
<mgrwt>
<rscale>  0 0.13159356E+03</rscale>
<asrwt>0</asrwt>
<pdfrwt beam="2">  1        1 0.16484071E+00 0.13947908E+03</pdfrwt>
<pdfrwt beam="1">  1       -1 0.25328972E-02 0.13947908E+03</pdfrwt>
<totfact> 0.66762362E+03</totfact>
</mgrwt>
</event>
<event>
 6    1  0.5258538E-006  0.1698701E+03  0.7546771E-02  0.1184603E+00
         -2   -1    0    0    0  501 -0.00000000000E+00  0.00000000000E+00  0.40259629563E+02  0.40259629563E+02  0.00000000000E+00 0.  1.
          2   -1    0    0  501    0  0.00000000000E+00 -0.00000000000E+00 -0.74011927807E+03  0.74011927807E+03  0.00000000000E+00 0. -1.
          5    1    1    2  502    0 -0.21209081449E+02 -0.73217527349E+02 -0.49560038242E+03  0.50145035697E+03  0.47000000000E+01 0.  1.
         -5    1    1    2    0  502  0.79477635088E+01 -0.41040767927E+02 -0.32093654223E+02  0.52911286303E+02  0.47000000000E+01 0.  1.
        -11    1    1    2    0    0  0.44956846506E+02  0.28349869140E+02 -0.47118338322E+02  0.71027958821E+02  0.00000000000E+00 0.  1.
         11    1    1    2    0    0 -0.31695528566E+02  0.85908426136E+02 -0.12504727354E+03  0.15498930554E+03  0.00000000000E+00 0. -1.
<mgrwt>
<rscale>  0 0.16368083E+03</rscale>
<asrwt>0</asrwt>
<pdfrwt beam="2">  1        2 0.11386450E+00 0.16987005E+03</pdfrwt>
<pdfrwt beam="1">  1       -2 0.61937894E-02 0.16987005E+03</pdfrwt>
<totfact> 0.53993918E+03</totfact>
</mgrwt>
</event>
<event>
 6    1  0.5258538E-006  0.4185896E+03  0.7546771E-02  0.1038286E+00
          1   -1    0    0  501    0  0.00000000000E+00  0.00000000000E+00  0.69736766261E+03  0.69736766261E+03  0.00000000000E+00 0. -1.
         -1   -1    0    0    0  501 -0.00000000000E+00 -0.00000000000E+00 -0.29374966112E+03  0.29374966112E+03  0.00000000000E+00 0.  1.
          5    1    1    2  502    0  0.16137043961E+02  0.16934987652E+02  0.84316931125E+01  0.25305759094E+02  0.47000000000E+01 0. -1.
         -5    1    1    2    0  502 -0.18097843333E+03  0.34696074280E+03  0.39551621503E+03  0.55640822848E+03  0.47000000000E+01 0. -1.
        -11    1    1    2    0    0  0.60458871964E+02 -0.16795624697E+03  0.42033479134E+02  0.18338862959E+03  0.00000000000E+00 0. -1.
         11    1    1    2    0    0  0.10438251740E+03 -0.19593948348E+03 -0.42363385783E+02  0.22601470656E+03  0.00000000000E+00 0.  1.
<mgrwt>
<rscale>  0 0.41627385E+03</rscale>
<asrwt>0</asrwt>
<pdfrwt beam="1">  1        1 0.10728733E+00 0.41858960E+03</pdfrwt>
<pdfrwt beam="2">  1       -1 0.45192256E-01 0.41858960E+03</pdfrwt>
<totfact> 0.13913628E+02</totfact>
</mgrwt>
</event>
<event>
 6    1  0.5258538E-006  0.1259322E+03  0.7546771E-02  0.1249314E+00
         -2   -1    0    0    0  501 -0.00000000000E+00  0.00000000000E+00  0.75453475349E+01  0.75453475349E+01  0.00000000000E+00 0.  1.
          2   -1    0    0  501    0  0.00000000000E+00 -0.00000000000E+00 -0.19068385465E+04  0.19068385465E+04  0.00000000000E+00 0. -1.
          5    1    1    2  502    0 -0.41073104764E+02  0.35050795904E+02 -0.35488639035E+03  0.35900139036E+03  0.47000000000E+01 0.  1.
         -5    1    1    2    0  502  0.29009452384E+02 -0.44246958612E+02 -0.11170865066E+04  0.11183486464E+04  0.47000000000E+01 0.  1.
        -11    1    1    2    0    0 -0.20872605798E+02 -0.31788098459E+02 -0.21225248887E+03  0.21563225154E+03  0.00000000000E+00 0.  1.
         11    1    1    2    0    0  0.32936258179E+02  0.40984261167E+02 -0.21506781321E+03  0.22140160579E+03  0.00000000000E+00 0. -1.
<mgrwt>
<rscale>  0 0.11630848E+03</rscale>
<asrwt>0</asrwt>
<pdfrwt beam="2">  1        2 0.29335968E+00 0.12593221E+03</pdfrwt>
<pdfrwt beam="1">  1       -2 0.11608231E-02 0.12593221E+03</pdfrwt>
<totfact> 0.13886316E+04</totfact>
</mgrwt>
</event>
<event>
 6    1  0.5258538E-006  0.1278303E+03  0.7546771E-02  0.1244780E+00
          1   -1    0    0  501    0  0.00000000000E+00  0.00000000000E+00  0.92549476673E+03  0.92549476673E+03  0.00000000000E+00 0. -1.
         -1   -1    0    0    0  501 -0.00000000000E+00 -0.00000000000E+00 -0.17735660673E+02  0.17735660673E+02  0.00000000000E+00 0.  1.
          5    1    1    2  502    0 -0.20259397711E+01 -0.16795597255E+02  0.72688473315E+03  0.72709676234E+03  0.47000000000E+01 0. -1.
         -5    1    1    2    0  502 -0.12489432925E+02 -0.56879818262E+01  0.42319274050E+01  0.15110866342E+02  0.47000000000E+01 0. -1.
        -11    1    1    2    0    0 -0.13593860514E+02  0.76403174744E+01 -0.51883945788E+01  0.16434321802E+02  0.00000000000E+00 0.  1.
         11    1    1    2    0    0  0.28109233210E+02  0.14843261607E+02  0.18183084008E+03  0.18458847692E+03  0.00000000000E+00 0. -1.
<mgrwt>
<rscale>  0 0.11898544E+03</rscale>
<asrwt>0</asrwt>
<pdfrwt beam="1">  1        1 0.14238377E+00 0.12783033E+03</pdfrwt>
<pdfrwt beam="2">  1       -1 0.27285639E-02 0.12783033E+03</pdfrwt>
<totfact> 0.76337137E+03</totfact>
</mgrwt>
</event>
<event>
 6    1  0.5258538E-006  0.1464550E+03  0.7546771E-02  0.1214584E+00
          1   -1    0    0  501    0  0.00000000000E+00  0.00000000000E+00  0.40360716912E+02  0.40360716912E+02  0.00000000000E+00 0. -1.
         -1   -1    0    0    0  501 -0.00000000000E+00 -0.00000000000E+00 -0.46409468678E+03  0.46409468678E+03  0.00000000000E+00 0.  1.
          5    1    1    2  502    0 -0.41616115037E+02  0.48319089026E+02 -0.26992227096E+03  0.27739278606E+03  0.47000000000E+01 0. -1.
         -5    1    1    2    0  502 -0.32544951989E+02 -0.30307879539E+02 -0.23428644081E+02  0.50484976236E+02  0.47000000000E+01 0. -1.
        -11    1    1    2    0    0  0.32621344873E+02 -0.39327714745E+02 -0.11752130438E+03  0.12814865692E+03  0.00000000000E+00 0.  1.
         11    1    1    2    0    0  0.41539722153E+02  0.21316505258E+02 -0.12861750451E+02  0.48428984479E+02  0.00000000000E+00 0. -1.
<mgrwt>
<rscale>  0 0.13907126E+03</rscale>
<asrwt>0</asrwt>
<pdfrwt beam="1">  1        1 0.62093408E-02 0.14645500E+03</pdfrwt>
<pdfrwt beam="2">  1       -1 0.71399186E-01 0.14645500E+03</pdfrwt>
<totfact> 0.24657446E+03</totfact>
</mgrwt>
</event>
<event>
 6    1  0.5258538E-006  0.1357301E+03  0.7546771E-02  0.1229152E+00
          2   -1    0    0  501    0  0.00000000000E+00  0.00000000000E+00  0.14806952670E+04  0.14806952670E+04  0.00000000000E+00 0. -1.
         -2   -1    0    0    0  501 -0.00000000000E+00 -0.00000000000E+00 -0.10666666864E+02  0.10666666864E+02  0.00000000000E+00 0.  1.
          5    1    1    2  502    0 -0.16689934545E+02  0.72876551019E+02  0.92469662735E+03  0.92772597691E+03  0.47000000000E+01 0.  1.
         -5    1    1    2    0  502  0.36573899803E+01 -0.21603479009E+02  0.35258548400E+02  0.41777290985E+02  0.47000000000E+01 0.  1.
        -11    1    1    2    0    0  0.47695888202E+02 -0.57723806328E+02  0.33421378459E+03  0.34249932756E+03  0.00000000000E+00 0.  1.
         11    1    1    2    0    0 -0.34663343637E+02  0.64507343186E+01  0.17585963981E+03  0.17935933842E+03  0.00000000000E+00 0. -1.
<mgrwt>
<rscale>  0 0.12886373E+03</rscale>
<asrwt>0</asrwt>
<pdfrwt beam="1">  1        2 0.22779911E+00 0.13573005E+03</pdfrwt>
<pdfrwt beam="2">  1       -2 0.16410268E-02 0.13573005E+03</pdfrwt>
<totfact> 0.14011392E+04</totfact>
</mgrwt>
</event>
<event>
 6    1  0.5258538E-006  0.1490389E+03  0.7546771E-02  0.1211094E+00
          1   -1    0    0  501    0  0.00000000000E+00  0.00000000000E+00  0.93041478329E+03  0.93041478329E+03  0.00000000000E+00 0. -1.
         -1   -1    0    0    0  501 -0.00000000000E+00 -0.00000000000E+00 -0.20550916131E+02  0.20550916131E+02  0.00000000000E+00 0.  1.
          5    1    1    2  502    0 -0.25396535479E+02 -0.19214503629E+02  0.38320204036E+02  0.50047069858E+02  0.47000000000E+01 0.  1.
         -5    1    1    2    0  502  0.72062665554E+02 -0.47193799859E+02  0.55724588146E+03  0.56388415913E+03  0.47000000000E+01 0.  1.
        -11    1    1    2    0    0 -0.63480110946E+02  0.23167958595E+02  0.12459167861E+03  0.14173766320E+03  0.00000000000E+00 0.  1.
         11    1    1    2    0    0  0.16813980871E+02  0.43240344893E+02  0.18970610305E+03  0.19529680723E+03  0.00000000000E+00 0. -1.
<mgrwt>
<rscale>  0 0.14167426E+03</rscale>
<asrwt>0</asrwt>
<pdfrwt beam="1">  1        1 0.14314070E+00 0.14903889E+03</pdfrwt>
<pdfrwt beam="2">  1       -1 0.31616801E-02 0.14903889E+03</pdfrwt>
<totfact> 0.61534863E+03</totfact>
</mgrwt>
</event>
<event>
 6    1  0.5258538E-006  0.1296962E+03  0.7546771E-02  0.1242043E+00
          2   -1    0    0  501    0  0.00000000000E+00  0.00000000000E+00  0.16225600828E+04  0.16225600828E+04  0.00000000000E+00 0. -1.
         -2   -1    0    0    0  501 -0.00000000000E+00 -0.00000000000E+00 -0.16143969799E+02  0.16143969799E+02  0.00000000000E+00 0.  1.
          5    1    1    2  502    0  0.14072944809E+02  0.36821558870E+02  0.10692857844E+04  0.10700224548E+04  0.47000000000E+01 0.  1.
         -5    1    1    2    0  502  0.11070295409E+02 -0.60562114181E+02  0.37225165550E+03  0.37733765534E+03  0.47000000000E+01 0.  1.
        -11    1    1    2    0    0 -0.57666978766E+02  0.16117037831E+01  0.94495922245E+02  0.11071385347E+03  0.00000000000E+00 0.  1.
         11    1    1    2    0    0  0.32523738549E+02  0.22128851528E+02  0.70382750867E+02  0.80630089041E+02  0.00000000000E+00 0. -1.
<mgrwt>
<rscale>  0 0.12064105E+03</rscale>
<asrwt>0</asrwt>
<pdfrwt beam="1">  1        2 0.24962450E+00 0.12969617E+03</pdfrwt>
<pdfrwt beam="2">  1       -2 0.24836889E-02 0.12969617E+03</pdfrwt>
<totfact> 0.64717827E+03</totfact>
</mgrwt>
</event>
<event>
 6    1  0.5258538E-006  0.1466807E+03  0.7546771E-02  0.1215325E+00
         -1   -1    0    0    0  501 -0.00000000000E+00  0.00000000000E+00  0.55039665770E+02  0.55039665770E+02  0.00000000000E+00 0.  1.
          1   -1    0    0  501    0  0.00000000000E+00 -0.00000000000E+00 -0.32268319081E+03  0.32268319081E+03  0.00000000000E+00 0. -1.
          5    1    1    2  502    0 -0.35540683544E+01 -0.48998684741E+02 -0.19162128388E+03  0.19787447774E+03  0.47000000000E+01 0. -1.
         -5    1    1    2    0  502 -0.12256669849E+02 -0.26116495284E+02  0.14060854992E+02  0.32436012776E+02  0.47000000000E+01 0. -1.
        -11    1    1    2    0    0 -0.68381529726E+01  0.70687231351E+02 -0.20224889786E+02  0.73840985767E+02  0.00000000000E+00 0.  1.
         11    1    1    2    0    0  0.22648891176E+02  0.44279486736E+01 -0.69858206367E+02  0.73571380290E+02  0.00000000000E+00 0. -1.
<mgrwt>
<rscale>  0 0.13852674E+03</rscale>
<asrwt>0</asrwt>
<pdfrwt beam="2">  1        1 0.49643569E-01 0.14668066E+03</pdfrwt>
<pdfrwt beam="1">  1       -1 0.84676407E-02 0.14668066E+03</pdfrwt>
<totfact> 0.60496138E+03</totfact>
</mgrwt>
</event>
<event>
 6    1  0.5258538E-006  0.2685624E+03  0.7546771E-02  0.1102105E+00
         -2   -1    0    0    0  501 -0.00000000000E+00  0.00000000000E+00  0.49007896897E+02  0.49007896897E+02  0.00000000000E+00 0.  1.
          2   -1    0    0  501    0  0.00000000000E+00 -0.00000000000E+00 -0.36792927972E+03  0.36792927972E+03  0.00000000000E+00 0. -1.
          5    1    1    2  502    0  0.25633182739E+02  0.61809158077E+01  0.92417463961E-01  0.26783620340E+02  0.47000000000E+01 0. -1.
         -5    1    1    2    0  502 -0.64154543462E+02 -0.73188457682E+02 -0.18815292868E+03  0.21188669226E+03  0.47000000000E+01 0. -1.
        -11    1    1    2    0    0  0.65598553344E+02  0.26799372528E+02 -0.62650307729E+02  0.94585610043E+02  0.00000000000E+00 0. -1.
         11    1    1    2    0    0 -0.27077192621E+02  0.40208169347E+02 -0.68210563873E+02  0.83681253972E+02  0.00000000000E+00 0.  1.
<mgrwt>
<rscale>  0 0.26856240E+03</rscale>
<asrwt>0</asrwt>
<pdfrwt beam="2">  1        2 0.56604503E-01 0.26856240E+03</pdfrwt>
<pdfrwt beam="1">  1       -2 0.75396767E-02 0.26856240E+03</pdfrwt>
<totfact> 0.90034981E+03</totfact>
</mgrwt>
</event>
<event>
 6    1  0.5258538E-006  0.3042853E+03  0.7546771E-02  0.1083118E+00
          1   -1    0    0  501    0  0.00000000000E+00  0.00000000000E+00  0.61795573767E+03  0.61795573767E+03  0.00000000000E+00 0. -1.
         -1   -1    0    0    0  501 -0.00000000000E+00 -0.00000000000E+00 -0.37457992548E+02  0.37457992548E+02  0.00000000000E+00 0.  1.
          5    1    1    2  502    0 -0.16024308423E+02 -0.70456185189E+01  0.21281196933E+03  0.21358240445E+03  0.47000000000E+01 0.  1.
         -5    1    1    2    0  502  0.25968486724E+02  0.10533481962E+03  0.17866747290E+03  0.20907879472E+03  0.47000000000E+01 0.  1.
        -11    1    1    2    0    0 -0.49668919764E+02 -0.74404324940E+02  0.12371200189E+03  0.15266847930E+03  0.00000000000E+00 0. -1.
         11    1    1    2    0    0  0.39724741463E+02 -0.23884876166E+02  0.65306300998E+02  0.80084051745E+02  0.00000000000E+00 0.  1.
<mgrwt>
<rscale>  0 0.30428527E+03</rscale>
<asrwt>0</asrwt>
<pdfrwt beam="1">  1        1 0.95070106E-01 0.30428527E+03</pdfrwt>
<pdfrwt beam="2">  1       -1 0.57627685E-02 0.30428527E+03</pdfrwt>
<totfact> 0.47927542E+03</totfact>
</mgrwt>
</event>
<event>
 6    1  0.5258538E-006  0.1591951E+03  0.7546771E-02  0.1198532E+00
          2   -1    0    0  501    0  0.00000000000E+00  0.00000000000E+00  0.45715062402E+03  0.45715062402E+03  0.00000000000E+00 0.  1.
         -2   -1    0    0    0  501 -0.00000000000E+00 -0.00000000000E+00 -0.54710035123E+02  0.54710035123E+02  0.00000000000E+00 0. -1.
          5    1    1    2  502    0  0.65391761071E+02 -0.21052847386E+02  0.77193275475E+02  0.10344175452E+03  0.47000000000E+01 0.  1.
         -5    1    1    2    0  502 -0.26558849714E+02 -0.69559909108E+02  0.24214325192E+03  0.25337600104E+03  0.47000000000E+01 0.  1.
        -11    1    1    2    0    0 -0.54579216468E+02  0.60508133584E+02  0.88880422316E+02  0.12058131933E+03  0.00000000000E+00 0.  1.
         11    1    1    2    0    0  0.15746305111E+02  0.30104622909E+02 -0.57763608134E+01  0.34461584256E+02  0.00000000000E+00 0. -1.
<mgrwt>
<rscale>  0 0.15159100E+03</rscale>
<asrwt>0</asrwt>
<pdfrwt beam="1">  1        2 0.70330863E-01 0.15919514E+03</pdfrwt>
<pdfrwt beam="2">  1       -2 0.84169288E-02 0.15919514E+03</pdfrwt>
<totfact> 0.58226007E+03</totfact>
</mgrwt>
</event>
<event>
 6    1  0.5258538E-006  0.1422725E+03  0.7546771E-02  0.1221106E+00
         -2   -1    0    0    0  501 -0.00000000000E+00  0.00000000000E+00  0.31679475320E+02  0.31679475320E+02  0.00000000000E+00 0.  1.
          2   -1    0    0  501    0  0.00000000000E+00 -0.00000000000E+00 -0.52185489239E+03  0.52185489239E+03  0.00000000000E+00 0. -1.
          5    1    1    2  502    0  0.49173665132E+00  0.65200378625E+02 -0.10655749135E+03  0.12501168002E+03  0.47000000000E+01 0. -1.
         -5    1    1    2    0  502 -0.62599067959E+02 -0.37997311064E+02 -0.19731219095E+03  0.21051515303E+03  0.47000000000E+01 0. -1.
        -11    1    1    2    0    0  0.73940613015E+02  0.87803751985E+01 -0.11021948570E+03  0.13301369955E+03  0.00000000000E+00 0.  1.
         11    1    1    2    0    0 -0.11833281707E+02 -0.35983442759E+02 -0.76086249063E+02  0.84993835101E+02  0.00000000000E+00 0. -1.
<mgrwt>
<rscale>  0 0.13437424E+03</rscale>
<asrwt>0</asrwt>
<pdfrwt beam="2">  1        2 0.80285373E-01 0.14227253E+03</pdfrwt>
<pdfrwt beam="1">  1       -2 0.48737651E-02 0.14227253E+03</pdfrwt>
<totfact> 0.11514041E+04</totfact>
</mgrwt>
</event>
<event>
 6    1  0.5258538E-006  0.2575775E+03  0.7546771E-02  0.1110986E+00
          2   -1    0    0  501    0  0.00000000000E+00  0.00000000000E+00  0.11328491452E+04  0.11328491452E+04  0.00000000000E+00 0. -1.
         -2   -1    0    0    0  501 -0.00000000000E+00 -0.00000000000E+00 -0.55527948601E+02  0.55527948601E+02  0.00000000000E+00 0.  1.
          5    1    1    2  502    0  0.11570370985E+02 -0.78791785925E+02  0.12629522392E+03  0.14938069688E+03  0.47000000000E+01 0. -1.
         -5    1    1    2    0  502 -0.13974465305E+03 -0.10639198163E+03  0.38103615732E+03  0.41959321372E+03  0.47000000000E+01 0. -1.
        -11    1    1    2    0    0  0.73926049438E+02  0.13512304064E+03  0.47346412406E+03  0.49788710936E+03  0.00000000000E+00 0. -1.
         11    1    1    2    0    0  0.54248232628E+02  0.50060726916E+02  0.96525691308E+02  0.12151607385E+03  0.00000000000E+00 0.  1.
<mgrwt>
<rscale>  0 0.25370393E+03</rscale>
<asrwt>0</asrwt>
<pdfrwt beam="1">  1        2 0.17428447E+00 0.25757752E+03</pdfrwt>
<pdfrwt beam="2">  1       -2 0.85427621E-02 0.25757752E+03</pdfrwt>
<totfact> 0.18624351E+03</totfact>
</mgrwt>
</event>
<event>
 6    1  0.5258538E-006  0.1323021E+03  0.7546771E-02  0.1236968E+00
         -2   -1    0    0    0  501 -0.00000000000E+00  0.00000000000E+00  0.32460271031E+02  0.32460271031E+02  0.00000000000E+00 0. -1.
          2   -1    0    0  501    0  0.00000000000E+00 -0.00000000000E+00 -0.56256812140E+03  0.56256812140E+03  0.00000000000E+00 0.  1.
          5    1    1    2  502    0  0.62852886767E+02  0.76528315139E+01 -0.13868500439E+03  0.15252760946E+03  0.47000000000E+01 0. -1.
         -5    1    1    2    0  502 -0.38680373584E+02 -0.43627072454E+02 -0.30100426219E+03  0.30663520445E+03  0.47000000000E+01 0. -1.
        -11    1    1    2    0    0  0.71569073559E+01  0.22828750028E+02 -0.98148106488E+02  0.10102189841E+03  0.00000000000E+00 0.  1.
         11    1    1    2    0    0 -0.31329420539E+02  0.13145490912E+02  0.77295226996E+01  0.34843680113E+02  0.00000000000E+00 0. -1.
<mgrwt>
<rscale>  0 0.12379266E+03</rscale>
<asrwt>0</asrwt>
<pdfrwt beam="2">  1        2 0.86548934E-01 0.13230207E+03</pdfrwt>
<pdfrwt beam="1">  1       -2 0.49938883E-02 0.13230207E+03</pdfrwt>
<totfact> 0.10159093E+04</totfact>
</mgrwt>
</event>
<event>
 6    1  0.5258538E-006  0.1429686E+03  0.7546771E-02  0.1219609E+00
          2   -1    0    0  501    0  0.00000000000E+00  0.00000000000E+00  0.77089473929E+03  0.77089473929E+03  0.00000000000E+00 0. -1.
         -2   -1    0    0    0  501 -0.00000000000E+00 -0.00000000000E+00 -0.21603611454E+02  0.21603611454E+02  0.00000000000E+00 0.  1.
          5    1    1    2  502    0  0.57319714321E+02  0.11881430363E+02  0.25421821999E+03  0.26091322582E+03  0.47000000000E+01 0. -1.
         -5    1    1    2    0  502 -0.23311728541E+02 -0.72370218225E+02  0.15825765019E+03  0.17563729393E+03  0.47000000000E+01 0. -1.
        -11    1    1    2    0    0 -0.48504144560E+02  0.18519001716E+02  0.80332870897E+02  0.95650277629E+02  0.00000000000E+00 0.  1.
         11    1    1    2    0    0  0.14496158780E+02  0.41969786146E+02  0.25648238676E+03  0.26029755336E+03  0.00000000000E+00 0. -1.
<mgrwt>
<rscale>  0 0.13543322E+03</rscale>
<asrwt>0</asrwt>
<pdfrwt beam="1">  1        2 0.11859917E+00 0.14296857E+03</pdfrwt>
<pdfrwt beam="2">  1       -2 0.33236331E-02 0.14296857E+03</pdfrwt>
<totfact> 0.12949690E+04</totfact>
</mgrwt>
</event>
<event>
 6    1  0.5258538E-006  0.1344953E+03  0.7546771E-02  0.1232830E+00
          1   -1    0    0  501    0  0.00000000000E+00  0.00000000000E+00  0.58843046284E+02  0.58843046284E+02  0.00000000000E+00 0. -1.
         -1   -1    0    0    0  501 -0.00000000000E+00 -0.00000000000E+00 -0.26703239675E+03  0.26703239675E+03  0.00000000000E+00 0.  1.
          5    1    1    2  502    0 -0.40962408483E+02  0.67597889294E+02 -0.33629934888E+02  0.86025903461E+02  0.47000000000E+01 0.  1.
         -5    1    1    2    0  502  0.51170117978E+02 -0.19008421548E+02 -0.34439558469E+02  0.64713787180E+02  0.47000000000E+01 0.  1.
        -11    1    1    2    0    0 -0.29703703388E+02 -0.76486730873E+00 -0.45476634293E+01  0.30059545233E+02  0.00000000000E+00 0. -1.
         11    1    1    2    0    0  0.19495993893E+02 -0.47824600438E+02 -0.13557219368E+03  0.14507620716E+03  0.00000000000E+00 0.  1.
<mgrwt>
<rscale>  0 0.12644348E+03</rscale>
<asrwt>0</asrwt>
<pdfrwt beam="1">  1        1 0.90527765E-02 0.13449535E+03</pdfrwt>
<pdfrwt beam="2">  1       -1 0.41081907E-01 0.13449535E+03</pdfrwt>
<totfact> 0.41372377E+03</totfact>
</mgrwt>
</event>
<event>
 6    1  0.5258538E-006  0.1645341E+03  0.7546771E-02  0.1190219E+00
         -1   -1    0    0    0  501 -0.00000000000E+00  0.00000000000E+00  0.40492660801E+02  0.40492660801E+02  0.00000000000E+00 0.  1.
          1   -1    0    0  501    0  0.00000000000E+00 -0.00000000000E+00 -0.58805712230E+03  0.58805712230E+03  0.00000000000E+00 0. -1.
          5    1    1    2  502    0 -0.11396739711E+01 -0.37828792244E+02 -0.85511444033E+01  0.39083608457E+02  0.47000000000E+01 0. -1.
         -5    1    1    2    0  502  0.40978000533E+02 -0.61464364990E+02 -0.31892727264E+03  0.32740458140E+03  0.47000000000E+01 0. -1.
        -11    1    1    2    0    0  0.24440461710E+02  0.10855659610E+02 -0.17812041962E+02  0.32131765482E+02  0.00000000000E+00 0.  1.
         11    1    1    2    0    0 -0.64278788271E+02  0.88437497624E+02 -0.20227400249E+03  0.22992982776E+03  0.00000000000E+00 0. -1.
<mgrwt>
<rscale>  0 0.15865876E+03</rscale>
<asrwt>0</asrwt>
<pdfrwt beam="2">  1        1 0.90470321E-01 0.16453413E+03</pdfrwt>
<pdfrwt beam="1">  1       -1 0.62296405E-02 0.16453413E+03</pdfrwt>
<totfact> 0.44611717E+03</totfact>
</mgrwt>
</event>
<event>
 6    1  0.5258538E-006  0.1258976E+03  0.7546771E-02  0.1245877E+00
         -1   -1    0    0    0  501 -0.00000000000E+00  0.00000000000E+00  0.17611971397E+02  0.17611971397E+02  0.00000000000E+00 0.  1.
          1   -1    0    0  501    0  0.00000000000E+00 -0.00000000000E+00 -0.81291198499E+03  0.81291198499E+03  0.00000000000E+00 0. -1.
          5    1    1    2  502    0  0.20366494055E+02 -0.54529627808E+02 -0.16037622368E+03  0.17067775928E+03  0.47000000000E+01 0.  1.
         -5    1    1    2    0  502 -0.28899233088E+02  0.42148305185E+02 -0.42477634337E+03  0.42786525588E+03  0.47000000000E+01 0.  1.
        -11    1    1    2    0    0 -0.23809874434E+02 -0.30259487786E+02 -0.49871817495E+02  0.63005911643E+02  0.00000000000E+00 0.  1.
         11    1    1    2    0    0  0.32342613467E+02  0.42640810409E+02 -0.16027562904E+03  0.16897502958E+03  0.00000000000E+00 0. -1.
<mgrwt>
<rscale>  0 0.11833062E+03</rscale>
<asrwt>0</asrwt>
<pdfrwt beam="2">  1        1 0.12506337E+00 0.12589763E+03</pdfrwt>
<pdfrwt beam="1">  1       -1 0.27095343E-02 0.12589763E+03</pdfrwt>
<totfact> 0.94329507E+03</totfact>
</mgrwt>
</event>
<event>
 6    1  0.5258538E-006  0.1730332E+03  0.7546771E-02  0.1180943E+00
         -2   -1    0    0    0  501 -0.00000000000E+00  0.00000000000E+00  0.66840260827E+02  0.66840260827E+02  0.00000000000E+00 0. -1.
          2   -1    0    0  501    0  0.00000000000E+00 -0.00000000000E+00 -0.39338193022E+03  0.39338193022E+03  0.00000000000E+00 0.  1.
          5    1    1    2  502    0 -0.17368135485E+02  0.16571788684E+02 -0.15238017820E+03  0.15433108896E+03  0.47000000000E+01 0. -1.
         -5    1    1    2    0  502 -0.53314207087E+02  0.79963445004E+02 -0.39412886606E+02  0.10398087730E+03  0.47000000000E+01 0. -1.
        -11    1    1    2    0    0  0.31206001562E+02  0.11524578395E+02 -0.17267739940E+02  0.37480732161E+02  0.00000000000E+00 0. -1.
         11    1    1    2    0    0  0.39476341009E+02 -0.10805981208E+03 -0.11748086465E+03  0.16442949262E+03  0.00000000000E+00 0.  1.
<mgrwt>
<rscale>  0 0.16706520E+03</rscale>
<asrwt>0</asrwt>
<pdfrwt beam="2">  1        2 0.60520297E-01 0.17303321E+03</pdfrwt>
<pdfrwt beam="1">  1       -2 0.10283117E-01 0.17303321E+03</pdfrwt>
<totfact> 0.50241042E+03</totfact>
</mgrwt>
</event>
<event>
 6    1  0.5258538E-006  0.2494162E+03  0.7546771E-02  0.1115910E+00
         -1   -1    0    0    0  501 -0.00000000000E+00  0.00000000000E+00  0.17875526056E+03  0.17875526056E+03  0.00000000000E+00 0.  1.
          1   -1    0    0  501    0  0.00000000000E+00 -0.00000000000E+00 -0.42325133108E+03  0.42325133108E+03  0.00000000000E+00 0. -1.
          5    1    1    2  502    0 -0.24613976433E+02 -0.87606554370E+02 -0.10800663723E+03  0.14130916421E+03  0.47000000000E+01 0.  1.
         -5    1    1    2    0  502 -0.15424546146E+03 -0.33317920841E+02 -0.15879634127E+03  0.22391988350E+03  0.47000000000E+01 0.  1.
        -11    1    1    2    0    0  0.10085424365E+03  0.65361248454E+02  0.59417877101E+02  0.13406772684E+03  0.00000000000E+00 0. -1.
         11    1    1    2    0    0  0.78005194240E+02  0.55563226757E+02 -0.37110969119E+02  0.10270981708E+03  0.00000000000E+00 0.  1.
<mgrwt>
<rscale>  0 0.24592043E+03</rscale>
<asrwt>0</asrwt>
<pdfrwt beam="2">  1        1 0.65115589E-01 0.24941617E+03</pdfrwt>
<pdfrwt beam="1">  1       -1 0.27500810E-01 0.24941617E+03</pdfrwt>
<totfact> 0.67007079E+02</totfact>
</mgrwt>
</event>
<event>
 6    1  0.5258538E-006  0.2554430E+03  0.7546771E-02  0.1124446E+00
         -2   -1    0    0    0  501 -0.00000000000E+00  0.00000000000E+00  0.31960264827E+02  0.31960264827E+02  0.00000000000E+00 0.  1.
          2   -1    0    0  501    0  0.00000000000E+00 -0.00000000000E+00 -0.18797309172E+04  0.18797309172E+04  0.00000000000E+00 0. -1.
          5    1    1    2  502    0  0.24724892439E+02 -0.16671538305E+01 -0.78405164584E+03  0.78445724744E+03  0.47000000000E+01 0. -1.
         -5    1    1    2    0  502 -0.16032695137E+03 -0.70762466229E+02 -0.71335361120E+03  0.73457982723E+03  0.47000000000E+01 0.  1.
        -11    1    1    2    0    0  0.11461870158E+03  0.14570936837E+02 -0.22022474868E+03  0.24869398643E+03  0.00000000000E+00 0. -1.
         11    1    1    2    0    0  0.20983357353E+02  0.57858683223E+02 -0.13014064669E+03  0.14396012098E+03  0.00000000000E+00 0.  1.
<mgrwt>
<rscale>  0 0.23314365E+03</rscale>
<asrwt>0</asrwt>
<pdfrwt beam="2">  1        2 0.28918936E+00 0.25544301E+03</pdfrwt>
<pdfrwt beam="1">  1       -2 0.49169640E-02 0.25544301E+03</pdfrwt>
<totfact> 0.17278046E+03</totfact>
</mgrwt>
</event>
<event>
 6    1  0.5258538E-006  0.3465924E+03  0.7546771E-02  0.1064022E+00
         -2   -1    0    0    0  501 -0.00000000000E+00  0.00000000000E+00  0.10727793326E+03  0.10727793326E+03  0.00000000000E+00 0.  1.
          2   -1    0    0  501    0  0.00000000000E+00 -0.00000000000E+00 -0.27994179677E+03  0.27994179677E+03  0.00000000000E+00 0. -1.
          5    1    1    2  502    0 -0.96912650490E+01  0.97325558876E+01 -0.77543218660E+02  0.78890329081E+02  0.47000000000E+01 0.  1.
         -5    1    1    2    0  502 -0.12130854260E+03  0.23980029142E+02 -0.74856362407E+01  0.12397148485E+03  0.47000000000E+01 0.  1.
        -11    1    1    2    0    0  0.87759057188E+02 -0.60310753936E+02 -0.79625970268E+02  0.13296365782E+03  0.00000000000E+00 0. -1.
         11    1    1    2    0    0  0.43240750460E+02  0.26598168906E+02 -0.80090383478E+01  0.51394258286E+02  0.00000000000E+00 0.  1.
<mgrwt>
<rscale>  0 0.34659243E+03</rscale>
<asrwt>0</asrwt>
<pdfrwt beam="2">  1        2 0.43067968E-01 0.34659243E+03</pdfrwt>
<pdfrwt beam="1">  1       -2 0.16504298E-01 0.34659243E+03</pdfrwt>
<totfact> 0.34497223E+03</totfact>
</mgrwt>
</event>
<event>
 6    1  0.5258538E-006  0.4018276E+03  0.7546771E-02  0.1043948E+00
          1   -1    0    0  501    0  0.00000000000E+00  0.00000000000E+00  0.55887664720E+03  0.55887664720E+03  0.00000000000E+00 0. -1.
         -1   -1    0    0    0  501 -0.00000000000E+00 -0.00000000000E+00 -0.29083798227E+03  0.29083798227E+03  0.00000000000E+00 0.  1.
          5    1    1    2  502    0 -0.38310998394E+03  0.17461163451E+02  0.19885513269E+03  0.43202269132E+03  0.47000000000E+01 0.  1.
         -5    1    1    2    0  502  0.28473721492E+01  0.17444975442E+02  0.92487658328E+01  0.20495471835E+02  0.47000000000E+01 0.  1.
        -11    1    1    2    0    0  0.98127501196E+02 -0.41505989137E+02 -0.82514747846E+01  0.10686365360E+03  0.00000000000E+00 0.  1.
         11    1    1    2    0    0  0.28213511059E+03  0.65998502439E+01  0.68186241190E+02  0.29033281271E+03  0.00000000000E+00 0. -1.
<mgrwt>
<rscale>  0 0.39951294E+03</rscale>
<asrwt>0</asrwt>
<pdfrwt beam="1">  1        1 0.85981022E-01 0.40182764E+03</pdfrwt>
<pdfrwt beam="2">  1       -1 0.44744305E-01 0.40182764E+03</pdfrwt>
<totfact> 0.19488218E+02</totfact>
</mgrwt>
</event>
<event>
 6    1  0.5258538E-006  0.2532045E+03  0.7546771E-02  0.1111296E+00
          1   -1    0    0  501    0  0.00000000000E+00  0.00000000000E+00  0.12573981647E+04  0.12573981647E+04  0.00000000000E+00 0. -1.
         -1   -1    0    0    0  501 -0.00000000000E+00 -0.00000000000E+00 -0.12747061292E+02  0.12747061292E+02  0.00000000000E+00 0.  1.
          5    1    1    2  502    0  0.46808299150E+01  0.71846442807E+02  0.18176310432E+03  0.19556006137E+03  0.47000000000E+01 0.  1.
         -5    1    1    2    0  502  0.31407514397E+01 -0.21176521020E+01  0.55448579922E+03  0.55451865641E+03  0.47000000000E+01 0.  1.
        -11    1    1    2    0    0  0.31288600863E+02 -0.58775076947E+01  0.10301273119E+03  0.10781996303E+03  0.00000000000E+00 0.  1.
         11    1    1    2    0    0 -0.39110182217E+02 -0.63851283010E+02  0.40538946865E+03  0.41224654515E+03  0.00000000000E+00 0. -1.
<mgrwt>
<rscale>  0 0.25320451E+03</rscale>
<asrwt>0</asrwt>
<pdfrwt beam="1">  1        1 0.19344577E+00 0.25320451E+03</pdfrwt>
<pdfrwt beam="2">  1       -1 0.19610873E-02 0.25320451E+03</pdfrwt>
<totfact> 0.73500979E+03</totfact>
</mgrwt>
</event>
<event>
 6    1  0.5258538E-006  0.1297889E+03  0.7546771E-02  0.1240889E+00
         -1   -1    0    0    0  501 -0.00000000000E+00  0.00000000000E+00  0.30940344360E+02  0.30940344360E+02  0.00000000000E+00 0.  1.
          1   -1    0    0  501    0  0.00000000000E+00 -0.00000000000E+00 -0.49506199329E+03  0.49506199329E+03  0.00000000000E+00 0. -1.
          5    1    1    2  502    0 -0.42731766875E+02 -0.11447338801E+02 -0.19416900171E+03  0.19920024270E+03  0.47000000000E+01 0.  1.
         -5    1    1    2    0  502  0.71776647555E+02  0.30995749289E+02 -0.16358398506E+03  0.18136822703E+03  0.47000000000E+01 0.  1.
        -11    1    1    2    0    0  0.18049784818E+02 -0.39327578417E+02 -0.26857608952E+02  0.50929208857E+02  0.00000000000E+00 0.  1.
         11    1    1    2    0    0 -0.47094665499E+02  0.19779167929E+02 -0.79511053207E+02  0.94504659062E+02  0.00000000000E+00 0. -1.
<mgrwt>
<rscale>  0 0.12134851E+03</rscale>
<asrwt>0</asrwt>
<pdfrwt beam="2">  1        1 0.76163387E-01 0.12978891E+03</pdfrwt>
<pdfrwt beam="1">  1       -1 0.47600528E-02 0.12978891E+03</pdfrwt>
<totfact> 0.82602257E+03</totfact>
</mgrwt>
</event>
<event>
 6    1  0.5258538E-006  0.3497265E+03  0.7546771E-02  0.1062727E+00
         -2   -1    0    0    0  501 -0.00000000000E+00  0.00000000000E+00  0.15382854790E+02  0.15382854790E+02  0.00000000000E+00 0. -1.
          2   -1    0    0  501    0  0.00000000000E+00 -0.00000000000E+00 -0.19877427325E+04  0.19877427325E+04  0.00000000000E+00 0.  1.
          5    1    1    2  502    0 -0.16310427774E+02 -0.19008608940E+02 -0.10486602768E+03  0.10791816820E+03  0.47000000000E+01 0.  1.
         -5    1    1    2    0  502  0.14554881502E+03  0.43176560077E+02 -0.11538391173E+04  0.11637935691E+04  0.47000000000E+01 0.  1.
        -11    1    1    2    0    0 -0.11344651202E+03  0.14291562317E+02 -0.58937778001E+03  0.60036699394E+03  0.00000000000E+00 0.  1.
         11    1    1    2    0    0 -0.15791875222E+02 -0.38459513454E+02 -0.12427695272E+03  0.13104685604E+03  0.00000000000E+00 0. -1.
<mgrwt>
<rscale>  0 0.34972651E+03</rscale>
<asrwt>0</asrwt>
<pdfrwt beam="2">  1        2 0.30580662E+00 0.34972651E+03</pdfrwt>
<pdfrwt beam="1">  1       -2 0.23665927E-02 0.34972651E+03</pdfrwt>
<totfact> 0.45411983E+03</totfact>
</mgrwt>
</event>
<event>
 6    1  0.5258538E-006  0.1223004E+03  0.7546771E-02  0.1253322E+00
          3   -1    0    0  501    0  0.00000000000E+00  0.00000000000E+00  0.34919306473E+03  0.34919306473E+03  0.00000000000E+00 0. -1.
         -3   -1    0    0    0  501 -0.00000000000E+00 -0.00000000000E+00 -0.35269947057E+02  0.35269947057E+02  0.00000000000E+00 0.  1.
          5    1    1    2  502    0  0.62612555704E+02 -0.84700643403E+01  0.13224018387E+03  0.14663434234E+03  0.47000000000E+01 0. -1.
         -5    1    1    2    0  502 -0.55801222411E+02 -0.15695437563E+02  0.93644280887E+02  0.11023368145E+03  0.47000000000E+01 0.  1.
        -11    1    1    2    0    0 -0.20959562621E+02 -0.28243615215E+02  0.50713101764E+02  0.61715668644E+02  0.00000000000E+00 0.  1.
         11    1    1    2    0    0  0.14148229328E+02  0.52409117118E+02  0.37325551144E+02  0.65879319353E+02  0.00000000000E+00 0. -1.
<mgrwt>
<rscale>  0 0.11400857E+03</rscale>
<asrwt>0</asrwt>
<pdfrwt beam="1">  1        3 0.53722008E-01 0.12230041E+03</pdfrwt>
<pdfrwt beam="2">  1       -3 0.54261459E-02 0.12230041E+03</pdfrwt>
<totfact> 0.15608448E+03</totfact>
</mgrwt>
</event>
<event>
 6    1  0.5258538E-006  0.1634204E+03  0.7546771E-02  0.1192379E+00
          1   -1    0    0  501    0  0.00000000000E+00  0.00000000000E+00  0.49792774759E+02  0.49792774759E+02  0.00000000000E+00 0. -1.
         -1   -1    0    0    0  501 -0.00000000000E+00 -0.00000000000E+00 -0.48167611300E+03  0.48167611300E+03  0.00000000000E+00 0.  1.
          5    1    1    2  502    0 -0.33699675810E+02 -0.59917492012E+02 -0.16253579443E+03  0.17653823515E+03  0.47000000000E+01 0. -1.
         -5    1    1    2    0  502 -0.59636194082E+02  0.11209762765E+02 -0.11027822989E+02  0.61853353229E+02  0.47000000000E+01 0. -1.
        -11    1    1    2    0    0 -0.13161929787E+02 -0.42649677793E+01 -0.81176811450E+01  0.16041293372E+02  0.00000000000E+00 0. -1.
         11    1    1    2    0    0  0.10649779968E+03  0.52972697026E+02 -0.25020203967E+03  0.27703600601E+03  0.00000000000E+00 0.  1.
<mgrwt>
<rscale>  0 0.15678117E+03</rscale>
<asrwt>0</asrwt>
<pdfrwt beam="1">  1        1 0.76604264E-02 0.16342038E+03</pdfrwt>
<pdfrwt beam="2">  1       -1 0.74104022E-01 0.16342038E+03</pdfrwt>
<totfact> 0.17302997E+03</totfact>
</mgrwt>
</event>
<event>
 6    1  0.5258538E-006  0.2281165E+03  0.7546771E-02  0.1127973E+00
         -2   -1    0    0    0  501 -0.00000000000E+00  0.00000000000E+00  0.13648300077E+02  0.13648300077E+02  0.00000000000E+00 0.  1.
          2   -1    0    0  501    0  0.00000000000E+00 -0.00000000000E+00 -0.95317984167E+03  0.95317984167E+03  0.00000000000E+00 0. -1.
          5    1    1    2  502    0  0.12052266339E+02  0.52477754889E+02 -0.11678428735E+03  0.12868500944E+03  0.47000000000E+01 0. -1.
         -5    1    1    2    0  502 -0.81966403725E+01 -0.26514677382E+02 -0.52117738180E+03  0.52193693712E+03  0.47000000000E+01 0. -1.
        -11    1    1    2    0    0  0.37352161364E+02 -0.16690810866E+02 -0.22563962027E+03  0.22931856742E+03  0.00000000000E+00 0. -1.
         11    1    1    2    0    0 -0.41207787331E+02 -0.92722666404E+01 -0.75930252173E+02  0.86887627775E+02  0.00000000000E+00 0.  1.
<mgrwt>
<rscale>  0 0.22811650E+03</rscale>
<asrwt>0</asrwt>
<pdfrwt beam="2">  1        2 0.14664308E+00 0.22811650E+03</pdfrwt>
<pdfrwt beam="1">  1       -2 0.20997382E-02 0.22811650E+03</pdfrwt>
<totfact> 0.19939598E+04</totfact>
</mgrwt>
</event>
<event>
 6    1  0.5258538E-006  0.1535365E+03  0.7546771E-02  0.1205106E+00
          2   -1    0    0  501    0  0.00000000000E+00  0.00000000000E+00  0.51676563539E+03  0.51676563539E+03  0.00000000000E+00 0. -1.
         -2   -1    0    0    0  501 -0.00000000000E+00 -0.00000000000E+00 -0.38464404728E+02  0.38464404728E+02  0.00000000000E+00 0.  1.
          5    1    1    2  502    0  0.16740036769E+02  0.61637793991E+02  0.21650640114E+03  0.22577988886E+03  0.47000000000E+01 0.  1.
         -5    1    1    2    0  502 -0.71451935687E+02  0.87556922828E+01  0.77348673051E+02  0.10576837185E+03  0.47000000000E+01 0.  1.
        -11    1    1    2    0    0  0.65863587471E+02 -0.25614457493E+02  0.15090707740E+03  0.16663450602E+03  0.00000000000E+00 0. -1.
         11    1    1    2    0    0 -0.11151688553E+02 -0.44779028781E+02  0.33539079071E+02  0.57047273388E+02  0.00000000000E+00 0.  1.
<mgrwt>
<rscale>  0 0.14629122E+03</rscale>
<asrwt>0</asrwt>
<pdfrwt beam="1">  1        2 0.79502401E-01 0.15353646E+03</pdfrwt>
<pdfrwt beam="2">  1       -2 0.59176011E-02 0.15353646E+03</pdfrwt>
<totfact> 0.87269010E+03</totfact>
</mgrwt>
</event>
<event>
 6    1  0.5258538E-006  0.3000323E+03  0.7546771E-02  0.1085224E+00
          3   -1    0    0  501    0  0.00000000000E+00  0.00000000000E+00  0.40681160317E+03  0.40681160317E+03  0.00000000000E+00 0. -1.
         -3   -1    0    0    0  501 -0.00000000000E+00 -0.00000000000E+00 -0.55320049188E+02  0.55320049188E+02  0.00000000000E+00 0.  1.
          5    1    1    2  502    0  0.89626122683E+02  0.16166860811E+02  0.10072867086E+03  0.13587701936E+03  0.47000000000E+01 0.  1.
         -5    1    1    2    0  502 -0.77478172233E+01 -0.21743185702E+02  0.18617219094E+03  0.18765651994E+03  0.47000000000E+01 0.  1.
        -11    1    1    2    0    0 -0.48879328712E+02 -0.35234279183E+02  0.69669573542E+01  0.60656258536E+02  0.00000000000E+00 0.  1.
         11    1    1    2    0    0 -0.32998976748E+02  0.40810604074E+02  0.57623734819E+02  0.77941854519E+02  0.00000000000E+00 0. -1.
<mgrwt>
<rscale>  0 0.30003225E+03</rscale>
<asrwt>0</asrwt>
<pdfrwt beam="1">  1        3 0.62586399E-01 0.30003225E+03</pdfrwt>
<pdfrwt beam="2">  1       -3 0.85107771E-02 0.30003225E+03</pdfrwt>
<totfact> 0.62252623E+02</totfact>
</mgrwt>
</event>
<event>
 6    1  0.5258538E-006  0.1591097E+03  0.7546771E-02  0.1200479E+00
         -2   -1    0    0    0  501 -0.00000000000E+00  0.00000000000E+00  0.30309074989E+02  0.30309074989E+02  0.00000000000E+00 0. -1.
          2   -1    0    0  501    0  0.00000000000E+00 -0.00000000000E+00 -0.76376130253E+03  0.76376130253E+03  0.00000000000E+00 0.  1.
          5    1    1    2  502    0 -0.43377396866E+01 -0.27069980064E+02 -0.13442764499E+02  0.30893328141E+02  0.47000000000E+01 0. -1.
         -5    1    1    2    0  502 -0.55426773686E+02 -0.51155277102E+02 -0.53006711006E+03  0.53542713863E+03  0.47000000000E+01 0. -1.
        -11    1    1    2    0    0  0.34452559616E+02 -0.79177316719E+01 -0.44585956746E+02  0.56899708943E+02  0.00000000000E+00 0.  1.
         11    1    1    2    0    0  0.25311953756E+02  0.86142988838E+02 -0.14535639624E+03  0.17085020180E+03  0.00000000000E+00 0. -1.
<mgrwt>
<rscale>  0 0.14999501E+03</rscale>
<asrwt>0</asrwt>
<pdfrwt beam="2">  1        2 0.11750173E+00 0.15910967E+03</pdfrwt>
<pdfrwt beam="1">  1       -2 0.46629348E-02 0.15910967E+03</pdfrwt>
<totfact> 0.79618481E+03</totfact>
</mgrwt>
</event>
<event>
 6    1  0.5258538E-006  0.1256370E+03  0.7546771E-02  0.1249247E+00
         -2   -1    0    0    0  501 -0.00000000000E+00  0.00000000000E+00  0.22876535316E+02  0.22876535316E+02  0.00000000000E+00 0.  1.
          2   -1    0    0  501    0  0.00000000000E+00 -0.00000000000E+00 -0.63609001517E+03  0.63609001517E+03  0.00000000000E+00 0. -1.
          5    1    1    2  502    0 -0.81374195134E+01 -0.30502661205E+02 -0.27899314718E+02  0.42392118355E+02  0.47000000000E+01 0. -1.
         -5    1    1    2    0  502  0.21059293932E+02  0.30598267531E+02 -0.45657648620E+03  0.45810907608E+03  0.47000000000E+01 0. -1.
        -11    1    1    2    0    0 -0.44365874947E+01  0.44739127230E+02 -0.48298321293E+02  0.65984851698E+02  0.00000000000E+00 0. -1.
         11    1    1    2    0    0 -0.84852869238E+01 -0.44834733557E+02 -0.80439357641E+02  0.92480504351E+02  0.00000000000E+00 0.  1.
<mgrwt>
<rscale>  0 0.11634743E+03</rscale>
<asrwt>0</asrwt>
<pdfrwt beam="2">  1        2 0.97859980E-01 0.12563695E+03</pdfrwt>
<pdfrwt beam="1">  1       -2 0.35194678E-02 0.12563695E+03</pdfrwt>
<totfact> 0.14814186E+04</totfact>
</mgrwt>
</event>
<event>
 6    1  0.5258538E-006  0.1598683E+03  0.7546771E-02  0.1199220E+00
          2   -1    0    0  501    0  0.00000000000E+00  0.00000000000E+00  0.73005372991E+02  0.73005372991E+02  0.00000000000E+00 0. -1.
         -2   -1    0    0    0  501 -0.00000000000E+00 -0.00000000000E+00 -0.52907313535E+03  0.52907313535E+03  0.00000000000E+00 0.  1.
          5    1    1    2  502    0 -0.34165875904E+02 -0.10769687842E+03 -0.48243335487E+02  0.12294484177E+03  0.47000000000E+01 0. -1.
         -5    1    1    2    0  502 -0.18897785765E+02  0.34460495565E+02  0.11245841109E+02  0.41148645223E+02  0.47000000000E+01 0.  1.
        -11    1    1    2    0    0  0.19504698930E+02 -0.14054229956E+02 -0.33488515109E+02  0.41224207745E+02  0.00000000000E+00 0. -1.
         11    1    1    2    0    0  0.33558962739E+02  0.87290612814E+02 -0.38558175287E+03  0.39676081360E+03  0.00000000000E+00 0.  1.
<mgrwt>
<rscale>  0 0.15102466E+03</rscale>
<asrwt>0</asrwt>
<pdfrwt beam="1">  1        2 0.11231596E-01 0.15986825E+03</pdfrwt>
<pdfrwt beam="2">  1       -2 0.81395867E-01 0.15986825E+03</pdfrwt>
<totfact> 0.74970276E+02</totfact>
</mgrwt>
</event>
<event>
 6    1  0.5258538E-006  0.1317850E+03  0.7546771E-02  0.1238291E+00
          4   -1    0    0  501    0  0.00000000000E+00  0.00000000000E+00  0.16090455849E+03  0.16090455849E+03  0.00000000000E+00 0. -1.
         -4   -1    0    0    0  501 -0.00000000000E+00 -0.00000000000E+00 -0.87714750693E+02  0.87714750693E+02  0.00000000000E+00 0.  1.
          5    1    1    2  502    0  0.64766425328E+02  0.23018404270E+02  0.73078991109E+02  0.10043488302E+03  0.47000000000E+01 0. -1.
         -5    1    1    2    0  502 -0.26525959002E+02 -0.39743080938E+02 -0.43245651707E+01  0.48207165934E+02  0.47000000000E+01 0. -1.
        -11    1    1    2    0    0 -0.21987408172E+02 -0.29473126245E+02 -0.23458932855E+02  0.43616886861E+02  0.00000000000E+00 0.  1.
         11    1    1    2    0    0 -0.16253058155E+02  0.46197802913E+02  0.27894314715E+02  0.56360373374E+02  0.00000000000E+00 0. -1.
<mgrwt>
<rscale>  0 0.12296113E+03</rscale>
<asrwt>0</asrwt>
<pdfrwt beam="1">  1        4 0.24754547E-01 0.13178501E+03</pdfrwt>
<pdfrwt beam="2">  1       -4 0.13494577E-01 0.13178501E+03</pdfrwt>
<totfact> 0.11343238E+03</totfact>
</mgrwt>
</event>
<event>
 6    1  0.5258538E-006  0.1331143E+03  0.7546771E-02  0.1241222E+00
          3   -1    0    0  501    0  0.00000000000E+00  0.00000000000E+00  0.82339026799E+02  0.82339026799E+02  0.00000000000E+00 0. -1.
         -3   -1    0    0    0  501 -0.00000000000E+00 -0.00000000000E+00 -0.17036587856E+03  0.17036587856E+03  0.00000000000E+00 0.  1.
          5    1    1    2  502    0  0.72516312377E+01 -0.52690677154E+02  0.43140421638E+02  0.68644588961E+02  0.47000000000E+01 0. -1.
         -5    1    1    2    0  502  0.79626999510E+00  0.34702093237E+02 -0.54721779480E+02  0.64972551669E+02  0.47000000000E+01 0.  1.
        -11    1    1    2    0    0 -0.36453593346E+02  0.39846060940E+02 -0.56116458800E+02  0.77882154493E+02  0.00000000000E+00 0.  1.
         11    1    1    2    0    0  0.28405692113E+02 -0.21857477022E+02 -0.20329035123E+02  0.41205610240E+02  0.00000000000E+00 0. -1.
<mgrwt>
<rscale>  0 0.12114378E+03</rscale>
<asrwt>0</asrwt>
<pdfrwt beam="1">  1        3 0.12667543E-01 0.13311428E+03</pdfrwt>
<pdfrwt beam="2">  1       -3 0.26210135E-01 0.13311428E+03</pdfrwt>
<totfact> 0.15641589E+03</totfact>
</mgrwt>
</event>
<event>
 6    1  0.5258538E-006  0.1166814E+03  0.7546771E-02  0.1258602E+00
          1   -1    0    0  501    0  0.00000000000E+00  0.00000000000E+00  0.11612651720E+04  0.11612651720E+04  0.00000000000E+00 0. -1.
         -1   -1    0    0    0  501 -0.00000000000E+00 -0.00000000000E+00 -0.22630863354E+02  0.22630863354E+02  0.00000000000E+00 0.  1.
          5    1    1    2  502    0  0.55300204062E+02  0.11598435796E+02  0.46064192426E+03  0.46411820549E+03  0.47000000000E+01 0.  1.
         -5    1    1    2    0  502 -0.59321004457E+02 -0.11670028469E+01  0.57888185823E+03  0.58193353509E+03  0.47000000000E+01 0. -1.
        -11    1    1    2    0    0  0.24756337533E+02 -0.46735680757E+02  0.65594347049E+02  0.84259827134E+02  0.00000000000E+00 0.  1.
         11    1    1    2    0    0 -0.20735537138E+02  0.36304247808E+02  0.33516179063E+02  0.53584467603E+02  0.00000000000E+00 0. -1.
<mgrwt>
<rscale>  0 0.11106971E+03</rscale>
<asrwt>0</asrwt>
<pdfrwt beam="1">  1        1 0.17865613E+00 0.11668140E+03</pdfrwt>
<pdfrwt beam="2">  1       -1 0.34816722E-02 0.11668140E+03</pdfrwt>
<totfact> 0.36138279E+03</totfact>
</mgrwt>
</event>
<event>
 6    1  0.5258538E-006  0.2534260E+03  0.7546771E-02  0.1113607E+00
          1   -1    0    0  501    0  0.00000000000E+00  0.00000000000E+00  0.12123091777E+04  0.12123091777E+04  0.00000000000E+00 0. -1.
         -1   -1    0    0    0  501 -0.00000000000E+00 -0.00000000000E+00 -0.11542957928E+03  0.11542957928E+03  0.00000000000E+00 0.  1.
          5    1    1    2  502    0  0.14598100355E+03 -0.73119504790E+02  0.47900750656E+03  0.50609010731E+03  0.47000000000E+01 0. -1.
         -5    1    1    2    0  502  0.46901160444E+02 -0.33632470556E+02  0.57712062459E+03  0.58001824735E+03  0.47000000000E+01 0. -1.
        -11    1    1    2    0    0 -0.20049228247E+03  0.93785063050E+02  0.45281965593E+02  0.22592753216E+03  0.00000000000E+00 0. -1.
         11    1    1    2    0    0  0.76101184704E+01  0.12966912297E+02 -0.45304982954E+01  0.15702870198E+02  0.00000000000E+00 0.  1.
<mgrwt>
<rscale>  0 0.24952252E+03</rscale>
<asrwt>0</asrwt>
<pdfrwt beam="1">  1        1 0.18650910E+00 0.25342598E+03</pdfrwt>
<pdfrwt beam="2">  1       -1 0.17758398E-01 0.25342598E+03</pdfrwt>
<totfact> 0.27743922E+02</totfact>
</mgrwt>
</event>
<event>
 6    1  0.5258538E-006  0.2208149E+03  0.7546771E-02  0.1136522E+00
          2   -1    0    0  501    0  0.00000000000E+00  0.00000000000E+00  0.44277162062E+03  0.44277162062E+03  0.00000000000E+00 0. -1.
         -2   -1    0    0    0  501 -0.00000000000E+00 -0.00000000000E+00 -0.10192000369E+03  0.10192000369E+03  0.00000000000E+00 0.  1.
          5    1    1    2  502    0  0.85140708429E+02  0.19653108135E+00  0.13213148362E+02  0.86288215568E+02  0.47000000000E+01 0. -1.
         -5    1    1    2    0  502  0.82876204361E+02  0.69837099862E+02  0.16502340845E+03  0.19748544529E+03  0.47000000000E+01 0. -1.
        -11    1    1    2    0    0 -0.28132601725E+02 -0.99617970854E+01  0.84897370148E+02  0.89990244688E+02  0.00000000000E+00 0. -1.
         11    1    1    2    0    0 -0.13988431107E+03 -0.60071833857E+02  0.77717689980E+02  0.17092771876E+03  0.00000000000E+00 0.  1.
<mgrwt>
<rscale>  0 0.21649755E+03</rscale>
<asrwt>0</asrwt>
<pdfrwt beam="1">  1        2 0.68118710E-01 0.22081490E+03</pdfrwt>
<pdfrwt beam="2">  1       -2 0.15680001E-01 0.22081490E+03</pdfrwt>
<totfact> 0.22509402E+03</totfact>
</mgrwt>
</event>
<event>
 6    1  0.5258538E-006  0.1630421E+03  0.7546771E-02  0.1192469E+00
          4   -1    0    0  501    0  0.00000000000E+00  0.00000000000E+00  0.75654376207E+02  0.75654376207E+02  0.00000000000E+00 0. -1.
         -4   -1    0    0    0  501 -0.00000000000E+00 -0.00000000000E+00 -0.33974738192E+03  0.33974738192E+03  0.00000000000E+00 0.  1.
          5    1    1    2  502    0  0.57254248850E+02  0.39295188452E+02  0.25679537321E+02  0.74186855196E+02  0.47000000000E+01 0.  1.
         -5    1    1    2    0  502  0.26184685534E+02  0.23915655974E+02 -0.97719597180E+02  0.10406154924E+03  0.47000000000E+01 0.  1.
        -11    1    1    2    0    0 -0.38668561204E+02  0.27109220215E+01 -0.13143057723E+03  0.13702774666E+03  0.00000000000E+00 0.  1.
         11    1    1    2    0    0 -0.44770373180E+02 -0.65921766447E+02 -0.60622368631E+02  0.10012560704E+03  0.00000000000E+00 0. -1.
<mgrwt>
<rscale>  0 0.15670419E+03</rscale>
<asrwt>0</asrwt>
<pdfrwt beam="1">  1        4 0.11639135E-01 0.16304209E+03</pdfrwt>
<pdfrwt beam="2">  1       -4 0.52268829E-01 0.16304209E+03</pdfrwt>
<totfact> 0.35651626E+02</totfact>
</mgrwt>
</event>
<event>
 6    1  0.5258538E-006  0.1323096E+03  0.7546771E-02  0.1241478E+00
         -2   -1    0    0    0  501 -0.00000000000E+00  0.00000000000E+00  0.93664302989E+01  0.93664302989E+01  0.00000000000E+00 0.  1.
          2   -1    0    0  501    0  0.00000000000E+00 -0.00000000000E+00 -0.15607542283E+04  0.15607542283E+04  0.00000000000E+00 0. -1.
          5    1    1    2  502    0 -0.88440692876E+01  0.38155385349E+02 -0.66123100920E+03  0.66240666400E+03  0.47000000000E+01 0.  1.
         -5    1    1    2    0  502 -0.87681370669E+00 -0.80410112762E+02 -0.51836696495E+03  0.52458836757E+03  0.47000000000E+01 0.  1.
        -11    1    1    2    0    0 -0.33093844968E+02  0.20381262767E+02 -0.23359398270E+03  0.23680529386E+03  0.00000000000E+00 0. -1.
         11    1    1    2    0    0  0.42814727963E+02  0.21873464646E+02 -0.13819584119E+03  0.14632033320E+03  0.00000000000E+00 0.  1.
<mgrwt>
<rscale>  0 0.12098660E+03</rscale>
<asrwt>0</asrwt>
<pdfrwt beam="2">  1        2 0.24011599E+00 0.13230958E+03</pdfrwt>
<pdfrwt beam="1">  1       -2 0.14409896E-02 0.13230958E+03</pdfrwt>
<totfact> 0.15337326E+04</totfact>
</mgrwt>
</event>
<event>
 6    1  0.5258538E-006  0.1281233E+03  0.7546771E-02  0.1243987E+00
          1   -1    0    0  501    0  0.00000000000E+00  0.00000000000E+00  0.14556401278E+04  0.14556401278E+04  0.00000000000E+00 0. -1.
         -1   -1    0    0    0  501 -0.00000000000E+00 -0.00000000000E+00 -0.18701789562E+02  0.18701789562E+02  0.00000000000E+00 0.  1.
          5    1    1    2  502    0  0.27966476898E+01 -0.52773018154E+02  0.23202493014E+03  0.23801359392E+03  0.47000000000E+01 0. -1.
         -5    1    1    2    0  502  0.89265739885E+00  0.24927151350E+02  0.10697801238E+04  0.10700811946E+04  0.47000000000E+01 0. -1.
        -11    1    1    2    0    0 -0.13145461286E+02  0.47101655143E+02  0.13625583939E+03  0.14476540622E+03  0.00000000000E+00 0. -1.
         11    1    1    2    0    0  0.94561561972E+01 -0.19255788339E+02 -0.11225551675E+01  0.21481722573E+02  0.00000000000E+00 0.  1.
<mgrwt>
<rscale>  0 0.11946196E+03</rscale>
<asrwt>0</asrwt>
<pdfrwt beam="1">  1        1 0.22394455E+00 0.12812329E+03</pdfrwt>
<pdfrwt beam="2">  1       -1 0.28771995E-02 0.12812329E+03</pdfrwt>
<totfact> 0.30435543E+03</totfact>
</mgrwt>
</event>
<event>
 6    1  0.5258538E-006  0.3307340E+03  0.7546771E-02  0.1070813E+00
         -2   -1    0    0    0  501 -0.00000000000E+00  0.00000000000E+00  0.21077490173E+03  0.21077490173E+03  0.00000000000E+00 0.  1.
          2   -1    0    0  501    0  0.00000000000E+00 -0.00000000000E+00 -0.12974149005E+03  0.12974149005E+03  0.00000000000E+00 0. -1.
          5    1    1    2  502    0  0.29262514330E+01 -0.32712904639E+02 -0.47650516120E+01  0.33518544035E+02  0.47000000000E+01 0. -1.
         -5    1    1    2    0  502 -0.10103053623E+03  0.90610538092E+02 -0.51278080303E+01  0.13588901088E+03  0.47000000000E+01 0. -1.
        -11    1    1    2    0    0  0.65453189220E+02 -0.38293473211E+02  0.36901227616E+01  0.75921848473E+02  0.00000000000E+00 0. -1.
         11    1    1    2    0    0  0.32651095576E+02 -0.19604160241E+02  0.87236148560E+02  0.95186988379E+02  0.00000000000E+00 0.  1.
<mgrwt>
<rscale>  0 0.33073403E+03</rscale>
<asrwt>0</asrwt>
<pdfrwt beam="2">  1        2 0.19960229E-01 0.33073403E+03</pdfrwt>
<pdfrwt beam="1">  1       -2 0.32426908E-01 0.33073403E+03</pdfrwt>
<totfact> 0.24729701E+03</totfact>
</mgrwt>
</event>
<event>
 6    1  0.5258538E-006  0.3862921E+03  0.7546771E-02  0.1048632E+00
          1   -1    0    0  501    0  0.00000000000E+00  0.00000000000E+00  0.13839298899E+04  0.13839298899E+04  0.00000000000E+00 0. -1.
         -1   -1    0    0    0  501 -0.00000000000E+00 -0.00000000000E+00 -0.26956129666E+02  0.26956129666E+02  0.00000000000E+00 0.  1.
          5    1    1    2  502    0 -0.11830260908E+03  0.11420973802E+03  0.69922634241E+03  0.71831674037E+03  0.47000000000E+01 0. -1.
         -5    1    1    2    0  502  0.89143604230E+01 -0.15675452208E+02  0.23079238062E+03  0.23154351335E+03  0.47000000000E+01 0. -1.
        -11    1    1    2    0    0  0.74796290646E+02 -0.11320644994E+03  0.31662837325E+03  0.34447599647E+03  0.00000000000E+00 0.  1.
         11    1    1    2    0    0  0.34591958014E+02  0.14672164128E+02  0.11032666392E+03  0.11654976933E+03  0.00000000000E+00 0. -1.
<mgrwt>
<rscale>  0 0.38629208E+03</rscale>
<asrwt>0</asrwt>
<pdfrwt beam="1">  1        1 0.21291224E+00 0.38629208E+03</pdfrwt>
<pdfrwt beam="2">  1       -1 0.41470979E-02 0.38629208E+03</pdfrwt>
<totfact> 0.19917206E+03</totfact>
</mgrwt>
</event>
<event>
 6    1  0.5258538E-006  0.1347228E+03  0.7546771E-02  0.1232227E+00
         -2   -1    0    0    0  501 -0.00000000000E+00  0.00000000000E+00  0.78085076632E+02  0.78085076632E+02  0.00000000000E+00 0.  1.
          2   -1    0    0  501    0  0.00000000000E+00 -0.00000000000E+00 -0.25342118721E+03  0.25342118721E+03  0.00000000000E+00 0. -1.
          5    1    1    2  502    0 -0.76959234972E+02  0.23348783502E+02 -0.59387818751E+02  0.10008442713E+03  0.47000000000E+01 0.  1.
         -5    1    1    2    0  502  0.27632116420E+02 -0.13917861452E+02 -0.12147185607E+03  0.12543820208E+03  0.47000000000E+01 0.  1.
        -11    1    1    2    0    0  0.23895074829E+01 -0.24243429363E+02  0.39336391625E+02  0.46268837454E+02  0.00000000000E+00 0.  1.
         11    1    1    2    0    0  0.46937611070E+02  0.14812507313E+02 -0.33812827391E+02  0.59714797178E+02  0.00000000000E+00 0. -1.
<mgrwt>
<rscale>  0 0.12683610E+03</rscale>
<asrwt>0</asrwt>
<pdfrwt beam="2">  1        2 0.38987875E-01 0.13472281E+03</pdfrwt>
<pdfrwt beam="1">  1       -2 0.12013089E-01 0.13472281E+03</pdfrwt>
<totfact> 0.61810244E+03</totfact>
</mgrwt>
</event>
<event>
 6    1  0.5258538E-006  0.1921158E+03  0.7546771E-02  0.1161533E+00
         -1   -1    0    0    0  501 -0.00000000000E+00  0.00000000000E+00  0.14120501668E+03  0.14120501668E+03  0.00000000000E+00 0.  1.
          1   -1    0    0  501    0  0.00000000000E+00 -0.00000000000E+00 -0.23406391917E+03  0.23406391917E+03  0.00000000000E+00 0. -1.
          5    1    1    2  502    0 -0.67506812193E+02 -0.16868040024E+02 -0.69804668177E+02  0.98673614335E+02  0.47000000000E+01 0.  1.
         -5    1    1    2    0  502 -0.72242821750E+02  0.58744870003E+02  0.29178768740E+02  0.97690713946E+02  0.47000000000E+01 0.  1.
        -11    1    1    2    0    0  0.50580850523E+02 -0.50823097086E+02 -0.53198101227E+02  0.89282963723E+02  0.00000000000E+00 0.  1.
         11    1    1    2    0    0  0.89168783420E+02  0.89462671061E+01  0.96509817076E+00  0.89621643849E+02  0.00000000000E+00 0. -1.
<mgrwt>
<rscale>  0 0.18663413E+03</rscale>
<asrwt>0</asrwt>
<pdfrwt beam="2">  1        1 0.36009833E-01 0.19211581E+03</pdfrwt>
<pdfrwt beam="1">  1       -1 0.21723849E-01 0.19211581E+03</pdfrwt>
<totfact> 0.20864863E+03</totfact>
</mgrwt>
</event>
<event>
 6    1  0.5258538E-006  0.1544766E+03  0.7546771E-02  0.1209313E+00
         -1   -1    0    0    0  501 -0.00000000000E+00  0.00000000000E+00  0.18067536085E+02  0.18067536085E+02  0.00000000000E+00 0.  1.
          1   -1    0    0  501    0  0.00000000000E+00 -0.00000000000E+00 -0.10008427967E+04  0.10008427967E+04  0.00000000000E+00 0. -1.
          5    1    1    2  502    0 -0.18630415937E+01  0.22894741593E+02 -0.26361048357E+03  0.26465112349E+03  0.47000000000E+01 0.  1.
         -5    1    1    2    0  502  0.20760043410E+02 -0.11167298267E+03 -0.34448030732E+03  0.36275419583E+03  0.47000000000E+01 0.  1.
        -11    1    1    2    0    0  0.19845851713E+02  0.25066266068E+02 -0.58706451807E+02  0.66847759937E+02  0.00000000000E+00 0.  1.
         11    1    1    2    0    0 -0.38742853530E+02  0.63711975014E+02 -0.31597801792E+03  0.32465725353E+03  0.00000000000E+00 0. -1.
<mgrwt>
<rscale>  0 0.14302735E+03</rscale>
<asrwt>0</asrwt>
<pdfrwt beam="2">  1        1 0.15397582E+00 0.15447662E+03</pdfrwt>
<pdfrwt beam="1">  1       -1 0.27796208E-02 0.15447662E+03</pdfrwt>
<totfact> 0.65900206E+03</totfact>
</mgrwt>
</event>
<event>
 6    1  0.5258538E-006  0.1491118E+03  0.7546771E-02  0.1210570E+00
         -1   -1    0    0    0  501 -0.00000000000E+00  0.00000000000E+00  0.75827683863E+02  0.75827683863E+02  0.00000000000E+00 0.  1.
          1   -1    0    0  501    0  0.00000000000E+00 -0.00000000000E+00 -0.31145292092E+03  0.31145292092E+03  0.00000000000E+00 0. -1.
          5    1    1    2  502    0  0.65878911127E+02 -0.62488516646E+02 -0.22889727736E+03  0.24629433454E+03  0.47000000000E+01 0. -1.
         -5    1    1    2    0  502 -0.92211847173E+01  0.41886320174E+01  0.12335271683E+02  0.16638023118E+02  0.47000000000E+01 0. -1.
        -11    1    1    2    0    0 -0.57358270700E+02  0.68560280824E+02 -0.42333230478E+02  0.98906954897E+02  0.00000000000E+00 0. -1.
         11    1    1    2    0    0  0.70054429073E+00 -0.10260396196E+02  0.23269999095E+02  0.25441292229E+02  0.00000000000E+00 0.  1.
<mgrwt>
<rscale>  0 0.14207013E+03</rscale>
<asrwt>0</asrwt>
<pdfrwt beam="2">  1        1 0.47915833E-01 0.14911178E+03</pdfrwt>
<pdfrwt beam="1">  1       -1 0.11665798E-01 0.14911178E+03</pdfrwt>
<totfact> 0.38766097E+03</totfact>
</mgrwt>
</event>
<event>
 6    1  0.5258538E-006  0.1860258E+03  0.7546771E-02  0.1167205E+00
         -2   -1    0    0    0  501 -0.00000000000E+00  0.00000000000E+00  0.44015735288E+02  0.44015735288E+02  0.00000000000E+00 0.  1.
          2   -1    0    0  501    0  0.00000000000E+00 -0.00000000000E+00 -0.70258465796E+03  0.70258465796E+03  0.00000000000E+00 0. -1.
          5    1    1    2  502    0  0.60602011861E+02  0.61007052472E+02 -0.15192308847E+03  0.17463441558E+03  0.47000000000E+01 0.  1.
         -5    1    1    2    0  502 -0.62653644806E+02  0.76745675847E+02 -0.21349848370E+03  0.23541255385E+03  0.47000000000E+01 0.  1.
        -11    1    1    2    0    0  0.18629121295E+02 -0.14399832877E+03 -0.27618645717E+03  0.31202807882E+03  0.00000000000E+00 0.  1.
         11    1    1    2    0    0 -0.16577488350E+02  0.62456004459E+01 -0.16960893332E+02  0.24525345004E+02  0.00000000000E+00 0. -1.
<mgrwt>
<rscale>  0 0.18061984E+03</rscale>
<asrwt>0</asrwt>
<pdfrwt beam="2">  1        2 0.10808995E+00 0.18602578E+03</pdfrwt>
<pdfrwt beam="1">  1       -2 0.67716514E-02 0.18602578E+03</pdfrwt>
<totfact> 0.50344493E+03</totfact>
</mgrwt>
</event>
<event>
 6    1  0.5258538E-006  0.2322372E+03  0.7546771E-02  0.1127838E+00
         -2   -1    0    0    0  501 -0.00000000000E+00  0.00000000000E+00  0.12712529580E+03  0.12712529580E+03  0.00000000000E+00 0.  1.
          2   -1    0    0  501    0  0.00000000000E+00 -0.00000000000E+00 -0.39684460005E+03  0.39684460005E+03  0.00000000000E+00 0. -1.
          5    1    1    2  502    0  0.41725601138E+02 -0.17614006795E+03 -0.76588485966E+02  0.19660680434E+03  0.47000000000E+01 0. -1.
         -5    1    1    2    0  502  0.35824480670E+02 -0.35625825010E+01 -0.67650939870E+02  0.76777764194E+02  0.47000000000E+01 0. -1.
        -11    1    1    2    0    0 -0.30460616041E+02  0.19165718798E+02 -0.61917894428E+02  0.71617033987E+02  0.00000000000E+00 0. -1.
         11    1    1    2    0    0 -0.47089465767E+02  0.16053693166E+03 -0.63561983984E+02  0.17896829334E+03  0.00000000000E+00 0.  1.
<mgrwt>
<rscale>  0 0.22830543E+03</rscale>
<asrwt>0</asrwt>
<pdfrwt beam="2">  1        2 0.61053016E-01 0.23223719E+03</pdfrwt>
<pdfrwt beam="1">  1       -2 0.19557738E-01 0.23223719E+03</pdfrwt>
<totfact> 0.17513359E+03</totfact>
</mgrwt>
</event>
<event>
 6    1  0.5258538E-006  0.1705373E+03  0.7546771E-02  0.1183714E+00
          2   -1    0    0  501    0  0.00000000000E+00  0.00000000000E+00  0.51193431149E+02  0.51193431149E+02  0.00000000000E+00 0.  1.
         -2   -1    0    0    0  501 -0.00000000000E+00 -0.00000000000E+00 -0.56907070883E+03  0.56907070883E+03  0.00000000000E+00 0. -1.
          5    1    1    2  502    0  0.52873351633E+02 -0.99475035299E+02 -0.77458495623E+02  0.13679467279E+03  0.47000000000E+01 0.  1.
         -5    1    1    2    0  502  0.39916428189E+02  0.29844094837E+02 -0.85534730615E+02  0.99107372972E+02  0.47000000000E+01 0.  1.
        -11    1    1    2    0    0  0.11017310556E+01  0.13518493442E+02 -0.59927904054E+00  0.13576546381E+02  0.00000000000E+00 0.  1.
         11    1    1    2    0    0 -0.93891510878E+02  0.56112447020E+02 -0.35428477240E+03  0.37078554783E+03  0.00000000000E+00 0. -1.
<mgrwt>
<rscale>  0 0.16449419E+03</rscale>
<asrwt>0</asrwt>
<pdfrwt beam="1">  1        2 0.78759122E-02 0.17053734E+03</pdfrwt>
<pdfrwt beam="2">  1       -2 0.87549343E-01 0.17053734E+03</pdfrwt>
<totfact> 0.99290067E+02</totfact>
</mgrwt>
</event>
<event>
 6    1  0.5258538E-006  0.1437390E+03  0.7546771E-02  0.1219991E+00
         -2   -1    0    0    0  501 -0.00000000000E+00  0.00000000000E+00  0.27863390421E+02  0.27863390421E+02  0.00000000000E+00 0. -1.
          2   -1    0    0  501    0  0.00000000000E+00 -0.00000000000E+00 -0.60393284978E+03  0.60393284978E+03  0.00000000000E+00 0.  1.
          5    1    1    2  502    0  0.18978909189E+01  0.11515140730E+02  0.57058908983E+01  0.13814761920E+02  0.47000000000E+01 0. -1.
         -5    1    1    2    0  502  0.64217716191E+02 -0.37330183955E+02 -0.37812801495E+03  0.38538337198E+03  0.47000000000E+01 0. -1.
        -11    1    1    2    0    0 -0.16798340710E+02 -0.64450890714E+01  0.25251278848E+01  0.18168645921E+02  0.00000000000E+00 0. -1.
         11    1    1    2    0    0 -0.49317266400E+02  0.32260132296E+02 -0.20617246319E+03  0.21442946038E+03  0.00000000000E+00 0.  1.
<mgrwt>
<rscale>  0 0.13516210E+03</rscale>
<asrwt>0</asrwt>
<pdfrwt beam="2">  1        2 0.92912747E-01 0.14373904E+03</pdfrwt>
<pdfrwt beam="1">  1       -2 0.42866754E-02 0.14373904E+03</pdfrwt>
<totfact> 0.11849157E+04</totfact>
</mgrwt>
</event>
<event>
 6    1  0.5258538E-006  0.1272258E+03  0.7546771E-02  0.1245793E+00
         -3   -1    0    0    0  501 -0.00000000000E+00  0.00000000000E+00  0.96153473948E+02  0.96153473948E+02  0.00000000000E+00 0.  1.
          3   -1    0    0  501    0  0.00000000000E+00 -0.00000000000E+00 -0.12883100882E+03  0.12883100882E+03  0.00000000000E+00 0. -1.
          5    1    1    2  502    0 -0.12552451002E+02 -0.11889878434E+02 -0.64295643998E+02  0.66745434843E+02  0.47000000000E+01 0.  1.
         -5    1    1    2    0  502  0.23237851167E+02  0.33023491761E+02  0.46448563840E+02  0.61726070811E+02  0.47000000000E+01 0.  1.
        -11    1    1    2    0    0  0.22041232316E+02  0.17997234784E+02 -0.31874899635E+02  0.42728510489E+02  0.00000000000E+00 0. -1.
         11    1    1    2    0    0 -0.32726632481E+02 -0.39130848112E+02  0.17044444920E+02  0.53784466625E+02  0.00000000000E+00 0.  1.
<mgrwt>
<rscale>  0 0.11838063E+03</rscale>
<asrwt>0</asrwt>
<pdfrwt beam="2">  1        3 0.19820155E-01 0.12722582E+03</pdfrwt>
<pdfrwt beam="1">  1       -3 0.14792842E-01 0.12722582E+03</pdfrwt>
<totfact> 0.19652065E+03</totfact>
</mgrwt>
</event>
<event>
 6    1  0.5258538E-006  0.1165644E+03  0.7546771E-02  0.1259348E+00
         -1   -1    0    0    0  501 -0.00000000000E+00  0.00000000000E+00  0.10043995364E+03  0.10043995364E+03  0.00000000000E+00 0.  1.
          1   -1    0    0  501    0  0.00000000000E+00 -0.00000000000E+00 -0.28311911786E+03  0.28311911786E+03  0.00000000000E+00 0. -1.
          5    1    1    2  502    0  0.47342194586E+02 -0.16533163068E+02 -0.20852707630E+03  0.21452333304E+03  0.47000000000E+01 0. -1.
         -5    1    1    2    0  502 -0.43009552391E+02  0.58123026142E+00 -0.35704167297E+02  0.56098457981E+02  0.47000000000E+01 0.  1.
        -11    1    1    2    0    0 -0.28828875245E+02  0.41322650049E+02  0.58988194546E+02  0.77577526067E+02  0.00000000000E+00 0.  1.
         11    1    1    2    0    0  0.24496233050E+02 -0.25370717242E+02  0.25638848323E+01  0.35359754417E+02  0.00000000000E+00 0. -1.
<mgrwt>
<rscale>  0 0.11066244E+03</rscale>
<asrwt>0</asrwt>
<pdfrwt beam="2">  1        1 0.43556787E-01 0.11656437E+03</pdfrwt>
<pdfrwt beam="1">  1       -1 0.15452301E-01 0.11656437E+03</pdfrwt>
<totfact> 0.27857929E+03</totfact>
</mgrwt>
</event>
<event>
 6    1  0.5258538E-006  0.1609126E+03  0.7546771E-02  0.1193370E+00
          2   -1    0    0  501    0  0.00000000000E+00  0.00000000000E+00  0.82857061686E+03  0.82857061686E+03  0.00000000000E+00 0. -1.
         -2   -1    0    0    0  501 -0.00000000000E+00 -0.00000000000E+00 -0.32258415206E+02  0.32258415206E+02  0.00000000000E+00 0.  1.
          5    1    1    2  502    0 -0.49946761369E+02 -0.10417289237E+02  0.47159171428E+03  0.47436698227E+03  0.47000000000E+01 0. -1.
         -5    1    1    2    0  502 -0.42186918508E+02  0.52566339388E+02  0.11016619669E+03  0.12923481351E+03  0.47000000000E+01 0. -1.
        -11    1    1    2    0    0  0.10948120103E+03 -0.37194837878E+02  0.20810156315E+03  0.23806690222E+03  0.00000000000E+00 0. -1.
         11    1    1    2    0    0 -0.17347521152E+02 -0.49542122722E+01  0.64527275327E+01  0.19160334078E+02  0.00000000000E+00 0.  1.
<mgrwt>
<rscale>  0 0.15592983E+03</rscale>
<asrwt>0</asrwt>
<pdfrwt beam="1">  1        2 0.12747239E+00 0.16091259E+03</pdfrwt>
<pdfrwt beam="2">  1       -2 0.49628337E-02 0.16091259E+03</pdfrwt>
<totfact> 0.65509298E+03</totfact>
</mgrwt>
</event>
<event>
 6    1  0.5258538E-006  0.9742933E+03  0.7546771E-02  0.1011263E+00
         -2   -1    0    0    0  501 -0.00000000000E+00  0.00000000000E+00  0.21381746866E+03  0.21381746866E+03  0.00000000000E+00 0.  1.
          2   -1    0    0  501    0  0.00000000000E+00 -0.00000000000E+00 -0.13461214991E+04  0.13461214991E+04  0.00000000000E+00 0. -1.
          5    1    1    2  502    0 -0.27358091345E+02  0.38554410853E+03 -0.98356117949E+03  0.10567910903E+04  0.47000000000E+01 0. -1.
         -5    1    1    2    0  502  0.57961437598E+02 -0.40223241475E+03 -0.13880574735E+03  0.42946428166E+03  0.47000000000E+01 0.  1.
        -11    1    1    2    0    0 -0.21908717774E+02  0.37510625520E+02  0.88372555845E+01  0.44329854812E+02  0.00000000000E+00 0. -1.
         11    1    1    2    0    0 -0.86946284785E+01 -0.20822319298E+02 -0.18774359150E+02  0.29353740934E+02  0.00000000000E+00 0.  1.
<mgrwt>
<rscale>  0 0.50975743E+03</rscale>
<asrwt>0</asrwt>
<pdfrwt beam="2">  1        2 0.20709562E+00 0.97429334E+03</pdfrwt>
<pdfrwt beam="1">  1       -2 0.32894995E-01 0.97429334E+03</pdfrwt>
<totfact> 0.13388234E+02</totfact>
</mgrwt>
</event>
<event>
 6    1  0.5258538E-006  0.1268986E+03  0.7546771E-02  0.1247342E+00
          2   -1    0    0  501    0  0.00000000000E+00  0.00000000000E+00  0.91097016946E+02  0.91097016946E+02  0.00000000000E+00 0. -1.
         -2   -1    0    0    0  501 -0.00000000000E+00 -0.00000000000E+00 -0.13297999353E+03  0.13297999353E+03  0.00000000000E+00 0.  1.
          5    1    1    2  502    0 -0.23993249107E+02 -0.62648435749E+02 -0.12957157114E+02  0.68487082175E+02  0.47000000000E+01 0.  1.
         -5    1    1    2    0  502  0.37917361864E+02  0.45771725316E+02 -0.13945525159E+02  0.61231893986E+02  0.47000000000E+01 0.  1.
        -11    1    1    2    0    0  0.34951964128E+02 -0.25793795093E+01  0.95337002473E+01  0.36320578677E+02  0.00000000000E+00 0. -1.
         11    1    1    2    0    0 -0.48876076886E+02  0.19456089942E+02 -0.24513994557E+02  0.58037455636E+02  0.00000000000E+00 0.  1.
<mgrwt>
<rscale>  0 0.11746313E+03</rscale>
<asrwt>0</asrwt>
<pdfrwt beam="1">  1        2 0.14014926E-01 0.12689861E+03</pdfrwt>
<pdfrwt beam="2">  1       -2 0.20458460E-01 0.12689861E+03</pdfrwt>
<totfact> 0.80203870E+03</totfact>
</mgrwt>
</event>
<event>
 6    1  0.5258538E-006  0.1533549E+03  0.7546771E-02  0.1205240E+00
         -1   -1    0    0    0  501 -0.00000000000E+00  0.00000000000E+00  0.20298582618E+03  0.20298582618E+03  0.00000000000E+00 0.  1.
          1   -1    0    0  501    0  0.00000000000E+00 -0.00000000000E+00 -0.17112835497E+03  0.17112835497E+03  0.00000000000E+00 0. -1.
          5    1    1    2  502    0 -0.74933956876E+02  0.32816247002E+02 -0.11943380281E+02  0.82805424296E+02  0.47000000000E+01 0.  1.
         -5    1    1    2    0  502 -0.13563070346E+02 -0.40705046657E+02 -0.94441710205E+02  0.10383729738E+03  0.47000000000E+01 0.  1.
        -11    1    1    2    0    0  0.11388845681E+02  0.40990369435E+02  0.41960359157E+02  0.59754396767E+02  0.00000000000E+00 0. -1.
         11    1    1    2    0    0  0.77108181540E+02 -0.33101569780E+02  0.96282202539E+02  0.12771706271E+03  0.00000000000E+00 0.  1.
<mgrwt>
<rscale>  0 0.14618583E+03</rscale>
<asrwt>0</asrwt>
<pdfrwt beam="2">  1        1 0.26327439E-01 0.15335488E+03</pdfrwt>
<pdfrwt beam="1">  1       -1 0.31228589E-01 0.15335488E+03</pdfrwt>
<totfact> 0.16781157E+03</totfact>
</mgrwt>
</event>
<event>
 6    1  0.5258538E-006  0.2598921E+03  0.7546771E-02  0.1109403E+00
         -1   -1    0    0    0  501 -0.00000000000E+00  0.00000000000E+00  0.12580609482E+03  0.12580609482E+03  0.00000000000E+00 0.  1.
          1   -1    0    0  501    0  0.00000000000E+00 -0.00000000000E+00 -0.63986040222E+03  0.63986040222E+03  0.00000000000E+00 0. -1.
          5    1    1    2  502    0 -0.10365355375E+03  0.19152898082E+02 -0.22628478955E+03  0.24967536661E+03  0.47000000000E+01 0.  1.
         -5    1    1    2    0  502 -0.10754197791E+03 -0.10468708854E+03 -0.21018958496E+03  0.25831456627E+03  0.47000000000E+01 0.  1.
        -11    1    1    2    0    0  0.26505335250E+02 -0.91148725985E+01  0.13414625260E+02  0.31073555800E+02  0.00000000000E+00 0. -1.
         11    1    1    2    0    0  0.18469019641E+03  0.94649063054E+02 -0.90994558141E+02  0.22660300836E+03  0.00000000000E+00 0.  1.
<mgrwt>
<rscale>  0 0.25627434E+03</rscale>
<asrwt>0</asrwt>
<pdfrwt beam="2">  1        1 0.98440062E-01 0.25989208E+03</pdfrwt>
<pdfrwt beam="1">  1       -1 0.19354784E-01 0.25989208E+03</pdfrwt>
<totfact> 0.68612779E+02</totfact>
</mgrwt>
</event>
<event>
 6    1  0.5258538E-006  0.2327974E+03  0.7546771E-02  0.1157243E+00
         -1   -1    0    0    0  501 -0.00000000000E+00  0.00000000000E+00  0.90071769572E+02  0.90071769572E+02  0.00000000000E+00 0.  1.
          1   -1    0    0  501    0  0.00000000000E+00 -0.00000000000E+00 -0.50217154998E+03  0.50217154998E+03  0.00000000000E+00 0. -1.
          5    1    1    2  502    0  0.10657081632E+03  0.90671378340E+02 -0.27756879822E+03  0.31087805565E+03  0.47000000000E+01 0. -1.
         -5    1    1    2    0  502 -0.82216420172E+02 -0.40759385164E+02 -0.14803521574E+03  0.17423370031E+03  0.47000000000E+01 0.  1.
        -11    1    1    2    0    0 -0.41242541471E+02 -0.66703572861E+02  0.22636300434E+02  0.81625461449E+02  0.00000000000E+00 0.  1.
         11    1    1    2    0    0  0.16888145326E+02  0.16791579685E+02 -0.91320668823E+01  0.25506102141E+02  0.00000000000E+00 0. -1.
<mgrwt>
<rscale>  0 0.19135661E+03</rscale>
<asrwt>0</asrwt>
<pdfrwt beam="2">  1        1 0.77257162E-01 0.23279742E+03</pdfrwt>
<pdfrwt beam="1">  1       -1 0.13857195E-01 0.23279742E+03</pdfrwt>
<totfact> 0.16326481E+03</totfact>
</mgrwt>
</event>
<event>
 6    1  0.5258538E-006  0.1359866E+03  0.7546771E-02  0.1230986E+00
          2   -1    0    0  501    0  0.00000000000E+00  0.00000000000E+00  0.27669286735E+04  0.27669286735E+04  0.00000000000E+00 0.  1.
         -2   -1    0    0    0  501 -0.00000000000E+00 -0.00000000000E+00 -0.99916602846E+01  0.99916602846E+01  0.00000000000E+00 0. -1.
          5    1    1    2  502    0  0.47515041146E+02  0.43019234144E+02  0.93832540200E+03  0.94052378156E+03  0.47000000000E+01 0. -1.
         -5    1    1    2    0  502 -0.76459048906E+00 -0.69125185438E+02  0.14819114358E+04  0.14835304073E+04  0.47000000000E+01 0. -1.
        -11    1    1    2    0    0  0.12169858682E+02  0.46767552778E+01  0.30673623046E+01  0.13393513795E+02  0.00000000000E+00 0. -1.
         11    1    1    2    0    0 -0.58920309339E+02  0.21429196017E+02  0.33363281312E+03  0.33947263112E+03  0.00000000000E+00 0.  1.
<mgrwt>
<rscale>  0 0.12764957E+03</rscale>
<asrwt>0</asrwt>
<pdfrwt beam="1">  1        2 0.42568073E+00 0.13598662E+03</pdfrwt>
<pdfrwt beam="2">  1       -2 0.15371807E-02 0.13598662E+03</pdfrwt>
<totfact> 0.32754585E+03</totfact>
</mgrwt>
</event>
<event>
 6    1  0.5258538E-006  0.1354421E+03  0.7546771E-02  0.1231923E+00
          2   -1    0    0  501    0  0.00000000000E+00  0.00000000000E+00  0.10004967868E+04  0.10004967868E+04  0.00000000000E+00 0.  1.
         -2   -1    0    0    0  501 -0.00000000000E+00 -0.00000000000E+00 -0.17594870706E+02  0.17594870706E+02  0.00000000000E+00 0. -1.
          5    1    1    2  502    0  0.18857672626E+02  0.19884237454E+02  0.49615470999E+03  0.49693317555E+03  0.47000000000E+01 0.  1.
         -5    1    1    2    0  502 -0.68526752278E+02 -0.35777096992E+02  0.26130328215E+03  0.27253882606E+03  0.47000000000E+01 0.  1.
        -11    1    1    2    0    0  0.13571214581E+02 -0.33157993909E+02  0.41344847482E+02  0.54708562754E+02  0.00000000000E+00 0. -1.
         11    1    1    2    0    0  0.36097865070E+02  0.49050853446E+02  0.18409907646E+03  0.19391109314E+03  0.00000000000E+00 0.  1.
<mgrwt>
<rscale>  0 0.12703515E+03</rscale>
<asrwt>0</asrwt>
<pdfrwt beam="1">  1        2 0.15392254E+00 0.13544206E+03</pdfrwt>
<pdfrwt beam="2">  1       -2 0.27069040E-02 0.13544206E+03</pdfrwt>
<totfact> 0.12446814E+04</totfact>
</mgrwt>
</event>
<event>
 6    1  0.5258538E-006  0.1292193E+03  0.7546771E-02  0.1240181E+00
         -1   -1    0    0    0  501 -0.00000000000E+00  0.00000000000E+00  0.36961442950E+02  0.36961442950E+02  0.00000000000E+00 0.  1.
          1   -1    0    0  501    0  0.00000000000E+00 -0.00000000000E+00 -0.38128842896E+03  0.38128842896E+03  0.00000000000E+00 0. -1.
          5    1    1    2  502    0  0.54028212578E+02  0.17298256220E+02 -0.22741397481E+03  0.23443012469E+03  0.47000000000E+01 0. -1.
         -5    1    1    2    0  502 -0.33917023645E+02  0.85573226343E+01 -0.11378263082E+02  0.37082976342E+02  0.47000000000E+01 0. -1.
        -11    1    1    2    0    0 -0.48706187728E+02 -0.89477415170E+01 -0.10192893435E+03  0.11332194165E+03  0.00000000000E+00 0. -1.
         11    1    1    2    0    0  0.28594998795E+02 -0.16907837337E+02 -0.36058137657E+01  0.33414829229E+02  0.00000000000E+00 0.  1.
<mgrwt>
<rscale>  0 0.12178503E+03</rscale>
<asrwt>0</asrwt>
<pdfrwt beam="2">  1        1 0.58659758E-01 0.12921931E+03</pdfrwt>
<pdfrwt beam="1">  1       -1 0.56863759E-02 0.12921931E+03</pdfrwt>
<totfact> 0.88505685E+03</totfact>
</mgrwt>
</event>
<event>
 6    1  0.5258538E-006  0.2084222E+03  0.7546771E-02  0.1147145E+00
          2   -1    0    0  501    0  0.00000000000E+00  0.00000000000E+00  0.31972330786E+03  0.31972330786E+03  0.00000000000E+00 0.  1.
         -2   -1    0    0    0  501 -0.00000000000E+00 -0.00000000000E+00 -0.14382130962E+03  0.14382130962E+03  0.00000000000E+00 0. -1.
          5    1    1    2  502    0  0.49164841569E+02 -0.52312752189E+02  0.42871683109E+02  0.83748891937E+02  0.47000000000E+01 0.  1.
         -5    1    1    2    0  502 -0.71676821255E+02 -0.11294757703E+03  0.13735682532E+03  0.19179079572E+03  0.47000000000E+01 0.  1.
        -11    1    1    2    0    0 -0.33675779845E+01  0.13094973567E+03 -0.34540808514E+02  0.13547044440E+03  0.00000000000E+00 0. -1.
         11    1    1    2    0    0  0.25879557671E+02  0.34310593547E+02  0.30214298332E+02  0.52534485421E+02  0.00000000000E+00 0.  1.
<mgrwt>
<rscale>  0 0.20310541E+03</rscale>
<asrwt>0</asrwt>
<pdfrwt beam="1">  1        2 0.49188201E-01 0.20842218E+03</pdfrwt>
<pdfrwt beam="2">  1       -2 0.22126355E-01 0.20842218E+03</pdfrwt>
<totfact> 0.17844044E+03</totfact>
</mgrwt>
</event>
<event>
 6    1  0.5258538E-006  0.1726884E+03  0.7546771E-02  0.1181326E+00
          2   -1    0    0  501    0  0.00000000000E+00  0.00000000000E+00  0.75002362260E+02  0.75002362260E+02  0.00000000000E+00 0.  1.
         -2   -1    0    0    0  501 -0.00000000000E+00 -0.00000000000E+00 -0.34787572088E+03  0.34787572088E+03  0.00000000000E+00 0. -1.
          5    1    1    2  502    0 -0.71815456056E+02  0.45472952554E+02 -0.13801542939E+02  0.86242806831E+02  0.47000000000E+01 0. -1.
         -5    1    1    2    0  502 -0.26488314847E+02  0.21844019137E+02 -0.14257829015E+03  0.14672917507E+03  0.47000000000E+01 0. -1.
        -11    1    1    2    0    0  0.53978126859E+01 -0.40261685965E+02 -0.29587448318E+01  0.40729521351E+02  0.00000000000E+00 0.  1.
         11    1    1    2    0    0  0.92905958217E+02 -0.27055285726E+02 -0.11353478070E+03  0.14917657988E+03  0.00000000000E+00 0. -1.
<mgrwt>
<rscale>  0 0.16670735E+03</rscale>
<asrwt>0</asrwt>
<pdfrwt beam="1">  1        2 0.11538825E-01 0.17268843E+03</pdfrwt>
<pdfrwt beam="2">  1       -2 0.53519340E-01 0.17268843E+03</pdfrwt>
<totfact> 0.17589651E+03</totfact>
</mgrwt>
</event>
<event>
 6    1  0.5258538E-006  0.1355646E+03  0.7546771E-02  0.1229448E+00
         -1   -1    0    0    0  501 -0.00000000000E+00  0.00000000000E+00  0.26921876980E+03  0.26921876980E+03  0.00000000000E+00 0.  1.
          1   -1    0    0  501    0  0.00000000000E+00 -0.00000000000E+00 -0.91883904312E+02  0.91883904312E+02  0.00000000000E+00 0. -1.
          5    1    1    2  502    0 -0.46196728941E+02  0.37026435026E+02 -0.20039683837E+02  0.62679929674E+02  0.47000000000E+01 0.  1.
         -5    1    1    2    0  502  0.73511364669E+02  0.77943192846E+01  0.18739348038E+01  0.74096381695E+02  0.47000000000E+01 0.  1.
        -11    1    1    2    0    0 -0.28681619172E+02 -0.12884390731E+02  0.58270417411E+01  0.31978074024E+02  0.00000000000E+00 0. -1.
         11    1    1    2    0    0  0.13669834437E+01 -0.31936363580E+02  0.18967357278E+03  0.19234828872E+03  0.00000000000E+00 0.  1.
<mgrwt>
<rscale>  0 0.12866669E+03</rscale>
<asrwt>0</asrwt>
<pdfrwt beam="2">  1        1 0.14135985E-01 0.13556462E+03</pdfrwt>
<pdfrwt beam="1">  1       -1 0.41418272E-01 0.13556462E+03</pdfrwt>
<totfact> 0.22693626E+03</totfact>
</mgrwt>
</event>
<event>
 6    1  0.5258538E-006  0.1768200E+03  0.7546771E-02  0.1176710E+00
         -2   -1    0    0    0  501 -0.00000000000E+00  0.00000000000E+00  0.16639414785E+02  0.16639414785E+02  0.00000000000E+00 0.  1.
          2   -1    0    0  501    0  0.00000000000E+00 -0.00000000000E+00 -0.18268179341E+04  0.18268179341E+04  0.00000000000E+00 0. -1.
          5    1    1    2  502    0  0.40616329368E+02  0.82202457572E+02 -0.36651686291E+03  0.37784074825E+03  0.47000000000E+01 0.  1.
         -5    1    1    2    0  502 -0.19869628790E+02  0.41125843767E+02 -0.87507114197E+03  0.87627491729E+03  0.47000000000E+01 0.  1.
        -11    1    1    2    0    0  0.20482490294E+02 -0.10021799554E+03 -0.45411127179E+03  0.46548923318E+03  0.00000000000E+00 0. -1.
         11    1    1    2    0    0 -0.41229190872E+02 -0.23110305797E+02 -0.11447924266E+03  0.12385245018E+03  0.00000000000E+00 0.  1.
<mgrwt>
<rscale>  0 0.17109580E+03</rscale>
<asrwt>0</asrwt>
<pdfrwt beam="2">  1        2 0.28104905E+00 0.17682005E+03</pdfrwt>
<pdfrwt beam="1">  1       -2 0.25599087E-02 0.17682005E+03</pdfrwt>
<totfact> 0.48921199E+03</totfact>
</mgrwt>
</event>
<event>
 6    1  0.5258538E-006  0.1504183E+03  0.7546771E-02  0.1209309E+00
          2   -1    0    0  501    0  0.00000000000E+00  0.00000000000E+00  0.14907538149E+04  0.14907538149E+04  0.00000000000E+00 0. -1.
         -2   -1    0    0    0  501 -0.00000000000E+00 -0.00000000000E+00 -0.16569950446E+02  0.16569950446E+02  0.00000000000E+00 0.  1.
          5    1    1    2  502    0 -0.17719983845E+02  0.14030195556E+02  0.29384066689E+02  0.37367868417E+02  0.47000000000E+01 0.  1.
         -5    1    1    2    0  502 -0.58544640053E+02  0.20140742729E+02  0.11342091975E+04  0.11359074426E+04  0.47000000000E+01 0.  1.
        -11    1    1    2    0    0 -0.12223881181E+02 -0.30651902703E+02  0.10846196675E+03  0.11337089857E+03  0.00000000000E+00 0.  1.
         11    1    1    2    0    0  0.88488505078E+02 -0.35190355819E+01  0.20212863348E+03  0.22067755576E+03  0.00000000000E+00 0. -1.
<mgrwt>
<rscale>  0 0.14302968E+03</rscale>
<asrwt>0</asrwt>
<pdfrwt beam="1">  1        2 0.22934664E+00 0.15041832E+03</pdfrwt>
<pdfrwt beam="2">  1       -2 0.25492243E-02 0.15041832E+03</pdfrwt>
<totfact> 0.73250548E+03</totfact>
</mgrwt>
</event>
<event>
 6    1  0.1174457E-005  0.2742214E+03  0.7546771E-02  0.1098888E+00
         -1   -1    0    0    0  501 -0.00000000000E+00  0.00000000000E+00  0.80978017044E+02  0.80978017044E+02  0.00000000000E+00 0.  1.
          1   -1    0    0  501    0  0.00000000000E+00 -0.00000000000E+00 -0.23215362843E+03  0.23215362843E+03  0.00000000000E+00 0. -1.
          5    1    1    2  502    0  0.63383473281E+02 -0.65788351124E+02 -0.26384772246E+02  0.95204086232E+02  0.47000000000E+01 0. -1.
         -5    1    1    2    0  502  0.44120137529E+00  0.21122895947E+02 -0.89862522543E+02  0.92432323078E+02  0.47000000000E+01 0. -1.
        -11    1    1    2    0    0 -0.16530804508E+02  0.37997203780E+02 -0.58931309062E+02  0.72041336610E+02  0.00000000000E+00 0. -1.
         11    1    1    2    0    0 -0.47293870149E+02  0.66682513975E+01  0.24002992465E+02  0.53453899555E+02  0.00000000000E+00 0.  1.
<mgrwt>
<rscale>  0 0.27422137E+03</rscale>
<asrwt>0</asrwt>
<pdfrwt beam="2">  1        1 0.35715942E-01 0.27422137E+03</pdfrwt>
<pdfrwt beam="1">  1       -1 0.12458157E-01 0.27422137E+03</pdfrwt>
<totfact> 0.52021018E+03</totfact>
</mgrwt>
</event>
<event>
 6    1  0.5258538E-006  0.2293214E+03  0.7546771E-02  0.1130164E+00
          1   -1    0    0  501    0  0.00000000000E+00  0.00000000000E+00  0.12521084396E+04  0.12521084396E+04  0.00000000000E+00 0. -1.
         -1   -1    0    0    0  501 -0.00000000000E+00 -0.00000000000E+00 -0.39121059913E+02  0.39121059913E+02  0.00000000000E+00 0.  1.
          5    1    1    2  502    0 -0.52270859198E+02 -0.15959515265E+03  0.38037207580E+03  0.41582191082E+03  0.47000000000E+01 0. -1.
         -5    1    1    2    0  502  0.45215488974E+02 -0.32531620465E+02  0.21613592552E+03  0.22324778850E+03  0.47000000000E+01 0. -1.
        -11    1    1    2    0    0  0.43405422041E+02  0.56504530794E+02  0.23982707078E+03  0.25018756273E+03  0.00000000000E+00 0.  1.
         11    1    1    2    0    0 -0.36350051816E+02  0.13562224232E+03  0.37665230759E+03  0.40197223746E+03  0.00000000000E+00 0. -1.
<mgrwt>
<rscale>  0 0.22506315E+03</rscale>
<asrwt>0</asrwt>
<pdfrwt beam="1">  1        1 0.19263204E+00 0.22932136E+03</pdfrwt>
<pdfrwt beam="2">  1       -1 0.60186256E-02 0.22932136E+03</pdfrwt>
<totfact> 0.14021760E+03</totfact>
</mgrwt>
</event>
<event>
 6    1  0.5258538E-006  0.1440312E+03  0.7546771E-02  0.1215252E+00
         -1   -1    0    0    0  501 -0.00000000000E+00  0.00000000000E+00  0.25692198389E+03  0.25692198389E+03  0.00000000000E+00 0.  1.
          1   -1    0    0  501    0  0.00000000000E+00 -0.00000000000E+00 -0.75644393890E+02  0.75644393890E+02  0.00000000000E+00 0. -1.
          5    1    1    2  502    0 -0.59298634868E+02 -0.41961641024E+01 -0.21161937556E+02  0.63276010395E+02  0.47000000000E+01 0. -1.
         -5    1    1    2    0  502 -0.33238978098E+01 -0.53274132538E+02  0.71388916437E+02  0.89261687663E+02  0.47000000000E+01 0.  1.
        -11    1    1    2    0    0  0.77085662170E+02  0.54908872004E+02  0.13495226431E+03  0.16483111714E+03  0.00000000000E+00 0.  1.
         11    1    1    2    0    0 -0.14463129492E+02  0.25614246355E+01 -0.39016531859E+01  0.15197562583E+02  0.00000000000E+00 0. -1.
<mgrwt>
<rscale>  0 0.13858034E+03</rscale>
<asrwt>0</asrwt>
<pdfrwt beam="2">  1        1 0.11637599E-01 0.14403125E+03</pdfrwt>
<pdfrwt beam="1">  1       -1 0.39526459E-01 0.14403125E+03</pdfrwt>
<totfact> 0.31865149E+03</totfact>
</mgrwt>
</event>
<event>
 6    1  0.5258538E-006  0.2227792E+03  0.7546771E-02  0.1135076E+00
          2   -1    0    0  501    0  0.00000000000E+00  0.00000000000E+00  0.24659944564E+04  0.24659944564E+04  0.00000000000E+00 0. -1.
         -2   -1    0    0    0  501 -0.00000000000E+00 -0.00000000000E+00 -0.22946820001E+02  0.22946820001E+02  0.00000000000E+00 0.  1.
          5    1    1    2  502    0  0.34774001633E+02  0.10284233028E+02  0.61549330777E+03  0.61657854208E+03  0.47000000000E+01 0.  1.
         -5    1    1    2    0  502 -0.14015373719E+02  0.17295031398E+03  0.11852797383E+04  0.11979225309E+04  0.47000000000E+01 0.  1.
        -11    1    1    2    0    0 -0.56317452154E+02 -0.92908449265E+02  0.34859778495E+03  0.36513566113E+03  0.00000000000E+00 0.  1.
         11    1    1    2    0    0  0.35558824239E+02 -0.90326097741E+02  0.29367680532E+03  0.30930454231E+03  0.00000000000E+00 0. -1.
<mgrwt>
<rscale>  0 0.21840695E+03</rscale>
<asrwt>0</asrwt>
<pdfrwt beam="1">  1        2 0.37938355E+00 0.22277922E+03</pdfrwt>
<pdfrwt beam="2">  1       -2 0.35302820E-02 0.22277922E+03</pdfrwt>
<totfact> 0.13975273E+03</totfact>
</mgrwt>
</event>
<event>
 6    1  0.5258538E-006  0.1507943E+03  0.7546771E-02  0.1206644E+00
         -1   -1    0    0    0  501 -0.00000000000E+00  0.00000000000E+00  0.33952954868E+03  0.33952954868E+03  0.00000000000E+00 0.  1.
          1   -1    0    0  501    0  0.00000000000E+00 -0.00000000000E+00 -0.57964275607E+02  0.57964275607E+02  0.00000000000E+00 0. -1.
          5    1    1    2  502    0  0.37235666406E+02 -0.11244305688E+02  0.11175257182E+02  0.40741939524E+02  0.47000000000E+01 0. -1.
         -5    1    1    2    0  502 -0.75750439862E+01  0.98515743784E+02  0.15284870125E+03  0.18206468229E+03  0.47000000000E+01 0.  1.
        -11    1    1    2    0    0  0.22629979917E+02 -0.30469187836E+02  0.51052234770E+01  0.38295570308E+02  0.00000000000E+00 0.  1.
         11    1    1    2    0    0 -0.52290602337E+02 -0.56802250260E+02  0.11243609117E+03  0.13639163216E+03  0.00000000000E+00 0. -1.
<mgrwt>
<rscale>  0 0.14508657E+03</rscale>
<asrwt>0</asrwt>
<pdfrwt beam="2">  1        1 0.89175810E-02 0.15079434E+03</pdfrwt>
<pdfrwt beam="1">  1       -1 0.52235314E-01 0.15079434E+03</pdfrwt>
<totfact> 0.27555358E+03</totfact>
</mgrwt>
</event>
<event>
 6    1  0.5258538E-006  0.1552421E+03  0.7546771E-02  0.1202451E+00
         -2   -1    0    0    0  501 -0.00000000000E+00  0.00000000000E+00  0.33295919790E+02  0.33295919790E+02  0.00000000000E+00 0.  1.
          2   -1    0    0  501    0  0.00000000000E+00 -0.00000000000E+00 -0.64046497510E+03  0.64046497510E+03  0.00000000000E+00 0. -1.
          5    1    1    2  502    0 -0.15468061033E+02 -0.48330687490E+02 -0.65824073877E+02  0.83246711449E+02  0.47000000000E+01 0.  1.
         -5    1    1    2    0  502 -0.76505987913E+02  0.44283751798E+02 -0.33768993397E+03  0.34909998334E+03  0.47000000000E+01 0.  1.
        -11    1    1    2    0    0 -0.10661523596E+02  0.19076773674E+02 -0.62738970964E+02  0.66436208929E+02  0.00000000000E+00 0. -1.
         11    1    1    2    0    0  0.10263557254E+03 -0.15029837981E+02 -0.14091607650E+03  0.17497799118E+03  0.00000000000E+00 0.  1.
<mgrwt>
<rscale>  0 0.14840152E+03</rscale>
<asrwt>0</asrwt>
<pdfrwt beam="2">  1        2 0.98533061E-01 0.15524210E+03</pdfrwt>
<pdfrwt beam="1">  1       -2 0.51224498E-02 0.15524210E+03</pdfrwt>
<totfact> 0.85180923E+03</totfact>
</mgrwt>
</event>
<event>
 6    1  0.5258538E-006  0.1251997E+03  0.7546771E-02  0.1251310E+00
         -1   -1    0    0    0  501 -0.00000000000E+00  0.00000000000E+00  0.29566964464E+03  0.29566964464E+03  0.00000000000E+00 0.  1.
          1   -1    0    0  501    0  0.00000000000E+00 -0.00000000000E+00 -0.56309010494E+02  0.56309010494E+02  0.00000000000E+00 0. -1.
          5    1    1    2  502    0  0.97173972109E+01 -0.52942364872E+02 -0.17261139294E+02  0.56721765986E+02  0.47000000000E+01 0.  1.
         -5    1    1    2    0  502 -0.14610507740E+02  0.47783780312E+02  0.54078938255E+02  0.73779252911E+02  0.47000000000E+01 0.  1.
        -11    1    1    2    0    0  0.45910008034E+02 -0.76182924465E+01  0.99964406090E+02  0.11026626729E+03  0.00000000000E+00 0.  1.
         11    1    1    2    0    0 -0.41016897504E+02  0.12776877007E+02  0.10257842909E+03  0.11121136894E+03  0.00000000000E+00 0. -1.
<mgrwt>
<rscale>  0 0.11515516E+03</rscale>
<asrwt>0</asrwt>
<pdfrwt beam="2">  1        1 0.86629249E-02 0.12519970E+03</pdfrwt>
<pdfrwt beam="1">  1       -1 0.45487637E-01 0.12519970E+03</pdfrwt>
<totfact> 0.36454382E+03</totfact>
</mgrwt>
</event>
<event>
 6    1  0.5258538E-006  0.1364169E+03  0.7546771E-02  0.1227799E+00
          2   -1    0    0  501    0  0.00000000000E+00  0.00000000000E+00  0.10973628588E+03  0.10973628588E+03  0.00000000000E+00 0. -1.
         -2   -1    0    0    0  501 -0.00000000000E+00 -0.00000000000E+00 -0.14030570646E+03  0.14030570646E+03  0.00000000000E+00 0.  1.
          5    1    1    2  502    0  0.86492882983E+02 -0.41382579839E+01  0.10017064787E+02  0.87295908110E+02  0.47000000000E+01 0.  1.
         -5    1    1    2    0  502 -0.35721405325E+02  0.24307608785E+02 -0.24488400772E+02  0.49886375050E+02  0.47000000000E+01 0.  1.
        -11    1    1    2    0    0 -0.73632010386E+02 -0.34902243592E+02 -0.45786875688E+00  0.81486497072E+02  0.00000000000E+00 0.  1.
         11    1    1    2    0    0  0.22860532728E+02  0.14732892791E+02 -0.15640215833E+02  0.31373212107E+02  0.00000000000E+00 0. -1.
<mgrwt>
<rscale>  0 0.12976868E+03</rscale>
<asrwt>0</asrwt>
<pdfrwt beam="1">  1        2 0.16882506E-01 0.13641686E+03</pdfrwt>
<pdfrwt beam="2">  1       -2 0.21585493E-01 0.13641686E+03</pdfrwt>
<totfact> 0.59241236E+03</totfact>
</mgrwt>
</event>
<event>
 6    1  0.5258538E-006  0.1731307E+03  0.7546771E-02  0.1181267E+00
          3   -1    0    0  501    0  0.00000000000E+00  0.00000000000E+00  0.54494713781E+03  0.54494713781E+03  0.00000000000E+00 0. -1.
         -3   -1    0    0    0  501 -0.00000000000E+00 -0.00000000000E+00 -0.49086258281E+02  0.49086258281E+02  0.00000000000E+00 0.  1.
          5    1    1    2  502    0  0.19142560493E+02  0.44084866457E+02  0.23800041250E+02  0.53837208660E+02  0.47000000000E+01 0.  1.
         -5    1    1    2    0  502 -0.62460749418E+02  0.67597145154E+02  0.29343446669E+03  0.30756559543E+03  0.47000000000E+01 0.  1.
        -11    1    1    2    0    0  0.11948605731E+02 -0.83532481893E+02  0.16973767157E+03  0.18955559042E+03  0.00000000000E+00 0. -1.
         11    1    1    2    0    0  0.31369583194E+02 -0.28149529719E+02  0.88887000218E+01  0.43075001581E+02  0.00000000000E+00 0.  1.
<mgrwt>
<rscale>  0 0.16676245E+03</rscale>
<asrwt>0</asrwt>
<pdfrwt beam="1">  1        3 0.83838017E-01 0.17313074E+03</pdfrwt>
<pdfrwt beam="2">  1       -3 0.75517324E-02 0.17313074E+03</pdfrwt>
<totfact> 0.37902082E+02</totfact>
</mgrwt>
</event>
<event>
 6    1  0.5258538E-006  0.2998489E+03  0.7546771E-02  0.1086870E+00
          2   -1    0    0  501    0  0.00000000000E+00  0.00000000000E+00  0.14769566246E+04  0.14769566246E+04  0.00000000000E+00 0. -1.
         -2   -1    0    0    0  501 -0.00000000000E+00 -0.00000000000E+00 -0.83435167661E+02  0.83435167661E+02  0.00000000000E+00 0.  1.
          5    1    1    2  502    0  0.40504952698E+01 -0.25237718808E+02  0.20379231195E+03  0.20544280317E+03  0.47000000000E+01 0.  1.
         -5    1    1    2    0  502  0.26576699391E+03 -0.13141147850E+02  0.93008888902E+03  0.96741522435E+03  0.47000000000E+01 0.  1.
        -11    1    1    2    0    0 -0.79324681532E+02 -0.24500283566E+02  0.47864998427E+02  0.95831764407E+02  0.00000000000E+00 0.  1.
         11    1    1    2    0    0 -0.19049280764E+03  0.62879150224E+02  0.21177525754E+03  0.29170200034E+03  0.00000000000E+00 0. -1.
<mgrwt>
<rscale>  0 0.29676355E+03</rscale>
<asrwt>0</asrwt>
<pdfrwt beam="1">  1        2 0.22722408E+00 0.29984892E+03</pdfrwt>
<pdfrwt beam="2">  1       -2 0.12836181E-01 0.29984892E+03</pdfrwt>
<totfact> 0.62187698E+02</totfact>
</mgrwt>
</event>
<event>
 6    1  0.5258538E-006  0.1525401E+03  0.7546771E-02  0.1205402E+00
         -2   -1    0    0    0  501 -0.00000000000E+00  0.00000000000E+00  0.10590787759E+03  0.10590787759E+03  0.00000000000E+00 0.  1.
          2   -1    0    0  501    0  0.00000000000E+00 -0.00000000000E+00 -0.24799104716E+03  0.24799104716E+03  0.00000000000E+00 0. -1.
          5    1    1    2  502    0 -0.13375381439E+02  0.31096913941E+02  0.67928951433E+01  0.34844688401E+02  0.47000000000E+01 0. -1.
         -5    1    1    2    0  502  0.75085167931E+02  0.30838298073E+02 -0.17062151444E+03  0.18900416466E+03  0.47000000000E+01 0. -1.
        -11    1    1    2    0    0  0.80772675466E+01 -0.12301644982E+02  0.39884543091E+02  0.42512933301E+02  0.00000000000E+00 0.  1.
         11    1    1    2    0    0 -0.69787054038E+02 -0.49633567032E+02 -0.18139093363E+02  0.87537138379E+02  0.00000000000E+00 0. -1.
<mgrwt>
<rscale>  0 0.14605833E+03</rscale>
<asrwt>0</asrwt>
<pdfrwt beam="2">  1        2 0.38152469E-01 0.15254013E+03</pdfrwt>
<pdfrwt beam="1">  1       -2 0.16293520E-01 0.15254013E+03</pdfrwt>
<totfact> 0.38833595E+03</totfact>
</mgrwt>
</event>
<event>
 6    1  0.5258538E-006  0.1277835E+03  0.7546771E-02  0.1244396E+00
         -2   -1    0    0    0  501 -0.00000000000E+00  0.00000000000E+00  0.12048612945E+03  0.12048612945E+03  0.00000000000E+00 0.  1.
          2   -1    0    0  501    0  0.00000000000E+00 -0.00000000000E+00 -0.10847199781E+03  0.10847199781E+03  0.00000000000E+00 0. -1.
          5    1    1    2  502    0 -0.25550068097E+02 -0.40790146278E+02 -0.57519016468E+02  0.75147649787E+02  0.47000000000E+01 0.  1.
         -5    1    1    2    0  502  0.27811079282E+02  0.14362179192E+02  0.43070794526E+02  0.53450085716E+02  0.47000000000E+01 0.  1.
        -11    1    1    2    0    0  0.38310786567E+02 -0.13030818046E+01  0.33257753979E+02  0.50749311220E+02  0.00000000000E+00 0.  1.
         11    1    1    2    0    0 -0.40571797752E+02  0.27731048890E+02 -0.67954004017E+01  0.49611080537E+02  0.00000000000E+00 0. -1.
<mgrwt>
<rscale>  0 0.11921609E+03</rscale>
<asrwt>0</asrwt>
<pdfrwt beam="2">  1        2 0.16688000E-01 0.12778351E+03</pdfrwt>
<pdfrwt beam="1">  1       -2 0.18536328E-01 0.12778351E+03</pdfrwt>
<totfact> 0.77305115E+03</totfact>
</mgrwt>
</event>
<event>
 6    1  0.5258538E-006  0.1343467E+03  0.7546771E-02  0.1233011E+00
          2   -1    0    0  501    0  0.00000000000E+00  0.00000000000E+00  0.31167299342E+03  0.31167299342E+03  0.00000000000E+00 0. -1.
         -2   -1    0    0    0  501 -0.00000000000E+00 -0.00000000000E+00 -0.51280925844E+02  0.51280925844E+02  0.00000000000E+00 0.  1.
          5    1    1    2  502    0  0.68475187268E+02 -0.11899307785E+02  0.87587665515E+02  0.11191127712E+03  0.47000000000E+01 0.  1.
         -5    1    1    2    0  502 -0.52516161004E+02 -0.34673307277E+02  0.11495816973E+03  0.13113983450E+03  0.47000000000E+01 0.  1.
        -11    1    1    2    0    0 -0.45052515932E+02 -0.48571655730E+01  0.31621600023E+02  0.55256192750E+02  0.00000000000E+00 0.  1.
         11    1    1    2    0    0  0.29093489669E+02  0.51429780635E+02  0.26224632305E+02  0.64646614891E+02  0.00000000000E+00 0. -1.
<mgrwt>
<rscale>  0 0.12632653E+03</rscale>
<asrwt>0</asrwt>
<pdfrwt beam="1">  1        2 0.47949690E-01 0.13434667E+03</pdfrwt>
<pdfrwt beam="2">  1       -2 0.78893734E-02 0.13434667E+03</pdfrwt>
<totfact> 0.95951813E+03</totfact>
</mgrwt>
</event>
<event>
 6    1  0.5258538E-006  0.2765912E+03  0.7546771E-02  0.1105186E+00
         -1   -1    0    0    0  501 -0.00000000000E+00  0.00000000000E+00  0.23675968865E+03  0.23675968865E+03  0.00000000000E+00 0.  1.
          1   -1    0    0  501    0  0.00000000000E+00 -0.00000000000E+00 -0.66540743319E+03  0.66540743319E+03  0.00000000000E+00 0. -1.
          5    1    1    2  502    0  0.12031509906E+03 -0.20176297089E+03 -0.54351929483E+03  0.59213117916E+03  0.47000000000E+01 0. -1.
         -5    1    1    2    0  502 -0.27945661324E+02  0.15137681882E+02 -0.27263570716E+02  0.42136702384E+02  0.47000000000E+01 0.  1.
        -11    1    1    2    0    0  0.63622256891E+00  0.38559036607E+02  0.67591687320E+02  0.77819279603E+02  0.00000000000E+00 0. -1.
         11    1    1    2    0    0 -0.93005660308E+02  0.14806625240E+03  0.74543433686E+02  0.19007996069E+03  0.00000000000E+00 0.  1.
<mgrwt>
<rscale>  0 0.26328483E+03</rscale>
<asrwt>0</asrwt>
<pdfrwt beam="2">  1        1 0.10237037E+00 0.27659115E+03</pdfrwt>
<pdfrwt beam="1">  1       -1 0.36424568E-01 0.27659115E+03</pdfrwt>
<totfact> 0.22330752E+02</totfact>
</mgrwt>
</event>
<event>
 6    1  0.5258538E-006  0.1593393E+03  0.7546771E-02  0.1197292E+00
         -1   -1    0    0    0  501 -0.00000000000E+00  0.00000000000E+00  0.19174649495E+02  0.19174649495E+02  0.00000000000E+00 0.  1.
          1   -1    0    0  501    0  0.00000000000E+00 -0.00000000000E+00 -0.12962818805E+04  0.12962818805E+04  0.00000000000E+00 0. -1.
          5    1    1    2  502    0  0.46814073577E+02 -0.22088020271E+01 -0.10844885469E+03  0.11823569839E+03  0.47000000000E+01 0. -1.
         -5    1    1    2    0  502  0.17792405375E+02  0.76977501058E+02 -0.81754947470E+03  0.82137162049E+03  0.47000000000E+01 0. -1.
        -11    1    1    2    0    0 -0.38082623612E+02 -0.62288062910E+02 -0.33404662914E+03  0.34193162978E+03  0.00000000000E+00 0. -1.
         11    1    1    2    0    0 -0.26523855341E+02 -0.12480636121E+02 -0.17062272427E+02  0.33917581289E+02  0.00000000000E+00 0.  1.
<mgrwt>
<rscale>  0 0.15261825E+03</rscale>
<asrwt>0</asrwt>
<pdfrwt beam="2">  1        1 0.19942793E+00 0.15933928E+03</pdfrwt>
<pdfrwt beam="1">  1       -1 0.29499469E-02 0.15933928E+03</pdfrwt>
<totfact> 0.37573714E+03</totfact>
</mgrwt>
</event>
<event>
 6    1  0.5258538E-006  0.1611164E+03  0.7546771E-02  0.1195220E+00
         -2   -1    0    0    0  501 -0.00000000000E+00  0.00000000000E+00  0.29874060242E+03  0.29874060242E+03  0.00000000000E+00 0.  1.
          2   -1    0    0  501    0  0.00000000000E+00 -0.00000000000E+00 -0.74788984935E+02  0.74788984935E+02  0.00000000000E+00 0. -1.
          5    1    1    2  502    0 -0.12395525200E+03 -0.33544702934E+02  0.61005206410E+02  0.14224583228E+03  0.47000000000E+01 0.  1.
         -5    1    1    2    0  502  0.26228007117E+02  0.55749860660E+01  0.38392599830E+02  0.47064535997E+02  0.47000000000E+01 0.  1.
        -11    1    1    2    0    0  0.96195765424E+02  0.42477377578E+02  0.13123958083E+03  0.16817187775E+03  0.00000000000E+00 0.  1.
         11    1    1    2    0    0  0.15314794550E+01 -0.14507660710E+02 -0.66857695821E+01  0.16047341322E+02  0.00000000000E+00 0. -1.
<mgrwt>
<rscale>  0 0.15435654E+03</rscale>
<asrwt>0</asrwt>
<pdfrwt beam="2">  1        2 0.11505998E-01 0.16111639E+03</pdfrwt>
<pdfrwt beam="1">  1       -2 0.45960092E-01 0.16111639E+03</pdfrwt>
<totfact> 0.23794226E+03</totfact>
</mgrwt>
</event>
<event>
 6    1  0.5258538E-006  0.1358562E+03  0.7546771E-02  0.1235162E+00
          3   -1    0    0  501    0  0.00000000000E+00  0.00000000000E+00  0.33967197928E+03  0.33967197928E+03  0.00000000000E+00 0. -1.
         -3   -1    0    0    0  501 -0.00000000000E+00 -0.00000000000E+00 -0.48776314527E+02  0.48776314527E+02  0.00000000000E+00 0.  1.
          5    1    1    2  502    0  0.35418734581E+02  0.31338570947E+02  0.94067925517E+02  0.10539192284E+03  0.47000000000E+01 0. -1.
         -5    1    1    2    0  502 -0.26721096687E+02 -0.83839727852E+02  0.15275531126E+03  0.17635019731E+03  0.47000000000E+01 0. -1.
        -11    1    1    2    0    0 -0.38840784334E+02  0.51569421377E+02  0.40799538616E+02  0.76371552951E+02  0.00000000000E+00 0. -1.
         11    1    1    2    0    0  0.30143146439E+02  0.93173552802E+00  0.32728893552E+01  0.30334620701E+02  0.00000000000E+00 0.  1.
<mgrwt>
<rscale>  0 0.12494048E+03</rscale>
<asrwt>0</asrwt>
<pdfrwt beam="1">  1        3 0.52257226E-01 0.13585622E+03</pdfrwt>
<pdfrwt beam="2">  1       -3 0.75040486E-02 0.13585622E+03</pdfrwt>
<totfact> 0.99912472E+02</totfact>
</mgrwt>
</event>
<event>
 6    1  0.5258538E-006  0.1274425E+03  0.7546771E-02  0.1248888E+00
          1   -1    0    0  501    0  0.00000000000E+00  0.00000000000E+00  0.84246424928E+02  0.84246424928E+02  0.00000000000E+00 0. -1.
         -1   -1    0    0    0  501 -0.00000000000E+00 -0.00000000000E+00 -0.15958625015E+03  0.15958625015E+03  0.00000000000E+00 0.  1.
          5    1    1    2  502    0  0.85280614864E+01  0.71293710897E+02 -0.18438133775E+02  0.74280386532E+02  0.47000000000E+01 0. -1.
         -5    1    1    2    0  502  0.38799614784E+01 -0.49685847747E+02  0.17902635077E+02  0.53163257143E+02  0.47000000000E+01 0. -1.
        -11    1    1    2    0    0 -0.38856885938E+02  0.84578669262E+01 -0.63248766836E+02  0.74711442256E+02  0.00000000000E+00 0.  1.
         11    1    1    2    0    0  0.26448862973E+02 -0.30065730077E+02 -0.11555559692E+02  0.41677589151E+02  0.00000000000E+00 0. -1.
<mgrwt>
<rscale>  0 0.11655652E+03</rscale>
<asrwt>0</asrwt>
<pdfrwt beam="1">  1        1 0.12960989E-01 0.12744252E+03</pdfrwt>
<pdfrwt beam="2">  1       -1 0.24551731E-01 0.12744252E+03</pdfrwt>
<totfact> 0.61411454E+03</totfact>
</mgrwt>
</event>
<event>
 6    1  0.5258538E-006  0.1705868E+03  0.7546771E-02  0.1185354E+00
          4   -1    0    0  501    0  0.00000000000E+00  0.00000000000E+00  0.33299176805E+03  0.33299176805E+03  0.00000000000E+00 0. -1.
         -4   -1    0    0    0  501 -0.00000000000E+00 -0.00000000000E+00 -0.86895349755E+02  0.86895349755E+02  0.00000000000E+00 0.  1.
          5    1    1    2  502    0  0.12541649700E-01  0.12372229677E+02  0.11391588170E+03  0.11468212733E+03  0.47000000000E+01 0.  1.
         -5    1    1    2    0  502 -0.95138862429E+02 -0.78899356937E+02  0.10086899015E+03  0.15960311665E+03  0.47000000000E+01 0.  1.
        -11    1    1    2    0    0  0.10585827104E+03  0.44047558275E+02  0.14546747419E+02  0.11557581407E+03  0.00000000000E+00 0.  1.
         11    1    1    2    0    0 -0.10731950263E+02  0.22479568984E+02  0.16764799020E+02  0.30026059754E+02  0.00000000000E+00 0. -1.
<mgrwt>
<rscale>  0 0.16299727E+03</rscale>
<asrwt>0</asrwt>
<pdfrwt beam="1">  1        4 0.51229502E-01 0.17058679E+03</pdfrwt>
<pdfrwt beam="2">  1       -4 0.13368515E-01 0.17058679E+03</pdfrwt>
<totfact> 0.29486035E+02</totfact>
</mgrwt>
</event>
<event>
 6    1  0.5258538E-006  0.1475704E+03  0.7546771E-02  0.1213232E+00
         -2   -1    0    0    0  501 -0.00000000000E+00  0.00000000000E+00  0.25797568539E+02  0.25797568539E+02  0.00000000000E+00 0.  1.
          2   -1    0    0  501    0  0.00000000000E+00 -0.00000000000E+00 -0.10773427695E+04  0.10773427695E+04  0.00000000000E+00 0. -1.
          5    1    1    2  502    0  0.33049839155E+02  0.35275342929E+02 -0.16683752483E+03  0.17376274451E+03  0.47000000000E+01 0. -1.
         -5    1    1    2    0  502  0.30250385068E+02 -0.81577800874E+02 -0.72249272945E+03  0.72772787325E+03  0.47000000000E+01 0. -1.
        -11    1    1    2    0    0  0.89369284481E+01 -0.90558617100E+01  0.29587548643E+01  0.13062601263E+02  0.00000000000E+00 0.  1.
         11    1    1    2    0    0 -0.72237152671E+02  0.55358319655E+02 -0.16517370158E+03  0.18858711906E+03  0.00000000000E+00 0. -1.
<mgrwt>
<rscale>  0 0.14007219E+03</rscale>
<asrwt>0</asrwt>
<pdfrwt beam="2">  1        2 0.16574501E+00 0.14757043E+03</pdfrwt>
<pdfrwt beam="1">  1       -2 0.39688575E-02 0.14757043E+03</pdfrwt>
<totfact> 0.64034689E+03</totfact>
</mgrwt>
</event>
<event>
 6    1  0.5258538E-006  0.1377802E+03  0.7546771E-02  0.1231093E+00
         -2   -1    0    0    0  501 -0.00000000000E+00  0.00000000000E+00  0.26978940273E+03  0.26978940273E+03  0.00000000000E+00 0.  1.
          2   -1    0    0  501    0  0.00000000000E+00 -0.00000000000E+00 -0.55492803628E+02  0.55492803628E+02  0.00000000000E+00 0. -1.
          5    1    1    2  502    0  0.75439104355E+02 -0.53603591414E+02  0.88168790953E+02  0.12790711152E+03  0.47000000000E+01 0. -1.
         -5    1    1    2    0  502 -0.32085781047E+02  0.15157270733E+02  0.23635230663E+00  0.35796453231E+02  0.47000000000E+01 0. -1.
        -11    1    1    2    0    0 -0.56703207974E+02  0.42806237464E+02  0.56481700763E+02  0.90762383626E+02  0.00000000000E+00 0. -1.
         11    1    1    2    0    0  0.13349884667E+02 -0.43599167827E+01  0.69409755077E+02  0.70816257984E+02  0.00000000000E+00 0.  1.
<mgrwt>
<rscale>  0 0.12757873E+03</rscale>
<asrwt>0</asrwt>
<pdfrwt beam="2">  1        2 0.85373545E-02 0.13778022E+03</pdfrwt>
<pdfrwt beam="1">  1       -2 0.41506061E-01 0.13778022E+03</pdfrwt>
<totfact> 0.41436412E+03</totfact>
</mgrwt>
</event>
<event>
 6    1  0.5258538E-006  0.2614626E+03  0.7546771E-02  0.1108532E+00
         -2   -1    0    0    0  501 -0.00000000000E+00  0.00000000000E+00  0.43477930751E+02  0.43477930751E+02  0.00000000000E+00 0.  1.
          2   -1    0    0  501    0  0.00000000000E+00 -0.00000000000E+00 -0.15699627320E+04  0.15699627320E+04  0.00000000000E+00 0. -1.
          5    1    1    2  502    0  0.53165361676E+02  0.42501378781E+02 -0.19891865890E+03  0.21029418855E+03  0.47000000000E+01 0.  1.
         -5    1    1    2    0  502 -0.38711152421E+02  0.18669073046E+03 -0.77277820160E+03  0.79596496219E+03  0.47000000000E+01 0.  1.
        -11    1    1    2    0    0  0.44499439655E+01 -0.11368106298E+03 -0.38122722884E+03  0.39784090550E+03  0.00000000000E+00 0. -1.
         11    1    1    2    0    0 -0.18904153221E+02 -0.11551104626E+03 -0.17356071195E+03  0.20934060655E+03  0.00000000000E+00 0.  1.
<mgrwt>
<rscale>  0 0.25770110E+03</rscale>
<asrwt>0</asrwt>
<pdfrwt beam="2">  1        2 0.24153274E+00 0.26146260E+03</pdfrwt>
<pdfrwt beam="1">  1       -2 0.66889121E-02 0.26146260E+03</pdfrwt>
<totfact> 0.15673028E+03</totfact>
</mgrwt>
</event>
<event>
 6    1  0.5258538E-006  0.1294291E+03  0.7546771E-02  0.1242196E+00
          1   -1    0    0  501    0  0.00000000000E+00  0.00000000000E+00  0.38166554447E+02  0.38166554447E+02  0.00000000000E+00 0. -1.
         -1   -1    0    0    0  501 -0.00000000000E+00 -0.00000000000E+00 -0.37816025284E+03  0.37816025284E+03  0.00000000000E+00 0.  1.
          5    1    1    2  502    0 -0.45356839819E+02 -0.22359592750E+02 -0.32381892303E+02  0.60231812653E+02  0.47000000000E+01 0.  1.
         -5    1    1    2    0  502  0.75516579968E+02  0.75566127778E+01 -0.90953662374E+02  0.11855173953E+03  0.47000000000E+01 0.  1.
        -11    1    1    2    0    0 -0.40093628718E+02  0.46257545075E+02 -0.10981746628E+03  0.12572643096E+03  0.00000000000E+00 0.  1.
         11    1    1    2    0    0  0.99338885681E+01 -0.31454565102E+02 -0.10684067743E+03  0.11181682414E+03  0.00000000000E+00 0. -1.
<mgrwt>
<rscale>  0 0.12054791E+03</rscale>
<asrwt>0</asrwt>
<pdfrwt beam="1">  1        1 0.58717774E-02 0.12942913E+03</pdfrwt>
<pdfrwt beam="2">  1       -1 0.58178503E-01 0.12942913E+03</pdfrwt>
<totfact> 0.39255361E+03</totfact>
</mgrwt>
</event>
<event>
 6    1  0.5258538E-006  0.1283763E+03  0.7546771E-02  0.1244834E+00
         -1   -1    0    0    0  501 -0.00000000000E+00  0.00000000000E+00  0.12140260533E+02  0.12140260533E+02  0.00000000000E+00 0.  1.
          1   -1    0    0  501    0  0.00000000000E+00 -0.00000000000E+00 -0.10307122652E+04  0.10307122652E+04  0.00000000000E+00 0. -1.
          5    1    1    2  502    0  0.24459021632E+02  0.39390794985E+02 -0.51475736110E+03  0.51686275672E+03  0.47000000000E+01 0. -1.
         -5    1    1    2    0  502 -0.46317987546E+02 -0.19964426202E+02 -0.11223256590E+03  0.12313477629E+03  0.47000000000E+01 0. -1.
        -11    1    1    2    0    0  0.56648057727E+02 -0.59674647459E+01 -0.21887974096E+03  0.22617018831E+03  0.00000000000E+00 0. -1.
         11    1    1    2    0    0 -0.34789091813E+02 -0.13458904038E+02 -0.17270233671E+03  0.17668480442E+03  0.00000000000E+00 0.  1.
<mgrwt>
<rscale>  0 0.11895306E+03</rscale>
<asrwt>0</asrwt>
<pdfrwt beam="2">  1        1 0.15857114E+00 0.12837630E+03</pdfrwt>
<pdfrwt beam="1">  1       -1 0.18677321E-02 0.12837630E+03</pdfrwt>
<totfact> 0.11039521E+04</totfact>
</mgrwt>
</event>
<event>
 6    1  0.5258538E-006  0.4218928E+03  0.7546771E-02  0.1036452E+00
          2   -1    0    0  501    0  0.00000000000E+00  0.00000000000E+00  0.11690915154E+04  0.11690915154E+04  0.00000000000E+00 0. -1.
         -2   -1    0    0    0  501 -0.00000000000E+00 -0.00000000000E+00 -0.38062363971E+02  0.38062363971E+02  0.00000000000E+00 0.  1.
          5    1    1    2  502    0  0.23535388626E+02  0.51809661038E+00  0.59951288400E+02  0.64578865914E+02  0.47000000000E+01 0. -1.
         -5    1    1    2    0  502 -0.12196080545E+03 -0.10467309232E+03  0.83823698669E+03  0.85351873452E+03  0.47000000000E+01 0. -1.
        -11    1    1    2    0    0  0.75699696238E+02  0.44044847814E+02  0.64214224162E+02  0.10859953598E+03  0.00000000000E+00 0.  1.
         11    1    1    2    0    0  0.22725720583E+02  0.60110147895E+02  0.16862665219E+03  0.18045674297E+03  0.00000000000E+00 0. -1.
<mgrwt>
<rscale>  0 0.42189281E+03</rscale>
<asrwt>0</asrwt>
<pdfrwt beam="1">  1        2 0.17986021E+00 0.42189281E+03</pdfrwt>
<pdfrwt beam="2">  1       -2 0.58557492E-02 0.42189281E+03</pdfrwt>
<totfact> 0.32068834E+03</totfact>
</mgrwt>
</event>
<event>
 6    1  0.5258538E-006  0.1269323E+03  0.7546771E-02  0.1246260E+00
         -2   -1    0    0    0  501 -0.00000000000E+00  0.00000000000E+00  0.34492520927E+02  0.34492520927E+02  0.00000000000E+00 0.  1.
          2   -1    0    0  501    0  0.00000000000E+00 -0.00000000000E+00 -0.38968889416E+03  0.38968889416E+03  0.00000000000E+00 0. -1.
          5    1    1    2  502    0 -0.26428324565E+01 -0.41050795026E+02 -0.26378571361E+03  0.26701525245E+03  0.47000000000E+01 0. -1.
         -5    1    1    2    0  502 -0.77379820837E+01  0.21618396765E+02  0.24003915831E+01  0.23560206391E+02  0.47000000000E+01 0. -1.
        -11    1    1    2    0    0 -0.49924709525E+01  0.55436040323E+02 -0.49603704370E+02  0.74556064945E+02  0.00000000000E+00 0.  1.
         11    1    1    2    0    0  0.15373285493E+02 -0.36003642062E+02 -0.44207346838E+02  0.59049891304E+02  0.00000000000E+00 0. -1.
<mgrwt>
<rscale>  0 0.11810287E+03</rscale>
<asrwt>0</asrwt>
<pdfrwt beam="2">  1        2 0.59952134E-01 0.12693231E+03</pdfrwt>
<pdfrwt beam="1">  1       -2 0.53065420E-02 0.12693231E+03</pdfrwt>
<totfact> 0.13782086E+04</totfact>
</mgrwt>
</event>
<event>
 6    1  0.5258538E-006  0.1572974E+03  0.7546771E-02  0.1199667E+00
         -2   -1    0    0    0  501 -0.00000000000E+00  0.00000000000E+00  0.39031292189E+02  0.39031292189E+02  0.00000000000E+00 0.  1.
          2   -1    0    0  501    0  0.00000000000E+00 -0.00000000000E+00 -0.76383569425E+03  0.76383569425E+03  0.00000000000E+00 0. -1.
          5    1    1    2  502    0  0.10845898335E+03  0.13240352538E+02 -0.45837235406E+03  0.47123875368E+03  0.47000000000E+01 0. -1.
         -5    1    1    2    0  502 -0.27428801832E+02  0.37293550599E+02 -0.14394217919E+03  0.15127653167E+03  0.47000000000E+01 0. -1.
        -11    1    1    2    0    0 -0.47547477044E+02  0.96113831649E+01 -0.11671036826E+02  0.49893430030E+02  0.00000000000E+00 0.  1.
         11    1    1    2    0    0 -0.33482704471E+02 -0.60145286302E+02 -0.11081883199E+03  0.13045827105E+03  0.00000000000E+00 0. -1.
<mgrwt>
<rscale>  0 0.15065800E+03</rscale>
<asrwt>0</asrwt>
<pdfrwt beam="2">  1        2 0.11751318E+00 0.15729744E+03</pdfrwt>
<pdfrwt beam="1">  1       -2 0.60048142E-02 0.15729744E+03</pdfrwt>
<totfact> 0.54284358E+03</totfact>
</mgrwt>
</event>
<event>
 6    1  0.5258538E-006  0.1374081E+03  0.7546771E-02  0.1228469E+00
         -1   -1    0    0    0  501 -0.00000000000E+00  0.00000000000E+00  0.34437235819E+03  0.34437235819E+03  0.00000000000E+00 0.  1.
          1   -1    0    0  501    0  0.00000000000E+00 -0.00000000000E+00 -0.68679096242E+02  0.68679096242E+02  0.00000000000E+00 0. -1.
          5    1    1    2  502    0 -0.31250955111E+02  0.59745035697E+02  0.29275680337E+01  0.67651697247E+02  0.47000000000E+01 0. -1.
         -5    1    1    2    0  502 -0.25681794379E+02 -0.63474780403E+02  0.21400020083E+02  0.71893345793E+02  0.47000000000E+01 0. -1.
        -11    1    1    2    0    0  0.33344480346E+02  0.35047465693E+02  0.21381006824E+03  0.21921433462E+03  0.00000000000E+00 0.  1.
         11    1    1    2    0    0  0.23588269145E+02 -0.31317720988E+02  0.37555605590E+02  0.54292076773E+02  0.00000000000E+00 0. -1.
<mgrwt>
<rscale>  0 0.12931978E+03</rscale>
<asrwt>0</asrwt>
<pdfrwt beam="2">  1        1 0.10566015E-01 0.13740811E+03</pdfrwt>
<pdfrwt beam="1">  1       -1 0.52980362E-01 0.13740811E+03</pdfrwt>
<totfact> 0.21330657E+03</totfact>
</mgrwt>
</event>
<event>
 6    1  0.5258538E-006  0.3241085E+03  0.7546771E-02  0.1073774E+00
          1   -1    0    0  501    0  0.00000000000E+00  0.00000000000E+00  0.11843620816E+04  0.11843620816E+04  0.00000000000E+00 0. -1.
         -1   -1    0    0    0  501 -0.00000000000E+00 -0.00000000000E+00 -0.22173603080E+02  0.22173603080E+02  0.00000000000E+00 0.  1.
          5    1    1    2  502    0  0.65308273335E+02  0.45186097893E+02  0.77886928772E+03  0.78292171471E+03  0.47000000000E+01 0. -1.
         -5    1    1    2    0  502  0.19290043166E+02  0.21961026380E+02  0.28223703258E+02  0.40903054538E+02  0.47000000000E+01 0. -1.
        -11    1    1    2    0    0 -0.22140499825E+02 -0.68795069835E+02  0.12606583233E+03  0.14531193154E+03  0.00000000000E+00 0.  1.
         11    1    1    2    0    0 -0.62457816676E+02  0.16479455622E+01  0.22902965524E+03  0.23739898393E+03  0.00000000000E+00 0. -1.
<mgrwt>
<rscale>  0 0.32410847E+03</rscale>
<asrwt>0</asrwt>
<pdfrwt beam="1">  1        1 0.18220950E+00 0.32410847E+03</pdfrwt>
<pdfrwt beam="2">  1       -1 0.34113245E-02 0.32410847E+03</pdfrwt>
<totfact> 0.36692524E+03</totfact>
</mgrwt>
</event>
<event>
 6    1  0.5258538E-006  0.2313740E+03  0.7546771E-02  0.1128758E+00
          3   -1    0    0  501    0  0.00000000000E+00  0.00000000000E+00  0.10800014592E+04  0.10800014592E+04  0.00000000000E+00 0. -1.
         -3   -1    0    0    0  501 -0.00000000000E+00 -0.00000000000E+00 -0.52891506144E+02  0.52891506144E+02  0.00000000000E+00 0.  1.
          5    1    1    2  502    0 -0.95632340092E+02 -0.64929983838E+01  0.17563421415E+03  0.20014287567E+03  0.47000000000E+01 0.  1.
         -5    1    1    2    0  502 -0.79662646054E+02 -0.78231120167E+02  0.55918442272E+03  0.57024166276E+03  0.47000000000E+01 0.  1.
        -11    1    1    2    0    0  0.38920576040E+02  0.35100923932E+02  0.15151759274E+03  0.16032612704E+03  0.00000000000E+00 0.  1.
         11    1    1    2    0    0  0.13637441011E+03  0.49623194620E+02  0.14077372348E+03  0.20218229991E+03  0.00000000000E+00 0. -1.
<mgrwt>
<rscale>  0 0.22701512E+03</rscale>
<asrwt>0</asrwt>
<pdfrwt beam="1">  1        3 0.16615405E+00 0.23137396E+03</pdfrwt>
<pdfrwt beam="2">  1       -3 0.81371556E-02 0.23137396E+03</pdfrwt>
<totfact> 0.67851616E+01</totfact>
</mgrwt>
</event>
<event>
 6    1  0.5258538E-006  0.1752278E+03  0.7546771E-02  0.1178579E+00
          2   -1    0    0  501    0  0.00000000000E+00  0.00000000000E+00  0.10177931798E+04  0.10177931798E+04  0.00000000000E+00 0. -1.
         -2   -1    0    0    0  501 -0.00000000000E+00 -0.00000000000E+00 -0.26633994634E+02  0.26633994634E+02  0.00000000000E+00 0.  1.
          5    1    1    2  502    0 -0.43204968132E+02  0.12444150333E+02  0.51177773344E+02  0.68284556330E+02  0.47000000000E+01 0.  1.
         -5    1    1    2    0  502 -0.14214280650E+02  0.96107179557E+02  0.52556905864E+03  0.53449374284E+03  0.47000000000E+01 0.  1.
        -11    1    1    2    0    0  0.41432455445E+02 -0.39901198913E+02  0.31240992630E+03  0.31766132294E+03  0.00000000000E+00 0. -1.
         11    1    1    2    0    0  0.15986793337E+02 -0.68650130976E+02  0.10200242693E+03  0.12398755237E+03  0.00000000000E+00 0.  1.
<mgrwt>
<rscale>  0 0.16930089E+03</rscale>
<asrwt>0</asrwt>
<pdfrwt beam="1">  1        2 0.15658354E+00 0.17522777E+03</pdfrwt>
<pdfrwt beam="2">  1       -2 0.40975384E-02 0.17522777E+03</pdfrwt>
<totfact> 0.66643507E+03</totfact>
</mgrwt>
</event>
<event>
 6    1  0.5258538E-006  0.1414692E+03  0.7546771E-02  0.1221968E+00
          1   -1    0    0  501    0  0.00000000000E+00  0.00000000000E+00  0.62693232756E+02  0.62693232756E+02  0.00000000000E+00 0. -1.
         -1   -1    0    0    0  501 -0.00000000000E+00 -0.00000000000E+00 -0.27159539935E+03  0.27159539935E+03  0.00000000000E+00 0.  1.
          5    1    1    2  502    0  0.37362502886E+02 -0.36140280574E+00 -0.55238977916E+02  0.66854483134E+02  0.47000000000E+01 0.  1.
         -5    1    1    2    0  502 -0.73103723575E+02  0.55896191050E+02 -0.23680519663E+02  0.95138822706E+02  0.47000000000E+01 0.  1.
        -11    1    1    2    0    0 -0.14386898461E+01 -0.64972723266E+02 -0.11297748656E+03  0.13033586255E+03  0.00000000000E+00 0.  1.
         11    1    1    2    0    0  0.37179910535E+02  0.94379350223E+01 -0.17005182450E+02  0.41959463713E+02  0.00000000000E+00 0. -1.
<mgrwt>
<rscale>  0 0.13376919E+03</rscale>
<asrwt>0</asrwt>
<pdfrwt beam="1">  1        1 0.96451129E-02 0.14146923E+03</pdfrwt>
<pdfrwt beam="2">  1       -1 0.41783907E-01 0.14146923E+03</pdfrwt>
<totfact> 0.37014357E+03</totfact>
</mgrwt>
</event>
<event>
 6    1  0.5258538E-006  0.1931467E+03  0.7546771E-02  0.1160621E+00
          2   -1    0    0  501    0  0.00000000000E+00  0.00000000000E+00  0.12272550005E+03  0.12272550005E+03  0.00000000000E+00 0. -1.
         -2   -1    0    0    0  501 -0.00000000000E+00 -0.00000000000E+00 -0.30857534527E+03  0.30857534527E+03  0.00000000000E+00 0.  1.
          5    1    1    2  502    0 -0.44366654656E+02  0.75808945430E+02 -0.50082599360E+02  0.10122130710E+03  0.47000000000E+01 0. -1.
         -5    1    1    2    0  502 -0.88372574851E+02 -0.12113154392E+02  0.26964727803E+02  0.93303949759E+02  0.47000000000E+01 0. -1.
        -11    1    1    2    0    0  0.35075317665E+02 -0.15472405663E+02 -0.10855405466E+03  0.11512452401E+03  0.00000000000E+00 0.  1.
         11    1    1    2    0    0  0.97663911841E+02 -0.48223385375E+02 -0.54177919004E+02  0.12165106445E+03  0.00000000000E+00 0. -1.
<mgrwt>
<rscale>  0 0.18762556E+03</rscale>
<asrwt>0</asrwt>
<pdfrwt beam="1">  1        2 0.18880847E-01 0.19314668E+03</pdfrwt>
<pdfrwt beam="2">  1       -2 0.47473129E-01 0.19314668E+03</pdfrwt>
<totfact> 0.12525030E+03</totfact>
</mgrwt>
</event>
<event>
 6    1  0.5258538E-006  0.1417540E+03  0.7546771E-02  0.1224913E+00
         -1   -1    0    0    0  501 -0.00000000000E+00  0.00000000000E+00  0.16131740340E+02  0.16131740340E+02  0.00000000000E+00 0.  1.
          1   -1    0    0  501    0  0.00000000000E+00 -0.00000000000E+00 -0.12507548631E+04  0.12507548631E+04  0.00000000000E+00 0. -1.
          5    1    1    2  502    0  0.89265630064E+01 -0.42624939101E+02 -0.91980371420E+03  0.92084609551E+03  0.47000000000E+01 0. -1.
         -5    1    1    2    0  502 -0.37133179175E+02 -0.45092361161E+01 -0.74340052825E+02  0.83353102282E+02  0.47000000000E+01 0.  1.
        -11    1    1    2    0    0  0.22158677532E+02 -0.24950927576E+02 -0.76274311879E+02  0.83254588039E+02  0.00000000000E+00 0.  1.
         11    1    1    2    0    0  0.60479386367E+01  0.72085102793E+02 -0.16420504382E+03  0.17943281757E+03  0.00000000000E+00 0. -1.
<mgrwt>
<rscale>  0 0.13172837E+03</rscale>
<asrwt>0</asrwt>
<pdfrwt beam="2">  1        1 0.19242389E+00 0.14175401E+03</pdfrwt>
<pdfrwt beam="1">  1       -1 0.24818053E-02 0.14175401E+03</pdfrwt>
<totfact> 0.51690186E+03</totfact>
</mgrwt>
</event>
<event>
 6    1  0.5258538E-006  0.1299647E+03  0.7546771E-02  0.1241691E+00
          2   -1    0    0  501    0  0.00000000000E+00  0.00000000000E+00  0.25604010714E+03  0.25604010714E+03  0.00000000000E+00 0. -1.
         -2   -1    0    0    0  501 -0.00000000000E+00 -0.00000000000E+00 -0.51571988644E+02  0.51571988644E+02  0.00000000000E+00 0.  1.
          5    1    1    2  502    0 -0.34671055309E+02  0.71717328158E+01 -0.39121497638E+00  0.35717766965E+02  0.47000000000E+01 0.  1.
         -5    1    1    2    0  502  0.55931671555E+02 -0.35658093301E+02  0.14018280555E+03  0.15515527858E+03  0.47000000000E+01 0.  1.
        -11    1    1    2    0    0  0.48351313194E+00  0.15527525300E+02 -0.21723873232E+02  0.26707012096E+02  0.00000000000E+00 0.  1.
         11    1    1    2    0    0 -0.21744129377E+02  0.12958835185E+02  0.86400401157E+02  0.90032038141E+02  0.00000000000E+00 0. -1.
<mgrwt>
<rscale>  0 0.12085625E+03</rscale>
<asrwt>0</asrwt>
<pdfrwt beam="1">  1        2 0.39390785E-01 0.12996473E+03</pdfrwt>
<pdfrwt beam="2">  1       -2 0.79341523E-02 0.12996473E+03</pdfrwt>
<totfact> 0.11684492E+04</totfact>
</mgrwt>
</event>
<event>
 6    1  0.5258538E-006  0.1309954E+03  0.7546771E-02  0.1244116E+00
         -3   -1    0    0    0  501 -0.00000000000E+00  0.00000000000E+00  0.17994188662E+03  0.17994188662E+03  0.00000000000E+00 0.  1.
          3   -1    0    0  501    0  0.00000000000E+00 -0.00000000000E+00 -0.78141689390E+02  0.78141689390E+02  0.00000000000E+00 0. -1.
          5    1    1    2  502    0  0.53470324556E+02 -0.57256383280E+02  0.97924947952E+01  0.79090783210E+02  0.47000000000E+01 0.  1.
         -5    1    1    2    0  502 -0.48921346657E+02  0.18362867698E+02  0.36289991356E+01  0.52590424067E+02  0.47000000000E+01 0.  1.
        -11    1    1    2    0    0  0.74628708056E+01 -0.23186918758E+02  0.39808430815E+02  0.46669463315E+02  0.00000000000E+00 0.  1.
         11    1    1    2    0    0 -0.12011848705E+02  0.62080434339E+02  0.48570272481E+02  0.79732905415E+02  0.00000000000E+00 0. -1.
<mgrwt>
<rscale>  0 0.11938462E+03</rscale>
<asrwt>0</asrwt>
<pdfrwt beam="2">  1        3 0.12021798E-01 0.13099543E+03</pdfrwt>
<pdfrwt beam="1">  1       -3 0.27683367E-01 0.13099543E+03</pdfrwt>
<totfact> 0.15415845E+03</totfact>
</mgrwt>
</event>
<event>
 6    1  0.5258538E-006  0.2971872E+03  0.7546771E-02  0.1086655E+00
         -2   -1    0    0    0  501 -0.00000000000E+00  0.00000000000E+00  0.20554730908E+03  0.20554730908E+03  0.00000000000E+00 0.  1.
          2   -1    0    0  501    0  0.00000000000E+00 -0.00000000000E+00 -0.10742083538E+03  0.10742083538E+03  0.00000000000E+00 0. -1.
          5    1    1    2  502    0 -0.96264222961E+01 -0.18866489508E+02  0.39544312024E+02  0.45104933722E+02  0.47000000000E+01 0. -1.
         -5    1    1    2    0  502 -0.34504534190E+02  0.33876477164E+02 -0.81259401741E+02  0.94675017592E+02  0.47000000000E+01 0. -1.
        -11    1    1    2    0    0  0.48655357334E+01 -0.49534977499E+02  0.72224990602E+02  0.87714518189E+02  0.00000000000E+00 0.  1.
         11    1    1    2    0    0  0.39265420753E+02  0.34524989842E+02  0.67616572817E+02  0.85473674954E+02  0.00000000000E+00 0. -1.
<mgrwt>
<rscale>  0 0.29718724E+03</rscale>
<asrwt>0</asrwt>
<pdfrwt beam="2">  1        2 0.16526282E-01 0.29718724E+03</pdfrwt>
<pdfrwt beam="1">  1       -2 0.31622663E-01 0.29718724E+03</pdfrwt>
<totfact> 0.32180916E+03</totfact>
</mgrwt>
</event>
<event>
 6    1  0.5258538E-006  0.2320736E+03  0.7546771E-02  0.1128755E+00
         -2   -1    0    0    0  501 -0.00000000000E+00  0.00000000000E+00  0.47870268778E+03  0.47870268778E+03  0.00000000000E+00 0. -1.
          2   -1    0    0  501    0  0.00000000000E+00 -0.00000000000E+00 -0.10681688351E+03  0.10681688351E+03  0.00000000000E+00 0.  1.
          5    1    1    2  502    0 -0.19757371785E+03  0.42341495824E+02  0.14983571831E+03  0.25159691718E+03  0.47000000000E+01 0.  1.
         -5    1    1    2    0  502  0.10011245945E+02  0.12911085888E+02 -0.96326313879E+01  0.19539671739E+02  0.47000000000E+01 0.  1.
        -11    1    1    2    0    0  0.62448729060E+02 -0.60383856210E+02  0.10470854479E+03  0.13605121537E+03  0.00000000000E+00 0. -1.
         11    1    1    2    0    0  0.12511374284E+03  0.51312744970E+01  0.12697417254E+03  0.17833176700E+03  0.00000000000E+00 0.  1.
<mgrwt>
<rscale>  0 0.22701954E+03</rscale>
<asrwt>0</asrwt>
<pdfrwt beam="2">  1        2 0.16433367E-01 0.23207358E+03</pdfrwt>
<pdfrwt beam="1">  1       -2 0.73646566E-01 0.23207358E+03</pdfrwt>
<totfact> 0.59664993E+02</totfact>
</mgrwt>
</event>
<event>
 6    1  0.5258538E-006  0.1378423E+03  0.7546771E-02  0.1227828E+00
          1   -1    0    0  501    0  0.00000000000E+00  0.00000000000E+00  0.45344295229E+03  0.45344295229E+03  0.00000000000E+00 0. -1.
         -1   -1    0    0    0  501 -0.00000000000E+00 -0.00000000000E+00 -0.49251935206E+02  0.49251935206E+02  0.00000000000E+00 0.  1.
          5    1    1    2  502    0 -0.55568936717E+01 -0.53088124440E+02  0.36829380542E+03  0.37217152650E+03  0.47000000000E+01 0. -1.
         -5    1    1    2    0  502  0.92917608760E+01 -0.48818645993E+01 -0.77203265620E+01  0.13851457121E+02  0.47000000000E+01 0. -1.
        -11    1    1    2    0    0 -0.62180523978E+01 -0.18243513982E+02  0.34969168324E+02  0.39929096049E+02  0.00000000000E+00 0.  1.
         11    1    1    2    0    0  0.24831851935E+01  0.76213503021E+02  0.86483699005E+01  0.76742807829E+02  0.00000000000E+00 0. -1.
<mgrwt>
<rscale>  0 0.12974955E+03</rscale>
<asrwt>0</asrwt>
<pdfrwt beam="1">  1        1 0.69760451E-01 0.13784234E+03</pdfrwt>
<pdfrwt beam="2">  1       -1 0.75772211E-02 0.13784234E+03</pdfrwt>
<totfact> 0.46454653E+03</totfact>
</mgrwt>
</event>
<event>
 6    1  0.5258538E-006  0.1264674E+03  0.7546771E-02  0.1266260E+00
         -2   -1    0    0    0  501 -0.00000000000E+00  0.00000000000E+00  0.13031896733E+03  0.13031896733E+03  0.00000000000E+00 0.  1.
          2   -1    0    0  501    0  0.00000000000E+00 -0.00000000000E+00 -0.82381048838E+02  0.82381048838E+02  0.00000000000E+00 0. -1.
          5    1    1    2  502    0  0.31419955903E+02  0.91027118806E+01  0.20826526399E+02  0.39062862086E+02  0.47000000000E+01 0. -1.
         -5    1    1    2    0  502 -0.48327771650E+02 -0.66850705123E+02 -0.29385886063E+02  0.87693845780E+02  0.47000000000E+01 0.  1.
        -11    1    1    2    0    0  0.15318764130E+02  0.15839872497E+02  0.13306960734E+02  0.25741820043E+02  0.00000000000E+00 0.  1.
         11    1    1    2    0    0  0.15890516170E+01  0.41908120745E+02  0.43190317422E+02  0.60201488258E+02  0.00000000000E+00 0. -1.
<mgrwt>
<rscale>  0 0.10698342E+03</rscale>
<asrwt>0</asrwt>
<pdfrwt beam="2">  1        2 0.12674008E-01 0.12646739E+03</pdfrwt>
<pdfrwt beam="1">  1       -2 0.20049072E-01 0.12646739E+03</pdfrwt>
<totfact> 0.93471444E+03</totfact>
</mgrwt>
</event>
<event>
 6    1  0.5258538E-006  0.2776399E+03  0.7546771E-02  0.1098925E+00
          2   -1    0    0  501    0  0.00000000000E+00  0.00000000000E+00  0.27491966311E+04  0.27491966311E+04  0.00000000000E+00 0. -1.
         -2   -1    0    0    0  501 -0.00000000000E+00 -0.00000000000E+00 -0.45086078904E+02  0.45086078904E+02  0.00000000000E+00 0.  1.
          5    1    1    2  502    0  0.37230718061E+02 -0.20151597443E+03  0.18287618078E+04  0.18402137522E+04  0.47000000000E+01 0.  1.
         -5    1    1    2    0  502 -0.51915449743E+02 -0.45956493146E+02  0.43615156156E+03  0.44165313068E+03  0.47000000000E+01 0.  1.
        -11    1    1    2    0    0  0.50424209993E+02  0.13218369227E+03  0.26642199034E+03  0.30165511167E+03  0.00000000000E+00 0. -1.
         11    1    1    2    0    0 -0.35739478312E+02  0.11528877530E+03  0.17277519253E+03  0.21076071544E+03  0.00000000000E+00 0.  1.
<mgrwt>
<rscale>  0 0.27415529E+03</rscale>
<asrwt>0</asrwt>
<pdfrwt beam="1">  1        2 0.42295320E+00 0.27763988E+03</pdfrwt>
<pdfrwt beam="2">  1       -2 0.69363220E-02 0.27763988E+03</pdfrwt>
<totfact> 0.34396653E+02</totfact>
</mgrwt>
</event>
<event>
 6    1  0.5258538E-006  0.2591414E+03  0.7546771E-02  0.1107660E+00
          2   -1    0    0  501    0  0.00000000000E+00  0.00000000000E+00  0.13868221885E+04  0.13868221885E+04  0.00000000000E+00 0. -1.
         -2   -1    0    0    0  501 -0.00000000000E+00 -0.00000000000E+00 -0.12105781564E+02  0.12105781564E+02  0.00000000000E+00 0.  1.
          5    1    1    2  502    0  0.76930383559E+02  0.19789952959E+02  0.90585778496E+03  0.90934610723E+03  0.47000000000E+01 0. -1.
         -5    1    1    2    0  502 -0.16225484093E+02 -0.23913962596E+02  0.70976668370E+02  0.76778391452E+02  0.47000000000E+01 0.  1.
        -11    1    1    2    0    0 -0.17066843710E+02 -0.36823273847E+02  0.84281704117E+02  0.93544835774E+02  0.00000000000E+00 0. -1.
         11    1    1    2    0    0 -0.43638055757E+02  0.40947283484E+02  0.31360024953E+03  0.31925863566E+03  0.00000000000E+00 0.  1.
<mgrwt>
<rscale>  0 0.25914140E+03</rscale>
<asrwt>0</asrwt>
<pdfrwt beam="1">  1        2 0.21335713E+00 0.25914140E+03</pdfrwt>
<pdfrwt beam="2">  1       -2 0.18624290E-02 0.25914140E+03</pdfrwt>
<totfact> 0.13458987E+04</totfact>
</mgrwt>
</event>
<event>
 6    1  0.5258538E-006  0.1345801E+03  0.7546771E-02  0.1232315E+00
          1   -1    0    0  501    0  0.00000000000E+00  0.00000000000E+00  0.52782574981E+03  0.52782574981E+03  0.00000000000E+00 0. -1.
         -1   -1    0    0    0  501 -0.00000000000E+00 -0.00000000000E+00 -0.28851912289E+02  0.28851912289E+02  0.00000000000E+00 0.  1.
          5    1    1    2  502    0  0.34254346738E+01 -0.18186052977E+02  0.30335980019E+03  0.30396007056E+03  0.47000000000E+01 0.  1.
         -5    1    1    2    0  502  0.46385951872E+02  0.16402262477E+02  0.36101638298E+02  0.61205465714E+02  0.47000000000E+01 0.  1.
        -11    1    1    2    0    0 -0.55293581024E+02  0.33715887028E+02  0.65659420504E+02  0.92224186858E+02  0.00000000000E+00 0.  1.
         11    1    1    2    0    0  0.54821944785E+01 -0.31932096529E+02  0.93852978535E+02  0.99287938970E+02  0.00000000000E+00 0. -1.
<mgrwt>
<rscale>  0 0.12677864E+03</rscale>
<asrwt>0</asrwt>
<pdfrwt beam="1">  1        1 0.81203954E-01 0.13458009E+03</pdfrwt>
<pdfrwt beam="2">  1       -1 0.44387561E-02 0.13458009E+03</pdfrwt>
<totfact> 0.84400415E+03</totfact>
</mgrwt>
</event>
<event>
 6    1  0.5258538E-006  0.1555061E+03  0.7546771E-02  0.1201968E+00
          1   -1    0    0  501    0  0.00000000000E+00  0.00000000000E+00  0.93065608643E+03  0.93065608643E+03  0.00000000000E+00 0. -1.
         -1   -1    0    0    0  501 -0.00000000000E+00 -0.00000000000E+00 -0.28814244039E+02  0.28814244039E+02  0.00000000000E+00 0.  1.
          5    1    1    2  502    0 -0.21929788248E+02  0.95484458600E+02  0.71049949248E+03  0.71723762887E+03  0.47000000000E+01 0. -1.
         -5    1    1    2    0  502 -0.94131922958E+01 -0.84916460777E+01  0.41618069931E+01  0.14146620789E+02  0.47000000000E+01 0. -1.
        -11    1    1    2    0    0 -0.14826120683E+02  0.35883967377E+01  0.75639972778E+02  0.77162788489E+02  0.00000000000E+00 0. -1.
         11    1    1    2    0    0  0.46169101227E+02 -0.90581209260E+02  0.11154057014E+03  0.15092329233E+03  0.00000000000E+00 0.  1.
<mgrwt>
<rscale>  0 0.14879016E+03</rscale>
<asrwt>0</asrwt>
<pdfrwt beam="1">  1        1 0.14317784E+00 0.15550610E+03</pdfrwt>
<pdfrwt beam="2">  1       -1 0.44329613E-02 0.15550610E+03</pdfrwt>
<totfact> 0.37490689E+03</totfact>
</mgrwt>
</event>
<event>
 6    1  0.5258538E-006  0.3473576E+03  0.7546771E-02  0.1064821E+00
         -2   -1    0    0    0  501 -0.00000000000E+00  0.00000000000E+00  0.28235595321E+03  0.28235595321E+03  0.00000000000E+00 0.  1.
          2   -1    0    0  501    0  0.00000000000E+00 -0.00000000000E+00 -0.41702222680E+03  0.41702222680E+03  0.00000000000E+00 0. -1.
          5    1    1    2  502    0  0.20161552784E+03  0.18398081555E+03 -0.69103342855E+02  0.28159389829E+03  0.47000000000E+01 0.  1.
         -5    1    1    2    0  502  0.72941960106E+02 -0.11787923008E+02 -0.27076421070E+02  0.78833414558E+02  0.47000000000E+01 0.  1.
        -11    1    1    2    0    0 -0.22684838875E+03 -0.97480460972E+02 -0.40906948050E+02  0.25027187247E+03  0.00000000000E+00 0. -1.
         11    1    1    2    0    0 -0.47709099196E+02 -0.74712431573E+02  0.24204383918E+01  0.88678994692E+02  0.00000000000E+00 0.  1.
<mgrwt>
<rscale>  0 0.34467702E+03</rscale>
<asrwt>0</asrwt>
<pdfrwt beam="2">  1        2 0.64157266E-01 0.34735760E+03</pdfrwt>
<pdfrwt beam="1">  1       -2 0.43439377E-01 0.34735760E+03</pdfrwt>
<totfact> 0.38834476E+02</totfact>
</mgrwt>
</event>
<event>
 6    1  0.5258538E-006  0.1449651E+03  0.7546771E-02  0.1216590E+00
         -2   -1    0    0    0  501 -0.00000000000E+00  0.00000000000E+00  0.27770711989E+02  0.27770711989E+02  0.00000000000E+00 0.  1.
          2   -1    0    0  501    0  0.00000000000E+00 -0.00000000000E+00 -0.84590717597E+03  0.84590717597E+03  0.00000000000E+00 0. -1.
          5    1    1    2  502    0 -0.57154608057E+02 -0.66053928738E+02 -0.26975745113E+03  0.28358586559E+03  0.47000000000E+01 0.  1.
         -5    1    1    2    0  502  0.37149562216E+02 -0.45825745939E+01 -0.39483857981E+03  0.39663671548E+03  0.47000000000E+01 0.  1.
        -11    1    1    2    0    0  0.15543226296E+01  0.53829481259E+02 -0.15903014908E+03  0.16790061729E+03  0.00000000000E+00 0. -1.
         11    1    1    2    0    0  0.18450723212E+02  0.16807022073E+02  0.54897160366E+01  0.25554689592E+02  0.00000000000E+00 0.  1.
<mgrwt>
<rscale>  0 0.13760364E+03</rscale>
<asrwt>0</asrwt>
<pdfrwt beam="2">  1        2 0.13013956E+00 0.14496508E+03</pdfrwt>
<pdfrwt beam="1">  1       -2 0.42724175E-02 0.14496508E+03</pdfrwt>
<totfact> 0.79473222E+03</totfact>
</mgrwt>
</event>
<event>
 6    1  0.5258538E-006  0.1945787E+03  0.7546771E-02  0.1159043E+00
         -3   -1    0    0    0  501 -0.00000000000E+00  0.00000000000E+00  0.27467536862E+03  0.27467536862E+03  0.00000000000E+00 0.  1.
          3   -1    0    0  501    0  0.00000000000E+00 -0.00000000000E+00 -0.12424064973E+03  0.12424064973E+03  0.00000000000E+00 0. -1.
          5    1    1    2  502    0  0.11677155811E+03 -0.45300658553E+02  0.19180591258E+02  0.12679799498E+03  0.47000000000E+01 0.  1.
         -5    1    1    2    0  502 -0.40706673097E+01 -0.52342883975E+02  0.68998634700E+02  0.86828851344E+02  0.47000000000E+01 0.  1.
        -11    1    1    2    0    0 -0.51673705556E+02  0.57291174692E+01 -0.10620515191E+02  0.53064017713E+02  0.00000000000E+00 0. -1.
         11    1    1    2    0    0 -0.61027185246E+02  0.91914425058E+02  0.72876008123E+02  0.13222515431E+03  0.00000000000E+00 0.  1.
<mgrwt>
<rscale>  0 0.18935688E+03</rscale>
<asrwt>0</asrwt>
<pdfrwt beam="2">  1        3 0.19113946E-01 0.19457866E+03</pdfrwt>
<pdfrwt beam="1">  1       -3 0.42257749E-01 0.19457866E+03</pdfrwt>
<totfact> 0.33028913E+02</totfact>
</mgrwt>
</event>
<event>
 6    1  0.5258538E-006  0.1351778E+03  0.7546771E-02  0.1273941E+00
         -1   -1    0    0    0  501 -0.00000000000E+00  0.00000000000E+00  0.11454569764E+02  0.11454569764E+02  0.00000000000E+00 0.  1.
          1   -1    0    0  501    0  0.00000000000E+00 -0.00000000000E+00 -0.78107181522E+03  0.78107181522E+03  0.00000000000E+00 0. -1.
          5    1    1    2  502    0 -0.48912716531E+02 -0.33127260543E+02 -0.50413187307E+03  0.50760309758E+03  0.47000000000E+01 0. -1.
         -5    1    1    2    0  502  0.40978415441E+02  0.40076363289E+02 -0.15687688913E+03  0.16708618665E+03  0.47000000000E+01 0.  1.
        -11    1    1    2    0    0 -0.86592584641E+01  0.53613556093E+01 -0.35798294047E+01  0.10795465237E+02  0.00000000000E+00 0.  1.
         11    1    1    2    0    0  0.16593559554E+02 -0.12310458356E+02 -0.10502865385E+03  0.10704163551E+03  0.00000000000E+00 0. -1.
<mgrwt>
<rscale>  0 0.10308410E+03</rscale>
<asrwt>0</asrwt>
<pdfrwt beam="2">  1        1 0.12016486E+00 0.13517783E+03</pdfrwt>
<pdfrwt beam="1">  1       -1 0.17622420E-02 0.13517783E+03</pdfrwt>
<totfact> 0.18735072E+04</totfact>
</mgrwt>
</event>
<event>
 6    1  0.5258538E-006  0.1265612E+03  0.7546771E-02  0.1246652E+00
          3   -1    0    0  501    0  0.00000000000E+00  0.00000000000E+00  0.31379606184E+03  0.31379606184E+03  0.00000000000E+00 0.  1.
         -3   -1    0    0    0  501 -0.00000000000E+00 -0.00000000000E+00 -0.56096596794E+02  0.56096596794E+02  0.00000000000E+00 0. -1.
          5    1    1    2  502    0 -0.47620900272E+02  0.17540617886E+02  0.53181203932E+02  0.73659716739E+02  0.47000000000E+01 0.  1.
         -5    1    1    2    0  502  0.52274018466E+02 -0.36852704465E+02  0.18922137571E+03  0.19979367823E+03  0.47000000000E+01 0.  1.
        -11    1    1    2    0    0  0.40683758202E+02  0.79899903045E+01  0.25410365782E+02  0.48628127824E+02  0.00000000000E+00 0.  1.
         11    1    1    2    0    0 -0.45336876396E+02  0.11322096274E+02 -0.10113480380E+02  0.47811135844E+02  0.00000000000E+00 0. -1.
<mgrwt>
<rscale>  0 0.11787066E+03</rscale>
<asrwt>0</asrwt>
<pdfrwt beam="1">  1        3 0.48276316E-01 0.12656124E+03</pdfrwt>
<pdfrwt beam="2">  1       -3 0.86302458E-02 0.12656124E+03</pdfrwt>
<totfact> 0.92170330E+02</totfact>
</mgrwt>
</event>
<event>
 6    1  0.5258538E-006  0.1501189E+03  0.7546771E-02  0.1209421E+00
          4   -1    0    0  501    0  0.00000000000E+00  0.00000000000E+00  0.95969910076E+02  0.95969910076E+02  0.00000000000E+00 0. -1.
         -4   -1    0    0    0  501 -0.00000000000E+00 -0.00000000000E+00 -0.19545889022E+03  0.19545889022E+03  0.00000000000E+00 0.  1.
          5    1    1    2  502    0  0.16544637760E+02  0.35103193728E+02 -0.59242124130E+02  0.70976605441E+02  0.47000000000E+01 0. -1.
         -5    1    1    2    0  502 -0.84247145130E+02  0.13123130527E+02  0.12383144456E+02  0.86285747861E+02  0.47000000000E+01 0. -1.
        -11    1    1    2    0    0  0.55020268633E+02 -0.72903030573E+02 -0.54498553566E+02  0.10635870518E+03  0.00000000000E+00 0.  1.
         11    1    1    2    0    0  0.12682238736E+02  0.24676706318E+02  0.18685530943E+01  0.27807741813E+02  0.00000000000E+00 0. -1.
<mgrwt>
<rscale>  0 0.14294421E+03</rscale>
<asrwt>0</asrwt>
<pdfrwt beam="1">  1        4 0.14764602E-01 0.15011890E+03</pdfrwt>
<pdfrwt beam="2">  1       -4 0.30070598E-01 0.15011890E+03</pdfrwt>
<totfact> 0.69261584E+02</totfact>
</mgrwt>
</event>
<event>
 6    1  0.5258538E-006  0.4215314E+03  0.7546771E-02  0.1064366E+00
          1   -1    0    0  501    0  0.00000000000E+00  0.00000000000E+00  0.23059297619E+04  0.23059297619E+04  0.00000000000E+00 0. -1.
         -1   -1    0    0    0  501 -0.00000000000E+00 -0.00000000000E+00 -0.43581563759E+02  0.43581563759E+02  0.00000000000E+00 0.  1.
          5    1    1    2  502    0  0.38592051273E+02  0.24847134354E+03  0.13896810882E+04  0.14122545705E+04  0.47000000000E+01 0. -1.
         -5    1    1    2    0  502 -0.11256738805E+03 -0.98908008123E+02  0.42262226215E+03  0.44842599990E+03  0.47000000000E+01 0.  1.
        -11    1    1    2    0    0  0.48274245799E+02 -0.12634974226E+02  0.14843694619E+03  0.15660003951E+03  0.00000000000E+00 0. -1.
         11    1    1    2    0    0  0.25701090980E+02 -0.13692836119E+03  0.30160790157E+03  0.33223071572E+03  0.00000000000E+00 0.  1.
<mgrwt>
<rscale>  0 0.34576635E+03</rscale>
<asrwt>0</asrwt>
<pdfrwt beam="1">  1        1 0.35475833E+00 0.42153144E+03</pdfrwt>
<pdfrwt beam="2">  1       -1 0.67048578E-02 0.42153144E+03</pdfrwt>
<totfact> 0.23410328E+02</totfact>
</mgrwt>
</event>
<event>
 6    1  0.5258538E-006  0.1686124E+03  0.7546771E-02  0.1185801E+00
         -2   -1    0    0    0  501 -0.00000000000E+00  0.00000000000E+00  0.30665457502E+02  0.30665457502E+02  0.00000000000E+00 0.  1.
          2   -1    0    0  501    0  0.00000000000E+00 -0.00000000000E+00 -0.80949458366E+03  0.80949458366E+03  0.00000000000E+00 0. -1.
          5    1    1    2  502    0 -0.91774441333E+02  0.27245849865E+02 -0.33241968361E+03  0.34596216624E+03  0.47000000000E+01 0. -1.
         -5    1    1    2    0  502 -0.15638427719E+02 -0.62818399045E+02 -0.11316027216E+03  0.13045324402E+03  0.47000000000E+01 0. -1.
        -11    1    1    2    0    0  0.98702840982E+02  0.62675913269E+02 -0.25671006573E+03  0.28208257438E+03  0.00000000000E+00 0.  1.
         11    1    1    2    0    0  0.87100280699E+01 -0.27103364089E+02 -0.76539104657E+02  0.81662056523E+02  0.00000000000E+00 0. -1.
<mgrwt>
<rscale>  0 0.16259237E+03</rscale>
<asrwt>0</asrwt>
<pdfrwt beam="2">  1        2 0.12453761E+00 0.16861241E+03</pdfrwt>
<pdfrwt beam="1">  1       -2 0.47177634E-02 0.16861241E+03</pdfrwt>
<totfact> 0.72972977E+03</totfact>
</mgrwt>
</event>
<event>
 6    1  0.5258538E-006  0.1510176E+03  0.7546771E-02  0.1219328E+00
          1   -1    0    0  501    0  0.00000000000E+00  0.00000000000E+00  0.32853077459E+02  0.32853077459E+02  0.00000000000E+00 0. -1.
         -1   -1    0    0    0  501 -0.00000000000E+00 -0.00000000000E+00 -0.48917976773E+03  0.48917976773E+03  0.00000000000E+00 0.  1.
          5    1    1    2  502    0  0.52381828189E+02  0.24458107417E+02 -0.79905681209E+02  0.98737342644E+02  0.47000000000E+01 0. -1.
         -5    1    1    2    0  502 -0.71635577710E+02 -0.58716489394E+02 -0.14831146688E+03  0.17492187778E+03  0.47000000000E+01 0.  1.
        -11    1    1    2    0    0 -0.13240497420E+02  0.36477382672E+02 -0.20449309031E+03  0.20814258143E+03  0.00000000000E+00 0.  1.
         11    1    1    2    0    0  0.32494246941E+02 -0.22190006954E+01 -0.23616451867E+02  0.40231043326E+02  0.00000000000E+00 0. -1.
<mgrwt>
<rscale>  0 0.13563363E+03</rscale>
<asrwt>0</asrwt>
<pdfrwt beam="1">  1        1 0.50543197E-02 0.15101756E+03</pdfrwt>
<pdfrwt beam="2">  1       -1 0.75258424E-01 0.15101756E+03</pdfrwt>
<totfact> 0.29434771E+03</totfact>
</mgrwt>
</event>
<event>
 6    1  0.5258538E-006  0.3008345E+03  0.7546771E-02  0.1084824E+00
          2   -1    0    0  501    0  0.00000000000E+00  0.00000000000E+00  0.58079354272E+03  0.58079354272E+03  0.00000000000E+00 0. -1.
         -2   -1    0    0    0  501 -0.00000000000E+00 -0.00000000000E+00 -0.38955926228E+02  0.38955926228E+02  0.00000000000E+00 0.  1.
          5    1    1    2  502    0 -0.77979865737E+02 -0.87940159603E+02  0.26110107580E+03  0.28637421832E+03  0.47000000000E+01 0.  1.
         -5    1    1    2    0  502  0.42171154166E+02 -0.62538748967E+01  0.90363336232E+02  0.10002569535E+03  0.47000000000E+01 0.  1.
        -11    1    1    2    0    0  0.44803508419E+02  0.25008557655E+02  0.13453690253E+03  0.14398944567E+03  0.00000000000E+00 0. -1.
         11    1    1    2    0    0 -0.89947968477E+01  0.69185476845E+02  0.55836301925E+02  0.89360109608E+02  0.00000000000E+00 0.  1.
<mgrwt>
<rscale>  0 0.30083451E+03</rscale>
<asrwt>0</asrwt>
<pdfrwt beam="1">  1        2 0.89352846E-01 0.30083451E+03</pdfrwt>
<pdfrwt beam="2">  1       -2 0.59932199E-02 0.30083451E+03</pdfrwt>
<totfact> 0.77650284E+03</totfact>
</mgrwt>
</event>
<event>
 6    1  0.5258538E-006  0.1137332E+03  0.7546771E-02  0.1264040E+00
         -2   -1    0    0    0  501 -0.00000000000E+00  0.00000000000E+00  0.20936125450E+03  0.20936125450E+03  0.00000000000E+00 0.  1.
          2   -1    0    0  501    0  0.00000000000E+00 -0.00000000000E+00 -0.61819338791E+02  0.61819338791E+02  0.00000000000E+00 0. -1.
          5    1    1    2  502    0  0.29078219540E+02 -0.29002551033E+02 -0.21942922706E+02  0.46800349090E+02  0.47000000000E+01 0. -1.
         -5    1    1    2    0  502 -0.34658593861E+02  0.39004588624E+02  0.45405644260E+02  0.69327762064E+02  0.47000000000E+01 0.  1.
        -11    1    1    2    0    0  0.19758426273E+02  0.30110982638E+02  0.16989268390E+02  0.39820872977E+02  0.00000000000E+00 0.  1.
         11    1    1    2    0    0 -0.14178051951E+02 -0.40113020229E+02  0.10708992577E+03  0.11523160916E+03  0.00000000000E+00 0. -1.
<mgrwt>
<rscale>  0 0.10814712E+03</rscale>
<asrwt>0</asrwt>
<pdfrwt beam="2">  1        2 0.95106676E-02 0.11373319E+03</pdfrwt>
<pdfrwt beam="1">  1       -2 0.32209423E-01 0.11373319E+03</pdfrwt>
<totfact> 0.57272557E+03</totfact>
</mgrwt>
</event>
<event>
 6    1  0.5258538E-006  0.2801189E+03  0.7546771E-02  0.1095624E+00
         -2   -1    0    0    0  501 -0.00000000000E+00  0.00000000000E+00  0.81728741021E+02  0.81728741021E+02  0.00000000000E+00 0. -1.
          2   -1    0    0  501    0  0.00000000000E+00 -0.00000000000E+00 -0.24002147012E+03  0.24002147012E+03  0.00000000000E+00 0.  1.
          5    1    1    2  502    0 -0.14918413960E+02  0.29834639024E+01  0.16336835603E+02  0.22813205155E+02  0.47000000000E+01 0. -1.
         -5    1    1    2    0  502 -0.56087187889E+01  0.45519492703E+00 -0.20109156792E+03  0.20122518137E+03  0.47000000000E+01 0. -1.
        -11    1    1    2    0    0  0.50015997146E+02  0.18717657182E+02  0.28945045571E+02  0.60743446757E+02  0.00000000000E+00 0.  1.
         11    1    1    2    0    0 -0.29488864397E+02 -0.22156316011E+02 -0.24830423572E+01  0.36968377864E+02  0.00000000000E+00 0. -1.
<mgrwt>
<rscale>  0 0.28011892E+03</rscale>
<asrwt>0</asrwt>
<pdfrwt beam="2">  1        2 0.36926379E-01 0.28011892E+03</pdfrwt>
<pdfrwt beam="1">  1       -2 0.12573653E-01 0.28011892E+03</pdfrwt>
<totfact> 0.63474012E+03</totfact>
</mgrwt>
</event>
<event>
 6    1  0.5258538E-006  0.1724729E+03  0.7546771E-02  0.1181460E+00
          3   -1    0    0  501    0  0.00000000000E+00  0.00000000000E+00  0.14806620162E+03  0.14806620162E+03  0.00000000000E+00 0. -1.
         -3   -1    0    0    0  501 -0.00000000000E+00 -0.00000000000E+00 -0.18326022265E+03  0.18326022265E+03  0.00000000000E+00 0.  1.
          5    1    1    2  502    0 -0.64046759390E+02 -0.67363756785E+02  0.30167907086E+02  0.97836883304E+02  0.47000000000E+01 0.  1.
         -5    1    1    2    0  502  0.53034572094E+02 -0.50960829824E+02 -0.15313252730E+02  0.75274548970E+02  0.47000000000E+01 0.  1.
        -11    1    1    2    0    0  0.38928172173E+02  0.11479591681E+03 -0.34331122553E+02  0.12598464621E+03  0.00000000000E+00 0. -1.
         11    1    1    2    0    0 -0.27915984877E+02  0.35286697953E+01 -0.15717552830E+02  0.32230345781E+02  0.00000000000E+00 0.  1.
<mgrwt>
<rscale>  0 0.16658231E+03</rscale>
<asrwt>0</asrwt>
<pdfrwt beam="1">  1        3 0.22779416E-01 0.17247292E+03</pdfrwt>
<pdfrwt beam="2">  1       -3 0.28193881E-01 0.17247292E+03</pdfrwt>
<totfact> 0.51334750E+02</totfact>
</mgrwt>
</event>
<event>
 6    1  0.5258538E-006  0.1523209E+03  0.7546771E-02  0.1206083E+00
          1   -1    0    0  501    0  0.00000000000E+00  0.00000000000E+00  0.82125840126E+03  0.82125840126E+03  0.00000000000E+00 0. -1.
         -1   -1    0    0    0  501 -0.00000000000E+00 -0.00000000000E+00 -0.26715614035E+02  0.26715614035E+02  0.00000000000E+00 0.  1.
          5    1    1    2  502    0 -0.81296052250E+02 -0.67490744322E+01  0.21231717178E+03  0.22749784515E+03  0.47000000000E+01 0. -1.
         -5    1    1    2    0  502  0.20096199744E+02 -0.55116057945E+02  0.35822485090E+03  0.36302723161E+03  0.47000000000E+01 0. -1.
        -11    1    1    2    0    0  0.38352249959E+02  0.82277604347E+02  0.19574923052E+03  0.21577363255E+03  0.00000000000E+00 0.  1.
         11    1    1    2    0    0  0.22847602547E+02 -0.20412471969E+02  0.28251534024E+02  0.41675305983E+02  0.00000000000E+00 0. -1.
<mgrwt>
<rscale>  0 0.14552416E+03</rscale>
<asrwt>0</asrwt>
<pdfrwt beam="1">  1        1 0.12634743E+00 0.15232093E+03</pdfrwt>
<pdfrwt beam="2">  1       -1 0.41100951E-02 0.15232093E+03</pdfrwt>
<totfact> 0.51023503E+03</totfact>
</mgrwt>
</event>
<event>
 6    1  0.5258538E-006  0.1381062E+03  0.7546771E-02  0.1228044E+00
         -2   -1    0    0    0  501 -0.00000000000E+00  0.00000000000E+00  0.13643571835E+02  0.13643571835E+02  0.00000000000E+00 0.  1.
          2   -1    0    0  501    0  0.00000000000E+00 -0.00000000000E+00 -0.12145530633E+04  0.12145530633E+04  0.00000000000E+00 0. -1.
          5    1    1    2  502    0 -0.24846845981E+02 -0.30454488225E+02 -0.19171545400E+03  0.19575941078E+03  0.47000000000E+01 0.  1.
         -5    1    1    2    0  502  0.45323799973E+02  0.85497226826E+02 -0.66331459310E+03  0.67035241632E+03  0.47000000000E+01 0.  1.
        -11    1    1    2    0    0  0.11981740519E+02 -0.70130150661E+02 -0.23958380727E+03  0.24992439025E+03  0.00000000000E+00 0.  1.
         11    1    1    2    0    0 -0.32458694511E+02  0.15087412059E+02 -0.10629563712E+03  0.11216041780E+03  0.00000000000E+00 0. -1.
<mgrwt>
<rscale>  0 0.12960405E+03</rscale>
<asrwt>0</asrwt>
<pdfrwt beam="2">  1        2 0.18685433E+00 0.13810618E+03</pdfrwt>
<pdfrwt beam="1">  1       -2 0.20990109E-02 0.13810618E+03</pdfrwt>
<totfact> 0.13623601E+04</totfact>
</mgrwt>
</event>
<event>
 6    1  0.5258538E-006  0.1258590E+03  0.7546771E-02  0.1250154E+00
         -2   -1    0    0    0  501 -0.00000000000E+00  0.00000000000E+00  0.49090090707E+02  0.49090090707E+02  0.00000000000E+00 0. -1.
          2   -1    0    0  501    0  0.00000000000E+00 -0.00000000000E+00 -0.24303265230E+03  0.24303265230E+03  0.00000000000E+00 0.  1.
          5    1    1    2  502    0 -0.52891501614E+02  0.10719243939E+02 -0.31853800496E+02  0.62842403993E+02  0.47000000000E+01 0.  1.
         -5    1    1    2    0  502  0.60446702382E+02 -0.23260968579E+02 -0.10175705521E+03  0.12071232237E+03  0.47000000000E+01 0.  1.
        -11    1    1    2    0    0 -0.39185336618E+02  0.58548972928E+01  0.56209327301E+00  0.39624315477E+02  0.00000000000E+00 0. -1.
         11    1    1    2    0    0  0.31630135850E+02  0.66868273469E+01 -0.60893799159E+02  0.68943701162E+02  0.00000000000E+00 0.  1.
<mgrwt>
<rscale>  0 0.11582131E+03</rscale>
<asrwt>0</asrwt>
<pdfrwt beam="2">  1        2 0.37389638E-01 0.12585896E+03</pdfrwt>
<pdfrwt beam="1">  1       -2 0.75523219E-02 0.12585896E+03</pdfrwt>
<totfact> 0.13288547E+04</totfact>
</mgrwt>
</event>
<event>
 6    1  0.5258538E-006  0.1279580E+03  0.7546771E-02  0.1244339E+00
          2   -1    0    0  501    0  0.00000000000E+00  0.00000000000E+00  0.74990193894E+02  0.74990193894E+02  0.00000000000E+00 0. -1.
         -2   -1    0    0    0  501 -0.00000000000E+00 -0.00000000000E+00 -0.25869148952E+03  0.25869148952E+03  0.00000000000E+00 0.  1.
          5    1    1    2  502    0  0.28105611567E+02  0.27994736383E+02  0.40122686379E+02  0.56617582330E+02  0.47000000000E+01 0. -1.
         -5    1    1    2    0  502 -0.55537406375E+02 -0.14391241503E+02 -0.42168571369E+02  0.71356777885E+02  0.47000000000E+01 0.  1.
        -11    1    1    2    0    0 -0.51938406288E+01  0.36361071827E+02 -0.74252053749E+02  0.82840032658E+02  0.00000000000E+00 0. -1.
         11    1    1    2    0    0  0.32625635437E+02 -0.49964566707E+02 -0.10740335688E+03  0.12286729054E+03  0.00000000000E+00 0.  1.
<mgrwt>
<rscale>  0 0.11925018E+03</rscale>
<asrwt>0</asrwt>
<pdfrwt beam="1">  1        2 0.11536953E-01 0.12795801E+03</pdfrwt>
<pdfrwt beam="2">  1       -2 0.39798690E-01 0.12795801E+03</pdfrwt>
<totfact> 0.30867914E+03</totfact>
</mgrwt>
</event>
<event>
 6    1  0.5258538E-006  0.1365418E+03  0.7546771E-02  0.1231551E+00
         -1   -1    0    0    0  501 -0.00000000000E+00  0.00000000000E+00  0.30467234376E+02  0.30467234376E+02  0.00000000000E+00 0.  1.
          1   -1    0    0  501    0  0.00000000000E+00 -0.00000000000E+00 -0.71038358137E+03  0.71038358137E+03  0.00000000000E+00 0. -1.
          5    1    1    2  502    0  0.40852657758E+02 -0.80317756625E+02 -0.35319677227E+03  0.36454071325E+03  0.47000000000E+01 0.  1.
         -5    1    1    2    0  502 -0.37114096854E+02  0.25496132228E+02 -0.23178869354E+03  0.23616857835E+03  0.47000000000E+01 0.  1.
        -11    1    1    2    0    0  0.11941178177E+02  0.28336851550E+02  0.87645717075E+01  0.31974780832E+02  0.00000000000E+00 0.  1.
         11    1    1    2    0    0 -0.15679739080E+02  0.26484772846E+02 -0.10369545288E+03  0.10816674331E+03  0.00000000000E+00 0. -1.
<mgrwt>
<rscale>  0 0.12727833E+03</rscale>
<asrwt>0</asrwt>
<pdfrwt beam="2">  1        1 0.10928977E+00 0.13654178E+03</pdfrwt>
<pdfrwt beam="1">  1       -1 0.46872674E-02 0.13654178E+03</pdfrwt>
<totfact> 0.51858149E+03</totfact>
</mgrwt>
</event>
<event>
 6    1  0.5258538E-006  0.1399422E+03  0.7546771E-02  0.1224517E+00
          1   -1    0    0  501    0  0.00000000000E+00  0.00000000000E+00  0.57746236343E+03  0.57746236343E+03  0.00000000000E+00 0. -1.
         -1   -1    0    0    0  501 -0.00000000000E+00 -0.00000000000E+00 -0.27694145994E+02  0.27694145994E+02  0.00000000000E+00 0.  1.
          5    1    1    2  502    0  0.33106043107E+02  0.49969433694E+02  0.59367216214E+02  0.84495625656E+02  0.47000000000E+01 0.  1.
         -5    1    1    2    0  502  0.24278420987E+02 -0.24532944342E+02  0.28650531795E+03  0.28861513179E+03  0.47000000000E+01 0.  1.
        -11    1    1    2    0    0 -0.59385280091E+02  0.10634491699E+02  0.65662766516E+02  0.89170078007E+02  0.00000000000E+00 0.  1.
         11    1    1    2    0    0  0.20008159968E+01 -0.36070981050E+02  0.13823291675E+03  0.14287567397E+03  0.00000000000E+00 0. -1.
<mgrwt>
<rscale>  0 0.13200034E+03</rscale>
<asrwt>0</asrwt>
<pdfrwt beam="1">  1        1 0.88840355E-01 0.13994223E+03</pdfrwt>
<pdfrwt beam="2">  1       -1 0.42606383E-02 0.13994223E+03</pdfrwt>
<totfact> 0.79718746E+03</totfact>
</mgrwt>
</event>
<event>
 6    1  0.5258538E-006  0.3431663E+03  0.7546771E-02  0.1065455E+00
         -1   -1    0    0    0  501 -0.00000000000E+00  0.00000000000E+00  0.10707412453E+03  0.10707412453E+03  0.00000000000E+00 0.  1.
          1   -1    0    0  501    0  0.00000000000E+00 -0.00000000000E+00 -0.27495692715E+03  0.27495692715E+03  0.00000000000E+00 0. -1.
          5    1    1    2  502    0 -0.10870293175E+03  0.44506600794E+02 -0.53248689027E+02  0.12905300371E+03  0.47000000000E+01 0. -1.
         -5    1    1    2    0  502 -0.36497705112E+00 -0.14197615326E+01 -0.10225284268E+03  0.10237129855E+03  0.47000000000E+01 0. -1.
        -11    1    1    2    0    0 -0.34762617041E+01 -0.29898864389E+02  0.15580362386E+02  0.33893571356E+02  0.00000000000E+00 0.  1.
         11    1    1    2    0    0  0.11254417050E+03 -0.13187974872E+02 -0.27961633298E+02  0.11671317806E+03  0.00000000000E+00 0. -1.
<mgrwt>
<rscale>  0 0.34316627E+03</rscale>
<asrwt>0</asrwt>
<pdfrwt beam="2">  1        1 0.42301066E-01 0.34316627E+03</pdfrwt>
<pdfrwt beam="1">  1       -1 0.16472942E-01 0.34316627E+03</pdfrwt>
<totfact> 0.27130522E+03</totfact>
</mgrwt>
</event>
<event>
 6    1  0.5258538E-006  0.2849827E+03  0.7546771E-02  0.1092998E+00
         -1   -1    0    0    0  501 -0.00000000000E+00  0.00000000000E+00  0.77907099300E+02  0.77907099300E+02  0.00000000000E+00 0.  1.
          1   -1    0    0  501    0  0.00000000000E+00 -0.00000000000E+00 -0.26061540355E+03  0.26061540355E+03  0.00000000000E+00 0. -1.
          5    1    1    2  502    0  0.89133851224E+02  0.29838928229E+02 -0.16859198163E+03  0.19308172193E+03  0.47000000000E+01 0. -1.
         -5    1    1    2    0  502 -0.24905386833E+02 -0.18496426879E+02 -0.70702597484E+01  0.32163250357E+02  0.47000000000E+01 0. -1.
        -11    1    1    2    0    0 -0.32211623108E+02  0.86204498161E+01 -0.47450574715E+02  0.57995326183E+02  0.00000000000E+00 0. -1.
         11    1    1    2    0    0 -0.32016841283E+02 -0.19962951166E+02  0.40404511840E+02  0.55282204388E+02  0.00000000000E+00 0.  1.
<mgrwt>
<rscale>  0 0.28498274E+03</rscale>
<asrwt>0</asrwt>
<pdfrwt beam="2">  1        1 0.40094677E-01 0.28498274E+03</pdfrwt>
<pdfrwt beam="1">  1       -1 0.11985708E-01 0.28498274E+03</pdfrwt>
<totfact> 0.47848185E+03</totfact>
</mgrwt>
</event>
<event>
 6    1  0.5258538E-006  0.2901240E+03  0.7546771E-02  0.1092357E+00
         -1   -1    0    0    0  501 -0.00000000000E+00  0.00000000000E+00  0.94843330316E+02  0.94843330316E+02  0.00000000000E+00 0.  1.
          1   -1    0    0  501    0  0.00000000000E+00 -0.00000000000E+00 -0.84747593752E+03  0.84747593752E+03  0.00000000000E+00 0. -1.
          5    1    1    2  502    0  0.12220686451E+03  0.12316414318E+03 -0.31206077895E+03  0.35708254460E+03  0.47000000000E+01 0.  1.
         -5    1    1    2    0  502  0.11011281831E+03 -0.24336320277E+01 -0.11595258256E+03  0.15999327086E+03  0.47000000000E+01 0.  1.
        -11    1    1    2    0    0 -0.20719699389E+03 -0.79034204825E+02 -0.29193021812E+03  0.36660639937E+03  0.00000000000E+00 0.  1.
         11    1    1    2    0    0 -0.25122688931E+02 -0.41696306331E+02 -0.32689027587E+02  0.58637053007E+02  0.00000000000E+00 0. -1.
<mgrwt>
<rscale>  0 0.28618596E+03</rscale>
<asrwt>0</asrwt>
<pdfrwt beam="2">  1        1 0.13038092E+00 0.29012404E+03</pdfrwt>
<pdfrwt beam="1">  1       -1 0.14591281E-01 0.29012404E+03</pdfrwt>
<totfact> 0.70863830E+02</totfact>
</mgrwt>
</event>
<event>
 6    1  0.5258538E-006  0.1281484E+03  0.7546771E-02  0.1245131E+00
         -2   -1    0    0    0  501 -0.00000000000E+00  0.00000000000E+00  0.46697873901E+02  0.46697873901E+02  0.00000000000E+00 0.  1.
          2   -1    0    0  501    0  0.00000000000E+00 -0.00000000000E+00 -0.26560132191E+03  0.26560132191E+03  0.00000000000E+00 0. -1.
          5    1    1    2  502    0  0.42246222835E+02  0.14628795525E+02 -0.87488823555E+02  0.98362234874E+02  0.47000000000E+01 0.  1.
         -5    1    1    2    0  502 -0.61760662749E+02 -0.34997281256E+02 -0.36540201494E+02  0.79977906222E+02  0.47000000000E+01 0.  1.
        -11    1    1    2    0    0 -0.18949486995E+02 -0.25789054483E+02 -0.48291703149E+02  0.57933125080E+02  0.00000000000E+00 0.  1.
         11    1    1    2    0    0  0.38463926909E+02  0.46157540214E+02 -0.46582719814E+02  0.76025929637E+02  0.00000000000E+00 0. -1.
<mgrwt>
<rscale>  0 0.11877514E+03</rscale>
<asrwt>0</asrwt>
<pdfrwt beam="2">  1        2 0.40861741E-01 0.12814838E+03</pdfrwt>
<pdfrwt beam="1">  1       -2 0.71842884E-02 0.12814838E+03</pdfrwt>
<totfact> 0.13075233E+04</totfact>
</mgrwt>
</event>
<event>
 6    1  0.5258538E-006  0.1324574E+03  0.7546771E-02  0.1237149E+00
         -4   -1    0    0    0  501 -0.00000000000E+00  0.00000000000E+00  0.67458794766E+03  0.67458794766E+03  0.00000000000E+00 0. -1.
          4   -1    0    0  501    0  0.00000000000E+00 -0.00000000000E+00 -0.23047780792E+02  0.23047780792E+02  0.00000000000E+00 0.  1.
          5    1    1    2  502    0 -0.52990947400E+02  0.37015830735E+01  0.23654439532E+03  0.24248109860E+03  0.47000000000E+01 0.  1.
         -5    1    1    2    0  502  0.16485717441E+02 -0.27929630651E+02  0.52106520084E+01  0.33182586431E+02  0.47000000000E+01 0.  1.
        -11    1    1    2    0    0  0.48319039531E+01 -0.32570814044E+02  0.95151330299E+02  0.10068754084E+03  0.00000000000E+00 0. -1.
         11    1    1    2    0    0  0.31673326006E+02  0.56798861622E+02  0.31463378924E+03  0.32128450258E+03  0.00000000000E+00 0.  1.
<mgrwt>
<rscale>  0 0.12367830E+03</rscale>
<asrwt>0</asrwt>
<pdfrwt beam="2">  1        4 0.35458129E-02 0.13245741E+03</pdfrwt>
<pdfrwt beam="1">  1       -4 0.10378275E+00 0.13245741E+03</pdfrwt>
<totfact> 0.53726006E+02</totfact>
</mgrwt>
</event>
<event>
 6    1  0.5258538E-006  0.4066686E+03  0.7546771E-02  0.1041495E+00
         -2   -1    0    0    0  501 -0.00000000000E+00  0.00000000000E+00  0.37856239610E+02  0.37856239610E+02  0.00000000000E+00 0. -1.
          2   -1    0    0  501    0  0.00000000000E+00 -0.00000000000E+00 -0.10921538878E+04  0.10921538878E+04  0.00000000000E+00 0.  1.
          5    1    1    2  502    0  0.76418391533E+01 -0.21156968493E+02 -0.45978973302E+03  0.46036366452E+03  0.47000000000E+01 0.  1.
         -5    1    1    2    0  502  0.12331225441E+02 -0.12472764858E+03 -0.33939541195E+03  0.36182921537E+03  0.47000000000E+01 0.  1.
        -11    1    1    2    0    0  0.28063096016E+02  0.99080985363E+02 -0.17779703413E+03  0.20546621222E+03  0.00000000000E+00 0.  1.
         11    1    1    2    0    0 -0.48036160610E+02  0.46803631708E+02 -0.77315469105E+02  0.10235103532E+03  0.00000000000E+00 0. -1.
<mgrwt>
<rscale>  0 0.40666861E+03</rscale>
<asrwt>0</asrwt>
<pdfrwt beam="2">  1        2 0.16802366E+00 0.40666861E+03</pdfrwt>
<pdfrwt beam="1">  1       -2 0.58240373E-02 0.40666861E+03</pdfrwt>
<totfact> 0.35910144E+03</totfact>
</mgrwt>
</event>
<event>
 6    1  0.5258538E-006  0.4163903E+03  0.7546771E-02  0.1051737E+00
         -1   -1    0    0    0  501 -0.00000000000E+00  0.00000000000E+00  0.58966347675E+02  0.58966347675E+02  0.00000000000E+00 0.  1.
          1   -1    0    0  501    0  0.00000000000E+00 -0.00000000000E+00 -0.22774076476E+04  0.22774076476E+04  0.00000000000E+00 0. -1.
          5    1    1    2  502    0  0.21308061048E+03 -0.57626473566E+02 -0.16141552104E+04  0.16291848545E+04  0.47000000000E+01 0. -1.
         -5    1    1    2    0  502  0.28596790091E+02 -0.55728037764E+02 -0.35376864439E+02  0.72090242988E+02  0.47000000000E+01 0.  1.
        -11    1    1    2    0    0 -0.18822210681E+03  0.56283645042E+02 -0.33373515729E+03  0.38726549731E+03  0.00000000000E+00 0.  1.
         11    1    1    2    0    0 -0.53455293756E+02  0.57070866289E+02 -0.23517406784E+03  0.24783340048E+03  0.00000000000E+00 0. -1.
<mgrwt>
<rscale>  0 0.37783564E+03</rscale>
<asrwt>0</asrwt>
<pdfrwt beam="2">  1        1 0.35037042E+00 0.41639031E+03</pdfrwt>
<pdfrwt beam="1">  1       -1 0.90717456E-02 0.41639031E+03</pdfrwt>
<totfact> 0.15332610E+02</totfact>
</mgrwt>
</event>
<event>
 6    1  0.5258538E-006  0.1357090E+03  0.7546771E-02  0.1230223E+00
         -1   -1    0    0    0  501 -0.00000000000E+00  0.00000000000E+00  0.84527560158E+02  0.84527560158E+02  0.00000000000E+00 0.  1.
          1   -1    0    0  501    0  0.00000000000E+00 -0.00000000000E+00 -0.20016372144E+03  0.20016372144E+03  0.00000000000E+00 0. -1.
          5    1    1    2  502    0 -0.18137456461E+01  0.44959567684E+02 -0.87141529483E+02  0.98185480395E+02  0.47000000000E+01 0. -1.
         -5    1    1    2    0  502 -0.50157559572E+02 -0.54344605482E+02 -0.26100522373E+02  0.78564904349E+02  0.47000000000E+01 0. -1.
        -11    1    1    2    0    0  0.45200295446E+01  0.13593878748E+02 -0.43013777181E+02  0.45336621333E+02  0.00000000000E+00 0. -1.
         11    1    1    2    0    0  0.47451275673E+02 -0.42088409506E+01  0.40619667755E+02  0.62604275523E+02  0.00000000000E+00 0.  1.
<mgrwt>
<rscale>  0 0.12815227E+03</rscale>
<asrwt>0</asrwt>
<pdfrwt beam="2">  1        1 0.30794419E-01 0.13570901E+03</pdfrwt>
<pdfrwt beam="1">  1       -1 0.13004240E-01 0.13570901E+03</pdfrwt>
<totfact> 0.56391133E+03</totfact>
</mgrwt>
</event>
<event>
 6    1  0.5258538E-006  0.1340665E+03  0.7546771E-02  0.1234789E+00
         -1   -1    0    0    0  501 -0.00000000000E+00  0.00000000000E+00  0.18057717846E+03  0.18057717846E+03  0.00000000000E+00 0.  1.
          1   -1    0    0  501    0  0.00000000000E+00 -0.00000000000E+00 -0.77176717229E+02  0.77176717229E+02  0.00000000000E+00 0. -1.
          5    1    1    2  502    0  0.36928499250E+02 -0.29058657431E+02  0.90527199149E+02  0.10210476685E+03  0.47000000000E+01 0.  1.
         -5    1    1    2    0  502  0.10556059678E+02  0.19265111324E+02 -0.36156661216E+02  0.42567229890E+02  0.47000000000E+01 0.  1.
        -11    1    1    2    0    0 -0.53826083830E+02 -0.19875593539E+00 -0.83711451894E+01  0.54473506186E+02  0.00000000000E+00 0. -1.
         11    1    1    2    0    0  0.63415249025E+01  0.99923020421E+01  0.57401068488E+02  0.58608392759E+02  0.00000000000E+00 0.  1.
<mgrwt>
<rscale>  0 0.12517963E+03</rscale>
<asrwt>0</asrwt>
<pdfrwt beam="2">  1        1 0.11873341E-01 0.13406652E+03</pdfrwt>
<pdfrwt beam="1">  1       -1 0.27781104E-01 0.13406652E+03</pdfrwt>
<totfact> 0.56373926E+03</totfact>
</mgrwt>
</event>
<event>
 6    1  0.5258538E-006  0.1388084E+03  0.7546771E-02  0.1226138E+00
          2   -1    0    0  501    0  0.00000000000E+00  0.00000000000E+00  0.32605045302E+02  0.32605045302E+02  0.00000000000E+00 0. -1.
         -2   -1    0    0    0  501 -0.00000000000E+00 -0.00000000000E+00 -0.48418978493E+03  0.48418978493E+03  0.00000000000E+00 0.  1.
          5    1    1    2  502    0 -0.65718698640E+02  0.59189875650E+02 -0.14410999604E+03  0.16915132186E+03  0.47000000000E+01 0. -1.
         -5    1    1    2    0  502  0.49747019563E+02 -0.97450748234E+00 -0.69747030879E+02  0.85804743089E+02  0.47000000000E+01 0. -1.
        -11    1    1    2    0    0 -0.35026719956E+02 -0.72397811197E+01 -0.10292568957E+03  0.10896321909E+03  0.00000000000E+00 0.  1.
         11    1    1    2    0    0  0.50998399033E+02 -0.50975587048E+02 -0.13480202314E+03  0.15287554619E+03  0.00000000000E+00 0. -1.
<mgrwt>
<rscale>  0 0.13089195E+03</rscale>
<asrwt>0</asrwt>
<pdfrwt beam="1">  1        2 0.50161608E-02 0.13880838E+03</pdfrwt>
<pdfrwt beam="2">  1       -2 0.74490736E-01 0.13880838E+03</pdfrwt>
<totfact> 0.25035575E+03</totfact>
</mgrwt>
</event>
<event>
 6    1  0.5258538E-006  0.1262410E+03  0.7546771E-02  0.1247676E+00
          2   -1    0    0  501    0  0.00000000000E+00  0.00000000000E+00  0.12801512866E+03  0.12801512866E+03  0.00000000000E+00 0. -1.
         -2   -1    0    0    0  501 -0.00000000000E+00 -0.00000000000E+00 -0.11341553988E+03  0.11341553988E+03  0.00000000000E+00 0.  1.
          5    1    1    2  502    0  0.43782845608E+02 -0.15539069496E+02 -0.91983078855E+01  0.47593057459E+02  0.47000000000E+01 0.  1.
         -5    1    1    2    0  502 -0.54975399963E+02  0.29214695514E+02  0.65960061289E+02  0.90821873578E+02  0.47000000000E+01 0.  1.
        -11    1    1    2    0    0  0.87952832885E+01  0.26463091716E+02 -0.54275669649E+02  0.61020492846E+02  0.00000000000E+00 0.  1.
         11    1    1    2    0    0  0.23972710664E+01 -0.40138717733E+02  0.12113505023E+02  0.41995244657E+02  0.00000000000E+00 0. -1.
<mgrwt>
<rscale>  0 0.11726643E+03</rscale>
<asrwt>0</asrwt>
<pdfrwt beam="1">  1        2 0.19694635E-01 0.12624103E+03</pdfrwt>
<pdfrwt beam="2">  1       -2 0.17448545E-01 0.12624103E+03</pdfrwt>
<totfact> 0.70696800E+03</totfact>
</mgrwt>
</event>
<event>
 6    1  0.5258538E-006  0.4621727E+03  0.7546771E-02  0.1024153E+00
          2   -1    0    0  501    0  0.00000000000E+00  0.00000000000E+00  0.11146625923E+04  0.11146625923E+04  0.00000000000E+00 0.  1.
         -2   -1    0    0    0  501 -0.00000000000E+00 -0.00000000000E+00 -0.47907682216E+02  0.47907682216E+02  0.00000000000E+00 0. -1.
          5    1    1    2  502    0  0.14008535793E+02  0.14958585885E+02  0.13106063706E+02  0.24776143215E+02  0.47000000000E+01 0.  1.
         -5    1    1    2    0  502 -0.19597243586E+03  0.65088809063E+02  0.41198519461E+03  0.46086401385E+03  0.47000000000E+01 0.  1.
        -11    1    1    2    0    0  0.13922452478E+03 -0.70740432883E+02  0.58420106377E+03  0.60471361821E+03  0.00000000000E+00 0.  1.
         11    1    1    2    0    0  0.42739375287E+02 -0.93069620648E+01  0.57462587995E+02  0.72216499236E+02  0.00000000000E+00 0. -1.
<mgrwt>
<rscale>  0 0.46217270E+03</rscale>
<asrwt>0</asrwt>
<pdfrwt beam="1">  1        2 0.17148653E+00 0.46217270E+03</pdfrwt>
<pdfrwt beam="2">  1       -2 0.73704135E-02 0.46217270E+03</pdfrwt>
<totfact> 0.24099099E+03</totfact>
</mgrwt>
</event>
<event>
 6    1  0.5258538E-006  0.2081303E+03  0.7546771E-02  0.1146733E+00
         -1   -1    0    0    0  501 -0.00000000000E+00  0.00000000000E+00  0.39613669759E+03  0.39613669759E+03  0.00000000000E+00 0.  1.
          1   -1    0    0  501    0  0.00000000000E+00 -0.00000000000E+00 -0.10087883597E+03  0.10087883597E+03  0.00000000000E+00 0. -1.
          5    1    1    2  502    0  0.38011704080E+02  0.72292449244E+01  0.57056022756E+02  0.69098707382E+02  0.47000000000E+01 0. -1.
         -5    1    1    2    0  502 -0.20216651075E+02  0.15988728891E+03  0.78874776410E+02  0.17948810125E+03  0.47000000000E+01 0.  1.
        -11    1    1    2    0    0  0.36784362401E+02 -0.59734180098E+02  0.58780134925E+02  0.91522488226E+02  0.00000000000E+00 0.  1.
         11    1    1    2    0    0 -0.54579415406E+02 -0.10738235374E+03  0.10054692752E+03  0.15690623670E+03  0.00000000000E+00 0. -1.
<mgrwt>
<rscale>  0 0.20360443E+03</rscale>
<asrwt>0</asrwt>
<pdfrwt beam="2">  1        1 0.15519821E-01 0.20813029E+03</pdfrwt>
<pdfrwt beam="1">  1       -1 0.60944106E-01 0.20813029E+03</pdfrwt>
<totfact> 0.10002133E+03</totfact>
</mgrwt>
</event>
<event>
 6    1  0.5258538E-006  0.1401839E+03  0.7546771E-02  0.1222954E+00
         -1   -1    0    0    0  501 -0.00000000000E+00  0.00000000000E+00  0.15646594801E+02  0.15646594801E+02  0.00000000000E+00 0.  1.
          1   -1    0    0  501    0  0.00000000000E+00 -0.00000000000E+00 -0.12276413121E+04  0.12276413121E+04  0.00000000000E+00 0. -1.
          5    1    1    2  502    0  0.10273337510E+02  0.82104582455E+02 -0.34675971737E+03  0.35652643032E+03  0.47000000000E+01 0. -1.
         -5    1    1    2    0  502 -0.26136577544E+02 -0.20666272560E+02 -0.55953188838E+03  0.56054280802E+03  0.47000000000E+01 0. -1.
        -11    1    1    2    0    0 -0.12641898142E+02 -0.49129294480E+02 -0.28361029419E+03  0.28811161749E+03  0.00000000000E+00 0. -1.
         11    1    1    2    0    0  0.28505138177E+02 -0.12309015415E+02 -0.22092817374E+02  0.38107051086E+02  0.00000000000E+00 0.  1.
<mgrwt>
<rscale>  0 0.13308124E+03</rscale>
<asrwt>0</asrwt>
<pdfrwt beam="2">  1        1 0.18886782E+00 0.14018386E+03</pdfrwt>
<pdfrwt beam="1">  1       -1 0.24071693E-02 0.14018386E+03</pdfrwt>
<totfact> 0.55994379E+03</totfact>
</mgrwt>
</event>
<event>
 6    1  0.5258538E-006  0.1504552E+03  0.7546771E-02  0.1209147E+00
         -1   -1    0    0    0  501 -0.00000000000E+00  0.00000000000E+00  0.26236559357E+03  0.26236559357E+03  0.00000000000E+00 0.  1.
          1   -1    0    0  501    0  0.00000000000E+00 -0.00000000000E+00 -0.73689426918E+02  0.73689426918E+02  0.00000000000E+00 0. -1.
          5    1    1    2  502    0  0.27327701254E+02  0.59639199832E+02  0.59399478843E+02  0.88622940028E+02  0.47000000000E+01 0.  1.
         -5    1    1    2    0  502 -0.77168652292E+02  0.76530131873E+01  0.14615612503E+02  0.79052360093E+02  0.47000000000E+01 0.  1.
        -11    1    1    2    0    0 -0.16490119887E+02 -0.33769085931E+02  0.80709339758E+01  0.38437159022E+02  0.00000000000E+00 0. -1.
         11    1    1    2    0    0  0.66331070925E+02 -0.33523127088E+02  0.10659014133E+03  0.12994256134E+03  0.00000000000E+00 0.  1.
<mgrwt>
<rscale>  0 0.14315358E+03</rscale>
<asrwt>0</asrwt>
<pdfrwt beam="2">  1        1 0.11336835E-01 0.15045522E+03</pdfrwt>
<pdfrwt beam="1">  1       -1 0.40363937E-01 0.15045522E+03</pdfrwt>
<totfact> 0.31864281E+03</totfact>
</mgrwt>
</event>
<event>
 6    1  0.5258538E-006  0.1512269E+03  0.7546771E-02  0.1208238E+00
          3   -1    0    0  501    0  0.00000000000E+00  0.00000000000E+00  0.69592651315E+02  0.69592651315E+02  0.00000000000E+00 0. -1.
         -3   -1    0    0    0  501 -0.00000000000E+00 -0.00000000000E+00 -0.28413187231E+03  0.28413187231E+03  0.00000000000E+00 0.  1.
          5    1    1    2  502    0  0.11080279706E+03 -0.11692449321E+02 -0.39440448162E+02  0.11828614525E+03  0.47000000000E+01 0. -1.
         -5    1    1    2    0  502 -0.26121089679E+02  0.20342765600E+02 -0.41314065895E+02  0.53151495549E+02  0.47000000000E+01 0. -1.
        -11    1    1    2    0    0 -0.60414670309E+02 -0.80077081497E+01 -0.17372926758E+02  0.63370926792E+02  0.00000000000E+00 0. -1.
         11    1    1    2    0    0 -0.24267037075E+02 -0.64260812929E+00 -0.11641178018E+03  0.11891595603E+03  0.00000000000E+00 0.  1.
<mgrwt>
<rscale>  0 0.14385174E+03</rscale>
<asrwt>0</asrwt>
<pdfrwt beam="1">  1        3 0.10706562E-01 0.15122689E+03</pdfrwt>
<pdfrwt beam="2">  1       -3 0.43712595E-01 0.15122689E+03</pdfrwt>
<totfact> 0.80693580E+02</totfact>
</mgrwt>
</event>
<event>
 6    1  0.5258538E-006  0.1911201E+03  0.7546771E-02  0.1162643E+00
          1   -1    0    0  501    0  0.00000000000E+00  0.00000000000E+00  0.16514935100E+04  0.16514935100E+04  0.00000000000E+00 0. -1.
         -1   -1    0    0    0  501 -0.00000000000E+00 -0.00000000000E+00 -0.19677774093E+02  0.19677774093E+02  0.00000000000E+00 0.  1.
          5    1    1    2  502    0 -0.76691638502E+02  0.93333569054E+02  0.74140080020E+03  0.75119238485E+03  0.47000000000E+01 0. -1.
         -5    1    1    2    0  502 -0.47508523308E+02 -0.19317924263E+02  0.11091220880E+03  0.12228593560E+03  0.47000000000E+01 0. -1.
        -11    1    1    2    0    0  0.71806768884E+02  0.67017187244E+01  0.29112770468E+03  0.29992743377E+03  0.00000000000E+00 0. -1.
         11    1    1    2    0    0  0.52393392927E+02 -0.80717363515E+02  0.48837502227E+03  0.49776552992E+03  0.00000000000E+00 0.  1.
<mgrwt>
<rscale>  0 0.18543655E+03</rscale>
<asrwt>0</asrwt>
<pdfrwt beam="1">  1        1 0.25407582E+00 0.19112015E+03</pdfrwt>
<pdfrwt beam="2">  1       -1 0.30273512E-02 0.19112015E+03</pdfrwt>
<totfact> 0.21172341E+03</totfact>
</mgrwt>
</event>
<event>
 6    1  0.5258538E-006  0.2810694E+03  0.7546771E-02  0.1095106E+00
         -2   -1    0    0    0  501 -0.00000000000E+00  0.00000000000E+00  0.50034063147E+02  0.50034063147E+02  0.00000000000E+00 0. -1.
          2   -1    0    0  501    0  0.00000000000E+00 -0.00000000000E+00 -0.39473111143E+03  0.39473111143E+03  0.00000000000E+00 0.  1.
          5    1    1    2  502    0 -0.74083605098E+02  0.17546991022E+02 -0.22255342227E+03  0.23526239224E+03  0.47000000000E+01 0. -1.
         -5    1    1    2    0  502 -0.16735558501E+02 -0.11978103421E+02  0.13271388704E+02  0.24935389270E+02  0.47000000000E+01 0. -1.
        -11    1    1    2    0    0  0.30382441611E+02  0.39521109593E+02 -0.58454026214E+02  0.76823720571E+02  0.00000000000E+00 0.  1.
         11    1    1    2    0    0  0.60436721988E+02 -0.45089997194E+02 -0.76960988500E+02  0.10774367249E+03  0.00000000000E+00 0. -1.
<mgrwt>
<rscale>  0 0.28106940E+03</rscale>
<asrwt>0</asrwt>
<pdfrwt beam="2">  1        2 0.60727866E-01 0.28106940E+03</pdfrwt>
<pdfrwt beam="1">  1       -2 0.76975479E-02 0.28106940E+03</pdfrwt>
<totfact> 0.80925964E+03</totfact>
</mgrwt>
</event>
<event>
 6    1  0.5258538E-006  0.2551301E+03  0.7546771E-02  0.1110105E+00
         -1   -1    0    0    0  501 -0.00000000000E+00  0.00000000000E+00  0.61625626687E+02  0.61625626687E+02  0.00000000000E+00 0.  1.
          1   -1    0    0  501    0  0.00000000000E+00 -0.00000000000E+00 -0.26405969427E+03  0.26405969427E+03  0.00000000000E+00 0. -1.
          5    1    1    2  502    0 -0.98491455865E+01  0.63662631816E+02 -0.23013848698E+02  0.68568677911E+02  0.47000000000E+01 0.  1.
         -5    1    1    2    0  502  0.14204234431E+02 -0.13671945935E+02 -0.14672641857E+03  0.14811959454E+03  0.47000000000E+01 0.  1.
        -11    1    1    2    0    0 -0.38958223239E+02 -0.18193551875E+02  0.11477461752E+02  0.44502591116E+02  0.00000000000E+00 0.  1.
         11    1    1    2    0    0  0.34603134395E+02 -0.31797134005E+02 -0.44171262063E+02  0.64494457383E+02  0.00000000000E+00 0. -1.
<mgrwt>
<rscale>  0 0.25513012E+03</rscale>
<asrwt>0</asrwt>
<pdfrwt beam="2">  1        1 0.40624568E-01 0.25513012E+03</pdfrwt>
<pdfrwt beam="1">  1       -1 0.94808657E-02 0.25513012E+03</pdfrwt>
<totfact> 0.67446593E+03</totfact>
</mgrwt>
</event>
<event>
 6    1  0.5258538E-006  0.1705898E+03  0.7546771E-02  0.1203153E+00
         -1   -1    0    0    0  501 -0.00000000000E+00  0.00000000000E+00  0.14492168176E+03  0.14492168176E+03  0.00000000000E+00 0.  1.
          1   -1    0    0  501    0  0.00000000000E+00 -0.00000000000E+00 -0.12975410622E+03  0.12975410622E+03  0.00000000000E+00 0. -1.
          5    1    1    2  502    0 -0.62721575822E+02  0.35023619544E+02 -0.56036556738E+02  0.91229576841E+02  0.47000000000E+01 0. -1.
         -5    1    1    2    0  502  0.71949288034E+02 -0.87805912320E+01  0.35043616266E+02  0.80647032630E+02  0.47000000000E+01 0.  1.
        -11    1    1    2    0    0  0.24751062876E+02  0.14112875837E+02  0.40883886425E+02  0.49832524992E+02  0.00000000000E+00 0.  1.
         11    1    1    2    0    0 -0.33978775088E+02 -0.40355904148E+02 -0.47233704142E+01  0.52966653511E+02  0.00000000000E+00 0. -1.
<mgrwt>
<rscale>  0 0.14783988E+03</rscale>
<asrwt>0</asrwt>
<pdfrwt beam="2">  1        1 0.19962170E-01 0.17058976E+03</pdfrwt>
<pdfrwt beam="1">  1       -1 0.22295643E-01 0.17058976E+03</pdfrwt>
<totfact> 0.41900409E+03</totfact>
</mgrwt>
</event>
<event>
 6    1  0.5258538E-006  0.1406862E+03  0.7546771E-02  0.1222522E+00
         -1   -1    0    0    0  501 -0.00000000000E+00  0.00000000000E+00  0.58622287066E+02  0.58622287066E+02  0.00000000000E+00 0.  1.
          1   -1    0    0  501    0  0.00000000000E+00 -0.00000000000E+00 -0.29676369390E+03  0.29676369390E+03  0.00000000000E+00 0. -1.
          5    1    1    2  502    0 -0.40273055150E+02  0.37250615121E+02 -0.68687571669E+02  0.88031811295E+02  0.47000000000E+01 0.  1.
         -5    1    1    2    0  502 -0.26923049679E+01 -0.85450299754E+02 -0.10901070217E+03  0.13861610809E+03  0.47000000000E+01 0.  1.
        -11    1    1    2    0    0  0.15134397338E+02 -0.11644461346E+01  0.23188681451E+02  0.27714993506E+02  0.00000000000E+00 0.  1.
         11    1    1    2    0    0  0.27830962780E+02  0.49364130768E+02 -0.83631814447E+02  0.10102306808E+03  0.00000000000E+00 0. -1.
<mgrwt>
<rscale>  0 0.13338190E+03</rscale>
<asrwt>0</asrwt>
<pdfrwt beam="2">  1        1 0.45655953E-01 0.14068619E+03</pdfrwt>
<pdfrwt beam="1">  1       -1 0.90188135E-02 0.14068619E+03</pdfrwt>
<totfact> 0.60844961E+03</totfact>
</mgrwt>
</event>
<event>
 6    1  0.5258538E-006  0.1266196E+03  0.7546771E-02  0.1246779E+00
          2   -1    0    0  501    0  0.00000000000E+00  0.00000000000E+00  0.52558687249E+03  0.52558687249E+03  0.00000000000E+00 0. -1.
         -2   -1    0    0    0  501 -0.00000000000E+00 -0.00000000000E+00 -0.27356855434E+02  0.27356855434E+02  0.00000000000E+00 0.  1.
          5    1    1    2  502    0  0.24117650282E+00  0.43116228621E+02  0.41103476127E+02  0.59754941941E+02  0.47000000000E+01 0.  1.
         -5    1    1    2    0  502 -0.15273222851E+02 -0.29667821948E+02  0.34364169175E+03  0.34528995541E+03  0.47000000000E+01 0.  1.
        -11    1    1    2    0    0 -0.17702004178E+01 -0.42766054818E+02  0.10451111531E+03  0.11293645238E+03  0.00000000000E+00 0. -1.
         11    1    1    2    0    0  0.16802246766E+02  0.29317648145E+02  0.89737338685E+01  0.34962378190E+02  0.00000000000E+00 0.  1.
<mgrwt>
<rscale>  0 0.11779515E+03</rscale>
<asrwt>0</asrwt>
<pdfrwt beam="1">  1        2 0.80859511E-01 0.12661961E+03</pdfrwt>
<pdfrwt beam="2">  1       -2 0.42087474E-02 0.12661961E+03</pdfrwt>
<totfact> 0.14099939E+04</totfact>
</mgrwt>
</event>
<event>
 6    1  0.5258538E-006  0.1553491E+03  0.7546771E-02  0.1201521E+00
          1   -1    0    0  501    0  0.00000000000E+00  0.00000000000E+00  0.10291450643E+03  0.10291450643E+03  0.00000000000E+00 0. -1.
         -1   -1    0    0    0  501 -0.00000000000E+00 -0.00000000000E+00 -0.25574670615E+03  0.25574670615E+03  0.00000000000E+00 0.  1.
          5    1    1    2  502    0 -0.18996974906E+02 -0.67875620741E+01 -0.51361936994E+02  0.55381356306E+02  0.47000000000E+01 0.  1.
         -5    1    1    2    0  502 -0.49536699645E+02  0.68516822353E+02  0.53151555870E+02  0.99978084841E+02  0.47000000000E+01 0.  1.
        -11    1    1    2    0    0  0.84444075031E+02 -0.73703181914E+02 -0.13094082845E+03  0.17236142662E+03  0.00000000000E+00 0. -1.
         11    1    1    2    0    0 -0.15910400479E+02  0.11973921635E+02 -0.23680990144E+02  0.30940344810E+02  0.00000000000E+00 0.  1.
<mgrwt>
<rscale>  0 0.14915032E+03</rscale>
<asrwt>0</asrwt>
<pdfrwt beam="1">  1        1 0.15833001E-01 0.15534913E+03</pdfrwt>
<pdfrwt beam="2">  1       -1 0.39345647E-01 0.15534913E+03</pdfrwt>
<totfact> 0.21563647E+03</totfact>
</mgrwt>
</event>
<event>
 6    1  0.5258538E-006  0.2080970E+03  0.7546771E-02  0.1146736E+00
          1   -1    0    0  501    0  0.00000000000E+00  0.00000000000E+00  0.10745757636E+03  0.10745757636E+03  0.00000000000E+00 0. -1.
         -1   -1    0    0    0  501 -0.00000000000E+00 -0.00000000000E+00 -0.40827347568E+03  0.40827347568E+03  0.00000000000E+00 0.  1.
          5    1    1    2  502    0  0.24322475028E+02 -0.11109685011E+03 -0.61613907310E+02  0.12943128088E+03  0.47000000000E+01 0.  1.
         -5    1    1    2    0  502  0.90667908331E+02 -0.91382242067E+01 -0.15842794123E+02  0.92613502624E+02  0.47000000000E+01 0.  1.
        -11    1    1    2    0    0 -0.10857423394E+03  0.49933524091E+02 -0.15138512707E+03  0.19287088376E+03  0.00000000000E+00 0. -1.
         11    1    1    2    0    0 -0.64161494183E+01  0.70301550224E+02 -0.71974070811E+02  0.10081538477E+03  0.00000000000E+00 0.  1.
<mgrwt>
<rscale>  0 0.20360138E+03</rscale>
<asrwt>0</asrwt>
<pdfrwt beam="1">  1        1 0.16531934E-01 0.20809696E+03</pdfrwt>
<pdfrwt beam="2">  1       -1 0.62811306E-01 0.20809696E+03</pdfrwt>
<totfact> 0.86888924E+02</totfact>
</mgrwt>
</event>
<event>
 6    1  0.5258538E-006  0.1398057E+03  0.7546771E-02  0.1225601E+00
         -1   -1    0    0    0  501 -0.00000000000E+00  0.00000000000E+00  0.16559288919E+02  0.16559288919E+02  0.00000000000E+00 0.  1.
          1   -1    0    0  501    0  0.00000000000E+00 -0.00000000000E+00 -0.11142524251E+04  0.11142524251E+04  0.00000000000E+00 0. -1.
          5    1    1    2  502    0  0.26194549673E+02  0.36208624491E+02 -0.91796350532E+02  0.10220508251E+03  0.47000000000E+01 0. -1.
         -5    1    1    2    0  502  0.35187111332E+02 -0.23845291833E+02 -0.74196274657E+03  0.74319414560E+03  0.47000000000E+01 0. -1.
        -11    1    1    2    0    0 -0.29184320432E+02 -0.50536206049E+02 -0.15320620368E+03  0.16394442207E+03  0.00000000000E+00 0. -1.
         11    1    1    2    0    0 -0.32197340574E+02  0.38172873390E+02 -0.11072783541E+03  0.12146806385E+03  0.00000000000E+00 0.  1.
<mgrwt>
<rscale>  0 0.13125768E+03</rscale>
<asrwt>0</asrwt>
<pdfrwt beam="2">  1        1 0.17142350E+00 0.13980566E+03</pdfrwt>
<pdfrwt beam="1">  1       -1 0.25475822E-02 0.13980566E+03</pdfrwt>
<totfact> 0.61755729E+03</totfact>
</mgrwt>
</event>
<event>
 6    1  0.5258538E-006  0.2070148E+03  0.7546771E-02  0.1147921E+00
          1   -1    0    0  501    0  0.00000000000E+00  0.00000000000E+00  0.23238005818E+03  0.23238005818E+03  0.00000000000E+00 0. -1.
         -1   -1    0    0    0  501 -0.00000000000E+00 -0.00000000000E+00 -0.27665969155E+03  0.27665969155E+03  0.00000000000E+00 0.  1.
          5    1    1    2  502    0  0.16357326375E+02 -0.12430507290E+03  0.12431955811E+03  0.17662603376E+03  0.47000000000E+01 0.  1.
         -5    1    1    2    0  502  0.67911805401E+02 -0.17568204336E+02  0.12210982963E+02  0.71357222629E+02  0.47000000000E+01 0.  1.
        -11    1    1    2    0    0 -0.12781313318E+02  0.79265326385E+02 -0.36329246713E+02  0.88125865124E+02  0.00000000000E+00 0. -1.
         11    1    1    2    0    0 -0.71487818457E+02  0.62607950846E+02 -0.14448092773E+03  0.17293062821E+03  0.00000000000E+00 0.  1.
<mgrwt>
<rscale>  0 0.20216944E+03</rscale>
<asrwt>0</asrwt>
<pdfrwt beam="1">  1        1 0.35750778E-01 0.20701475E+03</pdfrwt>
<pdfrwt beam="2">  1       -1 0.42563030E-01 0.20701475E+03</pdfrwt>
<totfact> 0.67070580E+02</totfact>
</mgrwt>
</event>
<event>
 6    1  0.5258538E-006  0.1296330E+03  0.7546771E-02  0.1232142E+00
          1   -1    0    0  501    0  0.00000000000E+00  0.00000000000E+00  0.44846500960E+02  0.44846500960E+02  0.00000000000E+00 0. -1.
         -1   -1    0    0    0  501 -0.00000000000E+00 -0.00000000000E+00 -0.34464961895E+03  0.34464961895E+03  0.00000000000E+00 0.  1.
          5    1    1    2  502    0 -0.59523286328E+02 -0.24717453293E+02 -0.27201284032E+02  0.70114006914E+02  0.47000000000E+01 0.  1.
         -5    1    1    2    0  502  0.29539944633E+02  0.79658589679E+01 -0.13004332070E+03  0.13367654430E+03  0.47000000000E+01 0.  1.
        -11    1    1    2    0    0  0.66979950869E+02  0.34013400577E+02 -0.11133750335E+03  0.13431033054E+03  0.00000000000E+00 0.  1.
         11    1    1    2    0    0 -0.36996609174E+02 -0.17261806252E+02 -0.31221009910E+02  0.51395238157E+02  0.00000000000E+00 0. -1.
<mgrwt>
<rscale>  0 0.12689181E+03</rscale>
<asrwt>0</asrwt>
<pdfrwt beam="1">  1        1 0.68994617E-02 0.12963303E+03</pdfrwt>
<pdfrwt beam="2">  1       -1 0.53023018E-01 0.12963303E+03</pdfrwt>
<totfact> 0.37522248E+03</totfact>
</mgrwt>
</event>
<event>
 6    1  0.5258538E-006  0.1382902E+03  0.7546771E-02  0.1227205E+00
         -1   -1    0    0    0  501 -0.00000000000E+00  0.00000000000E+00  0.36832216176E+02  0.36832216176E+02  0.00000000000E+00 0.  1.
          1   -1    0    0  501    0  0.00000000000E+00 -0.00000000000E+00 -0.41742860533E+03  0.41742860533E+03  0.00000000000E+00 0. -1.
          5    1    1    2  502    0 -0.80750951930E+02  0.21959714811E+02 -0.85667927017E+02  0.11985002725E+03  0.47000000000E+01 0. -1.
         -5    1    1    2    0  502  0.21544201749E+02 -0.24092747210E+02 -0.14897157502E+03  0.15250978087E+03  0.47000000000E+01 0. -1.
        -11    1    1    2    0    0  0.72856916706E+02 -0.21661688336E+02 -0.79421257839E+02  0.10993223026E+03  0.00000000000E+00 0.  1.
         11    1    1    2    0    0 -0.13650166525E+02  0.23794720735E+02 -0.66535629271E+02  0.71968783119E+02  0.00000000000E+00 0. -1.
<mgrwt>
<rscale>  0 0.13016903E+03</rscale>
<asrwt>0</asrwt>
<pdfrwt beam="2">  1        1 0.64219786E-01 0.13829016E+03</pdfrwt>
<pdfrwt beam="1">  1       -1 0.56664947E-02 0.13829016E+03</pdfrwt>
<totfact> 0.79743689E+03</totfact>
</mgrwt>
</event>
<event>
 6    1  0.5258538E-006  0.5074040E+03  0.7546771E-02  0.1065810E+00
          2   -1    0    0  501    0  0.00000000000E+00  0.00000000000E+00  0.49024310712E+03  0.49024310712E+03  0.00000000000E+00 0. -1.
         -2   -1    0    0    0  501 -0.00000000000E+00 -0.00000000000E+00 -0.38427903092E+03  0.38427903092E+03  0.00000000000E+00 0.  1.
          5    1    1    2  502    0  0.10480200270E+03 -0.10987847312E+03  0.37639230124E+03  0.40589406630E+03  0.47000000000E+01 0. -1.
         -5    1    1    2    0  502 -0.15495546936E+03  0.13445350055E+03 -0.31520772159E+02  0.20761645015E+03  0.47000000000E+01 0.  1.
        -11    1    1    2    0    0  0.49860029577E+01 -0.51505932336E+02 -0.13444382314E+03  0.14405853974E+03  0.00000000000E+00 0. -1.
         11    1    1    2    0    0  0.45167463710E+02  0.26930904901E+02 -0.10446362974E+03  0.11695308185E+03  0.00000000000E+00 0.  1.
<mgrwt>
<rscale>  0 0.34232383E+03</rscale>
<asrwt>0</asrwt>
<pdfrwt beam="1">  1        2 0.75422016E-01 0.50740396E+03</pdfrwt>
<pdfrwt beam="2">  1       -2 0.59119851E-01 0.50740396E+03</pdfrwt>
<totfact> 0.17212540E+02</totfact>
</mgrwt>
</event>
<event>
 6    1  0.5258538E-006  0.1724838E+03  0.7546771E-02  0.1192200E+00
         -2   -1    0    0    0  501 -0.00000000000E+00  0.00000000000E+00  0.16483528957E+02  0.16483528957E+02  0.00000000000E+00 0.  1.
          2   -1    0    0  501    0  0.00000000000E+00 -0.00000000000E+00 -0.13358319866E+04  0.13358319866E+04  0.00000000000E+00 0. -1.
          5    1    1    2  502    0 -0.24400911266E+02  0.36639363612E+02 -0.50639011797E+03  0.50832163933E+03  0.47000000000E+01 0. -1.
         -5    1    1    2    0  502  0.61248276237E+02 -0.89300490259E+02 -0.40539028832E+03  0.41962996171E+03  0.47000000000E+01 0.  1.
        -11    1    1    2    0    0 -0.71149364413E+01 -0.29181091994E+02 -0.81114214711E+02  0.86496672067E+02  0.00000000000E+00 0.  1.
         11    1    1    2    0    0 -0.29732428529E+02  0.81842218641E+02 -0.32645383663E+03  0.33786724243E+03  0.00000000000E+00 0. -1.
<mgrwt>
<rscale>  0 0.15693598E+03</rscale>
<asrwt>0</asrwt>
<pdfrwt beam="2">  1        2 0.20551260E+00 0.17248381E+03</pdfrwt>
<pdfrwt beam="1">  1       -2 0.25359277E-02 0.17248381E+03</pdfrwt>
<totfact> 0.89667390E+03</totfact>
</mgrwt>
</event>
<event>
 6    1  0.5258538E-006  0.2336132E+03  0.7546771E-02  0.1127869E+00
         -1   -1    0    0    0  501 -0.00000000000E+00  0.00000000000E+00  0.27395550830E+03  0.27395550830E+03  0.00000000000E+00 0.  1.
          1   -1    0    0  501    0  0.00000000000E+00 -0.00000000000E+00 -0.24908485872E+03  0.24908485872E+03  0.00000000000E+00 0. -1.
          5    1    1    2  502    0  0.46147272118E+02  0.15549020531E+02  0.20302454843E+02  0.52968126605E+02  0.47000000000E+01 0.  1.
         -5    1    1    2    0  502  0.95056905845E+02  0.12233714670E+03 -0.14309206861E+03  0.21094933731E+03  0.47000000000E+01 0.  1.
        -11    1    1    2    0    0 -0.14278706739E+03 -0.10274517712E+03  0.10942547331E+03  0.20716817382E+03  0.00000000000E+00 0. -1.
         11    1    1    2    0    0  0.15828894295E+01 -0.35140990120E+02  0.38234790045E+02  0.51954729288E+02  0.00000000000E+00 0.  1.
<mgrwt>
<rscale>  0 0.22826252E+03</rscale>
<asrwt>0</asrwt>
<pdfrwt beam="2">  1        1 0.38320748E-01 0.23361322E+03</pdfrwt>
<pdfrwt beam="1">  1       -1 0.42147001E-01 0.23361322E+03</pdfrwt>
<totfact> 0.62577008E+02</totfact>
</mgrwt>
</event>
<event>
 6    1  0.5258538E-006  0.3115771E+03  0.7546771E-02  0.1079592E+00
          1   -1    0    0  501    0  0.00000000000E+00  0.00000000000E+00  0.95237886427E+03  0.95237886427E+03  0.00000000000E+00 0. -1.
         -1   -1    0    0    0  501 -0.00000000000E+00 -0.00000000000E+00 -0.25483626160E+02  0.25483626160E+02  0.00000000000E+00 0.  1.
          5    1    1    2  502    0 -0.75944310980E+02 -0.55479687615E+02  0.18513470084E+03  0.20770768297E+03  0.47000000000E+01 0. -1.
         -5    1    1    2    0  502 -0.19402452725E+02  0.70690195407E+01  0.38769840987E+03  0.38827641343E+03  0.47000000000E+01 0. -1.
        -11    1    1    2    0    0  0.77940909055E+02  0.26618124775E+01  0.12263426365E+03  0.14533077159E+03  0.00000000000E+00 0.  1.
         11    1    1    2    0    0  0.17405854650E+02  0.45748855596E+02  0.23142786375E+03  0.23654762245E+03  0.00000000000E+00 0. -1.
<mgrwt>
<rscale>  0 0.31157707E+03</rscale>
<asrwt>0</asrwt>
<pdfrwt beam="1">  1        1 0.14651980E+00 0.31157707E+03</pdfrwt>
<pdfrwt beam="2">  1       -1 0.39205586E-02 0.31157707E+03</pdfrwt>
<totfact> 0.44134449E+03</totfact>
</mgrwt>
</event>
<event>
 6    1  0.5258538E-006  0.1250214E+03  0.7546771E-02  0.1253376E+00
         -2   -1    0    0    0  501 -0.00000000000E+00  0.00000000000E+00  0.15410559746E+02  0.15410559746E+02  0.00000000000E+00 0.  1.
          2   -1    0    0  501    0  0.00000000000E+00 -0.00000000000E+00 -0.89569589862E+03  0.89569589862E+03  0.00000000000E+00 0. -1.
          5    1    1    2  502    0  0.44661252983E+02 -0.11192042351E+02 -0.11287260793E+03  0.12199264302E+03  0.47000000000E+01 0.  1.
         -5    1    1    2    0  502 -0.46506729940E+02  0.97417338064E+01 -0.58863705032E+03  0.59057043975E+03  0.47000000000E+01 0.  1.
        -11    1    1    2    0    0  0.23770763458E+02  0.23926045723E+02 -0.26029153699E+02  0.42603071505E+02  0.00000000000E+00 0.  1.
         11    1    1    2    0    0 -0.21925286501E+02 -0.22475737179E+02 -0.15274652693E+03  0.15594030409E+03  0.00000000000E+00 0. -1.
<mgrwt>
<rscale>  0 0.11397808E+03</rscale>
<asrwt>0</asrwt>
<pdfrwt beam="2">  1        2 0.13779937E+00 0.12502138E+03</pdfrwt>
<pdfrwt beam="1">  1       -2 0.23708554E-02 0.12502138E+03</pdfrwt>
<totfact> 0.17416346E+04</totfact>
</mgrwt>
</event>
<event>
 6    1  0.5258538E-006  0.2824771E+03  0.7546771E-02  0.1096754E+00
          1   -1    0    0  501    0  0.00000000000E+00  0.00000000000E+00  0.94988050534E+02  0.94988050534E+02  0.00000000000E+00 0. -1.
         -1   -1    0    0    0  501 -0.00000000000E+00 -0.00000000000E+00 -0.84985683727E+03  0.84985683727E+03  0.00000000000E+00 0.  1.
          5    1    1    2  502    0 -0.10195017232E+03  0.27262972734E+02 -0.19418583972E+03  0.22105957945E+03  0.47000000000E+01 0. -1.
         -5    1    1    2    0  502 -0.11447578991E+03  0.96414492589E+02 -0.68435653162E+02  0.16463896707E+03  0.47000000000E+01 0.  1.
        -11    1    1    2    0    0  0.12737734820E+03 -0.58156460713E+02 -0.18095859796E+03  0.22880816623E+03  0.00000000000E+00 0.  1.
         11    1    1    2    0    0  0.89048614030E+02 -0.65521004609E+02 -0.31128869590E+03  0.33033817506E+03  0.00000000000E+00 0. -1.
<mgrwt>
<rscale>  0 0.27805814E+03</rscale>
<asrwt>0</asrwt>
<pdfrwt beam="1">  1        1 0.14613546E-01 0.28247711E+03</pdfrwt>
<pdfrwt beam="2">  1       -1 0.13074721E+00 0.28247711E+03</pdfrwt>
<totfact> 0.20750609E+02</totfact>
</mgrwt>
</event>
<event>
 6    1  0.5258538E-006  0.1341072E+03  0.7546771E-02  0.1233777E+00
         -2   -1    0    0    0  501 -0.00000000000E+00  0.00000000000E+00  0.39950818819E+02  0.39950818819E+02  0.00000000000E+00 0.  1.
          2   -1    0    0  501    0  0.00000000000E+00 -0.00000000000E+00 -0.37651802052E+03  0.37651802052E+03  0.00000000000E+00 0. -1.
          5    1    1    2  502    0 -0.56898518720E+02 -0.69535884689E+01 -0.21928611656E+03  0.22670307616E+03  0.47000000000E+01 0.  1.
         -5    1    1    2    0  502  0.19319441103E+02  0.37742682311E+02 -0.18936870800E+02  0.46673825087E+02  0.47000000000E+01 0.  1.
        -11    1    1    2    0    0  0.60858426040E+02 -0.11250899659E+02 -0.31025792318E+02  0.69230994159E+02  0.00000000000E+00 0.  1.
         11    1    1    2    0    0 -0.23279348422E+02 -0.19538194183E+02 -0.67318422023E+02  0.73860943932E+02  0.00000000000E+00 0. -1.
<mgrwt>
<rscale>  0 0.12583044E+03</rscale>
<asrwt>0</asrwt>
<pdfrwt beam="2">  1        2 0.57925849E-01 0.13410719E+03</pdfrwt>
<pdfrwt beam="1">  1       -2 0.61462799E-02 0.13410719E+03</pdfrwt>
<totfact> 0.11501071E+04</totfact>
</mgrwt>
</event>
<event>
 6    1  0.5258538E-006  0.1329536E+03  0.7546771E-02  0.1235985E+00
         -2   -1    0    0    0  501 -0.00000000000E+00  0.00000000000E+00  0.25803951211E+02  0.25803951211E+02  0.00000000000E+00 0.  1.
          2   -1    0    0  501    0  0.00000000000E+00 -0.00000000000E+00 -0.57085432815E+03  0.57085432815E+03  0.00000000000E+00 0. -1.
          5    1    1    2  502    0  0.37348279878E+02  0.41203114598E+02 -0.64739707069E+02  0.85474618068E+02  0.47000000000E+01 0.  1.
         -5    1    1    2    0  502  0.71033868117E+01 -0.32786425878E+02 -0.31601301149E+03  0.31782341207E+03  0.47000000000E+01 0.  1.
        -11    1    1    2    0    0 -0.53266257289E+02 -0.28036180208E+02 -0.53622545117E+02  0.80614508069E+02  0.00000000000E+00 0.  1.
         11    1    1    2    0    0  0.88145905994E+01  0.19619491488E+02 -0.11067511326E+03  0.11274574115E+03  0.00000000000E+00 0. -1.
<mgrwt>
<rscale>  0 0.12441577E+03</rscale>
<asrwt>0</asrwt>
<pdfrwt beam="2">  1        2 0.87823738E-01 0.13295363E+03</pdfrwt>
<pdfrwt beam="1">  1       -2 0.39698388E-02 0.13295363E+03</pdfrwt>
<totfact> 0.14080625E+04</totfact>
</mgrwt>
</event>
<event>
 6    1  0.5258538E-006  0.1777560E+03  0.7546771E-02  0.1176196E+00
          2   -1    0    0  501    0  0.00000000000E+00  0.00000000000E+00  0.65678280484E+03  0.65678280484E+03  0.00000000000E+00 0. -1.
         -2   -1    0    0    0  501 -0.00000000000E+00 -0.00000000000E+00 -0.42671652405E+02  0.42671652405E+02  0.00000000000E+00 0.  1.
          5    1    1    2  502    0 -0.14454714015E+02  0.35524350011E+02  0.14080220974E+03  0.14600777537E+03  0.47000000000E+01 0. -1.
         -5    1    1    2    0  502  0.11738555347E+03  0.37819853917E+02  0.14329867544E+03  0.18911982946E+03  0.47000000000E+01 0. -1.
        -11    1    1    2    0    0 -0.42877111763E+02 -0.20889859811E+02  0.36167032778E+02  0.59857223591E+02  0.00000000000E+00 0. -1.
         11    1    1    2    0    0 -0.60053727688E+02 -0.52454344117E+02  0.29384323448E+03  0.30446962882E+03  0.00000000000E+00 0.  1.
<mgrwt>
<rscale>  0 0.17159417E+03</rscale>
<asrwt>0</asrwt>
<pdfrwt beam="1">  1        2 0.10104350E+00 0.17775601E+03</pdfrwt>
<pdfrwt beam="2">  1       -2 0.65648701E-02 0.17775601E+03</pdfrwt>
<totfact> 0.57103569E+03</totfact>
</mgrwt>
</event>
<event>
 6    1  0.5258538E-006  0.2413908E+03  0.7546771E-02  0.1121541E+00
          1   -1    0    0  501    0  0.00000000000E+00  0.00000000000E+00  0.12564083285E+04  0.12564083285E+04  0.00000000000E+00 0. -1.
         -1   -1    0    0    0  501 -0.00000000000E+00 -0.00000000000E+00 -0.10372659582E+03  0.10372659582E+03  0.00000000000E+00 0.  1.
          5    1    1    2  502    0  0.87955525207E+01 -0.19054018100E+02  0.42681994374E+03  0.42736140645E+03  0.47000000000E+01 0.  1.
         -5    1    1    2    0  502 -0.77960550451E+01 -0.18745082503E+03  0.67595577489E+03  0.70152468943E+03  0.47000000000E+01 0.  1.
        -11    1    1    2    0    0  0.24954550277E+02  0.67911966090E+02 -0.18280116194E+02  0.74625246169E+02  0.00000000000E+00 0.  1.
         11    1    1    2    0    0 -0.25954047753E+02  0.13859287704E+03  0.68186130248E+02  0.15662358226E+03  0.00000000000E+00 0. -1.
<mgrwt>
<rscale>  0 0.23739486E+03</rscale>
<asrwt>0</asrwt>
<pdfrwt beam="1">  1        1 0.19329358E+00 0.24139083E+03</pdfrwt>
<pdfrwt beam="2">  1       -1 0.15957939E-01 0.24139083E+03</pdfrwt>
<totfact> 0.30757934E+02</totfact>
</mgrwt>
</event>
<event>
 6    1  0.5258538E-006  0.1854525E+03  0.7546771E-02  0.1167798E+00
          2   -1    0    0  501    0  0.00000000000E+00  0.00000000000E+00  0.35816944240E+03  0.35816944240E+03  0.00000000000E+00 0.  1.
         -2   -1    0    0    0  501 -0.00000000000E+00 -0.00000000000E+00 -0.96988984958E+02  0.96988984958E+02  0.00000000000E+00 0. -1.
          5    1    1    2  502    0 -0.24062320370E+02 -0.50497142995E+02  0.12159018620E+03  0.13392244059E+03  0.47000000000E+01 0.  1.
         -5    1    1    2    0  502  0.97736189078E+02 -0.65001468506E+02  0.93957231775E+02  0.15042474852E+03  0.47000000000E+01 0.  1.
        -11    1    1    2    0    0 -0.45388159334E+02  0.17617859916E+00  0.68817030811E+01  0.45907231282E+02  0.00000000000E+00 0.  1.
         11    1    1    2    0    0 -0.28285709374E+02  0.11532243290E+03  0.38751336380E+02  0.12490400697E+03  0.00000000000E+00 0. -1.
<mgrwt>
<rscale>  0 0.18000472E+03</rscale>
<asrwt>0</asrwt>
<pdfrwt beam="1">  1        2 0.55102990E-01 0.18545251E+03</pdfrwt>
<pdfrwt beam="2">  1       -2 0.14921382E-01 0.18545251E+03</pdfrwt>
<totfact> 0.30576893E+03</totfact>
</mgrwt>
</event>
<event>
 6    1  0.5258538E-006  0.1352647E+03  0.7546771E-02  0.1232171E+00
          2   -1    0    0  501    0  0.00000000000E+00  0.00000000000E+00  0.92220609916E+02  0.92220609916E+02  0.00000000000E+00 0.  1.
         -2   -1    0    0    0  501 -0.00000000000E+00 -0.00000000000E+00 -0.16231922681E+03  0.16231922681E+03  0.00000000000E+00 0. -1.
          5    1    1    2  502    0  0.54227428060E+02  0.60874884018E+02  0.19322896356E+02  0.83915611073E+02  0.47000000000E+01 0. -1.
         -5    1    1    2    0  502 -0.37420938249E+02 -0.12006044440E+02 -0.33935439781E+02  0.52136127548E+02  0.47000000000E+01 0. -1.
        -11    1    1    2    0    0 -0.34148243763E+01 -0.49879611736E+02 -0.77779319082E+02  0.92462204004E+02  0.00000000000E+00 0. -1.
         11    1    1    2    0    0 -0.13391665434E+02  0.10107721575E+01  0.22293245617E+02  0.26025894098E+02  0.00000000000E+00 0.  1.
<mgrwt>
<rscale>  0 0.12687275E+03</rscale>
<asrwt>0</asrwt>
<pdfrwt beam="1">  1        2 0.14187786E-01 0.13526474E+03</pdfrwt>
<pdfrwt beam="2">  1       -2 0.24972189E-01 0.13526474E+03</pdfrwt>
<totfact> 0.56378182E+03</totfact>
</mgrwt>
</event>
<event>
 6    1  0.5258538E-006  0.1380812E+03  0.7546771E-02  0.1230937E+00
          2   -1    0    0  501    0  0.00000000000E+00  0.00000000000E+00  0.91609504983E+03  0.91609504983E+03  0.00000000000E+00 0. -1.
         -2   -1    0    0    0  501 -0.00000000000E+00 -0.00000000000E+00 -0.19197593111E+02  0.19197593111E+02  0.00000000000E+00 0.  1.
          5    1    1    2  502    0 -0.11722639684E+02 -0.11973041696E+02  0.60584632540E+03  0.60609622504E+03  0.47000000000E+01 0. -1.
         -5    1    1    2    0  502 -0.65948300521E+00  0.52652690182E+02  0.99844811665E+02  0.11297706457E+03  0.47000000000E+01 0.  1.
        -11    1    1    2    0    0 -0.15921674792E+02 -0.55953527824E+02  0.71023937551E+02  0.91807933804E+02  0.00000000000E+00 0.  1.
         11    1    1    2    0    0  0.28303797481E+02  0.15273879338E+02  0.12018238210E+03  0.12441141953E+03  0.00000000000E+00 0. -1.
<mgrwt>
<rscale>  0 0.12768143E+03</rscale>
<asrwt>0</asrwt>
<pdfrwt beam="1">  1        2 0.14093767E+00 0.13808119E+03</pdfrwt>
<pdfrwt beam="2">  1       -2 0.29534766E-02 0.13808119E+03</pdfrwt>
<totfact> 0.12346836E+04</totfact>
</mgrwt>
</event>
<event>
 6    1  0.5258538E-006  0.1547931E+03  0.7546771E-02  0.1203235E+00
          2   -1    0    0  501    0  0.00000000000E+00  0.00000000000E+00  0.64657709162E+03  0.64657709162E+03  0.00000000000E+00 0.  1.
         -2   -1    0    0    0  501 -0.00000000000E+00 -0.00000000000E+00 -0.31404882115E+02  0.31404882115E+02  0.00000000000E+00 0. -1.
          5    1    1    2  502    0  0.29703594844E+02  0.10157472922E+03  0.28961940550E+03  0.30838485567E+03  0.47000000000E+01 0. -1.
         -5    1    1    2    0  502  0.31418780878E+02 -0.33753975684E+02  0.82190977298E+02  0.94360571298E+02  0.47000000000E+01 0. -1.
        -11    1    1    2    0    0 -0.31781668763E+02 -0.84834211872E+02  0.20442670392E+03  0.22360052605E+03  0.00000000000E+00 0.  1.
         11    1    1    2    0    0 -0.29340706960E+02  0.17013458337E+02  0.38935122781E+02  0.51636020717E+02  0.00000000000E+00 0. -1.
<mgrwt>
<rscale>  0 0.14777416E+03</rscale>
<asrwt>0</asrwt>
<pdfrwt beam="1">  1        2 0.99473389E-01 0.15479315E+03</pdfrwt>
<pdfrwt beam="2">  1       -2 0.48315208E-02 0.15479315E+03</pdfrwt>
<totfact> 0.91983336E+03</totfact>
</mgrwt>
</event>
<event>
 6    1  0.5258538E-006  0.1647883E+03  0.7546771E-02  0.1189375E+00
          1   -1    0    0  501    0  0.00000000000E+00  0.00000000000E+00  0.25074677130E+03  0.25074677130E+03  0.00000000000E+00 0. -1.
         -1   -1    0    0    0  501 -0.00000000000E+00 -0.00000000000E+00 -0.98094037319E+02  0.98094037319E+02  0.00000000000E+00 0.  1.
          5    1    1    2  502    0 -0.78287407683E+02 -0.84680178084E+02  0.60214197947E+02  0.13018252723E+03  0.47000000000E+01 0. -1.
         -5    1    1    2    0  502  0.42621474495E+02 -0.16605491206E+02  0.50750923132E+02  0.68484148714E+02  0.47000000000E+01 0. -1.
        -11    1    1    2    0    0  0.20118413086E+02  0.44971802678E+01 -0.24404365153E+02  0.31946020316E+02  0.00000000000E+00 0.  1.
         11    1    1    2    0    0  0.15547520102E+02  0.96788489022E+02  0.66091978059E+02  0.11822811236E+03  0.00000000000E+00 0. -1.
<mgrwt>
<rscale>  0 0.15940074E+03</rscale>
<asrwt>0</asrwt>
<pdfrwt beam="1">  1        1 0.38576426E-01 0.16478832E+03</pdfrwt>
<pdfrwt beam="2">  1       -1 0.15091390E-01 0.16478832E+03</pdfrwt>
<totfact> 0.34128325E+03</totfact>
</mgrwt>
</event>
<event>
 6    1  0.5258538E-006  0.1517605E+03  0.7546771E-02  0.1206863E+00
         -1   -1    0    0    0  501 -0.00000000000E+00  0.00000000000E+00  0.41338351386E+02  0.41338351386E+02  0.00000000000E+00 0.  1.
          1   -1    0    0  501    0  0.00000000000E+00 -0.00000000000E+00 -0.50309534424E+03  0.50309534424E+03  0.00000000000E+00 0. -1.
          5    1    1    2  502    0  0.56374732807E+02 -0.64542650510E+02 -0.26540272419E+03  0.27893468813E+03  0.47000000000E+01 0.  1.
         -5    1    1    2    0  502  0.27342496011E+02  0.44598736925E+02 -0.57651292028E+02  0.77989876881E+02  0.47000000000E+01 0.  1.
        -11    1    1    2    0    0 -0.20123636460E+02 -0.27921289780E+02 -0.84421079145E+02  0.91167306483E+02  0.00000000000E+00 0. -1.
         11    1    1    2    0    0 -0.63593592357E+02  0.47865203365E+02 -0.54281897489E+02  0.96341824132E+02  0.00000000000E+00 0.  1.
<mgrwt>
<rscale>  0 0.14491585E+03</rscale>
<asrwt>0</asrwt>
<pdfrwt beam="2">  1        1 0.77399283E-01 0.15176049E+03</pdfrwt>
<pdfrwt beam="1">  1       -1 0.63597464E-02 0.15176049E+03</pdfrwt>
<totfact> 0.53071973E+03</totfact>
</mgrwt>
</event>
<event>
 6    1  0.5258538E-006  0.2046796E+03  0.7546771E-02  0.1150099E+00
          1   -1    0    0  501    0  0.00000000000E+00  0.00000000000E+00  0.10061034724E+03  0.10061034724E+03  0.00000000000E+00 0. -1.
         -1   -1    0    0    0  501 -0.00000000000E+00 -0.00000000000E+00 -0.50106829900E+03  0.50106829900E+03  0.00000000000E+00 0.  1.
          5    1    1    2  502    0 -0.53410069130E+02  0.57637951362E+02 -0.61190121618E+02  0.99705014444E+02  0.47000000000E+01 0.  1.
         -5    1    1    2    0  502  0.43846987580E+02  0.10418734794E+03  0.27002731343E+01  0.11316776602E+03  0.47000000000E+01 0.  1.
        -11    1    1    2    0    0 -0.35037644756E+02 -0.11446515977E+03 -0.23097403892E+03  0.26015171729E+03  0.00000000000E+00 0.  1.
         11    1    1    2    0    0  0.44600726306E+02 -0.47360139536E+02 -0.11099406435E+03  0.12865414849E+03  0.00000000000E+00 0. -1.
<mgrwt>
<rscale>  0 0.19957374E+03</rscale>
<asrwt>0</asrwt>
<pdfrwt beam="1">  1        1 0.15478515E-01 0.20467965E+03</pdfrwt>
<pdfrwt beam="2">  1       -1 0.77087433E-01 0.20467965E+03</pdfrwt>
<totfact> 0.62972332E+02</totfact>
</mgrwt>
</event>
<event>
 6    1  0.5258538E-006  0.1844203E+03  0.7546771E-02  0.1168708E+00
          2   -1    0    0  501    0  0.00000000000E+00  0.00000000000E+00  0.49604886366E+03  0.49604886366E+03  0.00000000000E+00 0. -1.
         -2   -1    0    0    0  501 -0.00000000000E+00 -0.00000000000E+00 -0.86161079081E+02  0.86161079081E+02  0.00000000000E+00 0.  1.
          5    1    1    2  502    0  0.83949442417E+02  0.43322099771E+02  0.35764914889E+03  0.36994501877E+03  0.47000000000E+01 0. -1.
         -5    1    1    2    0  502  0.39432276883E+02  0.12926860838E+02  0.12484990900E+02  0.43588681892E+02  0.47000000000E+01 0. -1.
        -11    1    1    2    0    0 -0.36965585357E+02 -0.33948815680E+02  0.58915569365E+02  0.77395225308E+02  0.00000000000E+00 0. -1.
         11    1    1    2    0    0 -0.86416133943E+02 -0.22300144929E+02 -0.19161924575E+02  0.91281016772E+02  0.00000000000E+00 0.  1.
<mgrwt>
<rscale>  0 0.17906786E+03</rscale>
<asrwt>0</asrwt>
<pdfrwt beam="1">  1        2 0.76315208E-01 0.18442028E+03</pdfrwt>
<pdfrwt beam="2">  1       -2 0.13255551E-01 0.18442028E+03</pdfrwt>
<totfact> 0.26031830E+03</totfact>
</mgrwt>
</event>
<event>
 6    1  0.5258538E-006  0.2723441E+03  0.7546771E-02  0.1101985E+00
          3   -1    0    0  501    0  0.00000000000E+00  0.00000000000E+00  0.24845382549E+03  0.24845382549E+03  0.00000000000E+00 0. -1.
         -3   -1    0    0    0  501 -0.00000000000E+00 -0.00000000000E+00 -0.28544004397E+03  0.28544004397E+03  0.00000000000E+00 0.  1.
          5    1    1    2  502    0  0.53191787568E+02 -0.14754391316E+03  0.42945259817E+02  0.16268053945E+03  0.47000000000E+01 0.  1.
         -5    1    1    2    0  502  0.91038916696E+02 -0.46740896468E+02 -0.39202574467E+02  0.10968923193E+03  0.47000000000E+01 0.  1.
        -11    1    1    2    0    0 -0.43542997608E+02  0.11527581072E+03 -0.50486103723E+02  0.13316663188E+03  0.00000000000E+00 0.  1.
         11    1    1    2    0    0 -0.10068770666E+03  0.79008998914E+02  0.97571998929E+01  0.12835746621E+03  0.00000000000E+00 0. -1.
<mgrwt>
<rscale>  0 0.26877165E+03</rscale>
<asrwt>0</asrwt>
<pdfrwt beam="1">  1        3 0.38223665E-01 0.27234406E+03</pdfrwt>
<pdfrwt beam="2">  1       -3 0.43913853E-01 0.27234406E+03</pdfrwt>
<totfact> 0.87852010E+01</totfact>
</mgrwt>
</event>
<event>
 6    1  0.5258538E-006  0.1416484E+03  0.7546771E-02  0.1222399E+00
          1   -1    0    0  501    0  0.00000000000E+00  0.00000000000E+00  0.83862175317E+03  0.83862175317E+03  0.00000000000E+00 0. -1.
         -1   -1    0    0    0  501 -0.00000000000E+00 -0.00000000000E+00 -0.27421404778E+02  0.27421404778E+02  0.00000000000E+00 0.  1.
          5    1    1    2  502    0  0.39315982526E+02  0.41980992564E+02  0.41098924915E+03  0.41502096710E+03  0.47000000000E+01 0.  1.
         -5    1    1    2    0  502 -0.74294138904E+02  0.14727868510E+02  0.26509973259E+03  0.27574714397E+03  0.47000000000E+01 0.  1.
        -11    1    1    2    0    0 -0.98197986289E+01 -0.41390834562E+02  0.13274656153E+02  0.44562833469E+02  0.00000000000E+00 0.  1.
         11    1    1    2    0    0  0.44797955007E+02 -0.15318026512E+02  0.12183671050E+03  0.13071221341E+03  0.00000000000E+00 0. -1.
<mgrwt>
<rscale>  0 0.13346759E+03</rscale>
<asrwt>0</asrwt>
<pdfrwt beam="1">  1        1 0.12901871E+00 0.14164841E+03</pdfrwt>
<pdfrwt beam="2">  1       -1 0.42186783E-02 0.14164841E+03</pdfrwt>
<totfact> 0.47404423E+03</totfact>
</mgrwt>
</event>
<event>
 6    1  0.5258538E-006  0.3232684E+03  0.7546771E-02  0.1074155E+00
          1   -1    0    0  501    0  0.00000000000E+00  0.00000000000E+00  0.18270707644E+04  0.18270707644E+04  0.00000000000E+00 0. -1.
         -1   -1    0    0    0  501 -0.00000000000E+00 -0.00000000000E+00 -0.14299183145E+02  0.14299183145E+02  0.00000000000E+00 0.  1.
          5    1    1    2  502    0  0.41447550070E+02  0.19338954986E+02  0.32688346765E+03  0.33010117541E+03  0.47000000000E+01 0.  1.
         -5    1    1    2    0  502 -0.13275171793E+02 -0.10527942886E+03  0.10843967903E+04  0.10895863789E+04  0.47000000000E+01 0.  1.
        -11    1    1    2    0    0  0.27576455810E+02  0.54584663837E+02  0.14567314854E+03  0.15798928016E+03  0.00000000000E+00 0.  1.
         11    1    1    2    0    0 -0.55748834087E+02  0.31355810038E+02  0.25581817475E+03  0.26369311303E+03  0.00000000000E+00 0. -1.
<mgrwt>
<rscale>  0 0.32326843E+03</rscale>
<asrwt>0</asrwt>
<pdfrwt beam="1">  1        1 0.28108763E+00 0.32326843E+03</pdfrwt>
<pdfrwt beam="2">  1       -1 0.21998758E-02 0.32326843E+03</pdfrwt>
<totfact> 0.26022259E+03</totfact>
</mgrwt>
</event>
<event>
 6    1  0.5258538E-006  0.3144342E+03  0.7546771E-02  0.1078240E+00
         -1   -1    0    0    0  501 -0.00000000000E+00  0.00000000000E+00  0.28626739947E+02  0.28626739947E+02  0.00000000000E+00 0.  1.
          1   -1    0    0  501    0  0.00000000000E+00 -0.00000000000E+00 -0.86343121780E+03  0.86343121780E+03  0.00000000000E+00 0. -1.
          5    1    1    2  502    0  0.95599249020E+00  0.25639670973E+02 -0.25190331474E+03  0.25325022533E+03  0.47000000000E+01 0.  1.
         -5    1    1    2    0  502 -0.79030178636E+02 -0.88864128913E+02 -0.35163949514E+03  0.37123446376E+03  0.47000000000E+01 0.  1.
        -11    1    1    2    0    0  0.20746963884E+02  0.70325057452E+02 -0.98541382891E+02  0.12282692847E+03  0.00000000000E+00 0.  1.
         11    1    1    2    0    0  0.57327222262E+02 -0.71005995120E+01 -0.13272028509E+03  0.14474634019E+03  0.00000000000E+00 0. -1.
<mgrwt>
<rscale>  0 0.31443423E+03</rscale>
<asrwt>0</asrwt>
<pdfrwt beam="2">  1        1 0.13283555E+00 0.31443423E+03</pdfrwt>
<pdfrwt beam="1">  1       -1 0.44041144E-02 0.31443423E+03</pdfrwt>
<totfact> 0.43581956E+03</totfact>
</mgrwt>
</event>
<event>
 6    1  0.5258538E-006  0.1572665E+03  0.7546771E-02  0.1199875E+00
         -2   -1    0    0    0  501 -0.00000000000E+00  0.00000000000E+00  0.55540685088E+02  0.55540685088E+02  0.00000000000E+00 0.  1.
          2   -1    0    0  501    0  0.00000000000E+00 -0.00000000000E+00 -0.46633163673E+03  0.46633163673E+03  0.00000000000E+00 0. -1.
          5    1    1    2  502    0  0.60677433789E+02 -0.12609778637E+02 -0.29048265352E+03  0.29705726633E+03  0.47000000000E+01 0. -1.
         -5    1    1    2    0  502  0.43323286172E+01 -0.57256714279E+02 -0.43799727842E+02  0.72371310340E+02  0.47000000000E+01 0. -1.
        -11    1    1    2    0    0 -0.32258828410E+02  0.36390655495E+02 -0.91204878065E+02  0.10335976780E+03  0.00000000000E+00 0. -1.
         11    1    1    2    0    0 -0.32750933995E+02  0.33475837420E+02  0.14696307785E+02  0.49083977335E+02  0.00000000000E+00 0.  1.
<mgrwt>
<rscale>  0 0.15048761E+03</rscale>
<asrwt>0</asrwt>
<pdfrwt beam="2">  1        2 0.71743328E-01 0.15726653E+03</pdfrwt>
<pdfrwt beam="1">  1       -2 0.85447208E-02 0.15726653E+03</pdfrwt>
<totfact> 0.55618737E+03</totfact>
</mgrwt>
</event>
<event>
 6    1  0.5258538E-006  0.1236878E+03  0.7546771E-02  0.1244596E+00
         -2   -1    0    0    0  501 -0.00000000000E+00  0.00000000000E+00  0.28141894893E+02  0.28141894893E+02  0.00000000000E+00 0.  1.
          2   -1    0    0  501    0  0.00000000000E+00 -0.00000000000E+00 -0.47677922957E+03  0.47677922957E+03  0.00000000000E+00 0. -1.
          5    1    1    2  502    0  0.57191648424E+01 -0.14180630472E+02  0.81509746511E+01  0.17953481970E+02  0.47000000000E+01 0.  1.
         -5    1    1    2    0  502 -0.54690004645E+01  0.19558182305E+02 -0.27926966056E+03  0.28004654215E+03  0.47000000000E+01 0.  1.
        -11    1    1    2    0    0  0.51429320975E+02  0.51969420141E+01 -0.10724129205E+03  0.11904905704E+03  0.00000000000E+00 0. -1.
         11    1    1    2    0    0 -0.51679485352E+02 -0.10574493846E+02 -0.70277356716E+02  0.87872043298E+02  0.00000000000E+00 0.  1.
<mgrwt>
<rscale>  0 0.11909585E+03</rscale>
<asrwt>0</asrwt>
<pdfrwt beam="2">  1        2 0.73350652E-01 0.12368780E+03</pdfrwt>
<pdfrwt beam="1">  1       -2 0.43295222E-02 0.12368780E+03</pdfrwt>
<totfact> 0.15012994E+04</totfact>
</mgrwt>
</event>
<event>
 6    1  0.5258538E-006  0.1360622E+03  0.7546771E-02  0.1230411E+00
          2   -1    0    0  501    0  0.00000000000E+00  0.00000000000E+00  0.30653531961E+03  0.30653531961E+03  0.00000000000E+00 0. -1.
         -2   -1    0    0    0  501 -0.00000000000E+00 -0.00000000000E+00 -0.66574726532E+02  0.66574726532E+02  0.00000000000E+00 0.  1.
          5    1    1    2  502    0  0.32178719766E+02 -0.17667437136E+02  0.21440249079E+03  0.21757326673E+03  0.47000000000E+01 0. -1.
         -5    1    1    2    0  502  0.15010971656E+02  0.43422182449E+02  0.13953903303E+02  0.48245379220E+02  0.47000000000E+01 0. -1.
        -11    1    1    2    0    0 -0.32513050881E+02 -0.47693669995E+02  0.38676200220E+02  0.69481170821E+02  0.00000000000E+00 0. -1.
         11    1    1    2    0    0 -0.14676640540E+02  0.21938924682E+02 -0.27072001236E+02  0.37810229365E+02  0.00000000000E+00 0.  1.
<mgrwt>
<rscale>  0 0.12802815E+03</rscale>
<asrwt>0</asrwt>
<pdfrwt beam="1">  1        2 0.47159279E-01 0.13606215E+03</pdfrwt>
<pdfrwt beam="2">  1       -2 0.10242266E-01 0.13606215E+03</pdfrwt>
<totfact> 0.65084572E+03</totfact>
</mgrwt>
</event>
<event>
 6    1  0.5258538E-006  0.4741469E+03  0.7546771E-02  0.1020756E+00
          2   -1    0    0  501    0  0.00000000000E+00  0.00000000000E+00  0.74423685379E+03  0.74423685379E+03  0.00000000000E+00 0.  1.
         -2   -1    0    0    0  501 -0.00000000000E+00 -0.00000000000E+00 -0.75518728099E+02  0.75518728099E+02  0.00000000000E+00 0. -1.
          5    1    1    2  502    0  0.56321474536E+02  0.77052615312E+02  0.19501139058E+03  0.21716525154E+03  0.47000000000E+01 0.  1.
         -5    1    1    2    0  502 -0.27862125836E+02  0.52435513394E+02  0.42223000888E+03  0.42641066065E+03  0.47000000000E+01 0.  1.
        -11    1    1    2    0    0  0.29143618184E+02 -0.74327517186E+02 -0.25009566103E+01  0.79876060718E+02  0.00000000000E+00 0. -1.
         11    1    1    2    0    0 -0.57602966885E+02 -0.55160611520E+02  0.53977682843E+02  0.96303608978E+02  0.00000000000E+00 0.  1.
<mgrwt>
<rscale>  0 0.47414690E+03</rscale>
<asrwt>0</asrwt>
<pdfrwt beam="1">  1        2 0.11449797E+00 0.47414690E+03</pdfrwt>
<pdfrwt beam="2">  1       -2 0.11618266E-01 0.47414690E+03</pdfrwt>
<totfact> 0.20332396E+03</totfact>
</mgrwt>
</event>
<event>
 6    1  0.5258538E-006  0.1324917E+03  0.7546771E-02  0.1238520E+00
          2   -1    0    0  501    0  0.00000000000E+00  0.00000000000E+00  0.36839982021E+03  0.36839982021E+03  0.00000000000E+00 0. -1.
         -2   -1    0    0    0  501 -0.00000000000E+00 -0.00000000000E+00 -0.36539174275E+02  0.36539174275E+02  0.00000000000E+00 0.  1.
          5    1    1    2  502    0  0.35727861208E+02  0.32045309540E+02  0.17219860986E+02  0.51205424931E+02  0.47000000000E+01 0.  1.
         -5    1    1    2    0  502  0.79585340248E+01 -0.36636984156E+02  0.19764739583E+03  0.20122671282E+03  0.47000000000E+01 0.  1.
        -11    1    1    2    0    0 -0.47688306677E+02  0.37021221041E+02  0.51658322518E+02  0.79456451510E+02  0.00000000000E+00 0.  1.
         11    1    1    2    0    0  0.40019114443E+01 -0.32429546425E+02  0.65335066604E+02  0.73050405233E+02  0.00000000000E+00 0. -1.
<mgrwt>
<rscale>  0 0.12281757E+03</rscale>
<asrwt>0</asrwt>
<pdfrwt beam="1">  1        2 0.56676893E-01 0.13249168E+03</pdfrwt>
<pdfrwt beam="2">  1       -2 0.56214117E-02 0.13249168E+03</pdfrwt>
<totfact> 0.13461175E+04</totfact>
</mgrwt>
</event>
<event>
 6    1  0.5258538E-006  0.1407228E+03  0.7546771E-02  0.1225233E+00
          2   -1    0    0  501    0  0.00000000000E+00  0.00000000000E+00  0.75881547087E+03  0.75881547087E+03  0.00000000000E+00 0. -1.
         -2   -1    0    0    0  501 -0.00000000000E+00 -0.00000000000E+00 -0.21034330957E+02  0.21034330957E+02  0.00000000000E+00 0.  1.
          5    1    1    2  502    0 -0.68597158376E+02  0.64890895275E+02  0.36326871134E+03  0.37537001088E+03  0.47000000000E+01 0. -1.
         -5    1    1    2    0  502  0.74341634767E+01 -0.44006626403E+02  0.12703926046E+03  0.13473274899E+03  0.47000000000E+01 0. -1.
        -11    1    1    2    0    0  0.19040280024E+02  0.32685855494E+02  0.68702851739E+02  0.78428178927E+02  0.00000000000E+00 0.  1.
         11    1    1    2    0    0  0.42122714875E+02 -0.53570124366E+02  0.17877031637E+03  0.19131886302E+03  0.00000000000E+00 0. -1.
<mgrwt>
<rscale>  0 0.13150957E+03</rscale>
<asrwt>0</asrwt>
<pdfrwt beam="1">  1        2 0.11674082E+00 0.14072284E+03</pdfrwt>
<pdfrwt beam="2">  1       -2 0.32360515E-02 0.14072284E+03</pdfrwt>
<totfact> 0.13718901E+04</totfact>
</mgrwt>
</event>
<event>
 6    1  0.5258538E-006  0.1770154E+03  0.7546771E-02  0.1176538E+00
          2   -1    0    0  501    0  0.00000000000E+00  0.00000000000E+00  0.10247598590E+04  0.10247598590E+04  0.00000000000E+00 0. -1.
         -2   -1    0    0    0  501 -0.00000000000E+00 -0.00000000000E+00 -0.33953913208E+02  0.33953913208E+02  0.00000000000E+00 0.  1.
          5    1    1    2  502    0  0.12795122132E+02  0.75611568177E+02  0.38063466447E+03  0.38831129547E+03  0.47000000000E+01 0.  1.
         -5    1    1    2    0  502  0.97476591453E+02 -0.16013380650E+02  0.38138436302E+03  0.39399776217E+03  0.47000000000E+01 0.  1.
        -11    1    1    2    0    0 -0.11839473650E+03 -0.36228469769E+02  0.21494469566E+03  0.24805450579E+03  0.00000000000E+00 0. -1.
         11    1    1    2    0    0  0.81230229160E+01 -0.23369717758E+02  0.13842222633E+02  0.28350208761E+02  0.00000000000E+00 0.  1.
<mgrwt>
<rscale>  0 0.17126220E+03</rscale>
<asrwt>0</asrwt>
<pdfrwt beam="1">  1        2 0.15765534E+00 0.17701543E+03</pdfrwt>
<pdfrwt beam="2">  1       -2 0.52236797E-02 0.17701543E+03</pdfrwt>
<totfact> 0.45810878E+03</totfact>
</mgrwt>
</event>
<event>
 6    1  0.5258538E-006  0.2036620E+03  0.7546771E-02  0.1150784E+00
          3   -1    0    0  501    0  0.00000000000E+00  0.00000000000E+00  0.88295864075E+02  0.88295864075E+02  0.00000000000E+00 0. -1.
         -3   -1    0    0    0  501 -0.00000000000E+00 -0.00000000000E+00 -0.51110648723E+03  0.51110648723E+03  0.00000000000E+00 0.  1.
          5    1    1    2  502    0 -0.59197370780E+02 -0.12466729249E+03 -0.78748857873E+02  0.15896457197E+03  0.47000000000E+01 0.  1.
         -5    1    1    2    0  502  0.53111247432E+02 -0.35991370032E+02 -0.19941610688E+02  0.67349396117E+02  0.47000000000E+01 0.  1.
        -11    1    1    2    0    0  0.42560481461E+02  0.42222082505E+02 -0.89003577582E+02  0.10731139574E+03  0.00000000000E+00 0. -1.
         11    1    1    2    0    0 -0.36474358113E+02  0.11843658002E+03 -0.23511657701E+03  0.26577698747E+03  0.00000000000E+00 0.  1.
<mgrwt>
<rscale>  0 0.19876601E+03</rscale>
<asrwt>0</asrwt>
<pdfrwt beam="1">  1        3 0.13583979E-01 0.20366198E+03</pdfrwt>
<pdfrwt beam="2">  1       -3 0.78631768E-01 0.20366198E+03</pdfrwt>
<totfact> 0.16667634E+02</totfact>
</mgrwt>
</event>
<event>
 6    1  0.5258538E-006  0.2755253E+03  0.7546771E-02  0.1100289E+00
         -3   -1    0    0    0  501 -0.00000000000E+00  0.00000000000E+00  0.86126215240E+03  0.86126215240E+03  0.00000000000E+00 0.  1.
          3   -1    0    0  501    0  0.00000000000E+00 -0.00000000000E+00 -0.11069941310E+03  0.11069941310E+03  0.00000000000E+00 0. -1.
          5    1    1    2  502    0 -0.94969291460E+02  0.39733848803E+02  0.29266498299E+02  0.10712872156E+03  0.47000000000E+01 0.  1.
         -5    1    1    2    0  502 -0.14674712490E+03 -0.82901322165E+02  0.11283920267E+03  0.20288450789E+03  0.47000000000E+01 0.  1.
        -11    1    1    2    0    0  0.12296446114E+03  0.52067299248E+02  0.40213017507E+03  0.42372153598E+03  0.00000000000E+00 0. -1.
         11    1    1    2    0    0  0.11875195521E+03 -0.88998258857E+01  0.20632686327E+03  0.23822680007E+03  0.00000000000E+00 0.  1.
<mgrwt>
<rscale>  0 0.27173730E+03</rscale>
<asrwt>0</asrwt>
<pdfrwt beam="2">  1        3 0.17030680E-01 0.27552527E+03</pdfrwt>
<pdfrwt beam="1">  1       -3 0.13250187E+00 0.27552527E+03</pdfrwt>
<totfact> 0.34521305E+01</totfact>
</mgrwt>
</event>
<event>
 6    1  0.5258538E-006  0.1317023E+03  0.7546771E-02  0.1238032E+00
          2   -1    0    0  501    0  0.00000000000E+00  0.00000000000E+00  0.45527354237E+03  0.45527354237E+03  0.00000000000E+00 0. -1.
         -2   -1    0    0    0  501 -0.00000000000E+00 -0.00000000000E+00 -0.32189602123E+02  0.32189602123E+02  0.00000000000E+00 0.  1.
          5    1    1    2  502    0  0.68547049674E+02 -0.28599129916E+02  0.10689165210E+03  0.13024793104E+03  0.47000000000E+01 0.  1.
         -5    1    1    2    0  502 -0.38789237602E+02 -0.30977874430E+00  0.19886480344E+03  0.20266721729E+03  0.47000000000E+01 0.  1.
        -11    1    1    2    0    0 -0.30451515822E+02  0.51608011330E+02  0.11743334093E+03  0.13183804918E+03  0.00000000000E+00 0. -1.
         11    1    1    2    0    0  0.69370375016E+00 -0.22699102670E+02 -0.10585621592E+00  0.22709946994E+02  0.00000000000E+00 0.  1.
<mgrwt>
<rscale>  0 0.12312294E+03</rscale>
<asrwt>0</asrwt>
<pdfrwt beam="1">  1        2 0.70042079E-01 0.13170226E+03</pdfrwt>
<pdfrwt beam="2">  1       -2 0.49522468E-02 0.13170226E+03</pdfrwt>
<totfact> 0.12978795E+04</totfact>
</mgrwt>
</event>
<event>
 6    1  0.5258538E-006  0.1562713E+03  0.7546771E-02  0.1201429E+00
         -3   -1    0    0    0  501 -0.00000000000E+00  0.00000000000E+00  0.27504332473E+03  0.27504332473E+03  0.00000000000E+00 0.  1.
          3   -1    0    0  501    0  0.00000000000E+00 -0.00000000000E+00 -0.11434462854E+03  0.11434462854E+03  0.00000000000E+00 0. -1.
          5    1    1    2  502    0  0.10098544454E+03 -0.60932019754E+01  0.23509942785E+02  0.10397112354E+03  0.47000000000E+01 0.  1.
         -5    1    1    2    0  502 -0.73885299252E+01  0.11992019101E+02 -0.53022564707E+02  0.55062521416E+02  0.47000000000E+01 0.  1.
        -11    1    1    2    0    0 -0.13271396180E+02 -0.17358360717E+02  0.12319550333E+03  0.12511824281E+03  0.00000000000E+00 0.  1.
         11    1    1    2    0    0 -0.80325518440E+02  0.11459543592E+02  0.67015814779E+02  0.10523606550E+03  0.00000000000E+00 0. -1.
<mgrwt>
<rscale>  0 0.14922437E+03</rscale>
<asrwt>0</asrwt>
<pdfrwt beam="2">  1        3 0.17591481E-01 0.15627126E+03</pdfrwt>
<pdfrwt beam="1">  1       -3 0.42314357E-01 0.15627126E+03</pdfrwt>
<totfact> 0.37102525E+02</totfact>
</mgrwt>
</event>
<event>
 6    1  0.5258538E-006  0.1797487E+03  0.7546771E-02  0.1173718E+00
         -2   -1    0    0    0  501 -0.00000000000E+00  0.00000000000E+00  0.66499614492E+02  0.66499614492E+02  0.00000000000E+00 0.  1.
          2   -1    0    0  501    0  0.00000000000E+00 -0.00000000000E+00 -0.45939307015E+03  0.45939307015E+03  0.00000000000E+00 0. -1.
          5    1    1    2  502    0  0.31238989999E+02  0.63908829735E+02 -0.33905141813E+02  0.78942141190E+02  0.47000000000E+01 0. -1.
         -5    1    1    2    0  502 -0.84125559188E+01  0.63229181739E+02 -0.24231456946E+03  0.25061352935E+03  0.47000000000E+01 0. -1.
        -11    1    1    2    0    0 -0.29327524956E+02 -0.81329381087E+02 -0.12225285993E+03  0.14973421021E+03  0.00000000000E+00 0.  1.
         11    1    1    2    0    0  0.65010908758E+01 -0.45808630387E+02  0.55791155366E+01  0.46602803893E+02  0.00000000000E+00 0. -1.
<mgrwt>
<rscale>  0 0.17402097E+03</rscale>
<asrwt>0</asrwt>
<pdfrwt beam="2">  1        2 0.70675859E-01 0.17974874E+03</pdfrwt>
<pdfrwt beam="1">  1       -2 0.10230710E-01 0.17974874E+03</pdfrwt>
<totfact> 0.42877791E+03</totfact>
</mgrwt>
</event>
<event>
 6    1  0.5258538E-006  0.1327478E+03  0.7546771E-02  0.1234784E+00
          2   -1    0    0  501    0  0.00000000000E+00  0.00000000000E+00  0.24129499915E+03  0.24129499915E+03  0.00000000000E+00 0. -1.
         -2   -1    0    0    0  501 -0.00000000000E+00 -0.00000000000E+00 -0.69335645576E+02  0.69335645576E+02  0.00000000000E+00 0.  1.
          5    1    1    2  502    0  0.29213218808E+02 -0.34577769390E+02  0.87457446547E+02  0.98589701519E+02  0.47000000000E+01 0. -1.
         -5    1    1    2    0  502 -0.73893930389E+02  0.33045185878E+02  0.67902966933E+02  0.10576010673E+03  0.47000000000E+01 0. -1.
        -11    1    1    2    0    0  0.10162545373E+02  0.32916912172E+02 -0.25956996396E+02  0.43134279840E+02  0.00000000000E+00 0.  1.
         11    1    1    2    0    0  0.34518166208E+02 -0.31384328660E+02  0.42555936487E+02  0.63146556629E+02  0.00000000000E+00 0. -1.
<mgrwt>
<rscale>  0 0.12518253E+03</rscale>
<asrwt>0</asrwt>
<pdfrwt beam="1">  1        2 0.37122307E-01 0.13274783E+03</pdfrwt>
<pdfrwt beam="2">  1       -2 0.10667023E-01 0.13274783E+03</pdfrwt>
<totfact> 0.78573071E+03</totfact>
</mgrwt>
</event>
<event>
 6    1  0.5258538E-006  0.1687655E+03  0.7546771E-02  0.1185894E+00
         -3   -1    0    0    0  501 -0.00000000000E+00  0.00000000000E+00  0.17002124471E+02  0.17002124471E+02  0.00000000000E+00 0.  1.
          3   -1    0    0  501    0  0.00000000000E+00 -0.00000000000E+00 -0.16693299422E+04  0.16693299422E+04  0.00000000000E+00 0. -1.
          5    1    1    2  502    0  0.76257553451E+02 -0.62365648138E+02 -0.60705211825E+03  0.61501142493E+03  0.47000000000E+01 0. -1.
         -5    1    1    2    0  502 -0.48471900881E+02 -0.47554292355E+02 -0.57910765964E+03  0.58309408105E+03  0.47000000000E+01 0. -1.
        -11    1    1    2    0    0  0.11744375057E+02  0.77987963298E+02 -0.16594077709E+03  0.18372913288E+03  0.00000000000E+00 0.  1.
         11    1    1    2    0    0 -0.39530027627E+02  0.31931977195E+02 -0.30022726274E+03  0.30449742781E+03  0.00000000000E+00 0. -1.
<mgrwt>
<rscale>  0 0.16250837E+03</rscale>
<asrwt>0</asrwt>
<pdfrwt beam="2">  1        3 0.25682001E+00 0.16876547E+03</pdfrwt>
<pdfrwt beam="1">  1       -3 0.26157113E-02 0.16876547E+03</pdfrwt>
<totfact> 0.11661877E+02</totfact>
</mgrwt>
</event>
<event>
 6    1  0.5258538E-006  0.1493455E+03  0.7546771E-02  0.1210282E+00
          4   -1    0    0  501    0  0.00000000000E+00  0.00000000000E+00  0.55839057766E+02  0.55839057766E+02  0.00000000000E+00 0. -1.
         -4   -1    0    0    0  501 -0.00000000000E+00 -0.00000000000E+00 -0.33401893195E+03  0.33401893195E+03  0.00000000000E+00 0.  1.
          5    1    1    2  502    0  0.82537091546E+02  0.16354016569E+01 -0.40548574769E+02  0.92094098265E+02  0.47000000000E+01 0. -1.
         -5    1    1    2    0  502 -0.19077113427E+02  0.49843791633E+02 -0.97654854075E+02  0.11138626641E+03  0.47000000000E+01 0. -1.
        -11    1    1    2    0    0 -0.20857225203E+02 -0.19348208210E+02  0.76025505253E+01  0.29447848454E+02  0.00000000000E+00 0. -1.
         11    1    1    2    0    0 -0.42602752915E+02 -0.32130985080E+02 -0.14757899587E+03  0.15692977659E+03  0.00000000000E+00 0.  1.
<mgrwt>
<rscale>  0 0.14228899E+03</rscale>
<asrwt>0</asrwt>
<pdfrwt beam="1">  1        4 0.85906242E-02 0.14934548E+03</pdfrwt>
<pdfrwt beam="2">  1       -4 0.51387529E-01 0.14934548E+03</pdfrwt>
<totfact> 0.60694988E+02</totfact>
</mgrwt>
</event>
<event>
 6    1  0.5258538E-006  0.1266864E+03  0.7546771E-02  0.1248131E+00
          2   -1    0    0  501    0  0.00000000000E+00  0.00000000000E+00  0.40866566661E+03  0.40866566661E+03  0.00000000000E+00 0. -1.
         -2   -1    0    0    0  501 -0.00000000000E+00 -0.00000000000E+00 -0.29334232022E+02  0.29334232022E+02  0.00000000000E+00 0.  1.
          5    1    1    2  502    0  0.10558059761E+02 -0.25597349341E+02  0.19288294281E+03  0.19491694781E+03  0.47000000000E+01 0.  1.
         -5    1    1    2    0  502 -0.16010864749E+02  0.45465840622E+02  0.19149902472E+02  0.52079739037E+02  0.47000000000E+01 0.  1.
        -11    1    1    2    0    0  0.33425788473E+02 -0.89667060723E+01  0.18570629057E+02  0.39275353804E+02  0.00000000000E+00 0.  1.
         11    1    1    2    0    0 -0.27972983485E+02 -0.10901785209E+02  0.14872796025E+03  0.15172785798E+03  0.00000000000E+00 0. -1.
<mgrwt>
<rscale>  0 0.11699914E+03</rscale>
<asrwt>0</asrwt>
<pdfrwt beam="1">  1        2 0.62871637E-01 0.12668637E+03</pdfrwt>
<pdfrwt beam="2">  1       -2 0.45129591E-02 0.12668637E+03</pdfrwt>
<totfact> 0.16694363E+04</totfact>
</mgrwt>
</event>
<event>
 6    1  0.5258538E-006  0.3823878E+03  0.7546771E-02  0.1050055E+00
         -2   -1    0    0    0  501 -0.00000000000E+00  0.00000000000E+00  0.68486152734E+02  0.68486152734E+02  0.00000000000E+00 0.  1.
          2   -1    0    0  501    0  0.00000000000E+00 -0.00000000000E+00 -0.53375905788E+03  0.53375905788E+03  0.00000000000E+00 0. -1.
          5    1    1    2  502    0  0.14360251206E+03 -0.21522385561E+02 -0.21923932667E+03  0.26300735143E+03  0.47000000000E+01 0. -1.
         -5    1    1    2    0  502 -0.71953392505E+01  0.83740308270E+01 -0.14731048331E+03  0.14779839577E+03  0.47000000000E+01 0. -1.
        -11    1    1    2    0    0 -0.90523389192E+02 -0.35056026026E+02 -0.65056084983E+02  0.11685761911E+03  0.00000000000E+00 0.  1.
         11    1    1    2    0    0 -0.45883783618E+02  0.48204380760E+02 -0.33667010181E+02  0.74581844292E+02  0.00000000000E+00 0. -1.
<mgrwt>
<rscale>  0 0.38238778E+03</rscale>
<asrwt>0</asrwt>
<pdfrwt beam="2">  1        2 0.82116780E-01 0.38238778E+03</pdfrwt>
<pdfrwt beam="1">  1       -2 0.10536331E-01 0.38238778E+03</pdfrwt>
<totfact> 0.35451738E+03</totfact>
</mgrwt>
</event>
<event>
 6    1  0.5258538E-006  0.1256902E+03  0.7546771E-02  0.1249693E+00
         -1   -1    0    0    0  501 -0.00000000000E+00  0.00000000000E+00  0.16699420890E+03  0.16699420890E+03  0.00000000000E+00 0.  1.
          1   -1    0    0  501    0  0.00000000000E+00 -0.00000000000E+00 -0.71245532491E+02  0.71245532491E+02  0.00000000000E+00 0. -1.
          5    1    1    2  502    0 -0.19195153278E+02 -0.22271393041E+02  0.74835751696E+02  0.80541595398E+02  0.47000000000E+01 0. -1.
         -5    1    1    2    0  502  0.28677294019E+02  0.31380843595E+02 -0.30727687245E+02  0.52663320257E+02  0.47000000000E+01 0. -1.
        -11    1    1    2    0    0 -0.37564922446E+02 -0.34173495475E+01  0.63632943602E+02  0.73972651621E+02  0.00000000000E+00 0.  1.
         11    1    1    2    0    0  0.28082781705E+02 -0.56921010066E+01 -0.11992331647E+02  0.31062174111E+02  0.00000000000E+00 0. -1.
<mgrwt>
<rscale>  0 0.11608817E+03</rscale>
<asrwt>0</asrwt>
<pdfrwt beam="2">  1        1 0.10960851E-01 0.12569021E+03</pdfrwt>
<pdfrwt beam="1">  1       -1 0.25691417E-01 0.12569021E+03</pdfrwt>
<totfact> 0.70929535E+03</totfact>
</mgrwt>
</event>
<event>
 6    1  0.5258538E-006  0.1461563E+03  0.7546771E-02  0.1212802E+00
          2   -1    0    0  501    0  0.00000000000E+00  0.00000000000E+00  0.12245705615E+04  0.12245705615E+04  0.00000000000E+00 0. -1.
         -2   -1    0    0    0  501 -0.00000000000E+00 -0.00000000000E+00 -0.15282043398E+02  0.15282043398E+02  0.00000000000E+00 0.  1.
          5    1    1    2  502    0 -0.19151425174E+02 -0.20022054888E+02  0.61684743865E+03  0.61748725682E+03  0.47000000000E+01 0. -1.
         -5    1    1    2    0  502 -0.58759934571E+02 -0.12399943698E+02  0.12672460656E+03  0.14031288046E+03  0.47000000000E+01 0.  1.
        -11    1    1    2    0    0  0.58063081441E+02  0.63586524052E+02  0.29103285673E+03  0.30350402166E+03  0.00000000000E+00 0. -1.
         11    1    1    2    0    0  0.19848278303E+02 -0.31164525466E+02  0.17468361620E+03  0.17854844600E+03  0.00000000000E+00 0.  1.
<mgrwt>
<rscale>  0 0.14039258E+03</rscale>
<asrwt>0</asrwt>
<pdfrwt beam="1">  1        2 0.18839539E+00 0.14615629E+03</pdfrwt>
<pdfrwt beam="2">  1       -2 0.23510846E-02 0.14615629E+03</pdfrwt>
<totfact> 0.11436583E+04</totfact>
</mgrwt>
</event>
<event>
 6    1  0.5258538E-006  0.2897141E+03  0.7546771E-02  0.1092296E+00
          1   -1    0    0  501    0  0.00000000000E+00  0.00000000000E+00  0.10932161483E+03  0.10932161483E+03  0.00000000000E+00 0. -1.
         -1   -1    0    0    0  501 -0.00000000000E+00 -0.00000000000E+00 -0.82337795826E+03  0.82337795826E+03  0.00000000000E+00 0.  1.
          5    1    1    2  502    0  0.24467453556E+02  0.36472066672E+02 -0.38822080878E+02  0.58805713111E+02  0.47000000000E+01 0.  1.
         -5    1    1    2    0  502 -0.15472711205E+03  0.19011187913E+03 -0.17096767463E+03  0.29888968125E+03  0.47000000000E+01 0.  1.
        -11    1    1    2    0    0  0.95618926034E+02 -0.92149934485E+02 -0.29943243071E+03  0.32755819331E+03  0.00000000000E+00 0.  1.
         11    1    1    2    0    0  0.34640732461E+02 -0.13443401132E+03 -0.20483415721E+03  0.24744598543E+03  0.00000000000E+00 0. -1.
<mgrwt>
<rscale>  0 0.28630227E+03</rscale>
<asrwt>0</asrwt>
<pdfrwt beam="1">  1        1 0.16818710E-01 0.28971409E+03</pdfrwt>
<pdfrwt beam="2">  1       -1 0.12667353E+00 0.28971409E+03</pdfrwt>
<totfact> 0.18628959E+02</totfact>
</mgrwt>
</event>
<event>
 6    1  0.5258538E-006  0.1625117E+03  0.7546771E-02  0.1193229E+00
         -1   -1    0    0    0  501 -0.00000000000E+00  0.00000000000E+00  0.43328116273E+02  0.43328116273E+02  0.00000000000E+00 0.  1.
          1   -1    0    0  501    0  0.00000000000E+00 -0.00000000000E+00 -0.52168087686E+03  0.52168087686E+03  0.00000000000E+00 0. -1.
          5    1    1    2  502    0  0.37186610512E+01  0.44692044865E+02 -0.75625198984E+01  0.45721865901E+02  0.47000000000E+01 0. -1.
         -5    1    1    2    0  502  0.51683414842E+02  0.43148770163E+02 -0.24895515353E+03  0.25794136970E+03  0.47000000000E+01 0. -1.
        -11    1    1    2    0    0 -0.21151905858E+02  0.66673632998E+01 -0.10455190420E+03  0.10687823692E+03  0.00000000000E+00 0. -1.
         11    1    1    2    0    0 -0.34250170036E+02 -0.94508178328E+02 -0.11728318297E+03  0.15446752061E+03  0.00000000000E+00 0.  1.
<mgrwt>
<rscale>  0 0.15605096E+03</rscale>
<asrwt>0</asrwt>
<pdfrwt beam="2">  1        1 0.80258593E-01 0.16251167E+03</pdfrwt>
<pdfrwt beam="1">  1       -1 0.66658643E-02 0.16251167E+03</pdfrwt>
<totfact> 0.47308669E+03</totfact>
</mgrwt>
</event>
<event>
 6    1  0.5258538E-006  0.1300658E+03  0.7546771E-02  0.1240684E+00
         -1   -1    0    0    0  501 -0.00000000000E+00  0.00000000000E+00  0.30338330024E+02  0.30338330024E+02  0.00000000000E+00 0. -1.
          1   -1    0    0  501    0  0.00000000000E+00 -0.00000000000E+00 -0.43245782118E+03  0.43245782118E+03  0.00000000000E+00 0.  1.
          5    1    1    2  502    0  0.73776735038E+02 -0.78702461638E+01 -0.20744146646E+03  0.22036106601E+03  0.47000000000E+01 0. -1.
         -5    1    1    2    0  502 -0.38787743690E+02 -0.18272673514E+00 -0.26197201260E+02  0.47041532750E+02  0.47000000000E+01 0.  1.
        -11    1    1    2    0    0 -0.48229823632E+02 -0.19306973458E+02 -0.15238969953E+03  0.16100153923E+03  0.00000000000E+00 0. -1.
         11    1    1    2    0    0  0.13240832284E+02  0.27359946357E+02 -0.16091123909E+02  0.34392013213E+02  0.00000000000E+00 0.  1.
<mgrwt>
<rscale>  0 0.12147477E+03</rscale>
<asrwt>0</asrwt>
<pdfrwt beam="2">  1        1 0.66531973E-01 0.13006584E+03</pdfrwt>
<pdfrwt beam="1">  1       -1 0.46674353E-02 0.13006584E+03</pdfrwt>
<totfact> 0.10117154E+04</totfact>
</mgrwt>
</event>
<event>
 6    1  0.5258538E-006  0.1271979E+03  0.7546771E-02  0.1245223E+00
          2   -1    0    0  501    0  0.00000000000E+00  0.00000000000E+00  0.12098319730E+04  0.12098319730E+04  0.00000000000E+00 0. -1.
         -2   -1    0    0    0  501 -0.00000000000E+00 -0.00000000000E+00 -0.10626630552E+02  0.10626630552E+02  0.00000000000E+00 0.  1.
          5    1    1    2  502    0  0.27114956249E+02  0.67410639013E+02  0.45775854123E+03  0.46351309277E+03  0.47000000000E+01 0. -1.
         -5    1    1    2    0  502 -0.81629424100E+01 -0.53502926326E+02  0.32059408351E+03  0.32516434789E+03  0.47000000000E+01 0. -1.
        -11    1    1    2    0    0 -0.45885658455E+02  0.19351423674E+02  0.16423054105E+03  0.17161480666E+03  0.00000000000E+00 0.  1.
         11    1    1    2    0    0  0.26933644617E+02 -0.33259136360E+02  0.25662217662E+03  0.26016635620E+03  0.00000000000E+00 0. -1.
<mgrwt>
<rscale>  0 0.11872030E+03</rscale>
<asrwt>0</asrwt>
<pdfrwt beam="1">  1        2 0.18612789E+00 0.12719787E+03</pdfrwt>
<pdfrwt beam="2">  1       -2 0.16348672E-02 0.12719787E+03</pdfrwt>
<totfact> 0.19580208E+04</totfact>
</mgrwt>
</event>
<event>
 6    1  0.5258538E-006  0.1436504E+03  0.7546771E-02  0.1219798E+00
         -3   -1    0    0    0  501 -0.00000000000E+00  0.00000000000E+00  0.33233142204E+03  0.33233142204E+03  0.00000000000E+00 0.  1.
          3   -1    0    0  501    0  0.00000000000E+00 -0.00000000000E+00 -0.49837084237E+02  0.49837084237E+02  0.00000000000E+00 0. -1.
          5    1    1    2  502    0  0.36135962805E+01 -0.71038312748E+02  0.11181399078E+03  0.13260451911E+03  0.47000000000E+01 0.  1.
         -5    1    1    2    0  502 -0.57608375953E+02  0.25269301755E+02  0.32278938896E+02  0.70861008230E+02  0.47000000000E+01 0.  1.
        -11    1    1    2    0    0 -0.15117047315E+02  0.21439275277E+02  0.82422889627E+02  0.86496822938E+02  0.00000000000E+00 0.  1.
         11    1    1    2    0    0  0.69111826988E+02  0.24329735716E+02  0.55978518505E+02  0.92206155996E+02  0.00000000000E+00 0. -1.
<mgrwt>
<rscale>  0 0.13529936E+03</rscale>
<asrwt>0</asrwt>
<pdfrwt beam="2">  1        3 0.76672439E-02 0.14365044E+03</pdfrwt>
<pdfrwt beam="1">  1       -3 0.51127910E-01 0.14365044E+03</pdfrwt>
<totfact> 0.10162941E+03</totfact>
</mgrwt>
</event>
<event>
 6    1  0.5258538E-006  0.1517114E+03  0.7546771E-02  0.1206381E+00
         -2   -1    0    0    0  501 -0.00000000000E+00  0.00000000000E+00  0.23181750901E+02  0.23181750901E+02  0.00000000000E+00 0.  1.
          2   -1    0    0  501    0  0.00000000000E+00 -0.00000000000E+00 -0.16142407973E+04  0.16142407973E+04  0.00000000000E+00 0. -1.
          5    1    1    2  502    0 -0.66416312162E+02  0.59099502356E+02 -0.13583353476E+04  0.13612497508E+04  0.47000000000E+01 0.  1.
         -5    1    1    2    0  502 -0.91462050772E+01 -0.18135119925E+02 -0.38343324392E+02  0.43644428825E+02  0.47000000000E+01 0.  1.
        -11    1    1    2    0    0  0.60129699641E+02 -0.45069160988E+02 -0.20149096227E+03  0.21504747831E+03  0.00000000000E+00 0. -1.
         11    1    1    2    0    0  0.15432817598E+02  0.41047785574E+01  0.71105877877E+01  0.17480890272E+02  0.00000000000E+00 0.  1.
<mgrwt>
<rscale>  0 0.14529125E+03</rscale>
<asrwt>0</asrwt>
<pdfrwt beam="2">  1        2 0.24834476E+00 0.15171138E+03</pdfrwt>
<pdfrwt beam="1">  1       -2 0.35664229E-02 0.15171138E+03</pdfrwt>
<totfact> 0.38518735E+03</totfact>
</mgrwt>
</event>
<event>
 6    1  0.5258538E-006  0.1572530E+03  0.7546771E-02  0.1197227E+00
          2   -1    0    0  501    0  0.00000000000E+00  0.00000000000E+00  0.89059438780E+03  0.89059438780E+03  0.00000000000E+00 0. -1.
         -2   -1    0    0    0  501 -0.00000000000E+00 -0.00000000000E+00 -0.76150547840E+02  0.76150547840E+02  0.00000000000E+00 0.  1.
          5    1    1    2  502    0 -0.28958033677E+02 -0.65588508612E+00  0.80669010366E+02  0.85840416664E+02  0.47000000000E+01 0. -1.
         -5    1    1    2    0  502  0.79082622027E+02  0.91244509359E+02  0.73124760605E+03  0.74116447091E+03  0.47000000000E+01 0.  1.
        -11    1    1    2    0    0  0.12540980614E+02 -0.10528194527E+02 -0.28992512050E+02  0.33296919222E+02  0.00000000000E+00 0.  1.
         11    1    1    2    0    0 -0.62665568964E+02 -0.80060429746E+02  0.31519735593E+02  0.10644312884E+03  0.00000000000E+00 0. -1.
<mgrwt>
<rscale>  0 0.15267277E+03</rscale>
<asrwt>0</asrwt>
<pdfrwt beam="1">  1        2 0.13701451E+00 0.15725296E+03</pdfrwt>
<pdfrwt beam="2">  1       -2 0.11715470E-01 0.15725296E+03</pdfrwt>
<totfact> 0.15784390E+03</totfact>
</mgrwt>
</event>
<event>
 6    1  0.5258538E-006  0.1452575E+03  0.7546771E-02  0.1216380E+00
          2   -1    0    0  501    0  0.00000000000E+00  0.00000000000E+00  0.16166076649E+03  0.16166076649E+03  0.00000000000E+00 0. -1.
         -2   -1    0    0    0  501 -0.00000000000E+00 -0.00000000000E+00 -0.11230186630E+03  0.11230186630E+03  0.00000000000E+00 0.  1.
          5    1    1    2  502    0 -0.32262423039E+02 -0.37328228815E+02 -0.85225840422E+01  0.50289015158E+02  0.47000000000E+01 0.  1.
         -5    1    1    2    0  502  0.80601351434E+02 -0.18705836390E+02  0.65924511635E+02  0.10589909066E+03  0.47000000000E+01 0.  1.
        -11    1    1    2    0    0 -0.60673241825E+02  0.74173072550E+01  0.14442443055E+02  0.62807984221E+02  0.00000000000E+00 0. -1.
         11    1    1    2    0    0  0.12334313430E+02  0.48616757949E+02 -0.22485470456E+02  0.54966542759E+02  0.00000000000E+00 0.  1.
<mgrwt>
<rscale>  0 0.13775679E+03</rscale>
<asrwt>0</asrwt>
<pdfrwt beam="1">  1        2 0.24870887E-01 0.14525751E+03</pdfrwt>
<pdfrwt beam="2">  1       -2 0.17277210E-01 0.14525751E+03</pdfrwt>
<totfact> 0.55903634E+03</totfact>
</mgrwt>
</event>
<event>
 6    1  0.5258538E-006  0.1326841E+03  0.7546771E-02  0.1236647E+00
         -4   -1    0    0    0  501 -0.00000000000E+00  0.00000000000E+00  0.21698680182E+03  0.21698680182E+03  0.00000000000E+00 0.  1.
          4   -1    0    0  501    0  0.00000000000E+00 -0.00000000000E+00 -0.81604527501E+02  0.81604527501E+02  0.00000000000E+00 0. -1.
          5    1    1    2  502    0  0.36794460749E+02 -0.23241020495E+02 -0.68645315885E+01  0.44307890600E+02  0.47000000000E+01 0.  1.
         -5    1    1    2    0  502 -0.78333859563E+02  0.39304958121E+02  0.10852552561E+02  0.88436085305E+02  0.47000000000E+01 0.  1.
        -11    1    1    2    0    0 -0.26634570313E+02 -0.19123865036E+02  0.38276427069E+02  0.50400470422E+02  0.00000000000E+00 0.  1.
         11    1    1    2    0    0  0.68173969127E+02  0.30599274101E+01  0.93117826276E+02  0.11544688299E+03  0.00000000000E+00 0. -1.
<mgrwt>
<rscale>  0 0.12399561E+03</rscale>
<asrwt>0</asrwt>
<pdfrwt beam="2">  1        4 0.12554543E-01 0.13268406E+03</pdfrwt>
<pdfrwt beam="1">  1       -4 0.33382585E-01 0.13268406E+03</pdfrwt>
<totfact> 0.73348949E+02</totfact>
</mgrwt>
</event>
<event>
 6    1  0.5258538E-006  0.1284717E+03  0.7546771E-02  0.1242784E+00
         -1   -1    0    0    0  501 -0.00000000000E+00  0.00000000000E+00  0.20498544995E+02  0.20498544995E+02  0.00000000000E+00 0.  1.
          1   -1    0    0  501    0  0.00000000000E+00 -0.00000000000E+00 -0.71993699043E+03  0.71993699043E+03  0.00000000000E+00 0. -1.
          5    1    1    2  502    0 -0.60066764850E+00  0.78613743372E+01  0.47717130831E+01  0.10345107725E+02  0.47000000000E+01 0. -1.
         -5    1    1    2    0  502 -0.36535810218E+01  0.21517171248E+02 -0.52631823697E+03  0.52679152791E+03  0.47000000000E+01 0. -1.
        -11    1    1    2    0    0 -0.22882821275E+02 -0.54480744940E+02 -0.86930402229E+02  0.10511265343E+03  0.00000000000E+00 0.  1.
         11    1    1    2    0    0  0.27137069946E+02  0.25102199355E+02 -0.90961519327E+02  0.98186246369E+02  0.00000000000E+00 0. -1.
<mgrwt>
<rscale>  0 0.12018981E+03</rscale>
<asrwt>0</asrwt>
<pdfrwt beam="2">  1        1 0.11075955E+00 0.12847174E+03</pdfrwt>
<pdfrwt beam="1">  1       -1 0.31536219E-02 0.12847174E+03</pdfrwt>
<totfact> 0.90629630E+03</totfact>
</mgrwt>
</event>
<event>
 6    1  0.5258538E-006  0.2628523E+03  0.7546771E-02  0.1107104E+00
         -1   -1    0    0    0  501 -0.00000000000E+00  0.00000000000E+00  0.15020146557E+03  0.15020146557E+03  0.00000000000E+00 0.  1.
          1   -1    0    0  501    0  0.00000000000E+00 -0.00000000000E+00 -0.46490968693E+03  0.46490968693E+03  0.00000000000E+00 0. -1.
          5    1    1    2  502    0  0.26775100787E+02 -0.51886586547E+01 -0.93454566429E+02  0.97466272050E+02  0.47000000000E+01 0. -1.
         -5    1    1    2    0  502  0.21105616307E+03  0.14553245898E+02 -0.13683324688E+03  0.25199588962E+03  0.47000000000E+01 0.  1.
        -11    1    1    2    0    0 -0.18372719068E+03  0.18748866407E+02 -0.87991980186E+02  0.20457221015E+03  0.00000000000E+00 0. -1.
         11    1    1    2    0    0 -0.54104073176E+02 -0.28113453651E+02  0.35715721378E+01  0.61076780678E+02  0.00000000000E+00 0.  1.
<mgrwt>
<rscale>  0 0.26006471E+03</rscale>
<asrwt>0</asrwt>
<pdfrwt beam="2">  1        1 0.71524566E-01 0.26285229E+03</pdfrwt>
<pdfrwt beam="1">  1       -1 0.23107918E-01 0.26285229E+03</pdfrwt>
<totfact> 0.79259924E+02</totfact>
</mgrwt>
</event>
<event>
 6    1  0.5258538E-006  0.1528332E+03  0.7546771E-02  0.1206563E+00
          2   -1    0    0  501    0  0.00000000000E+00  0.00000000000E+00  0.21920315895E+03  0.21920315895E+03  0.00000000000E+00 0.  1.
         -2   -1    0    0    0  501 -0.00000000000E+00 -0.00000000000E+00 -0.10631014990E+03  0.10631014990E+03  0.00000000000E+00 0. -1.
          5    1    1    2  502    0  0.27926201715E+01  0.77324459373E+02  0.14679406577E+03  0.16600439299E+03  0.47000000000E+01 0. -1.
         -5    1    1    2    0  502 -0.27977874760E+02  0.69279176383E+01 -0.17618290688E+02  0.34106475715E+02  0.47000000000E+01 0. -1.
        -11    1    1    2    0    0  0.30429878116E+01 -0.98053947097E+02 -0.15345986421E+02  0.99294187219E+02  0.00000000000E+00 0.  1.
         11    1    1    2    0    0  0.22142266777E+02  0.13801570086E+02 -0.93677961069E+00  0.26108252927E+02  0.00000000000E+00 0. -1.
<mgrwt>
<rscale>  0 0.14514988E+03</rscale>
<asrwt>0</asrwt>
<pdfrwt beam="1">  1        2 0.33723563E-01 0.15283317E+03</pdfrwt>
<pdfrwt beam="2">  1       -2 0.16355408E-01 0.15283317E+03</pdfrwt>
<totfact> 0.44061986E+03</totfact>
</mgrwt>
</event>
<event>
 6    1  0.5258538E-006  0.1343926E+03  0.7546771E-02  0.1229182E+00
          1   -1    0    0  501    0  0.00000000000E+00  0.00000000000E+00  0.20410352881E+03  0.20410352881E+03  0.00000000000E+00 0. -1.
         -1   -1    0    0    0  501 -0.00000000000E+00 -0.00000000000E+00 -0.75360258233E+02  0.75360258233E+02  0.00000000000E+00 0.  1.
          5    1    1    2  502    0  0.39877926739E+02 -0.37010942140E+02  0.72860319695E+02  0.91053693309E+02  0.47000000000E+01 0.  1.
         -5    1    1    2    0  502  0.49421847689E+01  0.57592194389E+02 -0.73445559561E+01  0.58457835634E+02  0.47000000000E+01 0.  1.
        -11    1    1    2    0    0 -0.50157171881E+02 -0.42708390785E+02  0.34264173032E+01  0.65965815921E+02  0.00000000000E+00 0.  1.
         11    1    1    2    0    0  0.53370603732E+01  0.22127138536E+02  0.59801089533E+02  0.63986442178E+02  0.00000000000E+00 0. -1.
<mgrwt>
<rscale>  0 0.12884355E+03</rscale>
<asrwt>0</asrwt>
<pdfrwt beam="1">  1        1 0.31400543E-01 0.13439264E+03</pdfrwt>
<pdfrwt beam="2">  1       -1 0.11593886E-01 0.13439264E+03</pdfrwt>
<totfact> 0.65682811E+03</totfact>
</mgrwt>
</event>
<event>
 6    1  0.5258538E-006  0.2958966E+03  0.7546771E-02  0.1088973E+00
         -1   -1    0    0    0  501 -0.00000000000E+00  0.00000000000E+00  0.68336801196E+02  0.68336801196E+02  0.00000000000E+00 0.  1.
          1   -1    0    0  501    0  0.00000000000E+00 -0.00000000000E+00 -0.12278786837E+04  0.12278786837E+04  0.00000000000E+00 0. -1.
          5    1    1    2  502    0 -0.12226260499E+03  0.20194221316E+03 -0.43132953834E+03  0.49172763059E+03  0.47000000000E+01 0.  1.
         -5    1    1    2    0  502  0.21764660828E+02  0.46709142193E+02 -0.18257357415E+03  0.18976470800E+03  0.47000000000E+01 0.  1.
        -11    1    1    2    0    0  0.34659691775E+02 -0.18523532956E+03 -0.32150053933E+03  0.37266072820E+03  0.00000000000E+00 0.  1.
         11    1    1    2    0    0  0.65838252392E+02 -0.63416025794E+02 -0.22413823065E+03  0.24206241808E+03  0.00000000000E+00 0. -1.
<mgrwt>
<rscale>  0 0.29265207E+03</rscale>
<asrwt>0</asrwt>
<pdfrwt beam="2">  1        1 0.18890441E+00 0.29589656E+03</pdfrwt>
<pdfrwt beam="1">  1       -1 0.10513354E-01 0.29589656E+03</pdfrwt>
<totfact> 0.61746296E+02</totfact>
</mgrwt>
</event>
<event>
 6    1  0.5258538E-006  0.1341167E+03  0.7546771E-02  0.1234073E+00
         -1   -1    0    0    0  501 -0.00000000000E+00  0.00000000000E+00  0.43512731327E+03  0.43512731327E+03  0.00000000000E+00 0.  1.
          1   -1    0    0  501    0  0.00000000000E+00 -0.00000000000E+00 -0.60225956996E+02  0.60225956996E+02  0.00000000000E+00 0. -1.
          5    1    1    2  502    0  0.41509897670E+02 -0.56616793735E+02  0.66670900151E+02  0.96931067591E+02  0.47000000000E+01 0.  1.
         -5    1    1    2    0  502 -0.18448206855E+02  0.13829602712E+02 -0.33772668031E+02  0.41161600470E+02  0.47000000000E+01 0.  1.
        -11    1    1    2    0    0  0.74837484108E+01  0.64888312691E+02  0.22903503182E+03  0.23816705359E+03  0.00000000000E+00 0. -1.
         11    1    1    2    0    0 -0.30545439227E+02 -0.22101121668E+02  0.11296809234E+03  0.11909354862E+03  0.00000000000E+00 0.  1.
<mgrwt>
<rscale>  0 0.12563991E+03</rscale>
<asrwt>0</asrwt>
<pdfrwt beam="2">  1        1 0.92655321E-02 0.13411671E+03</pdfrwt>
<pdfrwt beam="1">  1       -1 0.66942662E-01 0.13411671E+03</pdfrwt>
<totfact> 0.16275870E+03</totfact>
</mgrwt>
</event>
<event>
 6    1  0.5258538E-006  0.1521559E+03  0.7546771E-02  0.1207335E+00
         -1   -1    0    0    0  501 -0.00000000000E+00  0.00000000000E+00  0.41085344221E+03  0.41085344221E+03  0.00000000000E+00 0.  1.
          1   -1    0    0  501    0  0.00000000000E+00 -0.00000000000E+00 -0.47638425423E+02  0.47638425423E+02  0.00000000000E+00 0. -1.
          5    1    1    2  502    0  0.78668067427E+02  0.24138272520E+02  0.78445585596E+02  0.11378541617E+03  0.47000000000E+01 0.  1.
         -5    1    1    2    0  502 -0.42167453830E+02  0.54563301275E+02  0.84217271522E+02  0.10894901023E+03  0.47000000000E+01 0.  1.
        -11    1    1    2    0    0 -0.14753790903E+02 -0.17686676633E+02 -0.19817616891E+01  0.23117531350E+02  0.00000000000E+00 0. -1.
         11    1    1    2    0    0 -0.21746822695E+02 -0.61014897163E+02  0.20253392136E+03  0.21263990988E+03  0.00000000000E+00 0.  1.
<mgrwt>
<rscale>  0 0.14454961E+03</rscale>
<asrwt>0</asrwt>
<pdfrwt beam="2">  1        1 0.73289888E-02 0.15215591E+03</pdfrwt>
<pdfrwt beam="1">  1       -1 0.63208219E-01 0.15215591E+03</pdfrwt>
<totfact> 0.25047344E+03</totfact>
</mgrwt>
</event>
<event>
 6    1  0.5258538E-006  0.1390109E+03  0.7546771E-02  0.1225845E+00
          1   -1    0    0  501    0  0.00000000000E+00  0.00000000000E+00  0.54786122761E+03  0.54786122761E+03  0.00000000000E+00 0. -1.
         -1   -1    0    0    0  501 -0.00000000000E+00 -0.00000000000E+00 -0.29237935086E+02  0.29237935086E+02  0.00000000000E+00 0.  1.
          5    1    1    2  502    0 -0.16700367284E+02 -0.29228452688E+02  0.24661952316E+02  0.41994125851E+02  0.47000000000E+01 0. -1.
         -5    1    1    2    0  502 -0.21000105123E+02  0.76958842181E+02  0.31579983653E+03  0.32575342601E+03  0.47000000000E+01 0. -1.
        -11    1    1    2    0    0  0.14254413499E+02  0.26649518264E+02  0.34331584769E+02  0.45738854824E+02  0.00000000000E+00 0. -1.
         11    1    1    2    0    0  0.23446058907E+02 -0.74379907756E+02  0.14382991892E+03  0.16361275602E+03  0.00000000000E+00 0.  1.
<mgrwt>
<rscale>  0 0.13109151E+03</rscale>
<asrwt>0</asrwt>
<pdfrwt beam="1">  1        1 0.84286335E-01 0.13901091E+03</pdfrwt>
<pdfrwt beam="2">  1       -1 0.44981443E-02 0.13901091E+03</pdfrwt>
<totfact> 0.78937876E+03</totfact>
</mgrwt>
</event>
<event>
 6    1  0.5258538E-006  0.1989705E+03  0.7546771E-02  0.1154845E+00
          2   -1    0    0  501    0  0.00000000000E+00  0.00000000000E+00  0.70244715521E+03  0.70244715521E+03  0.00000000000E+00 0. -1.
         -2   -1    0    0    0  501 -0.00000000000E+00 -0.00000000000E+00 -0.51444656925E+02  0.51444656925E+02  0.00000000000E+00 0.  1.
          5    1    1    2  502    0 -0.12496857156E+03 -0.65948387792E+02  0.18469436090E+03  0.23259499281E+03  0.47000000000E+01 0.  1.
         -5    1    1    2    0  502 -0.21822569567E+02  0.16789055955E+02  0.18634659814E+03  0.18842834602E+03  0.47000000000E+01 0.  1.
        -11    1    1    2    0    0  0.23057561931E+01 -0.16966861677E+02  0.53859004743E+02  0.56515336845E+02  0.00000000000E+00 0.  1.
         11    1    1    2    0    0  0.14448538494E+03  0.66126193513E+02  0.22610253450E+03  0.27635313647E+03  0.00000000000E+00 0. -1.
<mgrwt>
<rscale>  0 0.19406539E+03</rscale>
<asrwt>0</asrwt>
<pdfrwt beam="1">  1        2 0.10806879E+00 0.19897050E+03</pdfrwt>
<pdfrwt beam="2">  1       -2 0.79145631E-02 0.19897050E+03</pdfrwt>
<totfact> 0.39651594E+03</totfact>
</mgrwt>
</event>
<event>
 6    1  0.5258538E-006  0.1345148E+03  0.7546771E-02  0.1233326E+00
          3   -1    0    0  501    0  0.00000000000E+00  0.00000000000E+00  0.54922790929E+02  0.54922790929E+02  0.00000000000E+00 0. -1.
         -3   -1    0    0    0  501 -0.00000000000E+00 -0.00000000000E+00 -0.31125648276E+03  0.31125648276E+03  0.00000000000E+00 0.  1.
          5    1    1    2  502    0  0.73761664008E+01 -0.87952148870E+02 -0.24087089393E+02  0.91609312829E+02  0.47000000000E+01 0.  1.
         -5    1    1    2    0  502  0.35661381784E+01  0.39474412878E+02 -0.43131919426E+02  0.58765628448E+02  0.47000000000E+01 0.  1.
        -11    1    1    2    0    0 -0.48146551144E+02  0.24635939207E+02 -0.68029306048E+02  0.86908033973E+02  0.00000000000E+00 0. -1.
         11    1    1    2    0    0  0.37204246565E+02  0.23841796785E+02 -0.12108537697E+03  0.12889629844E+03  0.00000000000E+00 0.  1.
<mgrwt>
<rscale>  0 0.12612216E+03</rscale>
<asrwt>0</asrwt>
<pdfrwt beam="1">  1        3 0.84496603E-02 0.13451479E+03</pdfrwt>
<pdfrwt beam="2">  1       -3 0.47885612E-01 0.13451479E+03</pdfrwt>
<totfact> 0.97863559E+02</totfact>
</mgrwt>
</event>
<event>
 6    1  0.5258538E-006  0.4328024E+03  0.7546771E-02  0.1081069E+00
          1   -1    0    0  501    0  0.00000000000E+00  0.00000000000E+00  0.10019021960E+04  0.10019021960E+04  0.00000000000E+00 0. -1.
         -1   -1    0    0    0  501 -0.00000000000E+00 -0.00000000000E+00 -0.74168321998E+02  0.74168321998E+02  0.00000000000E+00 0.  1.
          5    1    1    2  502    0 -0.21311974910E+03 -0.16013382330E+02  0.32781172623E+03  0.39135543145E+03  0.47000000000E+01 0. -1.
         -5    1    1    2    0  502  0.21081926703E+03 -0.48048015672E+02  0.43051095796E+03  0.48178330200E+03  0.47000000000E+01 0.  1.
        -11    1    1    2    0    0 -0.24408656256E+02  0.35162116072E+02  0.15535710384E+03  0.16114585511E+03  0.00000000000E+00 0.  1.
         11    1    1    2    0    0  0.26709138332E+02  0.28899281930E+02  0.14054085972E+02  0.41785929439E+02  0.00000000000E+00 0. -1.
<mgrwt>
<rscale>  0 0.30849572E+03</rscale>
<asrwt>0</asrwt>
<pdfrwt beam="1">  1        1 0.15413879E+00 0.43280244E+03</pdfrwt>
<pdfrwt beam="2">  1       -1 0.11410512E-01 0.43280244E+03</pdfrwt>
<totfact> 0.78616662E+02</totfact>
</mgrwt>
</event>
<event>
 6    1  0.5258538E-006  0.1481272E+03  0.7546771E-02  0.1212049E+00
         -1   -1    0    0    0  501 -0.00000000000E+00  0.00000000000E+00  0.38562829338E+02  0.38562829338E+02  0.00000000000E+00 0.  1.
          1   -1    0    0  501    0  0.00000000000E+00 -0.00000000000E+00 -0.53222660022E+03  0.53222660022E+03  0.00000000000E+00 0. -1.
          5    1    1    2  502    0  0.13882507217E+02 -0.90230267143E+02 -0.21582485682E+03  0.23438575882E+03  0.47000000000E+01 0. -1.
         -5    1    1    2    0  502  0.43743806529E+02  0.35504566921E+02 -0.14888117154E+03  0.15925384806E+03  0.47000000000E+01 0. -1.
        -11    1    1    2    0    0  0.28777205996E+01  0.33193976099E+02 -0.10234694700E+03  0.10763372559E+03  0.00000000000E+00 0. -1.
         11    1    1    2    0    0 -0.60504034346E+02  0.21531724123E+02 -0.26610795519E+02  0.69516097085E+02  0.00000000000E+00 0.  1.
<mgrwt>
<rscale>  0 0.14095556E+03</rscale>
<asrwt>0</asrwt>
<pdfrwt beam="2">  1        1 0.81881007E-01 0.14812715E+03</pdfrwt>
<pdfrwt beam="1">  1       -1 0.59327436E-02 0.14812715E+03</pdfrwt>
<totfact> 0.54603802E+03</totfact>
</mgrwt>
</event>
<event>
 6    1  0.5258538E-006  0.1421007E+03  0.7546771E-02  0.1216898E+00
         -1   -1    0    0    0  501 -0.00000000000E+00  0.00000000000E+00  0.27827547845E+02  0.27827547845E+02  0.00000000000E+00 0.  1.
          1   -1    0    0  501    0  0.00000000000E+00 -0.00000000000E+00 -0.71327293995E+03  0.71327293995E+03  0.00000000000E+00 0. -1.
          5    1    1    2  502    0  0.40061959509E+02  0.59396100140E+02 -0.16254531016E+03  0.17769615969E+03  0.47000000000E+01 0. -1.
         -5    1    1    2    0  502 -0.22631727352E+02 -0.53665882590E+02 -0.32188922866E+03  0.32714979377E+03  0.47000000000E+01 0.  1.
        -11    1    1    2    0    0 -0.68560758839E+02 -0.10308648254E+02 -0.14212418788E+03  0.15813326868E+03  0.00000000000E+00 0. -1.
         11    1    1    2    0    0  0.51130526682E+02  0.45784307033E+01 -0.58886665406E+02  0.78121265665E+02  0.00000000000E+00 0.  1.
<mgrwt>
<rscale>  0 0.13738063E+03</rscale>
<asrwt>0</asrwt>
<pdfrwt beam="2">  1        1 0.10973430E+00 0.14210072E+03</pdfrwt>
<pdfrwt beam="1">  1       -1 0.42811613E-02 0.14210072E+03</pdfrwt>
<totfact> 0.59041394E+03</totfact>
</mgrwt>
</event>
<event>
 6    1  0.5258538E-006  0.3348072E+03  0.7546771E-02  0.1069029E+00
         -1   -1    0    0    0  501 -0.00000000000E+00  0.00000000000E+00  0.24974761637E+02  0.24974761637E+02  0.00000000000E+00 0.  1.
          1   -1    0    0  501    0  0.00000000000E+00 -0.00000000000E+00 -0.11220912492E+04  0.11220912492E+04  0.00000000000E+00 0. -1.
          5    1    1    2  502    0  0.86668420885E+02 -0.10954453854E+03 -0.66642756954E+03  0.68092526502E+03  0.47000000000E+01 0. -1.
         -5    1    1    2    0  502  0.17504146307E+01  0.26758340835E+02 -0.57270227547E+02  0.63411684403E+02  0.47000000000E+01 0. -1.
        -11    1    1    2    0    0 -0.90195319316E+02  0.36625553765E+02 -0.18881012106E+03  0.21242854947E+03  0.00000000000E+00 0.  1.
         11    1    1    2    0    0  0.17764838004E+01  0.46160643938E+02 -0.18460856939E+03  0.19030051192E+03  0.00000000000E+00 0. -1.
<mgrwt>
<rscale>  0 0.33480718E+03</rscale>
<asrwt>0</asrwt>
<pdfrwt beam="2">  1        1 0.17262947E+00 0.33480718E+03</pdfrwt>
<pdfrwt beam="1">  1       -1 0.38422700E-02 0.33480718E+03</pdfrwt>
<totfact> 0.34046503E+03</totfact>
</mgrwt>
</event>
<event>
 6    1  0.5258538E-006  0.1514101E+03  0.7546771E-02  0.1208155E+00
         -1   -1    0    0    0  501 -0.00000000000E+00  0.00000000000E+00  0.27077271622E+03  0.27077271622E+03  0.00000000000E+00 0.  1.
          1   -1    0    0  501    0  0.00000000000E+00 -0.00000000000E+00 -0.28233334390E+03  0.28233334390E+03  0.00000000000E+00 0. -1.
          5    1    1    2  502    0  0.11115897580E+03  0.34149421244E+02 -0.21493752789E+03  0.24442326356E+03  0.47000000000E+01 0. -1.
         -5    1    1    2    0  502 -0.28222143769E+02 -0.13608950337E+02 -0.30615977863E+02  0.44058155076E+02  0.47000000000E+01 0. -1.
        -11    1    1    2    0    0 -0.44181567929E+01  0.20057401237E+02  0.81438760187E+01  0.22093939677E+02  0.00000000000E+00 0.  1.
         11    1    1    2    0    0 -0.78518675239E+02 -0.40597872144E+02  0.22584900206E+03  0.24253070180E+03  0.00000000000E+00 0. -1.
<mgrwt>
<rscale>  0 0.14391580E+03</rscale>
<asrwt>0</asrwt>
<pdfrwt beam="2">  1        1 0.43435899E-01 0.15141005E+03</pdfrwt>
<pdfrwt beam="1">  1       -1 0.41657341E-01 0.15141005E+03</pdfrwt>
<totfact> 0.54645242E+02</totfact>
</mgrwt>
</event>
<event>
 6    1  0.5258538E-006  0.1669050E+03  0.7546771E-02  0.1188070E+00
         -1   -1    0    0    0  501 -0.00000000000E+00  0.00000000000E+00  0.79176283744E+03  0.79176283744E+03  0.00000000000E+00 0.  1.
          1   -1    0    0  501    0  0.00000000000E+00 -0.00000000000E+00 -0.36855041054E+02  0.36855041054E+02  0.00000000000E+00 0. -1.
          5    1    1    2  502    0  0.13228776306E+03 -0.30469191696E+01  0.20052320220E+03  0.24029353007E+03  0.47000000000E+01 0.  1.
         -5    1    1    2    0  502 -0.23236640183E+02  0.21457389276E+02  0.26793498632E+02  0.41717413276E+02  0.47000000000E+01 0.  1.
        -11    1    1    2    0    0 -0.86212014596E+02 -0.51448902101E+02  0.32826429744E+03  0.34327387020E+03  0.00000000000E+00 0.  1.
         11    1    1    2    0    0 -0.22839108281E+02  0.33038431995E+02  0.19932679812E+03  0.20333306496E+03  0.00000000000E+00 0. -1.
<mgrwt>
<rscale>  0 0.16055619E+03</rscale>
<asrwt>0</asrwt>
<pdfrwt beam="2">  1        1 0.56700069E-02 0.16690503E+03</pdfrwt>
<pdfrwt beam="1">  1       -1 0.12180965E+00 0.16690503E+03</pdfrwt>
<totfact> 0.88315570E+02</totfact>
</mgrwt>
</event>
<event>
 6    1  0.5258538E-006  0.1278608E+03  0.7546771E-02  0.1245101E+00
          2   -1    0    0  501    0  0.00000000000E+00  0.00000000000E+00  0.16100204843E+03  0.16100204843E+03  0.00000000000E+00 0. -1.
         -2   -1    0    0    0  501 -0.00000000000E+00 -0.00000000000E+00 -0.78033477161E+02  0.78033477161E+02  0.00000000000E+00 0.  1.
          5    1    1    2  502    0 -0.32914778231E+02 -0.18272493052E+02  0.67882065022E+02  0.77764589499E+02  0.47000000000E+01 0. -1.
         -5    1    1    2    0  502  0.18291507586E+02  0.40833720576E+02 -0.31795587472E+02  0.55091028023E+02  0.47000000000E+01 0. -1.
        -11    1    1    2    0    0  0.49950312034E+02 -0.30089430161E+02  0.35678504801E+02  0.68362001028E+02  0.00000000000E+00 0.  1.
         11    1    1    2    0    0 -0.35327041389E+02  0.75282026360E+01  0.11203588917E+02  0.37817907039E+02  0.00000000000E+00 0. -1.
<mgrwt>
<rscale>  0 0.11879312E+03</rscale>
<asrwt>0</asrwt>
<pdfrwt beam="1">  1        2 0.24769546E-01 0.12786079E+03</pdfrwt>
<pdfrwt beam="2">  1       -2 0.12005150E-01 0.12786079E+03</pdfrwt>
<totfact> 0.10062987E+04</totfact>
</mgrwt>
</event>
<event>
 6    1  0.5258538E-006  0.1281701E+03  0.7546771E-02  0.1245392E+00
          1   -1    0    0  501    0  0.00000000000E+00  0.00000000000E+00  0.13406246875E+03  0.13406246875E+03  0.00000000000E+00 0. -1.
         -1   -1    0    0    0  501 -0.00000000000E+00 -0.00000000000E+00 -0.98230066542E+02  0.98230066542E+02  0.00000000000E+00 0.  1.
          5    1    1    2  502    0 -0.47568366979E+02 -0.37580186149E+02  0.29631774184E+02  0.67639869672E+02  0.47000000000E+01 0. -1.
         -5    1    1    2    0  502  0.29778272953E+02  0.59664552446E+02  0.19627120059E+02  0.69670066747E+02  0.47000000000E+01 0. -1.
        -11    1    1    2    0    0 -0.16595706930E+02 -0.33963921655E+02 -0.35972894443E+02  0.52182512370E+02  0.00000000000E+00 0. -1.
         11    1    1    2    0    0  0.34385800957E+02  0.11879555357E+02  0.22546402403E+02  0.42800086499E+02  0.00000000000E+00 0.  1.
<mgrwt>
<rscale>  0 0.11861930E+03</rscale>
<asrwt>0</asrwt>
<pdfrwt beam="1">  1        1 0.20624995E-01 0.12817012E+03</pdfrwt>
<pdfrwt beam="2">  1       -1 0.15112318E-01 0.12817012E+03</pdfrwt>
<totfact> 0.73464711E+03</totfact>
</mgrwt>
</event>
<event>
 6    1  0.5258538E-006  0.1357854E+03  0.7546771E-02  0.1231645E+00
         -2   -1    0    0    0  501 -0.00000000000E+00  0.00000000000E+00  0.15437900471E+03  0.15437900471E+03  0.00000000000E+00 0.  1.
          2   -1    0    0  501    0  0.00000000000E+00 -0.00000000000E+00 -0.10802865666E+03  0.10802865666E+03  0.00000000000E+00 0. -1.
          5    1    1    2  502    0 -0.20399089183E+02 -0.84721058864E+01  0.37332083694E+02  0.43631111498E+02  0.47000000000E+01 0.  1.
         -5    1    1    2    0  502  0.72761992370E+02  0.52850419522E-01 -0.59165059506E+02  0.93898373752E+02  0.47000000000E+01 0.  1.
        -11    1    1    2    0    0 -0.70355926787E+02 -0.29923201688E+01  0.21607150957E+02  0.73659889944E+02  0.00000000000E+00 0. -1.
         11    1    1    2    0    0  0.17993023600E+02  0.11411575636E+02  0.46576172907E+02  0.51218286182E+02  0.00000000000E+00 0.  1.
<mgrwt>
<rscale>  0 0.12721689E+03</rscale>
<asrwt>0</asrwt>
<pdfrwt beam="2">  1        2 0.16619793E-01 0.13578542E+03</pdfrwt>
<pdfrwt beam="1">  1       -2 0.23750616E-01 0.13578542E+03</pdfrwt>
<totfact> 0.51156504E+03</totfact>
</mgrwt>
</event>
<event>
 6    1  0.5258538E-006  0.2223332E+03  0.7546771E-02  0.1142412E+00
          1   -1    0    0  501    0  0.00000000000E+00  0.00000000000E+00  0.90144487556E+02  0.90144487556E+02  0.00000000000E+00 0. -1.
         -1   -1    0    0    0  501 -0.00000000000E+00 -0.00000000000E+00 -0.45429350064E+03  0.45429350064E+03  0.00000000000E+00 0.  1.
          5    1    1    2  502    0  0.14496426562E+02  0.16862671154E+03 -0.16521234146E+03  0.23656356862E+03  0.47000000000E+01 0. -1.
         -5    1    1    2    0  502  0.81068752084E+01 -0.21748523924E+02  0.18295821369E+02  0.29925687930E+02  0.47000000000E+01 0.  1.
        -11    1    1    2    0    0 -0.19540251712E+02 -0.12293308512E+03 -0.10409836494E+03  0.16226778619E+03  0.00000000000E+00 0.  1.
         11    1    1    2    0    0 -0.30630500592E+01 -0.23945102498E+02 -0.11313412806E+03  0.11568094545E+03  0.00000000000E+00 0. -1.
<mgrwt>
<rscale>  0 0.20893534E+03</rscale>
<asrwt>0</asrwt>
<pdfrwt beam="1">  1        1 0.13868383E-01 0.22233322E+03</pdfrwt>
<pdfrwt beam="2">  1       -1 0.69891307E-01 0.22233322E+03</pdfrwt>
<totfact> 0.88729303E+02</totfact>
</mgrwt>
</event>
<event>
 6    1  0.5258538E-006  0.2691482E+03  0.7546771E-02  0.1101768E+00
          2   -1    0    0  501    0  0.00000000000E+00  0.00000000000E+00  0.12076634377E+04  0.12076634377E+04  0.00000000000E+00 0. -1.
         -2   -1    0    0    0  501 -0.00000000000E+00 -0.00000000000E+00 -0.14996057845E+02  0.14996057845E+02  0.00000000000E+00 0.  1.
          5    1    1    2  502    0  0.29092820479E+02 -0.28580625933E+02  0.23575635520E+03  0.23930397699E+03  0.47000000000E+01 0.  1.
         -5    1    1    2    0  502 -0.29410757866E+02  0.96809843090E+02  0.62314215033E+03  0.63132033700E+03  0.47000000000E+01 0.  1.
        -11    1    1    2    0    0  0.37757047933E+02 -0.39396733956E+02  0.10388492018E+03  0.11734468014E+03  0.00000000000E+00 0.  1.
         11    1    1    2    0    0 -0.37439110546E+02 -0.28832483201E+02  0.22988395418E+03  0.23469050146E+03  0.00000000000E+00 0. -1.
<mgrwt>
<rscale>  0 0.26914822E+03</rscale>
<asrwt>0</asrwt>
<pdfrwt beam="1">  1        2 0.18579430E+00 0.26914822E+03</pdfrwt>
<pdfrwt beam="2">  1       -2 0.23070868E-02 0.26914822E+03</pdfrwt>
<totfact> 0.12356917E+04</totfact>
</mgrwt>
</event>
<event>
 6    1  0.5258538E-006  0.3366043E+03  0.7546771E-02  0.1068251E+00
         -2   -1    0    0    0  501 -0.00000000000E+00  0.00000000000E+00  0.29230471103E+02  0.29230471103E+02  0.00000000000E+00 0.  1.
          2   -1    0    0  501    0  0.00000000000E+00 -0.00000000000E+00 -0.96904429754E+03  0.96904429754E+03  0.00000000000E+00 0. -1.
          5    1    1    2  502    0  0.78877340982E+01 -0.16859704940E+02 -0.87374104964E+03  0.87395193107E+03  0.47000000000E+01 0. -1.
         -5    1    1    2    0  502 -0.77793360291E+01  0.61788615179E+00 -0.54948572720E+00  0.91264334170E+01  0.47000000000E+01 0.  1.
        -11    1    1    2    0    0  0.37256862816E+02 -0.11775281266E+02 -0.54757777441E+02  0.67269199981E+02  0.00000000000E+00 0.  1.
         11    1    1    2    0    0 -0.37365260885E+02  0.28017100054E+02 -0.10765513633E+02  0.47927204177E+02  0.00000000000E+00 0. -1.
<mgrwt>
<rscale>  0 0.33660435E+03</rscale>
<asrwt>0</asrwt>
<pdfrwt beam="2">  1        2 0.14908375E+00 0.33660435E+03</pdfrwt>
<pdfrwt beam="1">  1       -2 0.44969953E-02 0.33660435E+03</pdfrwt>
<totfact> 0.63392547E+03</totfact>
</mgrwt>
</event>
<event>
 6    1  0.5258538E-006  0.1254567E+03  0.7546771E-02  0.1247668E+00
          2   -1    0    0  501    0  0.00000000000E+00  0.00000000000E+00  0.75158428585E+03  0.75158428585E+03  0.00000000000E+00 0. -1.
         -2   -1    0    0    0  501 -0.00000000000E+00 -0.00000000000E+00 -0.18378332924E+02  0.18378332924E+02  0.00000000000E+00 0.  1.
          5    1    1    2  502    0 -0.48814756908E+02 -0.36411215198E+02  0.16496012245E+03  0.17590505701E+03  0.47000000000E+01 0.  1.
         -5    1    1    2    0  502  0.38724149455E+02  0.32844791053E+02  0.37421208890E+03  0.37767064690E+03  0.47000000000E+01 0.  1.
        -11    1    1    2    0    0 -0.36620982521E+02 -0.14265725595E+02  0.12579126951E+03  0.13178790070E+03  0.00000000000E+00 0. -1.
         11    1    1    2    0    0  0.46711589974E+02  0.17832149740E+02  0.68242472070E+02  0.84599014158E+02  0.00000000000E+00 0.  1.
<mgrwt>
<rscale>  0 0.11727123E+03</rscale>
<asrwt>0</asrwt>
<pdfrwt beam="1">  1        2 0.11562833E+00 0.12545671E+03</pdfrwt>
<pdfrwt beam="2">  1       -2 0.28274364E-02 0.12545671E+03</pdfrwt>
<totfact> 0.16783365E+04</totfact>
</mgrwt>
</event>
<event>
 6    1  0.5258538E-006  0.1705446E+03  0.7546771E-02  0.1183336E+00
          2   -1    0    0  501    0  0.00000000000E+00  0.00000000000E+00  0.20744220318E+03  0.20744220318E+03  0.00000000000E+00 0. -1.
         -2   -1    0    0    0  501 -0.00000000000E+00 -0.00000000000E+00 -0.12393350696E+03  0.12393350696E+03  0.00000000000E+00 0.  1.
          5    1    1    2  502    0  0.73019238395E+02 -0.40318656963E+02  0.95760504601E+02  0.12708094868E+03  0.47000000000E+01 0.  1.
         -5    1    1    2    0  502  0.14226191686E+02 -0.36210941586E+02 -0.36413743372E+02  0.53494556047E+02  0.47000000000E+01 0.  1.
        -11    1    1    2    0    0 -0.41655073359E+02  0.19889933655E+01 -0.26872489157E+02  0.49610804313E+02  0.00000000000E+00 0.  1.
         11    1    1    2    0    0 -0.45590356722E+02  0.74540605183E+02  0.51034424141E+02  0.10118940110E+03  0.00000000000E+00 0. -1.
<mgrwt>
<rscale>  0 0.16484174E+03</rscale>
<asrwt>0</asrwt>
<pdfrwt beam="1">  1        2 0.31914185E-01 0.17054464E+03</pdfrwt>
<pdfrwt beam="2">  1       -2 0.19066693E-01 0.17054464E+03</pdfrwt>
<totfact> 0.36395852E+03</totfact>
</mgrwt>
</event>
<event>
 6    1  0.5258538E-006  0.1502177E+03  0.7546771E-02  0.1209592E+00
         -2   -1    0    0    0  501 -0.00000000000E+00  0.00000000000E+00  0.30182573220E+02  0.30182573220E+02  0.00000000000E+00 0.  1.
          2   -1    0    0  501    0  0.00000000000E+00 -0.00000000000E+00 -0.67686926185E+03  0.67686926185E+03  0.00000000000E+00 0. -1.
          5    1    1    2  502    0  0.33671210353E+02  0.15891703401E+02 -0.56510927390E+02  0.67837095737E+02  0.47000000000E+01 0.  1.
         -5    1    1    2    0  502 -0.24232888132E+02 -0.98682062953E+02 -0.40114710501E+03  0.41384353598E+03  0.47000000000E+01 0.  1.
        -11    1    1    2    0    0  0.13613884532E+02  0.28995879265E+02 -0.52014557048E+01  0.32452334397E+02  0.00000000000E+00 0.  1.
         11    1    1    2    0    0 -0.23052206753E+02  0.53794480288E+02 -0.18382720053E+03  0.19291886896E+03  0.00000000000E+00 0. -1.
<mgrwt>
<rscale>  0 0.14281381E+03</rscale>
<asrwt>0</asrwt>
<pdfrwt beam="2">  1        2 0.10413373E+00 0.15021770E+03</pdfrwt>
<pdfrwt beam="1">  1       -2 0.46434730E-02 0.15021770E+03</pdfrwt>
<totfact> 0.92362727E+03</totfact>
</mgrwt>
</event>
<event>
 6    1  0.5258538E-006  0.2485089E+03  0.7546771E-02  0.1114251E+00
          1   -1    0    0  501    0  0.00000000000E+00  0.00000000000E+00  0.24664534991E+03  0.24664534991E+03  0.00000000000E+00 0. -1.
         -1   -1    0    0    0  501 -0.00000000000E+00 -0.00000000000E+00 -0.62596644567E+02  0.62596644567E+02  0.00000000000E+00 0.  1.
          5    1    1    2  502    0  0.28803795719E+02 -0.67093693252E+02  0.10073048945E+02  0.73856473224E+02  0.47000000000E+01 0. -1.
         -5    1    1    2    0  502 -0.21473167312E+02  0.12090157195E+02  0.95991447178E+02  0.99215506584E+02  0.47000000000E+01 0. -1.
        -11    1    1    2    0    0 -0.41431014947E+02  0.36691603106E+02  0.76229047182E+01  0.55865118047E+02  0.00000000000E+00 0.  1.
         11    1    1    2    0    0  0.34100386540E+02  0.18311932951E+02  0.70361304506E+02  0.80304896627E+02  0.00000000000E+00 0. -1.
<mgrwt>
<rscale>  0 0.24850892E+03</rscale>
<asrwt>0</asrwt>
<pdfrwt beam="1">  1        1 0.37945438E-01 0.24850892E+03</pdfrwt>
<pdfrwt beam="2">  1       -1 0.96302532E-02 0.24850892E+03</pdfrwt>
<totfact> 0.71641229E+03</totfact>
</mgrwt>
</event>
<event>
 6    1  0.5258538E-006  0.1687448E+03  0.7546771E-02  0.1186256E+00
          2   -1    0    0  501    0  0.00000000000E+00  0.00000000000E+00  0.95268573384E+02  0.95268573384E+02  0.00000000000E+00 0. -1.
         -2   -1    0    0    0  501 -0.00000000000E+00 -0.00000000000E+00 -0.27047378143E+03  0.27047378143E+03  0.00000000000E+00 0.  1.
          5    1    1    2  502    0  0.39817587633E+02 -0.28949985569E+02 -0.52677625506E+02  0.72253471739E+02  0.47000000000E+01 0.  1.
         -5    1    1    2    0  502 -0.65428999500E+02 -0.81478373559E+02 -0.27035375733E+00  0.10460326202E+03  0.47000000000E+01 0.  1.
        -11    1    1    2    0    0 -0.22465717258E+01  0.16463236583E+02  0.13526840289E+02  0.21425700724E+02  0.00000000000E+00 0. -1.
         11    1    1    2    0    0  0.27857983593E+02  0.93965122546E+02 -0.13578406907E+03  0.16745992033E+03  0.00000000000E+00 0.  1.
<mgrwt>
<rscale>  0 0.16218110E+03</rscale>
<asrwt>0</asrwt>
<pdfrwt beam="1">  1        2 0.14656704E-01 0.16874482E+03</pdfrwt>
<pdfrwt beam="2">  1       -2 0.41611351E-01 0.16874482E+03</pdfrwt>
<totfact> 0.21624684E+03</totfact>
</mgrwt>
</event>
<event>
 6    1  0.5258538E-006  0.1312481E+03  0.7546771E-02  0.1238472E+00
          3   -1    0    0  501    0  0.00000000000E+00  0.00000000000E+00  0.27489127727E+03  0.27489127727E+03  0.00000000000E+00 0. -1.
         -3   -1    0    0    0  501 -0.00000000000E+00 -0.00000000000E+00 -0.49841737779E+02  0.49841737779E+02  0.00000000000E+00 0.  1.
          5    1    1    2  502    0 -0.71762118870E+02 -0.39137296958E+02  0.77642987277E+02  0.11283640012E+03  0.47000000000E+01 0. -1.
         -5    1    1    2    0  502  0.47235567861E+02  0.75198451365E+01  0.27805363910E+02  0.55524545961E+02  0.47000000000E+01 0. -1.
        -11    1    1    2    0    0  0.52584674073E+02  0.22266779050E+02  0.11218282031E+03  0.12588066797E+03  0.00000000000E+00 0. -1.
         11    1    1    2    0    0 -0.28058123064E+02  0.93506727708E+01  0.74183679925E+01  0.30491400998E+02  0.00000000000E+00 0.  1.
<mgrwt>
<rscale>  0 0.12284742E+03</rscale>
<asrwt>0</asrwt>
<pdfrwt beam="1">  1        3 0.42290965E-01 0.13124806E+03</pdfrwt>
<pdfrwt beam="2">  1       -3 0.76679598E-02 0.13124806E+03</pdfrwt>
<totfact> 0.14568742E+03</totfact>
</mgrwt>
</event>
<event>
 6    1  0.5258538E-006  0.1541756E+03  0.7546771E-02  0.1204009E+00
         -2   -1    0    0    0  501 -0.00000000000E+00  0.00000000000E+00  0.52958620693E+03  0.52958620693E+03  0.00000000000E+00 0. -1.
          2   -1    0    0  501    0  0.00000000000E+00 -0.00000000000E+00 -0.45289832597E+02  0.45289832597E+02  0.00000000000E+00 0.  1.
          5    1    1    2  502    0  0.92387380126E+02 -0.20537431712E+02  0.53095415897E+02  0.10862056572E+03  0.47000000000E+01 0. -1.
         -5    1    1    2    0  502 -0.25435835786E+02 -0.39984077809E+02  0.89535318182E+02  0.10141188995E+03  0.47000000000E+01 0. -1.
        -11    1    1    2    0    0 -0.58960465996E+02 -0.67582915969E+01  0.13853008981E+03  0.15070699002E+03  0.00000000000E+00 0.  1.
         11    1    1    2    0    0 -0.79910783438E+01  0.67279801118E+02  0.20313555044E+03  0.21413659385E+03  0.00000000000E+00 0. -1.
<mgrwt>
<rscale>  0 0.14715864E+03</rscale>
<asrwt>0</asrwt>
<pdfrwt beam="2">  1        2 0.69676669E-02 0.15417557E+03</pdfrwt>
<pdfrwt beam="1">  1       -2 0.81474797E-01 0.15417557E+03</pdfrwt>
<totfact> 0.13551913E+03</totfact>
</mgrwt>
</event>
<event>
 6    1  0.5258538E-006  0.2115774E+03  0.7546771E-02  0.1144074E+00
          2   -1    0    0  501    0  0.00000000000E+00  0.00000000000E+00  0.27016430755E+03  0.27016430755E+03  0.00000000000E+00 0. -1.
         -2   -1    0    0    0  501 -0.00000000000E+00 -0.00000000000E+00 -0.15431339010E+03  0.15431339010E+03  0.00000000000E+00 0.  1.
          5    1    1    2  502    0 -0.37490476919E+02 -0.35598555883E+00  0.87996012845E+02  0.95765603752E+02  0.47000000000E+01 0.  1.
         -5    1    1    2    0  502 -0.13306603558E+03  0.75816189404E+01 -0.43209692678E-01  0.13336469787E+03  0.47000000000E+01 0.  1.
        -11    1    1    2    0    0  0.15975832197E+02  0.14118458863E+02  0.32918105830E+02  0.39219380241E+02  0.00000000000E+00 0. -1.
         11    1    1    2    0    0  0.15458068031E+03 -0.21344092244E+02 -0.50199915353E+01  0.15612801578E+03  0.00000000000E+00 0.  1.
<mgrwt>
<rscale>  0 0.20686414E+03</rscale>
<asrwt>0</asrwt>
<pdfrwt beam="1">  1        2 0.41563740E-01 0.21157741E+03</pdfrwt>
<pdfrwt beam="2">  1       -2 0.23740522E-01 0.21157741E+03</pdfrwt>
<totfact> 0.18925169E+03</totfact>
</mgrwt>
</event>
<event>
 6    1  0.5258538E-006  0.2422929E+03  0.7546771E-02  0.1121046E+00
         -2   -1    0    0    0  501 -0.00000000000E+00  0.00000000000E+00  0.55186435987E+02  0.55186435987E+02  0.00000000000E+00 0.  1.
          2   -1    0    0  501    0  0.00000000000E+00 -0.00000000000E+00 -0.11674223085E+04  0.11674223085E+04  0.00000000000E+00 0. -1.
          5    1    1    2  502    0 -0.16267470786E+03  0.12318116616E+03 -0.25071399361E+03  0.32328974135E+03  0.47000000000E+01 0. -1.
         -5    1    1    2    0  502 -0.19613875961E+02 -0.23955175145E+02 -0.86110526829E+02  0.91627874456E+02  0.47000000000E+01 0. -1.
        -11    1    1    2    0    0  0.17234042287E+03 -0.61629221578E+02 -0.57112650824E+03  0.59973733477E+03  0.00000000000E+00 0.  1.
         11    1    1    2    0    0  0.99481609565E+01 -0.37596769435E+02 -0.20428484386E+03  0.20795379393E+03  0.00000000000E+00 0. -1.
<mgrwt>
<rscale>  0 0.23812803E+03</rscale>
<asrwt>0</asrwt>
<pdfrwt beam="2">  1        2 0.17960344E+00 0.24229294E+03</pdfrwt>
<pdfrwt beam="1">  1       -2 0.84902206E-02 0.24229294E+03</pdfrwt>
<totfact> 0.17961318E+03</totfact>
</mgrwt>
</event>
<event>
 6    1  0.5258538E-006  0.1708796E+03  0.7546771E-02  0.1183626E+00
         -2   -1    0    0    0  501 -0.00000000000E+00  0.00000000000E+00  0.38625718879E+02  0.38625718879E+02  0.00000000000E+00 0.  1.
          2   -1    0    0  501    0  0.00000000000E+00 -0.00000000000E+00 -0.65930887907E+03  0.65930887907E+03  0.00000000000E+00 0. -1.
          5    1    1    2  502    0  0.78181450331E+02  0.36549654292E+02 -0.28304155142E+03  0.29594395793E+03  0.47000000000E+01 0.  1.
         -5    1    1    2    0  502 -0.21394043360E+02  0.65177421361E+02 -0.81290336190E+02  0.10647070069E+03  0.47000000000E+01 0.  1.
        -11    1    1    2    0    0 -0.13246087631E+02 -0.50781293399E+02 -0.20353453156E+03  0.21019158911E+03  0.00000000000E+00 0. -1.
         11    1    1    2    0    0 -0.43541319340E+02 -0.50945782254E+02 -0.52816741023E+02  0.85328350222E+02  0.00000000000E+00 0.  1.
<mgrwt>
<rscale>  0 0.16457532E+03</rscale>
<asrwt>0</asrwt>
<pdfrwt beam="2">  1        2 0.10143214E+00 0.17087959E+03</pdfrwt>
<pdfrwt beam="1">  1       -2 0.59424183E-02 0.17087959E+03</pdfrwt>
<totfact> 0.66078191E+03</totfact>
</mgrwt>
</event>
<event>
 6    1  0.5258538E-006  0.1354326E+03  0.7546771E-02  0.1231451E+00
         -2   -1    0    0    0  501 -0.00000000000E+00  0.00000000000E+00  0.17658964217E+02  0.17658964217E+02  0.00000000000E+00 0.  1.
          2   -1    0    0  501    0  0.00000000000E+00 -0.00000000000E+00 -0.10991783062E+04  0.10991783062E+04  0.00000000000E+00 0. -1.
          5    1    1    2  502    0  0.83585932772E+01 -0.55854995626E+02 -0.37110269210E+03  0.37540504085E+03  0.47000000000E+01 0. -1.
         -5    1    1    2    0  502 -0.60196383361E+02  0.50538078303E+02 -0.49704240998E+03  0.50324044874E+03  0.47000000000E+01 0. -1.
        -11    1    1    2    0    0 -0.12094452162E+02 -0.16715492061E+02 -0.82703169144E+01  0.22227946145E+02  0.00000000000E+00 0.  1.
         11    1    1    2    0    0  0.63932242246E+02  0.22032409383E+02 -0.20510392298E+03  0.21596383466E+03  0.00000000000E+00 0. -1.
<mgrwt>
<rscale>  0 0.12734366E+03</rscale>
<asrwt>0</asrwt>
<pdfrwt beam="2">  1        2 0.16910441E+00 0.13543256E+03</pdfrwt>
<pdfrwt beam="1">  1       -2 0.27167629E-02 0.13543256E+03</pdfrwt>
<totfact> 0.10841518E+04</totfact>
</mgrwt>
</event>
<event>
 6    1  0.5258538E-006  0.2056117E+03  0.7546771E-02  0.1162607E+00
          2   -1    0    0  501    0  0.00000000000E+00  0.00000000000E+00  0.10199352697E+04  0.10199352697E+04  0.00000000000E+00 0. -1.
         -2   -1    0    0    0  501 -0.00000000000E+00 -0.00000000000E+00 -0.28873609661E+02  0.28873609661E+02  0.00000000000E+00 0.  1.
          5    1    1    2  502    0 -0.16163065451E+02 -0.28305408280E+02  0.47169755682E+03  0.47284576336E+03  0.47000000000E+01 0. -1.
         -5    1    1    2    0  502 -0.71765128685E+02  0.79788863609E+02  0.17099241676E+03  0.20193314003E+03  0.47000000000E+01 0.  1.
        -11    1    1    2    0    0 -0.17640504014E+02 -0.77430012076E+01  0.81060705333E+02  0.83318541745E+02  0.00000000000E+00 0.  1.
         11    1    1    2    0    0  0.10556869815E+03 -0.43740454121E+02  0.26731098108E+03  0.29071143418E+03  0.00000000000E+00 0. -1.
<mgrwt>
<rscale>  0 0.18547554E+03</rscale>
<asrwt>0</asrwt>
<pdfrwt beam="1">  1        2 0.15691309E+00 0.20561169E+03</pdfrwt>
<pdfrwt beam="2">  1       -2 0.44420946E-02 0.20561169E+03</pdfrwt>
<totfact> 0.59196188E+03</totfact>
</mgrwt>
</event>
<event>
 6    1  0.5258538E-006  0.1447113E+03  0.7546771E-02  0.1217079E+00
          1   -1    0    0  501    0  0.00000000000E+00  0.00000000000E+00  0.34660032746E+03  0.34660032746E+03  0.00000000000E+00 0. -1.
         -1   -1    0    0    0  501 -0.00000000000E+00 -0.00000000000E+00 -0.50123961053E+02  0.50123961053E+02  0.00000000000E+00 0.  1.
          5    1    1    2  502    0  0.28524711584E+02 -0.59776621483E+02  0.18387495949E+03  0.19549678865E+03  0.47000000000E+01 0. -1.
         -5    1    1    2    0  502 -0.38399584830E+02 -0.12474965441E+02  0.28612625745E+01  0.40748370537E+02  0.47000000000E+01 0. -1.
        -11    1    1    2    0    0  0.10174373256E+02  0.39509759148E+02  0.11953215493E+03  0.12630310764E+03  0.00000000000E+00 0. -1.
         11    1    1    2    0    0 -0.29950001014E+00  0.32741827776E+02 -0.97920105849E+01  0.34176021677E+02  0.00000000000E+00 0.  1.
<mgrwt>
<rscale>  0 0.13724897E+03</rscale>
<asrwt>0</asrwt>
<pdfrwt beam="1">  1        1 0.53323126E-01 0.14471129E+03</pdfrwt>
<pdfrwt beam="2">  1       -1 0.77113789E-02 0.14471129E+03</pdfrwt>
<totfact> 0.63692841E+03</totfact>
</mgrwt>
</event>
<event>
 6    1  0.5258538E-006  0.1355626E+03  0.7546771E-02  0.1230217E+00
          2   -1    0    0  501    0  0.00000000000E+00  0.00000000000E+00  0.13059856410E+03  0.13059856410E+03  0.00000000000E+00 0. -1.
         -2   -1    0    0    0  501 -0.00000000000E+00 -0.00000000000E+00 -0.12498325470E+03  0.12498325470E+03  0.00000000000E+00 0.  1.
          5    1    1    2  502    0 -0.85446507666E+02 -0.62796194175E+01  0.47767286005E+02  0.98205615443E+02  0.47000000000E+01 0. -1.
         -5    1    1    2    0  502  0.35798525654E+02  0.23207508965E+02 -0.67002230765E+01  0.43440832182E+02  0.47000000000E+01 0. -1.
        -11    1    1    2    0    0  0.62180566024E+02  0.17086666734E+02 -0.42195038724E+02  0.77063598826E+02  0.00000000000E+00 0.  1.
         11    1    1    2    0    0 -0.12532584012E+02 -0.34014556281E+02  0.67432851894E+01  0.36871772349E+02  0.00000000000E+00 0. -1.
<mgrwt>
<rscale>  0 0.12815672E+03</rscale>
<asrwt>0</asrwt>
<pdfrwt beam="1">  1        2 0.20092087E-01 0.13556258E+03</pdfrwt>
<pdfrwt beam="2">  1       -2 0.19228193E-01 0.13556258E+03</pdfrwt>
<totfact> 0.59063562E+03</totfact>
</mgrwt>
</event>
<event>
 6    1  0.5258538E-006  0.1467470E+03  0.7546771E-02  0.1204934E+00
         -1   -1    0    0    0  501 -0.00000000000E+00  0.00000000000E+00  0.67191442722E+02  0.67191442722E+02  0.00000000000E+00 0.  1.
          1   -1    0    0  501    0  0.00000000000E+00 -0.00000000000E+00 -0.31821651317E+03  0.31821651317E+03  0.00000000000E+00 0. -1.
          5    1    1    2  502    0  0.70480852336E+02  0.60373584280E+02 -0.14067069125E+03  0.16859078742E+03  0.47000000000E+01 0.  1.
         -5    1    1    2    0  502 -0.39545698873E+00 -0.28752021987E+02  0.69387756781E+01  0.29951156279E+02  0.47000000000E+01 0.  1.
        -11    1    1    2    0    0 -0.79813933464E+02 -0.55077776046E+02 -0.12690470398E+03  0.15971421127E+03  0.00000000000E+00 0. -1.
         11    1    1    2    0    0  0.97285381168E+01  0.23456213753E+02  0.96115491021E+01  0.27151800928E+02  0.00000000000E+00 0.  1.
<mgrwt>
<rscale>  0 0.14642643E+03</rscale>
<asrwt>0</asrwt>
<pdfrwt beam="2">  1        1 0.48956388E-01 0.14674699E+03</pdfrwt>
<pdfrwt beam="1">  1       -1 0.10337145E-01 0.14674699E+03</pdfrwt>
<totfact> 0.45420862E+03</totfact>
</mgrwt>
</event>
<event>
 6    1  0.5258538E-006  0.2615254E+03  0.7546771E-02  0.1108451E+00
         -2   -1    0    0    0  501 -0.00000000000E+00  0.00000000000E+00  0.37352891435E+03  0.37352891435E+03  0.00000000000E+00 0.  1.
          2   -1    0    0  501    0  0.00000000000E+00 -0.00000000000E+00 -0.17402331614E+03  0.17402331614E+03  0.00000000000E+00 0. -1.
          5    1    1    2  502    0  0.18195056381E+02  0.11730846199E+03  0.75060584864E+02  0.14052941590E+03  0.47000000000E+01 0.  1.
         -5    1    1    2    0  502 -0.85910921144E+02  0.10220022393E+03  0.78572593421E+01  0.13382600146E+03  0.47000000000E+01 0.  1.
        -11    1    1    2    0    0  0.58519300477E+02 -0.54445404157E+02  0.53830029412E+02  0.96366397819E+02  0.00000000000E+00 0.  1.
         11    1    1    2    0    0  0.91965642863E+01 -0.16506328177E+03  0.62757724598E+02  0.17683041531E+03  0.00000000000E+00 0. -1.
<mgrwt>
<rscale>  0 0.25783423E+03</rscale>
<asrwt>0</asrwt>
<pdfrwt beam="2">  1        2 0.26772818E-01 0.26152538E+03</pdfrwt>
<pdfrwt beam="1">  1       -2 0.57465987E-01 0.26152538E+03</pdfrwt>
<totfact> 0.57726053E+02</totfact>
</mgrwt>
</event>
<event>
 6    1  0.5258538E-006  0.1251505E+03  0.7546771E-02  0.1250690E+00
         -1   -1    0    0    0  501 -0.00000000000E+00  0.00000000000E+00  0.68982683035E+02  0.68982683035E+02  0.00000000000E+00 0.  1.
          1   -1    0    0  501    0  0.00000000000E+00 -0.00000000000E+00 -0.18261031300E+03  0.18261031300E+03  0.00000000000E+00 0. -1.
          5    1    1    2  502    0 -0.35787600020E+02 -0.23584229697E+02 -0.10587484833E+03  0.11431772266E+03  0.47000000000E+01 0.  1.
         -5    1    1    2    0  502  0.40140797267E+02  0.19259317870E+02  0.68249693043E+01  0.45286588920E+02  0.47000000000E+01 0.  1.
        -11    1    1    2    0    0 -0.30004267564E+02 -0.61465006648E+01  0.27796632711E+02  0.41360468234E+02  0.00000000000E+00 0.  1.
         11    1    1    2    0    0  0.25651070317E+02  0.10471412492E+02 -0.42374383652E+02  0.50628216222E+02  0.00000000000E+00 0. -1.
<mgrwt>
<rscale>  0 0.11551208E+03</rscale>
<asrwt>0</asrwt>
<pdfrwt beam="2">  1        1 0.28093894E-01 0.12515054E+03</pdfrwt>
<pdfrwt beam="1">  1       -1 0.10612721E-01 0.12515054E+03</pdfrwt>
<totfact> 0.85928551E+03</totfact>
</mgrwt>
</event>
<event>
 6    1  0.5258538E-006  0.1407645E+03  0.7546771E-02  0.1223247E+00
          2   -1    0    0  501    0  0.00000000000E+00  0.00000000000E+00  0.95976206216E+03  0.95976206216E+03  0.00000000000E+00 0. -1.
         -2   -1    0    0    0  501 -0.00000000000E+00 -0.00000000000E+00 -0.33135992761E+02  0.33135992761E+02  0.00000000000E+00 0.  1.
          5    1    1    2  502    0 -0.59965743301E+02  0.25824434730E+01  0.72360571728E+03  0.72610597261E+03  0.47000000000E+01 0.  1.
         -5    1    1    2    0  502  0.15333016081E+02  0.44308185108E+02  0.11579161997E+03  0.12501242301E+03  0.47000000000E+01 0.  1.
        -11    1    1    2    0    0  0.41773210815E+02 -0.62745162740E+02  0.28019746309E+02  0.80418050040E+02  0.00000000000E+00 0.  1.
         11    1    1    2    0    0  0.28595164044E+01  0.15854534159E+02  0.59208985840E+02  0.61361609266E+02  0.00000000000E+00 0. -1.
<mgrwt>
<rscale>  0 0.13287750E+03</rscale>
<asrwt>0</asrwt>
<pdfrwt beam="1">  1        2 0.14765568E+00 0.14076446E+03</pdfrwt>
<pdfrwt beam="2">  1       -2 0.50978458E-02 0.14076446E+03</pdfrwt>
<totfact> 0.51617826E+03</totfact>
</mgrwt>
</event>
<event>
 6    1  0.5258538E-006  0.2057273E+03  0.7546771E-02  0.1148317E+00
         -4   -1    0    0    0  501 -0.00000000000E+00  0.00000000000E+00  0.39344698068E+03  0.39344698068E+03  0.00000000000E+00 0.  1.
          4   -1    0    0  501    0  0.00000000000E+00 -0.00000000000E+00 -0.16579255682E+03  0.16579255682E+03  0.00000000000E+00 0. -1.
          5    1    1    2  502    0  0.37268306629E+02  0.97873613347E+02 -0.79730719802E+02  0.13170895394E+03  0.47000000000E+01 0. -1.
         -5    1    1    2    0  502  0.76238510620E+02  0.24698750697E+02  0.19581826301E+02  0.82630967009E+02  0.47000000000E+01 0.  1.
        -11    1    1    2    0    0 -0.35123091511E+02 -0.19390315319E+02  0.14903203640E+02  0.42798614045E+02  0.00000000000E+00 0. -1.
         11    1    1    2    0    0 -0.78383725739E+02 -0.10318204873E+03  0.27290011373E+03  0.30210100250E+03  0.00000000000E+00 0.  1.
<mgrwt>
<rscale>  0 0.20169488E+03</rscale>
<asrwt>0</asrwt>
<pdfrwt beam="2">  1        4 0.25506547E-01 0.20572728E+03</pdfrwt>
<pdfrwt beam="1">  1       -4 0.60530305E-01 0.20572728E+03</pdfrwt>
<totfact> 0.66999557E+01</totfact>
</mgrwt>
</event>
<event>
 6    1  0.5258538E-006  0.1904417E+03  0.7546771E-02  0.1162623E+00
          2   -1    0    0  501    0  0.00000000000E+00  0.00000000000E+00  0.71987533167E+03  0.71987533167E+03  0.00000000000E+00 0. -1.
         -2   -1    0    0    0  501 -0.00000000000E+00 -0.00000000000E+00 -0.49087599112E+02  0.49087599112E+02  0.00000000000E+00 0.  1.
          5    1    1    2  502    0 -0.52081065142E+02 -0.10701602974E+03  0.20963498078E+03  0.24110948371E+03  0.47000000000E+01 0.  1.
         -5    1    1    2    0  502  0.44482933307E+02 -0.36455618619E+02  0.24691248742E+03  0.25356579014E+03  0.47000000000E+01 0.  1.
        -11    1    1    2    0    0 -0.27898033225E+02  0.54766236961E+02  0.33875612380E+02  0.70179755505E+02  0.00000000000E+00 0.  1.
         11    1    1    2    0    0  0.35496165059E+02  0.88705411394E+02  0.18036465198E+03  0.20410790143E+03  0.00000000000E+00 0. -1.
<mgrwt>
<rscale>  0 0.18545752E+03</rscale>
<asrwt>0</asrwt>
<pdfrwt beam="1">  1        2 0.11075004E+00 0.19044169E+03</pdfrwt>
<pdfrwt beam="2">  1       -2 0.75519388E-02 0.19044169E+03</pdfrwt>
<totfact> 0.41342675E+03</totfact>
</mgrwt>
</event>
<event>
 6    1  0.5258538E-006  0.2327148E+03  0.7546771E-02  0.1153281E+00
         -2   -1    0    0    0  501 -0.00000000000E+00  0.00000000000E+00  0.92892449775E+02  0.92892449775E+02  0.00000000000E+00 0.  1.
          2   -1    0    0  501    0  0.00000000000E+00 -0.00000000000E+00 -0.41954621136E+03  0.41954621136E+03  0.00000000000E+00 0. -1.
          5    1    1    2  502    0 -0.23665575492E+02  0.59551729723E+02 -0.34411545827E+03  0.35006286093E+03  0.47000000000E+01 0. -1.
         -5    1    1    2    0  502  0.35731026570E+02  0.13032125929E+02  0.24361124352E+02  0.45410317612E+02  0.47000000000E+01 0.  1.
        -11    1    1    2    0    0 -0.40230287508E+02 -0.54852863396E+02  0.23421128448E+02  0.71943463313E+02  0.00000000000E+00 0.  1.
         11    1    1    2    0    0  0.28164836431E+02 -0.17730992257E+02 -0.30320556111E+02  0.45022019284E+02  0.00000000000E+00 0. -1.
<mgrwt>
<rscale>  0 0.19585889E+03</rscale>
<asrwt>0</asrwt>
<pdfrwt beam="2">  1        2 0.64545571E-01 0.23271485E+03</pdfrwt>
<pdfrwt beam="1">  1       -2 0.14291146E-01 0.23271485E+03</pdfrwt>
<totfact> 0.27875959E+03</totfact>
</mgrwt>
</event>
<event>
 6    1  0.5258538E-006  0.1355587E+03  0.7546771E-02  0.1230795E+00
          2   -1    0    0  501    0  0.00000000000E+00  0.00000000000E+00  0.50622284431E+03  0.50622284431E+03  0.00000000000E+00 0. -1.
         -2   -1    0    0    0  501 -0.00000000000E+00 -0.00000000000E+00 -0.80851077994E+02  0.80851077994E+02  0.00000000000E+00 0.  1.
          5    1    1    2  502    0 -0.13722790722E+02 -0.76662141432E+01  0.38027974723E+03  0.38063350086E+03  0.47000000000E+01 0. -1.
         -5    1    1    2    0  502 -0.34703716966E+01  0.57232323053E+02  0.75760982302E+02  0.95128327648E+02  0.47000000000E+01 0. -1.
        -11    1    1    2    0    0 -0.16066775168E+01 -0.56755245120E+02 -0.55466396484E+02  0.79374179682E+02  0.00000000000E+00 0.  1.
         11    1    1    2    0    0  0.18799839935E+02  0.71891362108E+01  0.24797433263E+02  0.31937914107E+02  0.00000000000E+00 0. -1.
<mgrwt>
<rscale>  0 0.12777484E+03</rscale>
<asrwt>0</asrwt>
<pdfrwt beam="1">  1        2 0.77880436E-01 0.13555873E+03</pdfrwt>
<pdfrwt beam="2">  1       -2 0.12438628E-01 0.13555873E+03</pdfrwt>
<totfact> 0.27915214E+03</totfact>
</mgrwt>
</event>
<event>
 6    1  0.5258538E-006  0.2801073E+03  0.7546771E-02  0.1095630E+00
          3   -1    0    0  501    0  0.00000000000E+00  0.00000000000E+00  0.23457939298E+03  0.23457939298E+03  0.00000000000E+00 0. -1.
         -3   -1    0    0    0  501 -0.00000000000E+00 -0.00000000000E+00 -0.83617869961E+02  0.83617869961E+02  0.00000000000E+00 0.  1.
          5    1    1    2  502    0  0.84065955148E+02  0.27427217876E+02  0.35817207044E+02  0.95521198777E+02  0.47000000000E+01 0. -1.
         -5    1    1    2    0  502 -0.26177895467E+02  0.24544931104E+02  0.94139299763E+02  0.10085650011E+03  0.47000000000E+01 0. -1.
        -11    1    1    2    0    0  0.49104625439E+01 -0.55998077694E+02  0.17164053715E+02  0.58775012444E+02  0.00000000000E+00 0.  1.
         11    1    1    2    0    0 -0.62798522225E+02  0.40259287136E+01  0.38409625022E+01  0.63044551617E+02  0.00000000000E+00 0. -1.
<mgrwt>
<rscale>  0 0.28010733E+03</rscale>
<asrwt>0</asrwt>
<pdfrwt beam="1">  1        3 0.36089137E-01 0.28010733E+03</pdfrwt>
<pdfrwt beam="2">  1       -3 0.12864288E-01 0.28010733E+03</pdfrwt>
<totfact> 0.93182472E+02</totfact>
</mgrwt>
</event>
<event>
 6    1  0.5258538E-006  0.1503634E+03  0.7546771E-02  0.1209402E+00
          2   -1    0    0  501    0  0.00000000000E+00  0.00000000000E+00  0.33637113973E+03  0.33637113973E+03  0.00000000000E+00 0. -1.
         -2   -1    0    0    0  501 -0.00000000000E+00 -0.00000000000E+00 -0.90278034212E+02  0.90278034212E+02  0.00000000000E+00 0.  1.
          5    1    1    2  502    0  0.28709282290E+02 -0.49400354873E+02  0.80921323787E+02  0.99171410167E+02  0.47000000000E+01 0.  1.
         -5    1    1    2    0  502  0.50444616629E+02  0.76218445664E+02  0.18175864868E+03  0.20349989479E+03  0.47000000000E+01 0.  1.
        -11    1    1    2    0    0  0.19758636077E+02  0.14967862507E+01 -0.50422075800E+01  0.20446709417E+02  0.00000000000E+00 0. -1.
         11    1    1    2    0    0 -0.98912534996E+02 -0.28314877042E+02 -0.11544659377E+02  0.10353115957E+03  0.00000000000E+00 0.  1.
<mgrwt>
<rscale>  0 0.14295921E+03</rscale>
<asrwt>0</asrwt>
<pdfrwt beam="1">  1        2 0.51749406E-01 0.15036340E+03</pdfrwt>
<pdfrwt beam="2">  1       -2 0.13888928E-01 0.15036340E+03</pdfrwt>
<totfact> 0.36442074E+03</totfact>
</mgrwt>
</event>
<event>
 6    1  0.5258538E-006  0.2108945E+03  0.7546771E-02  0.1145067E+00
          2   -1    0    0  501    0  0.00000000000E+00  0.00000000000E+00  0.45089647571E+03  0.45089647571E+03  0.00000000000E+00 0. -1.
         -2   -1    0    0    0  501 -0.00000000000E+00 -0.00000000000E+00 -0.12974798016E+03  0.12974798016E+03  0.00000000000E+00 0.  1.
          5    1    1    2  502    0  0.86214799897E+01  0.58633157998E+02  0.17968741932E+03  0.18926657337E+03  0.47000000000E+01 0.  1.
         -5    1    1    2    0  502  0.12855241218E+03  0.41543192206E+02  0.14823191509E+03  0.20061493002E+03  0.47000000000E+01 0.  1.
        -11    1    1    2    0    0 -0.32634025035E+02  0.12964223584E+01 -0.28643799100E+02  0.43441081107E+02  0.00000000000E+00 0.  1.
         11    1    1    2    0    0 -0.10453986714E+03 -0.10147277256E+03  0.21872960247E+02  0.14732187137E+03  0.00000000000E+00 0. -1.
<mgrwt>
<rscale>  0 0.20563832E+03</rscale>
<asrwt>0</asrwt>
<pdfrwt beam="1">  1        2 0.69368688E-01 0.21089452E+03</pdfrwt>
<pdfrwt beam="2">  1       -2 0.19961228E-01 0.21089452E+03</pdfrwt>
<totfact> 0.14682203E+03</totfact>
</mgrwt>
</event>
<event>
 6    1  0.5258538E-006  0.1288757E+03  0.7546771E-02  0.1243494E+00
         -1   -1    0    0    0  501 -0.00000000000E+00  0.00000000000E+00  0.38754921200E+02  0.38754921200E+02  0.00000000000E+00 0.  1.
          1   -1    0    0  501    0  0.00000000000E+00 -0.00000000000E+00 -0.32681185774E+03  0.32681185774E+03  0.00000000000E+00 0. -1.
          5    1    1    2  502    0 -0.35224235008E+02 -0.51086288461E+02 -0.34894543444E+02  0.71346161514E+02  0.47000000000E+01 0.  1.
         -5    1    1    2    0  502  0.50504085908E+01  0.42842026087E+02 -0.13561463422E+03  0.14238807829E+03  0.47000000000E+01 0.  1.
        -11    1    1    2    0    0  0.61274036114E+02  0.95920180867E+01 -0.94767972859E+02  0.11325847868E+03  0.00000000000E+00 0.  1.
         11    1    1    2    0    0 -0.31100209697E+02 -0.13477557126E+01 -0.22779786015E+02  0.38574060449E+02  0.00000000000E+00 0. -1.
<mgrwt>
<rscale>  0 0.11975997E+03</rscale>
<asrwt>0</asrwt>
<pdfrwt beam="2">  1        1 0.50278748E-01 0.12887570E+03</pdfrwt>
<pdfrwt beam="1">  1       -1 0.59622955E-02 0.12887570E+03</pdfrwt>
<totfact> 0.99941742E+03</totfact>
</mgrwt>
</event>
<event>
 6    1  0.5258538E-006  0.1467472E+03  0.7546771E-02  0.1214048E+00
          2   -1    0    0  501    0  0.00000000000E+00  0.00000000000E+00  0.22612459217E+03  0.22612459217E+03  0.00000000000E+00 0. -1.
         -2   -1    0    0    0  501 -0.00000000000E+00 -0.00000000000E+00 -0.91913884309E+02  0.91913884309E+02  0.00000000000E+00 0.  1.
          5    1    1    2  502    0  0.34809479788E+02 -0.80506447711E+02  0.15130193812E+03  0.17494957698E+03  0.47000000000E+01 0.  1.
         -5    1    1    2    0  502 -0.12438895855E+02  0.69510562726E+01 -0.17909393701E+02  0.23364068485E+02  0.47000000000E+01 0.  1.
        -11    1    1    2    0    0 -0.26678422057E+02  0.90237201135E+02 -0.16229001009E+02  0.95487544454E+02  0.00000000000E+00 0.  1.
         11    1    1    2    0    0  0.43078381244E+01 -0.16681809697E+02  0.17047164451E+02  0.24237286562E+02  0.00000000000E+00 0. -1.
<mgrwt>
<rscale>  0 0.13946679E+03</rscale>
<asrwt>0</asrwt>
<pdfrwt beam="1">  1        2 0.34788399E-01 0.14674717E+03</pdfrwt>
<pdfrwt beam="2">  1       -2 0.14140598E-01 0.14674717E+03</pdfrwt>
<totfact> 0.53972350E+03</totfact>
</mgrwt>
</event>
<event>
 6    1  0.5258538E-006  0.1259932E+03  0.7546771E-02  0.1249760E+00
         -2   -1    0    0    0  501 -0.00000000000E+00  0.00000000000E+00  0.17362459511E+03  0.17362459511E+03  0.00000000000E+00 0. -1.
          2   -1    0    0  501    0  0.00000000000E+00 -0.00000000000E+00 -0.98918310892E+02  0.98918310892E+02  0.00000000000E+00 0.  1.
          5    1    1    2  502    0  0.79330617927E+01  0.61125502717E+02 -0.38210240285E+02  0.72673055628E+02  0.47000000000E+01 0. -1.
         -5    1    1    2    0  502  0.74202062216E+01 -0.57156484059E+02  0.37466194921E+01  0.57948686680E+02  0.47000000000E+01 0. -1.
        -11    1    1    2    0    0 -0.39713677475E+02  0.29352279762E+02  0.61085830392E+02  0.78550691788E+02  0.00000000000E+00 0. -1.
         11    1    1    2    0    0  0.24360409461E+02 -0.33321298420E+02  0.48084074620E+02  0.63370471905E+02  0.00000000000E+00 0.  1.
<mgrwt>
<rscale>  0 0.11604939E+03</rscale>
<asrwt>0</asrwt>
<pdfrwt beam="2">  1        2 0.15218202E-01 0.12599325E+03</pdfrwt>
<pdfrwt beam="1">  1       -2 0.26711476E-01 0.12599325E+03</pdfrwt>
<totfact> 0.45923265E+03</totfact>
</mgrwt>
</event>
<event>
 6    1  0.5258538E-006  0.2358703E+03  0.7546771E-02  0.1122575E+00
         -2   -1    0    0    0  501 -0.00000000000E+00  0.00000000000E+00  0.24425890279E+02  0.24425890279E+02  0.00000000000E+00 0.  1.
          2   -1    0    0  501    0  0.00000000000E+00 -0.00000000000E+00 -0.56942458538E+03  0.56942458538E+03  0.00000000000E+00 0. -1.
          5    1    1    2  502    0 -0.32210104776E+02 -0.31112252307E+02 -0.36700263138E+03  0.36975462746E+03  0.47000000000E+01 0.  1.
         -5    1    1    2    0  502  0.61101051573E+01 -0.69825646173E+01  0.80391714852E+01  0.13145640792E+02  0.47000000000E+01 0.  1.
        -11    1    1    2    0    0  0.52151130011E+02  0.13646682918E+02 -0.63414067130E+02  0.83230500575E+02  0.00000000000E+00 0.  1.
         11    1    1    2    0    0 -0.26051130392E+02  0.24448134006E+02 -0.12262116808E+03  0.12771970683E+03  0.00000000000E+00 0. -1.
<mgrwt>
<rscale>  0 0.23587032E+03</rscale>
<asrwt>0</asrwt>
<pdfrwt beam="2">  1        2 0.87603780E-01 0.23587032E+03</pdfrwt>
<pdfrwt beam="1">  1       -2 0.37578294E-02 0.23587032E+03</pdfrwt>
<totfact> 0.15957174E+04</totfact>
</mgrwt>
</event>
<event>
 6    1  0.5258538E-006  0.1318027E+03  0.7546771E-02  0.1238474E+00
          1   -1    0    0  501    0  0.00000000000E+00  0.00000000000E+00  0.11827777274E+04  0.11827777274E+04  0.00000000000E+00 0. -1.
         -1   -1    0    0    0  501 -0.00000000000E+00 -0.00000000000E+00 -0.12350164146E+02  0.12350164146E+02  0.00000000000E+00 0.  1.
          5    1    1    2  502    0 -0.86304303392E+01 -0.26364000269E+02  0.33858458325E+02  0.44023062571E+02  0.47000000000E+01 0. -1.
         -5    1    1    2    0  502  0.82887911208E+01 -0.15421400202E+02  0.79853524024E+03  0.79874097400E+03  0.47000000000E+01 0. -1.
        -11    1    1    2    0    0  0.12410581877E+02  0.67979951265E+02  0.20832227562E+03  0.21948454805E+03  0.00000000000E+00 0.  1.
         11    1    1    2    0    0 -0.12068942658E+02 -0.26194550793E+02  0.12971158912E+03  0.13287930697E+03  0.00000000000E+00 0. -1.
<mgrwt>
<rscale>  0 0.12284610E+03</rscale>
<asrwt>0</asrwt>
<pdfrwt beam="1">  1        1 0.18196571E+00 0.13180270E+03</pdfrwt>
<pdfrwt beam="2">  1       -1 0.19000262E-02 0.13180270E+03</pdfrwt>
<totfact> 0.84344167E+03</totfact>
</mgrwt>
</event>
<event>
 6    1  0.5258538E-006  0.1465129E+03  0.7546771E-02  0.1269634E+00
         -2   -1    0    0    0  501 -0.00000000000E+00  0.00000000000E+00  0.22905591834E+02  0.22905591834E+02  0.00000000000E+00 0.  1.
          2   -1    0    0  501    0  0.00000000000E+00 -0.00000000000E+00 -0.37567184754E+03  0.37567184754E+03  0.00000000000E+00 0. -1.
          5    1    1    2  502    0  0.24933095359E+02  0.29879848496E+02 -0.26243901998E+03  0.26535032277E+03  0.47000000000E+01 0. -1.
         -5    1    1    2    0  502 -0.45963608355E+02 -0.74029071963E+01 -0.16302741899E+02  0.49551243389E+02  0.47000000000E+01 0.  1.
        -11    1    1    2    0    0  0.22238264460E+02 -0.10976107375E+02 -0.34459526677E+02  0.42455556976E+02  0.00000000000E+00 0. -1.
         11    1    1    2    0    0 -0.12077514640E+01 -0.11500833925E+02 -0.39564967154E+02  0.41220316235E+02  0.00000000000E+00 0.  1.
<mgrwt>
<rscale>  0 0.10524698E+03</rscale>
<asrwt>0</asrwt>
<pdfrwt beam="2">  1        2 0.57795667E-01 0.14651289E+03</pdfrwt>
<pdfrwt beam="1">  1       -2 0.35239373E-02 0.14651289E+03</pdfrwt>
<totfact> 0.26727750E+04</totfact>
</mgrwt>
</event>
<event>
 6    1  0.5258538E-006  0.1408893E+03  0.7546771E-02  0.1222969E+00
         -1   -1    0    0    0  501 -0.00000000000E+00  0.00000000000E+00  0.23131311778E+03  0.23131311778E+03  0.00000000000E+00 0. -1.
          1   -1    0    0  501    0  0.00000000000E+00 -0.00000000000E+00 -0.70497658012E+02  0.70497658012E+02  0.00000000000E+00 0.  1.
          5    1    1    2  502    0  0.18460924282E+02  0.18922579516E+02  0.91935852106E+02  0.95776618459E+02  0.47000000000E+01 0.  1.
         -5    1    1    2    0  502 -0.35456453117E+02  0.43834028557E+02 -0.23003010896E+02  0.61072175640E+02  0.47000000000E+01 0.  1.
        -11    1    1    2    0    0 -0.25179864871E+02 -0.48752907241E+02  0.83226796059E+02  0.99687367011E+02  0.00000000000E+00 0. -1.
         11    1    1    2    0    0  0.42175393706E+02 -0.14003700832E+02  0.86558224958E+01  0.45274614679E+02  0.00000000000E+00 0.  1.
<mgrwt>
<rscale>  0 0.13307065E+03</rscale>
<asrwt>0</asrwt>
<pdfrwt beam="2">  1        1 0.10845794E-01 0.14088935E+03</pdfrwt>
<pdfrwt beam="1">  1       -1 0.35586633E-01 0.14088935E+03</pdfrwt>
<totfact> 0.41910351E+03</totfact>
</mgrwt>
</event>
<event>
 6    1  0.5258538E-006  0.2298532E+03  0.7546771E-02  0.1129761E+00
          1   -1    0    0  501    0  0.00000000000E+00  0.00000000000E+00  0.12345317367E+04  0.12345317367E+04  0.00000000000E+00 0. -1.
         -1   -1    0    0    0  501 -0.00000000000E+00 -0.00000000000E+00 -0.67042093605E+02  0.67042093605E+02  0.00000000000E+00 0.  1.
          5    1    1    2  502    0 -0.53526193449E+02 -0.13138076916E+03  0.91597396539E+03  0.92690687513E+03  0.47000000000E+01 0. -1.
         -5    1    1    2    0  502 -0.41040935483E+02 -0.36741271953E+02  0.95434244131E+02  0.11029081740E+03  0.47000000000E+01 0. -1.
        -11    1    1    2    0    0  0.92936029615E+02  0.73307704306E+02  0.92162544026E+02  0.15001686449E+03  0.00000000000E+00 0.  1.
         11    1    1    2    0    0  0.16310993174E+01  0.94814336809E+02  0.63918889602E+02  0.11435927333E+03  0.00000000000E+00 0. -1.
<mgrwt>
<rscale>  0 0.22562077E+03</rscale>
<asrwt>0</asrwt>
<pdfrwt beam="1">  1        1 0.18992794E+00 0.22985319E+03</pdfrwt>
<pdfrwt beam="2">  1       -1 0.10314169E-01 0.22985319E+03</pdfrwt>
<totfact> 0.63321209E+02</totfact>
</mgrwt>
</event>
<event>
 6    1  0.5258538E-006  0.1328428E+03  0.7546771E-02  0.1239493E+00
         -1   -1    0    0    0  501 -0.00000000000E+00  0.00000000000E+00  0.16582008890E+03  0.16582008890E+03  0.00000000000E+00 0.  1.
          1   -1    0    0  501    0  0.00000000000E+00 -0.00000000000E+00 -0.78590681178E+02  0.78590681178E+02  0.00000000000E+00 0. -1.
          5    1    1    2  502    0 -0.20628517517E+02 -0.37019239479E+02 -0.18488087174E+02  0.46474285297E+02  0.47000000000E+01 0.  1.
         -5    1    1    2    0  502 -0.11918395817E+02  0.68090366945E+02  0.62950042538E+02  0.93611666394E+02  0.47000000000E+01 0.  1.
        -11    1    1    2    0    0  0.19912910417E+02 -0.21806475464E+02 -0.22549358790E+02  0.37155348946E+02  0.00000000000E+00 0. -1.
         11    1    1    2    0    0  0.12634002918E+02 -0.92646520020E+01  0.65316811149E+02  0.67169469442E+02  0.00000000000E+00 0.  1.
<mgrwt>
<rscale>  0 0.12221155E+03</rscale>
<asrwt>0</asrwt>
<pdfrwt beam="2">  1        1 0.12090874E-01 0.13284280E+03</pdfrwt>
<pdfrwt beam="1">  1       -1 0.25510783E-01 0.13284280E+03</pdfrwt>
<totfact> 0.63344260E+03</totfact>
</mgrwt>
</event>
<event>
 6    1  0.5258538E-006  0.2319313E+03  0.7546771E-02  0.1128127E+00
         -1   -1    0    0    0  501 -0.00000000000E+00  0.00000000000E+00  0.34526358751E+02  0.34526358751E+02  0.00000000000E+00 0.  1.
          1   -1    0    0  501    0  0.00000000000E+00 -0.00000000000E+00 -0.14626945299E+04  0.14626945299E+04  0.00000000000E+00 0. -1.
          5    1    1    2  502    0 -0.13289943972E+02 -0.18030063577E+02 -0.97569659660E+02  0.10021793397E+03  0.47000000000E+01 0.  1.
         -5    1    1    2    0  502  0.20728541250E+03 -0.51344453651E+01 -0.58450641266E+03  0.62021241620E+03  0.47000000000E+01 0.  1.
        -11    1    1    2    0    0 -0.83889295028E+02 -0.15392123909E+02 -0.18521474041E+03  0.20390888005E+03  0.00000000000E+00 0.  1.
         11    1    1    2    0    0 -0.11010617350E+03  0.38556632850E+02 -0.56087735843E+03  0.57288165845E+03  0.00000000000E+00 0. -1.
<mgrwt>
<rscale>  0 0.22789896E+03</rscale>
<asrwt>0</asrwt>
<pdfrwt beam="2">  1        1 0.22502990E+00 0.23193129E+03</pdfrwt>
<pdfrwt beam="1">  1       -1 0.53117481E-02 0.23193129E+03</pdfrwt>
<totfact> 0.12200319E+03</totfact>
</mgrwt>
</event>
<event>
 6    1  0.5258538E-006  0.1794207E+03  0.7546771E-02  0.1173909E+00
         -2   -1    0    0    0  501 -0.00000000000E+00  0.00000000000E+00  0.46624434358E+02  0.46624434358E+02  0.00000000000E+00 0.  1.
          2   -1    0    0  501    0  0.00000000000E+00 -0.00000000000E+00 -0.64806886386E+03  0.64806886386E+03  0.00000000000E+00 0. -1.
          5    1    1    2  502    0 -0.11156389132E+03 -0.23974622392E+02 -0.27106736729E+03  0.29414433867E+03  0.47000000000E+01 0.  1.
         -5    1    1    2    0  502 -0.10842340635E+02  0.63676421362E+02 -0.13070629334E+03  0.14587140949E+03  0.47000000000E+01 0.  1.
        -11    1    1    2    0    0  0.12190955037E+03 -0.38455534640E+01 -0.14801013377E+03  0.19179084038E+03  0.00000000000E+00 0. -1.
         11    1    1    2    0    0  0.49668158451E+00 -0.35856245506E+02 -0.51660635101E+02  0.62886709672E+02  0.00000000000E+00 0.  1.
<mgrwt>
<rscale>  0 0.17383212E+03</rscale>
<asrwt>0</asrwt>
<pdfrwt beam="2">  1        2 0.99702908E-01 0.17942069E+03</pdfrwt>
<pdfrwt beam="1">  1       -2 0.71729895E-02 0.17942069E+03</pdfrwt>
<totfact> 0.50634943E+03</totfact>
</mgrwt>
</event>
<event>
 6    1  0.5258538E-006  0.1718982E+03  0.7546771E-02  0.1181451E+00
         -2   -1    0    0    0  501 -0.00000000000E+00  0.00000000000E+00  0.19586577769E+02  0.19586577769E+02  0.00000000000E+00 0.  1.
          2   -1    0    0  501    0  0.00000000000E+00 -0.00000000000E+00 -0.16054326703E+04  0.16054326703E+04  0.00000000000E+00 0. -1.
          5    1    1    2  502    0  0.66406860454E+02 -0.11525298878E+02 -0.31495407805E+03  0.32211933334E+03  0.47000000000E+01 0.  1.
         -5    1    1    2    0  502  0.17354653537E+02  0.94643733866E+02 -0.85163228732E+03  0.85706374510E+03  0.47000000000E+01 0.  1.
        -11    1    1    2    0    0 -0.89626714072E+02 -0.43375877849E+02 -0.20571543501E+03  0.22854595787E+03  0.00000000000E+00 0.  1.
         11    1    1    2    0    0  0.58652000801E+01 -0.39742557139E+02 -0.21354429211E+03  0.21729021173E+03  0.00000000000E+00 0. -1.
<mgrwt>
<rscale>  0 0.16658987E+03</rscale>
<asrwt>0</asrwt>
<pdfrwt beam="2">  1        2 0.24698965E+00 0.17189818E+03</pdfrwt>
<pdfrwt beam="1">  1       -2 0.30133196E-02 0.17189818E+03</pdfrwt>
<totfact> 0.50060770E+03</totfact>
</mgrwt>
</event>
<event>
 6    1  0.5258538E-006  0.2915206E+03  0.7546771E-02  0.1089558E+00
          1   -1    0    0  501    0  0.00000000000E+00  0.00000000000E+00  0.89633828256E+03  0.89633828256E+03  0.00000000000E+00 0. -1.
         -1   -1    0    0    0  501 -0.00000000000E+00 -0.00000000000E+00 -0.23703184857E+02  0.23703184857E+02  0.00000000000E+00 0.  1.
          5    1    1    2  502    0 -0.23736506438E+02 -0.92535771420E+02  0.23268943387E+03  0.25158051070E+03  0.47000000000E+01 0.  1.
         -5    1    1    2    0  502 -0.97168031647E-01  0.78308749821E+01  0.37265486916E+03  0.37276678172E+03  0.47000000000E+01 0.  1.
        -11    1    1    2    0    0  0.52943720278E+02  0.43458987320E+02  0.10199129688E+03  0.12285742035E+03  0.00000000000E+00 0.  1.
         11    1    1    2    0    0 -0.29110045809E+02  0.41245909118E+02  0.16529949779E+03  0.17283675464E+03  0.00000000000E+00 0. -1.
<mgrwt>
<rscale>  0 0.29152065E+03</rscale>
<asrwt>0</asrwt>
<pdfrwt beam="1">  1        1 0.13789817E+00 0.29152065E+03</pdfrwt>
<pdfrwt beam="2">  1       -1 0.36466445E-02 0.29152065E+03</pdfrwt>
<totfact> 0.54297770E+03</totfact>
</mgrwt>
</event>
<event>
 6    1  0.5258538E-006  0.1448234E+03  0.7546771E-02  0.1217562E+00
         -3   -1    0    0    0  501 -0.00000000000E+00  0.00000000000E+00  0.18343541957E+02  0.18343541957E+02  0.00000000000E+00 0.  1.
          3   -1    0    0  501    0  0.00000000000E+00 -0.00000000000E+00 -0.94417916607E+03  0.94417916607E+03  0.00000000000E+00 0. -1.
          5    1    1    2  502    0  0.39033387164E+00 -0.35488183545E+02 -0.12549640374E+03  0.13050287691E+03  0.47000000000E+01 0. -1.
         -5    1    1    2    0  502 -0.87995440670E+01  0.10814142687E+03 -0.45714951522E+03  0.46987207775E+03  0.47000000000E+01 0. -1.
        -11    1    1    2    0    0  0.41652570820E+02 -0.51932620616E+02 -0.13758729744E+03  0.15284697628E+03  0.00000000000E+00 0.  1.
         11    1    1    2    0    0 -0.33243360625E+02 -0.20720622712E+02 -0.20560240771E+03  0.20930077709E+03  0.00000000000E+00 0. -1.
<mgrwt>
<rscale>  0 0.13689982E+03</rscale>
<asrwt>0</asrwt>
<pdfrwt beam="2">  1        3 0.14525829E+00 0.14482341E+03</pdfrwt>
<pdfrwt beam="1">  1       -3 0.28220842E-02 0.14482341E+03</pdfrwt>
<totfact> 0.48995837E+02</totfact>
</mgrwt>
</event>
<event>
 6    1  0.5258538E-006  0.1356577E+03  0.7546771E-02  0.1230785E+00
          2   -1    0    0  501    0  0.00000000000E+00  0.00000000000E+00  0.12718326371E+04  0.12718326371E+04  0.00000000000E+00 0. -1.
         -2   -1    0    0    0  501 -0.00000000000E+00 -0.00000000000E+00 -0.17443549392E+02  0.17443549392E+02  0.00000000000E+00 0.  1.
          5    1    1    2  502    0  0.18897508371E+02  0.76123510748E+02  0.64223947467E+03  0.64702823550E+03  0.47000000000E+01 0. -1.
         -5    1    1    2    0  502 -0.47037530251E+02 -0.31497082460E+02  0.40721196387E+03  0.41115479929E+03  0.47000000000E+01 0. -1.
        -11    1    1    2    0    0  0.81249173045E+01  0.14211483257E+02 -0.58367073790E+00  0.16380513090E+02  0.00000000000E+00 0.  1.
         11    1    1    2    0    0  0.20015104576E+02 -0.58837911545E+02  0.20552131995E+03  0.21471263866E+03  0.00000000000E+00 0. -1.
<mgrwt>
<rscale>  0 0.12778162E+03</rscale>
<asrwt>0</asrwt>
<pdfrwt beam="1">  1        2 0.19566649E+00 0.13565771E+03</pdfrwt>
<pdfrwt beam="2">  1       -2 0.26836240E-02 0.13565771E+03</pdfrwt>
<totfact> 0.88484126E+03</totfact>
</mgrwt>
</event>
<event>
 6    1  0.5258538E-006  0.1924164E+03  0.7546771E-02  0.1161096E+00
          1   -1    0    0  501    0  0.00000000000E+00  0.00000000000E+00  0.12750089108E+03  0.12750089108E+03  0.00000000000E+00 0. -1.
         -1   -1    0    0    0  501 -0.00000000000E+00 -0.00000000000E+00 -0.56254968653E+03  0.56254968653E+03  0.00000000000E+00 0.  1.
          5    1    1    2  502    0 -0.50093471427E+02  0.55412203847E+02  0.13604456769E+02  0.76072593349E+02  0.47000000000E+01 0. -1.
         -5    1    1    2    0  502  0.77411630828E+02  0.88299263728E+02  0.15898130891E+02  0.11859241598E+03  0.47000000000E+01 0. -1.
        -11    1    1    2    0    0  0.35165001890E+01 -0.10574523424E+03 -0.40359288823E+03  0.41723091900E+03  0.00000000000E+00 0.  1.
         11    1    1    2    0    0 -0.30834659591E+02 -0.37966233338E+02 -0.60958494877E+02  0.78154649277E+02  0.00000000000E+00 0. -1.
<mgrwt>
<rscale>  0 0.18710738E+03</rscale>
<asrwt>0</asrwt>
<pdfrwt beam="1">  1        1 0.19615522E-01 0.19241638E+03</pdfrwt>
<pdfrwt beam="2">  1       -1 0.86546105E-01 0.19241638E+03</pdfrwt>
<totfact> 0.36424922E+02</totfact>
</mgrwt>
</event>
<event>
 6    1  0.5258538E-006  0.1279849E+03  0.7546771E-02  0.1244866E+00
          2   -1    0    0  501    0  0.00000000000E+00  0.00000000000E+00  0.49272249688E+02  0.49272249688E+02  0.00000000000E+00 0. -1.
         -2   -1    0    0    0  501 -0.00000000000E+00 -0.00000000000E+00 -0.31981701767E+03  0.31981701767E+03  0.00000000000E+00 0.  1.
          5    1    1    2  502    0  0.52612424272E+02 -0.12376517548E+02  0.10336816374E+02  0.55228481304E+02  0.47000000000E+01 0.  1.
         -5    1    1    2    0  502 -0.31798540371E+02  0.30304515460E+02 -0.77752776225E+02  0.89426478393E+02  0.47000000000E+01 0.  1.
        -11    1    1    2    0    0  0.28379981515E+02 -0.32410623846E+02 -0.76147513447E+02  0.87488946120E+02  0.00000000000E+00 0.  1.
         11    1    1    2    0    0 -0.49193865416E+02  0.14482625935E+02 -0.12698129468E+03  0.13694536154E+03  0.00000000000E+00 0. -1.
<mgrwt>
<rscale>  0 0.11893390E+03</rscale>
<asrwt>0</asrwt>
<pdfrwt beam="1">  1        2 0.75803462E-02 0.12798494E+03</pdfrwt>
<pdfrwt beam="2">  1       -2 0.49202617E-01 0.12798494E+03</pdfrwt>
<totfact> 0.34423108E+03</totfact>
</mgrwt>
</event>
<event>
 6    1  0.5258538E-006  0.1782854E+03  0.7546771E-02  0.1172491E+00
          1   -1    0    0  501    0  0.00000000000E+00  0.00000000000E+00  0.38485793496E+02  0.38485793496E+02  0.00000000000E+00 0. -1.
         -1   -1    0    0    0  501 -0.00000000000E+00 -0.00000000000E+00 -0.78574716711E+03  0.78574716711E+03  0.00000000000E+00 0.  1.
          5    1    1    2  502    0 -0.79403391009E+02 -0.83351901286E+02 -0.30268375088E+03  0.32387031510E+03  0.47000000000E+01 0. -1.
         -5    1    1    2    0  502 -0.41408197836E+02  0.13800771652E+02 -0.28760781804E+02  0.52482118062E+02  0.47000000000E+01 0.  1.
        -11    1    1    2    0    0  0.11185827859E+03  0.18791003507E+02 -0.31187383544E+03  0.33185940627E+03  0.00000000000E+00 0. -1.
         11    1    1    2    0    0  0.89533102584E+01  0.50760126126E+02 -0.10394300549E+03  0.11602112118E+03  0.00000000000E+00 0.  1.
<mgrwt>
<rscale>  0 0.17524017E+03</rscale>
<asrwt>0</asrwt>
<pdfrwt beam="1">  1        1 0.59208915E-02 0.17828538E+03</pdfrwt>
<pdfrwt beam="2">  1       -1 0.12088418E+00 0.17828538E+03</pdfrwt>
<totfact> 0.84875494E+02</totfact>
</mgrwt>
</event>
<event>
 6    1  0.5258538E-006  0.1845351E+03  0.7546771E-02  0.1197128E+00
          1   -1    0    0  501    0  0.00000000000E+00  0.00000000000E+00  0.31493138048E+03  0.31493138048E+03  0.00000000000E+00 0. -1.
         -1   -1    0    0    0  501 -0.00000000000E+00 -0.00000000000E+00 -0.78584449344E+02  0.78584449344E+02  0.00000000000E+00 0.  1.
          5    1    1    2  502    0 -0.70897086662E+02  0.24775524148E+02  0.27242676338E+02  0.80027975784E+02  0.47000000000E+01 0. -1.
         -5    1    1    2    0  502  0.54883954596E+02 -0.30992671957E+02  0.21744234394E+03  0.22644217170E+03  0.47000000000E+01 0.  1.
        -11    1    1    2    0    0 -0.20993005461E+02 -0.73363665457E-01 -0.35132384667E+02  0.40926716371E+02  0.00000000000E+00 0. -1.
         11    1    1    2    0    0  0.37006137528E+02  0.62905114744E+01  0.26794295526E+02  0.46118965969E+02  0.00000000000E+00 0.  1.
<mgrwt>
<rscale>  0 0.15275505E+03</rscale>
<asrwt>0</asrwt>
<pdfrwt beam="1">  1        1 0.48450981E-01 0.18453507E+03</pdfrwt>
<pdfrwt beam="2">  1       -1 0.12089915E-01 0.18453507E+03</pdfrwt>
<totfact> 0.36528449E+03</totfact>
</mgrwt>
</event>
<event>
 6    1  0.5258538E-006  0.2782425E+03  0.7546771E-02  0.1098568E+00
          2   -1    0    0  501    0  0.00000000000E+00  0.00000000000E+00  0.63978841278E+03  0.63978841278E+03  0.00000000000E+00 0. -1.
         -2   -1    0    0    0  501 -0.00000000000E+00 -0.00000000000E+00 -0.15335547820E+03  0.15335547820E+03  0.00000000000E+00 0.  1.
          5    1    1    2  502    0 -0.21203380636E+03  0.57010303817E+02  0.40612141376E+03  0.46169817250E+03  0.47000000000E+01 0. -1.
         -5    1    1    2    0  502 -0.35547910685E+02 -0.34711263937E+02  0.39456573816E+02  0.63619470411E+02  0.47000000000E+01 0. -1.
        -11    1    1    2    0    0  0.62240588337E+02 -0.51671805047E+01  0.52132793336E+02  0.81353664527E+02  0.00000000000E+00 0. -1.
         11    1    1    2    0    0  0.18534112871E+03 -0.17131859376E+02 -0.11277846324E+02  0.18647258354E+03  0.00000000000E+00 0.  1.
<mgrwt>
<rscale>  0 0.27479114E+03</rscale>
<asrwt>0</asrwt>
<pdfrwt beam="1">  1        2 0.98428985E-01 0.27824249E+03</pdfrwt>
<pdfrwt beam="2">  1       -2 0.23593151E-01 0.27824249E+03</pdfrwt>
<totfact> 0.73912648E+02</totfact>
</mgrwt>
</event>
<event>
 6    1  0.5258538E-006  0.1331825E+03  0.7546771E-02  0.1235915E+00
          2   -1    0    0  501    0  0.00000000000E+00  0.00000000000E+00  0.70531028568E+03  0.70531028568E+03  0.00000000000E+00 0. -1.
         -2   -1    0    0    0  501 -0.00000000000E+00 -0.00000000000E+00 -0.19895299123E+02  0.19895299123E+02  0.00000000000E+00 0.  1.
          5    1    1    2  502    0 -0.75379201732E+02  0.34270124807E+02  0.36990674382E+03  0.37909043068E+03  0.47000000000E+01 0. -1.
         -5    1    1    2    0  502  0.30523298192E+02 -0.24123508263E+02  0.66516004902E+02  0.77201582183E+02  0.47000000000E+01 0. -1.
        -11    1    1    2    0    0  0.68335537937E+02  0.28178737760E+01  0.12953209068E+03  0.14647951623E+03  0.00000000000E+00 0.  1.
         11    1    1    2    0    0 -0.23479634398E+02 -0.12964490320E+02  0.11946014715E+03  0.12243405571E+03  0.00000000000E+00 0. -1.
<mgrwt>
<rscale>  0 0.12446051E+03</rscale>
<asrwt>0</asrwt>
<pdfrwt beam="1">  1        2 0.10850926E+00 0.13318253E+03</pdfrwt>
<pdfrwt beam="2">  1       -2 0.30608158E-02 0.13318253E+03</pdfrwt>
<totfact> 0.16198445E+04</totfact>
</mgrwt>
</event>
<event>
 6    1  0.5258538E-006  0.1711998E+03  0.7546771E-02  0.1203552E+00
         -2   -1    0    0    0  501 -0.00000000000E+00  0.00000000000E+00  0.30764352155E+02  0.30764352155E+02  0.00000000000E+00 0.  1.
          2   -1    0    0  501    0  0.00000000000E+00 -0.00000000000E+00 -0.76569306389E+03  0.76569306389E+03  0.00000000000E+00 0. -1.
          5    1    1    2  502    0  0.82858173329E+02 -0.30401423079E+02 -0.35288611424E+03  0.36378623261E+03  0.47000000000E+01 0. -1.
         -5    1    1    2    0  502 -0.68595882005E+02  0.45502113349E+02 -0.28745394014E+03  0.29904463722E+03  0.47000000000E+01 0.  1.
        -11    1    1    2    0    0  0.19649634282E+02  0.14208004594E+02 -0.84192244591E+02  0.87614551139E+02  0.00000000000E+00 0. -1.
         11    1    1    2    0    0 -0.33911925606E+02 -0.29308694864E+02 -0.10396412768E+02  0.46011995081E+02  0.00000000000E+00 0.  1.
<mgrwt>
<rscale>  0 0.14752184E+03</rscale>
<asrwt>0</asrwt>
<pdfrwt beam="2">  1        2 0.11779894E+00 0.17119982E+03</pdfrwt>
<pdfrwt beam="1">  1       -2 0.47329769E-02 0.17119982E+03</pdfrwt>
<totfact> 0.77897926E+03</totfact>
</mgrwt>
</event>
<event>
 6    1  0.5258538E-006  0.1747255E+03  0.7546771E-02  0.1178578E+00
         -2   -1    0    0    0  501 -0.00000000000E+00  0.00000000000E+00  0.21474367806E+02  0.21474367806E+02  0.00000000000E+00 0.  1.
          2   -1    0    0  501    0  0.00000000000E+00 -0.00000000000E+00 -0.12719112319E+04  0.12719112319E+04  0.00000000000E+00 0. -1.
          5    1    1    2  502    0 -0.43155290721E+02 -0.11145290708E+03 -0.42167217927E+03  0.43830770742E+03  0.47000000000E+01 0. -1.
         -5    1    1    2    0  502  0.48248056864E+02 -0.10530352427E+02 -0.30957303750E+03  0.31352243757E+03  0.47000000000E+01 0. -1.
        -11    1    1    2    0    0 -0.13139486640E+02  0.36658759836E+02 -0.44259902658E+02  0.58952945347E+02  0.00000000000E+00 0.  1.
         11    1    1    2    0    0  0.80467204974E+01  0.85324499673E+02 -0.47493174462E+03  0.48260250932E+03  0.00000000000E+00 0. -1.
<mgrwt>
<rscale>  0 0.16930193E+03</rscale>
<asrwt>0</asrwt>
<pdfrwt beam="2">  1        2 0.19567868E+00 0.17472550E+03</pdfrwt>
<pdfrwt beam="1">  1       -2 0.33037484E-02 0.17472550E+03</pdfrwt>
<totfact> 0.65762896E+03</totfact>
</mgrwt>
</event>
<event>
 6    1  0.5258538E-006  0.2288394E+03  0.7546771E-02  0.1164322E+00
         -2   -1    0    0    0  501 -0.00000000000E+00  0.00000000000E+00  0.13858854659E+03  0.13858854659E+03  0.00000000000E+00 0.  1.
          2   -1    0    0  501    0  0.00000000000E+00 -0.00000000000E+00 -0.20766567475E+03  0.20766567475E+03  0.00000000000E+00 0. -1.
          5    1    1    2  502    0  0.71994423432E+01  0.80641312346E+02 -0.14286954629E+03  0.16428222814E+03  0.47000000000E+01 0. -1.
         -5    1    1    2    0  502 -0.28423706087E+02 -0.62227423088E+02  0.47727466258E+02  0.83547353563E+02  0.47000000000E+01 0.  1.
        -11    1    1    2    0    0  0.43055657068E+01 -0.42943445664E+02 -0.16720990824E+02  0.46284651405E+02  0.00000000000E+00 0.  1.
         11    1    1    2    0    0  0.16918698037E+02  0.24529556407E+02  0.42785942697E+02  0.52139988236E+02  0.00000000000E+00 0. -1.
<mgrwt>
<rscale>  0 0.18364405E+03</rscale>
<asrwt>0</asrwt>
<pdfrwt beam="2">  1        2 0.31948565E-01 0.22883943E+03</pdfrwt>
<pdfrwt beam="1">  1       -2 0.21321315E-01 0.22883943E+03</pdfrwt>
<totfact> 0.30425471E+03</totfact>
</mgrwt>
</event>
<event>
 6    1  0.5258538E-006  0.1674991E+03  0.7546771E-02  0.1187497E+00
          1   -1    0    0  501    0  0.00000000000E+00  0.00000000000E+00  0.67987343200E+03  0.67987343200E+03  0.00000000000E+00 0. -1.
         -1   -1    0    0    0  501 -0.00000000000E+00 -0.00000000000E+00 -0.36222016801E+02  0.36222016801E+02  0.00000000000E+00 0.  1.
          5    1    1    2  502    0  0.71659648519E+01  0.68742567876E+02  0.23803414419E+03  0.24790973254E+03  0.47000000000E+01 0. -1.
         -5    1    1    2    0  502  0.89508870076E+02 -0.13197100939E+02  0.15880889770E+03  0.18283423444E+03  0.47000000000E+01 0. -1.
        -11    1    1    2    0    0 -0.33969244415E+02 -0.30130545107E+02  0.19477331726E+03  0.19999601104E+03  0.00000000000E+00 0. -1.
         11    1    1    2    0    0 -0.62705590513E+02 -0.25414921830E+02  0.52035056050E+02  0.85355470776E+02  0.00000000000E+00 0.  1.
<mgrwt>
<rscale>  0 0.16106755E+03</rscale>
<asrwt>0</asrwt>
<pdfrwt beam="1">  1        1 0.10459590E+00 0.16749915E+03</pdfrwt>
<pdfrwt beam="2">  1       -1 0.55726185E-02 0.16749915E+03</pdfrwt>
<totfact> 0.43091267E+03</totfact>
</mgrwt>
</event>
<event>
 6    1  0.5258538E-006  0.2333472E+03  0.7546771E-02  0.1124306E+00
          1   -1    0    0  501    0  0.00000000000E+00  0.00000000000E+00  0.24254709648E+03  0.24254709648E+03  0.00000000000E+00 0. -1.
         -1   -1    0    0    0  501 -0.00000000000E+00 -0.00000000000E+00 -0.56124053346E+02  0.56124053346E+02  0.00000000000E+00 0.  1.
          5    1    1    2  502    0  0.21410423699E+02  0.44742042371E+02 -0.84136533020E+01  0.50528567765E+02  0.47000000000E+01 0. -1.
         -5    1    1    2    0  502  0.23712352296E+01 -0.11684757276E+02  0.12359443031E+03  0.12425711051E+03  0.47000000000E+01 0. -1.
        -11    1    1    2    0    0 -0.27979558114E+02 -0.64139296329E+02  0.48348847324E+02  0.85054782601E+02  0.00000000000E+00 0.  1.
         11    1    1    2    0    0  0.41978991852E+01  0.31082011234E+02  0.22893418808E+02  0.38830688954E+02  0.00000000000E+00 0. -1.
<mgrwt>
<rscale>  0 0.23334718E+03</rscale>
<asrwt>0</asrwt>
<pdfrwt beam="1">  1        1 0.37314937E-01 0.23334718E+03</pdfrwt>
<pdfrwt beam="2">  1       -1 0.86344699E-02 0.23334718E+03</pdfrwt>
<totfact> 0.86253860E+03</totfact>
</mgrwt>
</event>
<event>
 6    1  0.5258538E-006  0.1255215E+03  0.7546771E-02  0.1249685E+00
          1   -1    0    0  501    0  0.00000000000E+00  0.00000000000E+00  0.10826218143E+04  0.10826218143E+04  0.00000000000E+00 0. -1.
         -1   -1    0    0    0  501 -0.00000000000E+00 -0.00000000000E+00 -0.11248306842E+02  0.11248306842E+02  0.00000000000E+00 0.  1.
          5    1    1    2  502    0  0.29246800150E+02  0.58210056719E+02  0.49709217918E+03  0.50136464836E+03  0.47000000000E+01 0.  1.
         -5    1    1    2    0  502 -0.22370983754E+02 -0.48892421469E+02  0.21270294089E+03  0.21944375329E+03  0.47000000000E+01 0.  1.
        -11    1    1    2    0    0 -0.14000931352E+01 -0.50063980199E+02  0.17623907517E+03  0.18321728627E+03  0.00000000000E+00 0.  1.
         11    1    1    2    0    0 -0.54757232615E+01  0.40746344949E+02  0.18533931218E+03  0.18984443319E+03  0.00000000000E+00 0. -1.
<mgrwt>
<rscale>  0 0.11609308E+03</rscale>
<asrwt>0</asrwt>
<pdfrwt beam="1">  1        1 0.16655712E+00 0.12552147E+03</pdfrwt>
<pdfrwt beam="2">  1       -1 0.17305096E-02 0.12552147E+03</pdfrwt>
<totfact> 0.11296024E+04</totfact>
</mgrwt>
</event>
<event>
 6    1  0.5258538E-006  0.1415929E+03  0.7546771E-02  0.1221748E+00
          2   -1    0    0  501    0  0.00000000000E+00  0.00000000000E+00  0.44063239035E+03  0.44063239035E+03  0.00000000000E+00 0. -1.
         -2   -1    0    0    0  501 -0.00000000000E+00 -0.00000000000E+00 -0.38581579290E+02  0.38581579290E+02  0.00000000000E+00 0.  1.
          5    1    1    2  502    0 -0.19592153222E+02  0.52768428484E+02  0.10651866337E+03  0.12056813492E+03  0.47000000000E+01 0. -1.
         -5    1    1    2    0  502  0.80698141210E+02 -0.26581792052E+02  0.16603021101E+03  0.18656608114E+03  0.47000000000E+01 0. -1.
        -11    1    1    2    0    0 -0.28503203792E+02 -0.50133145992E+02  0.11580808369E+03  0.12937262926E+03  0.00000000000E+00 0. -1.
         11    1    1    2    0    0 -0.32602784196E+02  0.23946509561E+02  0.13693852982E+02  0.42707124311E+02  0.00000000000E+00 0.  1.
<mgrwt>
<rscale>  0 0.13392281E+03</rscale>
<asrwt>0</asrwt>
<pdfrwt beam="1">  1        2 0.67789595E-01 0.14159286E+03</pdfrwt>
<pdfrwt beam="2">  1       -2 0.59356279E-02 0.14159286E+03</pdfrwt>
<totfact> 0.10286177E+04</totfact>
</mgrwt>
</event>
<event>
 6    1  0.5258538E-006  0.1502879E+03  0.7546771E-02  0.1221697E+00
          2   -1    0    0  501    0  0.00000000000E+00  0.00000000000E+00  0.35674744973E+03  0.35674744973E+03  0.00000000000E+00 0. -1.
         -2   -1    0    0    0  501 -0.00000000000E+00 -0.00000000000E+00 -0.45129848132E+02  0.45129848132E+02  0.00000000000E+00 0.  1.
          5    1    1    2  502    0 -0.41146656784E+02 -0.54349047766E+02  0.16482782308E+03  0.17842972740E+03  0.47000000000E+01 0. -1.
         -5    1    1    2    0  502  0.63252159893E+02  0.35767705494E+02  0.74518547318E+02  0.10418861925E+03  0.47000000000E+01 0.  1.
        -11    1    1    2    0    0  0.22031811184E+02  0.27094032960E+02  0.92540353827E+00  0.34933418066E+02  0.00000000000E+00 0.  1.
         11    1    1    2    0    0 -0.44137314292E+02 -0.85126906874E+01  0.71345827656E+02  0.84325533142E+02  0.00000000000E+00 0. -1.
<mgrwt>
<rscale>  0 0.13395862E+03</rscale>
<asrwt>0</asrwt>
<pdfrwt beam="1">  1        2 0.54884221E-01 0.15028787E+03</pdfrwt>
<pdfrwt beam="2">  1       -2 0.69430538E-02 0.15028787E+03</pdfrwt>
<totfact> 0.10198751E+04</totfact>
</mgrwt>
</event>
<event>
 6    1  0.5258538E-006  0.3310323E+03  0.7546771E-02  0.1118039E+00
         -1   -1    0    0    0  501 -0.00000000000E+00  0.00000000000E+00  0.25833908107E+02  0.25833908107E+02  0.00000000000E+00 0.  1.
          1   -1    0    0  501    0  0.00000000000E+00 -0.00000000000E+00 -0.17891464747E+04  0.17891464747E+04  0.00000000000E+00 0. -1.
          5    1    1    2  502    0 -0.74180414697E+02  0.15960793606E+03 -0.97521419784E+03  0.99098044827E+03  0.47000000000E+01 0. -1.
         -5    1    1    2    0  502  0.60438833412E+02 -0.13170342447E+03 -0.48046196595E+03  0.50186097211E+03  0.47000000000E+01 0.  1.
        -11    1    1    2    0    0  0.32961347638E+02 -0.52510762263E+02 -0.23572308009E+03  0.24374002765E+03  0.00000000000E+00 0.  1.
         11    1    1    2    0    0 -0.19219766353E+02  0.24606250677E+02 -0.71913322712E+02  0.78398934779E+02  0.00000000000E+00 0. -1.
<mgrwt>
<rscale>  0 0.24265074E+03</rscale>
<asrwt>0</asrwt>
<pdfrwt beam="2">  1        1 0.27525338E+00 0.33103234E+03</pdfrwt>
<pdfrwt beam="1">  1       -1 0.39744464E-02 0.33103234E+03</pdfrwt>
<totfact> 0.11432124E+03</totfact>
</mgrwt>
</event>
<event>
 6    1  0.5258538E-006  0.2309768E+03  0.7546771E-02  0.1128058E+00
         -4   -1    0    0    0  501 -0.00000000000E+00  0.00000000000E+00  0.32491580826E+02  0.32491580826E+02  0.00000000000E+00 0. -1.
          4   -1    0    0  501    0  0.00000000000E+00 -0.00000000000E+00 -0.16159611918E+04  0.16159611918E+04  0.00000000000E+00 0.  1.
          5    1    1    2  502    0 -0.91496735249E+02  0.53223962634E+02 -0.45225182530E+03  0.46449784310E+03  0.47000000000E+01 0.  1.
         -5    1    1    2    0  502  0.12588514259E+02  0.12425473737E+03 -0.51281133962E+03  0.52782124862E+03  0.47000000000E+01 0.  1.
        -11    1    1    2    0    0 -0.24074902441E+01 -0.11905159481E+03 -0.32725248634E+03  0.34824311630E+03  0.00000000000E+00 0.  1.
         11    1    1    2    0    0  0.81315711234E+02 -0.58427105198E+02 -0.29115395973E+03  0.30789056462E+03  0.00000000000E+00 0. -1.
<mgrwt>
<rscale>  0 0.22799603E+03</rscale>
<asrwt>0</asrwt>
<pdfrwt beam="2">  1        4 0.24860944E+00 0.23097677E+03</pdfrwt>
<pdfrwt beam="1">  1       -4 0.49987042E-02 0.23097677E+03</pdfrwt>
<totfact> 0.31742202E+01</totfact>
</mgrwt>
</event>
<event>
 6    1  0.5258538E-006  0.1381445E+03  0.7546771E-02  0.1228065E+00
          1   -1    0    0  501    0  0.00000000000E+00  0.00000000000E+00  0.98759225723E+02  0.98759225723E+02  0.00000000000E+00 0. -1.
         -1   -1    0    0    0  501 -0.00000000000E+00 -0.00000000000E+00 -0.16082603317E+03  0.16082603317E+03  0.00000000000E+00 0.  1.
          5    1    1    2  502    0 -0.97985176526E+01 -0.37710416088E+02 -0.37846280798E+02  0.54520797866E+02  0.47000000000E+01 0. -1.
         -5    1    1    2    0  502 -0.77069220932E+01  0.93852088706E+02 -0.26924288851E+02  0.98054161221E+02  0.47000000000E+01 0. -1.
        -11    1    1    2    0    0 -0.35444797328E+02 -0.14714470305E+02 -0.72211057037E+01  0.39051167224E+02  0.00000000000E+00 0.  1.
         11    1    1    2    0    0  0.52950237074E+02 -0.41427202313E+02  0.99248679100E+01  0.67959132578E+02  0.00000000000E+00 0. -1.
<mgrwt>
<rscale>  0 0.12959010E+03</rscale>
<asrwt>0</asrwt>
<pdfrwt beam="1">  1        1 0.15193727E-01 0.13814446E+03</pdfrwt>
<pdfrwt beam="2">  1       -1 0.24742467E-01 0.13814446E+03</pdfrwt>
<totfact> 0.49596126E+03</totfact>
</mgrwt>
</event>
<event>
 6    1  0.5258538E-006  0.1479547E+03  0.7546771E-02  0.1212073E+00
         -2   -1    0    0    0  501 -0.00000000000E+00  0.00000000000E+00  0.35860687765E+02  0.35860687765E+02  0.00000000000E+00 0.  1.
          2   -1    0    0  501    0  0.00000000000E+00 -0.00000000000E+00 -0.57982030080E+03  0.57982030080E+03  0.00000000000E+00 0. -1.
          5    1    1    2  502    0  0.35474610534E+02 -0.41780150417E+02 -0.13464793794E+03  0.14545166260E+03  0.47000000000E+01 0.  1.
         -5    1    1    2    0  502 -0.91255089061E+02 -0.14375442893E+02 -0.26875598675E+03  0.28422880757E+03  0.47000000000E+01 0.  1.
        -11    1    1    2    0    0  0.33636328706E+02  0.37482598203E+02 -0.14779777232E+03  0.15614265682E+03  0.00000000000E+00 0. -1.
         11    1    1    2    0    0  0.22144149821E+02  0.18672995107E+02  0.72420839746E+01  0.29857861575E+02  0.00000000000E+00 0.  1.
<mgrwt>
<rscale>  0 0.14093757E+03</rscale>
<asrwt>0</asrwt>
<pdfrwt beam="2">  1        2 0.89203122E-01 0.14795466E+03</pdfrwt>
<pdfrwt beam="1">  1       -2 0.55170290E-02 0.14795466E+03</pdfrwt>
<totfact> 0.85113189E+03</totfact>
</mgrwt>
</event>
<event>
 6    1  0.5258538E-006  0.4022046E+03  0.7546771E-02  0.1074331E+00
         -1   -1    0    0    0  501 -0.00000000000E+00  0.00000000000E+00  0.37300523756E+03  0.37300523756E+03  0.00000000000E+00 0.  1.
          1   -1    0    0  501    0  0.00000000000E+00 -0.00000000000E+00 -0.58397400143E+03  0.58397400143E+03  0.00000000000E+00 0. -1.
          5    1    1    2  502    0  0.19169191410E+03 -0.33754721145E+02 -0.50884155974E+03  0.54481831289E+03  0.47000000000E+01 0. -1.
         -5    1    1    2    0  502 -0.54170562839E+02  0.66303650717E+02  0.20168173963E+02  0.88087849433E+02  0.47000000000E+01 0.  1.
        -11    1    1    2    0    0 -0.70910656409E+02 -0.61862999362E+02  0.14942451510E+03  0.17658719545E+03  0.00000000000E+00 0. -1.
         11    1    1    2    0    0 -0.66610694855E+02  0.29314069789E+02  0.12828010681E+03  0.14748588122E+03  0.00000000000E+00 0.  1.
<mgrwt>
<rscale>  0 0.32288109E+03</rscale>
<asrwt>0</asrwt>
<pdfrwt beam="2">  1        1 0.89842153E-01 0.40220459E+03</pdfrwt>
<pdfrwt beam="1">  1       -1 0.57385422E-01 0.40220459E+03</pdfrwt>
<totfact> 0.11490060E+02</totfact>
</mgrwt>
</event>
<event>
 6    1  0.5258538E-006  0.1706280E+03  0.7546771E-02  0.1183731E+00
          1   -1    0    0  501    0  0.00000000000E+00  0.00000000000E+00  0.11711499987E+03  0.11711499987E+03  0.00000000000E+00 0. -1.
         -1   -1    0    0    0  501 -0.00000000000E+00 -0.00000000000E+00 -0.25702178965E+03  0.25702178965E+03  0.00000000000E+00 0.  1.
          5    1    1    2  502    0 -0.65536254886E+02 -0.37821106540E+02  0.49210045233E+02  0.90383379867E+02  0.47000000000E+01 0.  1.
         -5    1    1    2    0  502  0.80274975113E+01 -0.63075749947E+02 -0.48726012657E+02  0.80245281837E+02  0.47000000000E+01 0.  1.
        -11    1    1    2    0    0  0.10654927648E+02  0.13760722389E+02 -0.91522966702E+02  0.93162966880E+02  0.00000000000E+00 0.  1.
         11    1    1    2    0    0  0.46853829727E+02  0.87136134098E+02 -0.48867855660E+02  0.11034516094E+03  0.00000000000E+00 0. -1.
<mgrwt>
<rscale>  0 0.16447886E+03</rscale>
<asrwt>0</asrwt>
<pdfrwt beam="1">  1        1 0.18017692E-01 0.17062798E+03</pdfrwt>
<pdfrwt beam="2">  1       -1 0.39541814E-01 0.17062798E+03</pdfrwt>
<totfact> 0.18150687E+03</totfact>
</mgrwt>
</event>
<event>
 6    1  0.5258538E-006  0.2401400E+03  0.7546771E-02  0.1122787E+00
         -1   -1    0    0    0  501 -0.00000000000E+00  0.00000000000E+00  0.18466996239E+03  0.18466996239E+03  0.00000000000E+00 0.  1.
          1   -1    0    0  501    0  0.00000000000E+00 -0.00000000000E+00 -0.63804041360E+03  0.63804041360E+03  0.00000000000E+00 0. -1.
          5    1    1    2  502    0  0.78290578466E+02 -0.22799045603E+02 -0.22235431439E+03  0.23688128311E+03  0.47000000000E+01 0. -1.
         -5    1    1    2    0  502  0.25289786903E+02 -0.15415913133E+03 -0.31220144897E+03  0.34913671511E+03  0.47000000000E+01 0. -1.
        -11    1    1    2    0    0 -0.41213416336E+02  0.57102501705E+02 -0.13503074869E+02  0.71704772630E+02  0.00000000000E+00 0.  1.
         11    1    1    2    0    0 -0.62366949033E+02  0.11985567523E+03  0.94688387020E+02  0.16498760515E+03  0.00000000000E+00 0. -1.
<mgrwt>
<rscale>  0 0.23555899E+03</rscale>
<asrwt>0</asrwt>
<pdfrwt beam="2">  1        1 0.98160064E-01 0.24014002E+03</pdfrwt>
<pdfrwt beam="1">  1       -1 0.28410763E-01 0.24014002E+03</pdfrwt>
<totfact> 0.36525523E+02</totfact>
</mgrwt>
</event>
<event>
 6    1  0.5258538E-006  0.2812361E+03  0.7546771E-02  0.1095016E+00
         -1   -1    0    0    0  501 -0.00000000000E+00  0.00000000000E+00  0.59134109551E+03  0.59134109551E+03  0.00000000000E+00 0.  1.
          1   -1    0    0  501    0  0.00000000000E+00 -0.00000000000E+00 -0.33438297890E+02  0.33438297890E+02  0.00000000000E+00 0. -1.
          5    1    1    2  502    0  0.34420126330E+02  0.42306908655E+02  0.54684072772E+02  0.77376077902E+02  0.47000000000E+01 0. -1.
         -5    1    1    2    0  502 -0.13603937941E+02 -0.60663696209E+02  0.19034639352E+03  0.20029725583E+03  0.47000000000E+01 0.  1.
        -11    1    1    2    0    0 -0.80708389986E+02  0.92029630574E+00  0.12185958634E+03  0.14616583028E+03  0.00000000000E+00 0.  1.
         11    1    1    2    0    0  0.59892201596E+02  0.17436491248E+02  0.19101274499E+03  0.20094022939E+03  0.00000000000E+00 0. -1.
<mgrwt>
<rscale>  0 0.28123613E+03</rscale>
<asrwt>0</asrwt>
<pdfrwt beam="2">  1        1 0.51443539E-02 0.28123613E+03</pdfrwt>
<pdfrwt beam="1">  1       -1 0.90975546E-01 0.28123613E+03</pdfrwt>
<totfact> 0.19846176E+03</totfact>
</mgrwt>
</event>
<event>
 6    1  0.5258538E-006  0.1391804E+03  0.7546771E-02  0.1225443E+00
         -2   -1    0    0    0  501 -0.00000000000E+00  0.00000000000E+00  0.10941869818E+02  0.10941869818E+02  0.00000000000E+00 0.  1.
          2   -1    0    0  501    0  0.00000000000E+00 -0.00000000000E+00 -0.18768809648E+04  0.18768809648E+04  0.00000000000E+00 0. -1.
          5    1    1    2  502    0 -0.22268015829E+02  0.40393101258E+02 -0.29020359566E+03  0.29388379352E+03  0.47000000000E+01 0. -1.
         -5    1    1    2    0  502  0.79941162016E+02 -0.19916033287E+02 -0.11855939284E+04  0.11884621537E+04  0.47000000000E+01 0. -1.
        -11    1    1    2    0    0  0.23153172627E+02  0.10465095770E+01 -0.48616101879E+02  0.53858053686E+02  0.00000000000E+00 0.  1.
         11    1    1    2    0    0 -0.80826318814E+02 -0.21523577548E+02 -0.34152546906E+03  0.35161883371E+03  0.00000000000E+00 0. -1.
<mgrwt>
<rscale>  0 0.13136606E+03</rscale>
<asrwt>0</asrwt>
<pdfrwt beam="2">  1        2 0.28875106E+00 0.13918037E+03</pdfrwt>
<pdfrwt beam="1">  1       -2 0.16833637E-02 0.13918037E+03</pdfrwt>
<totfact> 0.84563656E+03</totfact>
</mgrwt>
</event>
<event>
 6    1  0.5258538E-006  0.1262565E+03  0.7546771E-02  0.1250509E+00
         -1   -1    0    0    0  501 -0.00000000000E+00  0.00000000000E+00  0.28303370594E+02  0.28303370594E+02  0.00000000000E+00 0.  1.
          1   -1    0    0  501    0  0.00000000000E+00 -0.00000000000E+00 -0.50320670675E+03  0.50320670675E+03  0.00000000000E+00 0. -1.
          5    1    1    2  502    0  0.32387998366E+02 -0.31584152321E+02 -0.27154670128E+03  0.27532933387E+03  0.47000000000E+01 0. -1.
         -5    1    1    2    0  502 -0.44763305620E+02  0.44281694875E+02 -0.11339325389E+03  0.12978729545E+03  0.47000000000E+01 0. -1.
        -11    1    1    2    0    0  0.23565314529E+02 -0.46223444502E+02 -0.64774868180E+02  0.82992255170E+02  0.00000000000E+00 0.  1.
         11    1    1    2    0    0 -0.11190007274E+02  0.33525901947E+02 -0.25188512814E+02  0.43401192863E+02  0.00000000000E+00 0. -1.
<mgrwt>
<rscale>  0 0.11561635E+03</rscale>
<asrwt>0</asrwt>
<pdfrwt beam="2">  1        1 0.77416419E-01 0.12625654E+03</pdfrwt>
<pdfrwt beam="1">  1       -1 0.43543646E-02 0.12625654E+03</pdfrwt>
<totfact> 0.92025201E+03</totfact>
</mgrwt>
</event>
<event>
 6    1  0.5258538E-006  0.2275156E+03  0.7546771E-02  0.1131284E+00
         -2   -1    0    0    0  501 -0.00000000000E+00  0.00000000000E+00  0.28495608109E+02  0.28495608109E+02  0.00000000000E+00 0.  1.
          2   -1    0    0  501    0  0.00000000000E+00 -0.00000000000E+00 -0.17003686986E+04  0.17003686986E+04  0.00000000000E+00 0. -1.
          5    1    1    2  502    0 -0.88904490434E+02  0.13572785086E+03 -0.88937203846E+03  0.90406347715E+03  0.47000000000E+01 0. -1.
         -5    1    1    2    0  502 -0.23463119860E+02  0.17607274930E+02 -0.27051031114E+02  0.40179377899E+02  0.47000000000E+01 0. -1.
        -11    1    1    2    0    0  0.81582434735E+02 -0.38959491716E+02 -0.26218491577E+03  0.27733457359E+03  0.00000000000E+00 0.  1.
         11    1    1    2    0    0  0.30785175560E+02 -0.11437563408E+03 -0.49326510517E+03  0.50728687809E+03  0.00000000000E+00 0. -1.
<mgrwt>
<rscale>  0 0.22352219E+03</rscale>
<asrwt>0</asrwt>
<pdfrwt beam="2">  1        2 0.26159517E+00 0.22751555E+03</pdfrwt>
<pdfrwt beam="1">  1       -2 0.43839400E-02 0.22751555E+03</pdfrwt>
<totfact> 0.25557710E+03</totfact>
</mgrwt>
</event>
<event>
 6    1  0.5258538E-006  0.1701410E+03  0.7546771E-02  0.1185208E+00
         -2   -1    0    0    0  501 -0.00000000000E+00  0.00000000000E+00  0.21275047724E+03  0.21275047724E+03  0.00000000000E+00 0.  1.
          2   -1    0    0  501    0  0.00000000000E+00 -0.00000000000E+00 -0.12150775570E+03  0.12150775570E+03  0.00000000000E+00 0. -1.
          5    1    1    2  502    0  0.77579973985E+02  0.11543176139E+03  0.42044821927E+01  0.13922252537E+03  0.47000000000E+01 0.  1.
         -5    1    1    2    0  502 -0.27457631819E+02 -0.11453159622E+02  0.89746692025E+01  0.31428189540E+02  0.47000000000E+01 0.  1.
        -11    1    1    2    0    0 -0.27424267902E+02  0.84344463317E+01  0.10812861939E+02  0.30661838467E+02  0.00000000000E+00 0. -1.
         11    1    1    2    0    0 -0.22698074264E+02 -0.11241304810E+03  0.67250708212E+02  0.13294567956E+03  0.00000000000E+00 0.  1.
<mgrwt>
<rscale>  0 0.16312990E+03</rscale>
<asrwt>0</asrwt>
<pdfrwt beam="2">  1        2 0.18693501E-01 0.17014105E+03</pdfrwt>
<pdfrwt beam="1">  1       -2 0.32730843E-01 0.17014105E+03</pdfrwt>
<totfact> 0.25548378E+03</totfact>
</mgrwt>
</event>
<event>
 6    1  0.5258538E-006  0.1962484E+03  0.7546771E-02  0.1157279E+00
         -2   -1    0    0    0  501 -0.00000000000E+00  0.00000000000E+00  0.12156390821E+02  0.12156390821E+02  0.00000000000E+00 0.  1.
          2   -1    0    0  501    0  0.00000000000E+00 -0.00000000000E+00 -0.31503280449E+04  0.31503280449E+04  0.00000000000E+00 0. -1.
          5    1    1    2  502    0 -0.18037266390E+02 -0.57612271059E+02 -0.15959521875E+04  0.15971004951E+04  0.47000000000E+01 0.  1.
         -5    1    1    2    0  502 -0.27681828358E+02 -0.86604062900E+02 -0.51784071307E+03  0.52578288432E+03  0.47000000000E+01 0.  1.
        -11    1    1    2    0    0 -0.20693404395E+02  0.87469170237E+02 -0.51290419698E+03  0.52072045092E+03  0.00000000000E+00 0.  1.
         11    1    1    2    0    0  0.66412499143E+02  0.56747163723E+02 -0.51147455658E+03  0.51888060540E+03  0.00000000000E+00 0. -1.
<mgrwt>
<rscale>  0 0.19131664E+03</rscale>
<asrwt>0</asrwt>
<pdfrwt beam="2">  1        2 0.48466627E+00 0.19624835E+03</pdfrwt>
<pdfrwt beam="1">  1       -2 0.18702124E-02 0.19624835E+03</pdfrwt>
<totfact> 0.14638428E+03</totfact>
</mgrwt>
</event>
<event>
 6    1  0.5258538E-006  0.2583233E+03  0.7546771E-02  0.1108155E+00
         -2   -1    0    0    0  501 -0.00000000000E+00  0.00000000000E+00  0.15338673658E+02  0.15338673658E+02  0.00000000000E+00 0.  1.
          2   -1    0    0  501    0  0.00000000000E+00 -0.00000000000E+00 -0.10876257220E+04  0.10876257220E+04  0.00000000000E+00 0. -1.
          5    1    1    2  502    0  0.38347790792E+02 -0.42246843100E+02 -0.74288845744E+03  0.74509106759E+03  0.47000000000E+01 0. -1.
         -5    1    1    2    0  502  0.21856466976E+01 -0.49593354185E+01  0.30598219692E+01  0.77990108195E+01  0.47000000000E+01 0. -1.
        -11    1    1    2    0    0 -0.56287702649E+02 -0.61532965294E+00 -0.13431395535E+03  0.14563283525E+03  0.00000000000E+00 0.  1.
         11    1    1    2    0    0  0.15754265160E+02  0.47821508171E+02 -0.19814445749E+03  0.20444148196E+03  0.00000000000E+00 0. -1.
<mgrwt>
<rscale>  0 0.25832333E+03</rscale>
<asrwt>0</asrwt>
<pdfrwt beam="2">  1        2 0.16732701E+00 0.25832333E+03</pdfrwt>
<pdfrwt beam="1">  1       -2 0.23597963E-02 0.25832333E+03</pdfrwt>
<totfact> 0.13999714E+04</totfact>
</mgrwt>
</event>
<event>
 6    1  0.5258538E-006  0.1385834E+03  0.7546771E-02  0.1225781E+00
          1   -1    0    0  501    0  0.00000000000E+00  0.00000000000E+00  0.81538423709E+03  0.81538423709E+03  0.00000000000E+00 0. -1.
         -1   -1    0    0    0  501 -0.00000000000E+00 -0.00000000000E+00 -0.19121023626E+02  0.19121023626E+02  0.00000000000E+00 0.  1.
          5    1    1    2  502    0  0.95019200031E+02 -0.14231741327E+02  0.24812807078E+03  0.26612181486E+03  0.47000000000E+01 0. -1.
         -5    1    1    2    0  502 -0.36107249686E+02  0.38874798834E+01  0.18665962914E+03  0.19021764674E+03  0.47000000000E+01 0. -1.
        -11    1    1    2    0    0 -0.78282399750E+02  0.28034719419E+02  0.24339950596E+03  0.25721080675E+03  0.00000000000E+00 0.  1.
         11    1    1    2    0    0  0.19370449405E+02 -0.17690457976E+02  0.11807600758E+03  0.12095499237E+03  0.00000000000E+00 0. -1.
<mgrwt>
<rscale>  0 0.13113513E+03</rscale>
<asrwt>0</asrwt>
<pdfrwt beam="1">  1        1 0.12544370E+00 0.13858341E+03</pdfrwt>
<pdfrwt beam="2">  1       -1 0.29416966E-02 0.13858341E+03</pdfrwt>
<totfact> 0.83804452E+03</totfact>
</mgrwt>
</event>
<event>
 6    1  0.5258538E-006  0.1569319E+03  0.7546771E-02  0.1200053E+00
         -2   -1    0    0    0  501 -0.00000000000E+00  0.00000000000E+00  0.13204377574E+02  0.13204377574E+02  0.00000000000E+00 0.  1.
          2   -1    0    0  501    0  0.00000000000E+00 -0.00000000000E+00 -0.16776174220E+04  0.16776174220E+04  0.00000000000E+00 0. -1.
          5    1    1    2  502    0 -0.26542886478E+02  0.86600957021E+02 -0.61811918856E+03  0.62473808259E+03  0.47000000000E+01 0.  1.
         -5    1    1    2    0  502  0.65982437247E+02 -0.26303749608E+00 -0.48174287681E+03  0.48626334488E+03  0.47000000000E+01 0.  1.
        -11    1    1    2    0    0 -0.69209061173E+02 -0.51583326627E+02 -0.38004546981E+03  0.38972463722E+03  0.00000000000E+00 0.  1.
         11    1    1    2    0    0  0.29769510404E+02 -0.34754592898E+02 -0.18450550926E+03  0.19009573489E+03  0.00000000000E+00 0. -1.
<mgrwt>
<rscale>  0 0.15034256E+03</rscale>
<asrwt>0</asrwt>
<pdfrwt beam="2">  1        2 0.25809494E+00 0.15693186E+03</pdfrwt>
<pdfrwt beam="1">  1       -2 0.20314431E-02 0.15693186E+03</pdfrwt>
<totfact> 0.81744026E+03</totfact>
</mgrwt>
</event>
<event>
 6    1  0.5258538E-006  0.3359507E+03  0.7546771E-02  0.1068534E+00
         -1   -1    0    0    0  501 -0.00000000000E+00  0.00000000000E+00  0.29733813979E+02  0.29733813979E+02  0.00000000000E+00 0.  1.
          1   -1    0    0  501    0  0.00000000000E+00 -0.00000000000E+00 -0.94894352792E+03  0.94894352792E+03  0.00000000000E+00 0. -1.
          5    1    1    2  502    0  0.59895811409E+02  0.93036476646E+02 -0.46064592917E+03  0.47377215650E+03  0.47000000000E+01 0. -1.
         -5    1    1    2    0  502 -0.23206891972E+02 -0.17517076045E+02 -0.31346711467E+03  0.31484778825E+03  0.47000000000E+01 0. -1.
        -11    1    1    2    0    0  0.16143356157E+02 -0.34837382776E+02 -0.10604751087E+03  0.11278442156E+03  0.00000000000E+00 0. -1.
         11    1    1    2    0    0 -0.52832275594E+02 -0.40682017825E+02 -0.39049159234E+02  0.77272975585E+02  0.00000000000E+00 0.  1.
<mgrwt>
<rscale>  0 0.33595065E+03</rscale>
<asrwt>0</asrwt>
<pdfrwt beam="2">  1        1 0.14599133E+00 0.33595065E+03</pdfrwt>
<pdfrwt beam="1">  1       -1 0.45744323E-02 0.33595065E+03</pdfrwt>
<totfact> 0.35277245E+03</totfact>
</mgrwt>
</event>
<event>
 6    1  0.5258538E-006  0.1330728E+03  0.7546771E-02  0.1235862E+00
          2   -1    0    0  501    0  0.00000000000E+00  0.00000000000E+00  0.77311242363E+03  0.77311242363E+03  0.00000000000E+00 0. -1.
         -2   -1    0    0    0  501 -0.00000000000E+00 -0.00000000000E+00 -0.18015075276E+02  0.18015075276E+02  0.00000000000E+00 0.  1.
          5    1    1    2  502    0 -0.28620319225E+02  0.30848945867E+01  0.40836923443E+03  0.40940952710E+03  0.47000000000E+01 0. -1.
         -5    1    1    2    0  502  0.12319328317E+02 -0.45737774251E+02  0.55237059854E+02  0.72917299901E+02  0.47000000000E+01 0. -1.
        -11    1    1    2    0    0  0.39230463095E+02  0.53546805471E+01  0.22959979201E+03  0.23298876868E+03  0.00000000000E+00 0. -1.
         11    1    1    2    0    0 -0.22929472186E+02  0.37298199117E+02  0.61891262050E+02  0.75811903223E+02  0.00000000000E+00 0.  1.
<mgrwt>
<rscale>  0 0.12449394E+03</rscale>
<asrwt>0</asrwt>
<pdfrwt beam="1">  1        2 0.11894035E+00 0.13307281E+03</pdfrwt>
<pdfrwt beam="2">  1       -2 0.27715506E-02 0.13307281E+03</pdfrwt>
<totfact> 0.16772209E+04</totfact>
</mgrwt>
</event>
<event>
 6    1  0.5258538E-006  0.1324156E+03  0.7546771E-02  0.1237369E+00
         -3   -1    0    0    0  501 -0.00000000000E+00  0.00000000000E+00  0.13722381447E+03  0.13722381447E+03  0.00000000000E+00 0.  1.
          3   -1    0    0  501    0  0.00000000000E+00 -0.00000000000E+00 -0.10657557955E+03  0.10657557955E+03  0.00000000000E+00 0. -1.
          5    1    1    2  502    0 -0.28832150972E+02 -0.58981544401E+02 -0.19739741986E+02  0.68715812760E+02  0.47000000000E+01 0.  1.
         -5    1    1    2    0  502 -0.14687632462E+02  0.62609988037E+02  0.41484011456E+01  0.64614521444E+02  0.47000000000E+01 0.  1.
        -11    1    1    2    0    0 -0.21607491601E+02 -0.23709361294E+02  0.17056012221E+02  0.36330772895E+02  0.00000000000E+00 0.  1.
         11    1    1    2    0    0  0.65127275035E+02  0.20080917658E+02  0.29183563533E+02  0.74138286924E+02  0.00000000000E+00 0. -1.
<mgrwt>
<rscale>  0 0.12354005E+03</rscale>
<asrwt>0</asrwt>
<pdfrwt beam="2">  1        3 0.16396243E-01 0.13241559E+03</pdfrwt>
<pdfrwt beam="1">  1       -3 0.21111356E-01 0.13241559E+03</pdfrwt>
<totfact> 0.14841889E+03</totfact>
</mgrwt>
</event>
<event>
 6    1  0.5258538E-006  0.1328868E+03  0.7546771E-02  0.1236265E+00
         -3   -1    0    0    0  501 -0.00000000000E+00  0.00000000000E+00  0.38026333937E+02  0.38026333937E+02  0.00000000000E+00 0.  1.
          3   -1    0    0  501    0  0.00000000000E+00 -0.00000000000E+00 -0.36490386047E+03  0.36490386047E+03  0.00000000000E+00 0. -1.
          5    1    1    2  502    0 -0.49958328125E+02  0.25733267819E+02 -0.21568046753E+03  0.22293090789E+03  0.47000000000E+01 0.  1.
         -5    1    1    2    0  502  0.57247440876E+01 -0.17060901253E+02  0.10623704811E+02  0.21419620686E+02  0.47000000000E+01 0.  1.
        -11    1    1    2    0    0  0.62023462378E+02 -0.15152377669E+02 -0.41715261708E+02  0.76267080014E+02  0.00000000000E+00 0.  1.
         11    1    1    2    0    0 -0.17789878341E+02  0.64800111025E+01 -0.80105502108E+02  0.82312585813E+02  0.00000000000E+00 0. -1.
<mgrwt>
<rscale>  0 0.12423789E+03</rscale>
<asrwt>0</asrwt>
<pdfrwt beam="2">  1        3 0.56139056E-01 0.13288681E+03</pdfrwt>
<pdfrwt beam="1">  1       -3 0.58502052E-02 0.13288681E+03</pdfrwt>
<totfact> 0.12851540E+03</totfact>
</mgrwt>
</event>
<event>
 6    1  0.5258538E-006  0.1452523E+03  0.7546771E-02  0.1216395E+00
         -4   -1    0    0    0  501 -0.00000000000E+00  0.00000000000E+00  0.83094054099E+02  0.83094054099E+02  0.00000000000E+00 0.  1.
          4   -1    0    0  501    0  0.00000000000E+00 -0.00000000000E+00 -0.34756348633E+03  0.34756348633E+03  0.00000000000E+00 0. -1.
          5    1    1    2  502    0  0.32072969271E+02 -0.93795786389E+01 -0.37387196589E+02  0.50364117406E+02  0.47000000000E+01 0. -1.
         -5    1    1    2    0  502 -0.97205413103E+02  0.44464593493E+02 -0.23935457649E+03  0.26218065470E+03  0.47000000000E+01 0. -1.
        -11    1    1    2    0    0 -0.37557059472E+01 -0.10830348370E+02  0.38763838486E+02  0.40423222870E+02  0.00000000000E+00 0.  1.
         11    1    1    2    0    0  0.68888149779E+02 -0.24254666484E+02 -0.26491497642E+02  0.77689545459E+02  0.00000000000E+00 0. -1.
<mgrwt>
<rscale>  0 0.13774542E+03</rscale>
<asrwt>0</asrwt>
<pdfrwt beam="2">  1        4 0.53471305E-01 0.14525228E+03</pdfrwt>
<pdfrwt beam="1">  1       -4 0.12783701E-01 0.14525228E+03</pdfrwt>
<totfact> 0.28371190E+02</totfact>
</mgrwt>
</event>
<event>
 6    1  0.5258538E-006  0.1129331E+03  0.7546771E-02  0.1266032E+00
         -1   -1    0    0    0  501 -0.00000000000E+00  0.00000000000E+00  0.12355519256E+03  0.12355519256E+03  0.00000000000E+00 0.  1.
          1   -1    0    0  501    0  0.00000000000E+00 -0.00000000000E+00 -0.11325181028E+03  0.11325181028E+03  0.00000000000E+00 0. -1.
          5    1    1    2  502    0  0.34328562006E+02 -0.43405815094E+02 -0.18134035670E+02  0.58424722533E+02  0.47000000000E+01 0. -1.
         -5    1    1    2    0  502 -0.45604572724E+02  0.32698603048E+02 -0.35777892062E+02  0.66716738942E+02  0.47000000000E+01 0.  1.
        -11    1    1    2    0    0 -0.37232467840E+01  0.43001164928E+02  0.62579448652E+02  0.76020721815E+02  0.00000000000E+00 0.  1.
         11    1    1    2    0    0  0.14999257503E+02 -0.32293952881E+02  0.16358613679E+01  0.35644819550E+02  0.00000000000E+00 0. -1.
<mgrwt>
<rscale>  0 0.10710213E+03</rscale>
<asrwt>0</asrwt>
<pdfrwt beam="2">  1        1 0.17423355E-01 0.11293312E+03</pdfrwt>
<pdfrwt beam="1">  1       -1 0.19008491E-01 0.11293312E+03</pdfrwt>
<totfact> 0.62804785E+03</totfact>
</mgrwt>
</event>
<event>
 6    1  0.5258538E-006  0.1307166E+03  0.7546771E-02  0.1240389E+00
          1   -1    0    0  501    0  0.00000000000E+00  0.00000000000E+00  0.16003683197E+03  0.16003683197E+03  0.00000000000E+00 0. -1.
         -1   -1    0    0    0  501 -0.00000000000E+00 -0.00000000000E+00 -0.82986616667E+02  0.82986616667E+02  0.00000000000E+00 0.  1.
          5    1    1    2  502    0  0.24503615341E+00  0.57321996917E+02  0.61583093720E+02  0.84264101523E+02  0.47000000000E+01 0. -1.
         -5    1    1    2    0  502 -0.36785662322E+02 -0.45719563702E+02 -0.30748578014E+01  0.58949200233E+02  0.47000000000E+01 0. -1.
        -11    1    1    2    0    0 -0.22866737368E+02  0.86862195385E+01 -0.14940521033E+02  0.28662820107E+02  0.00000000000E+00 0.  1.
         11    1    1    2    0    0  0.59407363537E+02 -0.20288652754E+02  0.33482500416E+02  0.71147326774E+02  0.00000000000E+00 0. -1.
<mgrwt>
<rscale>  0 0.12165646E+03</rscale>
<asrwt>0</asrwt>
<pdfrwt beam="1">  1        1 0.24621051E-01 0.13071663E+03</pdfrwt>
<pdfrwt beam="2">  1       -1 0.12767172E-01 0.13071663E+03</pdfrwt>
<totfact> 0.76518188E+03</totfact>
</mgrwt>
</event>
<event>
 6    1  0.5258538E-006  0.1511176E+03  0.7546771E-02  0.1206405E+00
          1   -1    0    0  501    0  0.00000000000E+00  0.00000000000E+00  0.47240240819E+03  0.47240240819E+03  0.00000000000E+00 0. -1.
         -1   -1    0    0    0  501 -0.00000000000E+00 -0.00000000000E+00 -0.88573906971E+02  0.88573906971E+02  0.00000000000E+00 0.  1.
          5    1    1    2  502    0  0.22305628920E+02 -0.91266219140E+02  0.38903974437E+03  0.40025126675E+03  0.47000000000E+01 0.  1.
         -5    1    1    2    0  502  0.19722137532E+02  0.17483992759E+02  0.14051006864E+02  0.30235302305E+02  0.47000000000E+01 0.  1.
        -11    1    1    2    0    0 -0.27929911751E+02 -0.83536619943E+01 -0.35135147369E+02  0.45654596918E+02  0.00000000000E+00 0.  1.
         11    1    1    2    0    0 -0.14097854700E+02  0.82135888376E+02  0.15872897351E+02  0.84835149182E+02  0.00000000000E+00 0. -1.
<mgrwt>
<rscale>  0 0.14527283E+03</rscale>
<asrwt>0</asrwt>
<pdfrwt beam="1">  1        1 0.72677292E-01 0.15111761E+03</pdfrwt>
<pdfrwt beam="2">  1       -1 0.13626755E-01 0.15111761E+03</pdfrwt>
<totfact> 0.18005758E+03</totfact>
</mgrwt>
</event>
<event>
 6    1  0.5258538E-006  0.1335459E+03  0.7546771E-02  0.1235583E+00
          2   -1    0    0  501    0  0.00000000000E+00  0.00000000000E+00  0.65587375928E+03  0.65587375928E+03  0.00000000000E+00 0. -1.
         -2   -1    0    0    0  501 -0.00000000000E+00 -0.00000000000E+00 -0.29862455051E+02  0.29862455051E+02  0.00000000000E+00 0.  1.
          5    1    1    2  502    0  0.84251208601E+01 -0.38967572334E+02  0.47703280478E+03  0.47871895846E+03  0.47000000000E+01 0. -1.
         -5    1    1    2    0  502 -0.41248191169E+02  0.53269583860E+01  0.51186620290E+02  0.66120721843E+02  0.47000000000E+01 0. -1.
        -11    1    1    2    0    0  0.63992206759E+02  0.27494995404E+02  0.66049836101E+02  0.95987281174E+02  0.00000000000E+00 0.  1.
         11    1    1    2    0    0 -0.31169136449E+02  0.61456185431E+01  0.31742043063E+02  0.44909252856E+02  0.00000000000E+00 0. -1.
<mgrwt>
<rscale>  0 0.12467157E+03</rscale>
<asrwt>0</asrwt>
<pdfrwt beam="1">  1        2 0.10090364E+00 0.13354593E+03</pdfrwt>
<pdfrwt beam="2">  1       -2 0.45942243E-02 0.13354593E+03</pdfrwt>
<totfact> 0.96679674E+03</totfact>
</mgrwt>
</event>
<event>
 6    1  0.5258538E-006  0.3351775E+03  0.7546771E-02  0.1068869E+00
         -1   -1    0    0    0  501 -0.00000000000E+00  0.00000000000E+00  0.55992402755E+02  0.55992402755E+02  0.00000000000E+00 0.  1.
          1   -1    0    0  501    0  0.00000000000E+00 -0.00000000000E+00 -0.50160345868E+03  0.50160345868E+03  0.00000000000E+00 0. -1.
          5    1    1    2  502    0  0.14942468164E+02  0.13854467072E+03 -0.25713885577E+03  0.29250706707E+03  0.47000000000E+01 0. -1.
         -5    1    1    2    0  502 -0.93574557458E+01 -0.11175450237E+02  0.52926764458E+01  0.16203551771E+02  0.47000000000E+01 0. -1.
        -11    1    1    2    0    0 -0.31870309926E+02 -0.11208517909E+02 -0.23712958655E+02  0.41275318735E+02  0.00000000000E+00 0. -1.
         11    1    1    2    0    0  0.26285297508E+02 -0.11616070257E+03 -0.17005191794E+03  0.20760992386E+03  0.00000000000E+00 0.  1.
<mgrwt>
<rscale>  0 0.33517746E+03</rscale>
<asrwt>0</asrwt>
<pdfrwt beam="2">  1        1 0.77169761E-01 0.33517746E+03</pdfrwt>
<pdfrwt beam="1">  1       -1 0.86142160E-02 0.33517746E+03</pdfrwt>
<totfact> 0.34613336E+03</totfact>
</mgrwt>
</event>
<event>
 6    1  0.5258538E-006  0.3793242E+03  0.7546771E-02  0.1051184E+00
         -1   -1    0    0    0  501 -0.00000000000E+00  0.00000000000E+00  0.10086433763E+04  0.10086433763E+04  0.00000000000E+00 0.  1.
          1   -1    0    0  501    0  0.00000000000E+00 -0.00000000000E+00 -0.35663465745E+02  0.35663465745E+02  0.00000000000E+00 0. -1.
          5    1    1    2  502    0  0.15813187523E+03  0.69052396863E+02  0.44415078505E+03  0.47651435795E+03  0.47000000000E+01 0.  1.
         -5    1    1    2    0  502 -0.16836161941E+02 -0.79332147951E+01  0.17698035313E+02  0.26109436988E+02  0.47000000000E+01 0.  1.
        -11    1    1    2    0    0 -0.11623354144E+03 -0.22960088912E+02  0.45030145822E+03  0.46562732427E+03  0.00000000000E+00 0.  1.
         11    1    1    2    0    0 -0.25062171853E+02 -0.38159093156E+02  0.60829631963E+02  0.76055722817E+02  0.00000000000E+00 0. -1.
<mgrwt>
<rscale>  0 0.37932423E+03</rscale>
<asrwt>0</asrwt>
<pdfrwt beam="2">  1        1 0.54866878E-02 0.37932423E+03</pdfrwt>
<pdfrwt beam="1">  1       -1 0.15517588E+00 0.37932423E+03</pdfrwt>
<totfact> 0.50551040E+02</totfact>
</mgrwt>
</event>
<event>
 6    1  0.5258538E-006  0.1485046E+03  0.7546771E-02  0.1211789E+00
         -1   -1    0    0    0  501 -0.00000000000E+00  0.00000000000E+00  0.29353818724E+02  0.29353818724E+02  0.00000000000E+00 0.  1.
          1   -1    0    0  501    0  0.00000000000E+00 -0.00000000000E+00 -0.62582273096E+03  0.62582273096E+03  0.00000000000E+00 0. -1.
          5    1    1    2  502    0  0.87898400671E+02 -0.48160186071E+02 -0.17682579978E+03  0.20331007312E+03  0.47000000000E+01 0.  1.
         -5    1    1    2    0  502 -0.96014092353E+01  0.30896898008E+02 -0.18397832793E+03  0.18686069815E+03  0.47000000000E+01 0.  1.
        -11    1    1    2    0    0 -0.69244434654E+02  0.49009710709E+02 -0.13881942864E+03  0.16268858977E+03  0.00000000000E+00 0.  1.
         11    1    1    2    0    0 -0.90525567814E+01 -0.31746422646E+02 -0.96845355891E+02  0.10231718865E+03  0.00000000000E+00 0. -1.
<mgrwt>
<rscale>  0 0.14115077E+03</rscale>
<asrwt>0</asrwt>
<pdfrwt beam="2">  1        1 0.96280427E-01 0.14850459E+03</pdfrwt>
<pdfrwt beam="1">  1       -1 0.45159718E-02 0.14850459E+03</pdfrwt>
<totfact> 0.65777063E+03</totfact>
</mgrwt>
</event>
<event>
 6    1  0.5258538E-006  0.1928433E+03  0.7546771E-02  0.1160673E+00
          1   -1    0    0  501    0  0.00000000000E+00  0.00000000000E+00  0.68021685821E+03  0.68021685821E+03  0.00000000000E+00 0.  1.
         -1   -1    0    0    0  501 -0.00000000000E+00 -0.00000000000E+00 -0.50619797771E+02  0.50619797771E+02  0.00000000000E+00 0. -1.
          5    1    1    2  502    0  0.16956352038E+02  0.45239982297E+02  0.56717628648E+02  0.74653554986E+02  0.47000000000E+01 0. -1.
         -5    1    1    2    0  502 -0.13887750073E+03  0.36590197666E+02  0.21138008984E+03  0.25559623462E+03  0.47000000000E+01 0. -1.
        -11    1    1    2    0    0  0.57973183554E+02  0.66735661706E+01  0.83120482640E+02  0.10156003708E+03  0.00000000000E+00 0. -1.
         11    1    1    2    0    0  0.63947965136E+02 -0.88503746134E+02  0.27837885932E+03  0.29902682930E+03  0.00000000000E+00 0.  1.
<mgrwt>
<rscale>  0 0.18756798E+03</rscale>
<asrwt>0</asrwt>
<pdfrwt beam="1">  1        1 0.10464874E+00 0.19284330E+03</pdfrwt>
<pdfrwt beam="2">  1       -1 0.77876617E-02 0.19284330E+03</pdfrwt>
<totfact> 0.26129344E+03</totfact>
</mgrwt>
</event>
<event>
 6    1  0.5258538E-006  0.1973699E+03  0.7546771E-02  0.1156368E+00
          2   -1    0    0  501    0  0.00000000000E+00  0.00000000000E+00  0.13138555788E+04  0.13138555788E+04  0.00000000000E+00 0.  1.
         -2   -1    0    0    0  501 -0.00000000000E+00 -0.00000000000E+00 -0.33998848000E+02  0.33998848000E+02  0.00000000000E+00 0. -1.
          5    1    1    2  502    0 -0.41845634046E+02 -0.14791454559E+03  0.80811911972E+03  0.82262286106E+03  0.47000000000E+01 0.  1.
         -5    1    1    2    0  502 -0.38101572187E+02  0.17764167838E+02  0.16737158598E+03  0.17263439186E+03  0.47000000000E+01 0.  1.
        -11    1    1    2    0    0  0.98913494821E+02  0.97812563113E+02  0.25654295277E+03  0.29183122447E+03  0.00000000000E+00 0. -1.
         11    1    1    2    0    0 -0.18966288588E+02  0.32337814634E+02  0.47823072288E+02  0.60765949356E+02  0.00000000000E+00 0.  1.
<mgrwt>
<rscale>  0 0.19233986E+03</rscale>
<asrwt>0</asrwt>
<pdfrwt beam="1">  1        2 0.20213159E+00 0.19736991E+03</pdfrwt>
<pdfrwt beam="2">  1       -2 0.52305930E-02 0.19736991E+03</pdfrwt>
<totfact> 0.31388576E+03</totfact>
</mgrwt>
</event>
<event>
 6    1  0.5258538E-006  0.1417501E+03  0.7546771E-02  0.1214765E+00
          2   -1    0    0  501    0  0.00000000000E+00  0.00000000000E+00  0.85281844554E+03  0.85281844554E+03  0.00000000000E+00 0. -1.
         -2   -1    0    0    0  501 -0.00000000000E+00 -0.00000000000E+00 -0.13536082297E+03  0.13536082297E+03  0.00000000000E+00 0.  1.
          5    1    1    2  502    0 -0.82147269797E+02 -0.32059590514E+01  0.42341586097E+03  0.43134850577E+03  0.47000000000E+01 0. -1.
         -5    1    1    2    0  502  0.16827834842E+02 -0.55563102559E+02  0.39016200097E+03  0.39448562888E+03  0.47000000000E+01 0.  1.
        -11    1    1    2    0    0  0.81831925465E+02  0.21101925125E+02 -0.41997885214E+02  0.94369368080E+02  0.00000000000E+00 0.  1.
         11    1    1    2    0    0 -0.16512490510E+02  0.37667136485E+02 -0.54122354158E+02  0.67975765780E+02  0.00000000000E+00 0. -1.
<mgrwt>
<rscale>  0 0.13893779E+03</rscale>
<asrwt>0</asrwt>
<pdfrwt beam="1">  1        2 0.13120283E+00 0.14175006E+03</pdfrwt>
<pdfrwt beam="2">  1       -2 0.20824743E-01 0.14175006E+03</pdfrwt>
<totfact> 0.64731094E+02</totfact>
</mgrwt>
</event>
<event>
 6    1  0.5258538E-006  0.1290344E+03  0.7546771E-02  0.1244657E+00
         -1   -1    0    0    0  501 -0.00000000000E+00  0.00000000000E+00  0.89539054173E+02  0.89539054173E+02  0.00000000000E+00 0.  1.
          1   -1    0    0  501    0  0.00000000000E+00 -0.00000000000E+00 -0.20277420857E+03  0.20277420857E+03  0.00000000000E+00 0. -1.
          5    1    1    2  502    0 -0.47400822217E+02 -0.27684113909E+02 -0.15509579353E+03  0.16459053217E+03  0.47000000000E+01 0.  1.
         -5    1    1    2    0  502  0.26476565099E+02  0.34452523121E+01  0.10621965012E+02  0.29116909239E+02  0.47000000000E+01 0.  1.
        -11    1    1    2    0    0  0.50045145348E+02 -0.44711831525E+00  0.33723356849E+02  0.60348830020E+02  0.00000000000E+00 0.  1.
         11    1    1    2    0    0 -0.29120888230E+02  0.24685979912E+02 -0.24846827213E+01  0.38256991305E+02  0.00000000000E+00 0. -1.
<mgrwt>
<rscale>  0 0.11905926E+03</rscale>
<asrwt>0</asrwt>
<pdfrwt beam="2">  1        1 0.31196032E-01 0.12903444E+03</pdfrwt>
<pdfrwt beam="1">  1       -1 0.13775239E-01 0.12903444E+03</pdfrwt>
<totfact> 0.50582475E+03</totfact>
</mgrwt>
</event>
<event>
 6    1  0.5258538E-006  0.1258516E+03  0.7546771E-02  0.1246264E+00
          1   -1    0    0  501    0  0.00000000000E+00  0.00000000000E+00  0.12103194889E+04  0.12103194889E+04  0.00000000000E+00 0. -1.
         -1   -1    0    0    0  501 -0.00000000000E+00 -0.00000000000E+00 -0.10496019526E+02  0.10496019526E+02  0.00000000000E+00 0.  1.
          5    1    1    2  502    0 -0.50733504176E+02 -0.19055287075E+02  0.72459802660E+03  0.72663703633E+03  0.47000000000E+01 0. -1.
         -5    1    1    2    0  502  0.21623763709E+02  0.89871892159E+01  0.29817814899E+02  0.38204041832E+02  0.47000000000E+01 0.  1.
        -11    1    1    2    0    0 -0.31511482754E+02  0.69290388569E+01  0.94523933604E+02  0.99878722203E+02  0.00000000000E+00 0. -1.
         11    1    1    2    0    0  0.60621223222E+02  0.31390590021E+01  0.35088369432E+03  0.35609570811E+03  0.00000000000E+00 0.  1.
<mgrwt>
<rscale>  0 0.11810016E+03</rscale>
<asrwt>0</asrwt>
<pdfrwt beam="1">  1        1 0.18620289E+00 0.12585155E+03</pdfrwt>
<pdfrwt beam="2">  1       -1 0.16147732E-02 0.12585155E+03</pdfrwt>
<totfact> 0.10178447E+04</totfact>
</mgrwt>
</event>
<event>
 6    1  0.5258538E-006  0.1526534E+03  0.7546771E-02  0.1205941E+00
         -4   -1    0    0    0  501 -0.00000000000E+00  0.00000000000E+00  0.20452577118E+03  0.20452577118E+03  0.00000000000E+00 0.  1.
          4   -1    0    0  501    0  0.00000000000E+00 -0.00000000000E+00 -0.95345653170E+02  0.95345653170E+02  0.00000000000E+00 0. -1.
          5    1    1    2  502    0 -0.34678418633E+02 -0.29830051823E+02 -0.36877376787E+02  0.58944513140E+02  0.47000000000E+01 0. -1.
         -5    1    1    2    0  502 -0.70320177199E+01 -0.47224326219E+02  0.91267763128E+02  0.10310907257E+03  0.47000000000E+01 0. -1.
        -11    1    1    2    0    0  0.68129066984E+02  0.60340379064E+02  0.55410636923E+02  0.10654984654E+03  0.00000000000E+00 0.  1.
         11    1    1    2    0    0 -0.26418630631E+02  0.16713998978E+02 -0.62090525692E+00  0.31267992094E+02  0.00000000000E+00 0. -1.
<mgrwt>
<rscale>  0 0.14563545E+03</rscale>
<asrwt>0</asrwt>
<pdfrwt beam="2">  1        4 0.14668562E-01 0.15265337E+03</pdfrwt>
<pdfrwt beam="1">  1       -4 0.31465503E-01 0.15265337E+03</pdfrwt>
<totfact> 0.64480807E+02</totfact>
</mgrwt>
</event>
<event>
 6    1  0.5258538E-006  0.1561346E+03  0.7546771E-02  0.1202228E+00
          1   -1    0    0  501    0  0.00000000000E+00  0.00000000000E+00  0.13520910650E+03  0.13520910650E+03  0.00000000000E+00 0. -1.
         -1   -1    0    0    0  501 -0.00000000000E+00 -0.00000000000E+00 -0.17086940391E+03  0.17086940391E+03  0.00000000000E+00 0.  1.
          5    1    1    2  502    0  0.93924395594E+02  0.80607310349E+02  0.30132442797E+02  0.12747307433E+03  0.47000000000E+01 0. -1.
         -5    1    1    2    0  502 -0.28848860150E+02 -0.13393921844E+02  0.46164990982E+01  0.32481624624E+02  0.47000000000E+01 0. -1.
        -11    1    1    2    0    0 -0.18426926787E+02  0.11041659537E+02 -0.47577515167E+02  0.52202392910E+02  0.00000000000E+00 0.  1.
         11    1    1    2    0    0 -0.46648608658E+02 -0.78255048041E+02 -0.22831724137E+02  0.93921418541E+02  0.00000000000E+00 0. -1.
<mgrwt>
<rscale>  0 0.14858068E+03</rscale>
<asrwt>0</asrwt>
<pdfrwt beam="1">  1        1 0.20801401E-01 0.15613461E+03</pdfrwt>
<pdfrwt beam="2">  1       -1 0.26287601E-01 0.15613461E+03</pdfrwt>
<totfact> 0.30189364E+03</totfact>
</mgrwt>
</event>
<event>
 6    1  0.5258538E-006  0.1485819E+03  0.7546771E-02  0.1203040E+00
          1   -1    0    0  501    0  0.00000000000E+00  0.00000000000E+00  0.38119690676E+03  0.38119690676E+03  0.00000000000E+00 0. -1.
         -1   -1    0    0    0  501 -0.00000000000E+00 -0.00000000000E+00 -0.57191475309E+02  0.57191475309E+02  0.00000000000E+00 0.  1.
          5    1    1    2  502    0 -0.40877467198E+02  0.15187083550E+02  0.47024398308E+02  0.64303956857E+02  0.47000000000E+01 0. -1.
         -5    1    1    2    0  502  0.94280919982E+02  0.44794885959E+02  0.13180340791E+03  0.16819542805E+03  0.47000000000E+01 0. -1.
        -11    1    1    2    0    0 -0.28473076424E+02 -0.90126658910E+02  0.13615148815E+03  0.16574304948E+03  0.00000000000E+00 0. -1.
         11    1    1    2    0    0 -0.24930376360E+02  0.30144689402E+02  0.90261370917E+01  0.40145947683E+02  0.00000000000E+00 0.  1.
<mgrwt>
<rscale>  0 0.14793021E+03</rscale>
<asrwt>0</asrwt>
<pdfrwt beam="1">  1        1 0.58645676E-01 0.14858190E+03</pdfrwt>
<pdfrwt beam="2">  1       -1 0.87986887E-02 0.14858190E+03</pdfrwt>
<totfact> 0.46367509E+03</totfact>
</mgrwt>
</event>
<event>
 6    1  0.5258538E-006  0.1290644E+03  0.7546771E-02  0.1244402E+00
         -1   -1    0    0    0  501 -0.00000000000E+00  0.00000000000E+00  0.14221844350E+03  0.14221844350E+03  0.00000000000E+00 0. -1.
          1   -1    0    0  501    0  0.00000000000E+00 -0.00000000000E+00 -0.10259624087E+03  0.10259624087E+03  0.00000000000E+00 0.  1.
          5    1    1    2  502    0  0.39756363991E+02  0.29462909833E+02 -0.20325258333E+01  0.49747891361E+02  0.47000000000E+01 0. -1.
         -5    1    1    2    0  502 -0.71865412496E+02 -0.31244312529E+02 -0.22071765755E+02  0.81548129483E+02  0.47000000000E+01 0. -1.
        -11    1    1    2    0    0  0.59685512317E+02 -0.16217977368E+01  0.22507287384E+02  0.63808844166E+02  0.00000000000E+00 0. -1.
         11    1    1    2    0    0 -0.27576463812E+02  0.34032004326E+01  0.41219206829E+02  0.49709819364E+02  0.00000000000E+00 0.  1.
<mgrwt>
<rscale>  0 0.11921252E+03</rscale>
<asrwt>0</asrwt>
<pdfrwt beam="2">  1        1 0.15784037E-01 0.12906443E+03</pdfrwt>
<pdfrwt beam="1">  1       -1 0.21879761E-01 0.12906443E+03</pdfrwt>
<totfact> 0.57430795E+03</totfact>
</mgrwt>
</event>
<event>
 6    1  0.5258538E-006  0.1367157E+03  0.7546771E-02  0.1229899E+00
          1   -1    0    0  501    0  0.00000000000E+00  0.00000000000E+00  0.46386798966E+02  0.46386798966E+02  0.00000000000E+00 0. -1.
         -1   -1    0    0    0  501 -0.00000000000E+00 -0.00000000000E+00 -0.32499757421E+03  0.32499757421E+03  0.00000000000E+00 0.  1.
          5    1    1    2  502    0  0.25482999083E+02 -0.85674256039E+02 -0.60179695126E+02  0.10785706790E+03  0.47000000000E+01 0. -1.
         -5    1    1    2    0  502 -0.26787800478E+02  0.30372819582E+02 -0.69516958565E+02  0.80590272068E+02  0.47000000000E+01 0. -1.
        -11    1    1    2    0    0  0.13385390116E+02 -0.23092254016E+02 -0.32253344846E+02  0.41865249526E+02  0.00000000000E+00 0.  1.
         11    1    1    2    0    0 -0.12080588722E+02  0.78393690473E+02 -0.11666077671E+03  0.14107178368E+03  0.00000000000E+00 0. -1.
<mgrwt>
<rscale>  0 0.12836691E+03</rscale>
<asrwt>0</asrwt>
<pdfrwt beam="1">  1        1 0.71364307E-02 0.13671568E+03</pdfrwt>
<pdfrwt beam="2">  1       -1 0.49999626E-01 0.13671568E+03</pdfrwt>
<totfact> 0.40061371E+03</totfact>
</mgrwt>
</event>
<event>
 6    1  0.5258538E-006  0.2125044E+03  0.7546771E-02  0.1143501E+00
         -1   -1    0    0    0  501 -0.00000000000E+00  0.00000000000E+00  0.79033485096E+02  0.79033485096E+02  0.00000000000E+00 0.  1.
          1   -1    0    0  501    0  0.00000000000E+00 -0.00000000000E+00 -0.52180126326E+03  0.52180126326E+03  0.00000000000E+00 0. -1.
          5    1    1    2  502    0 -0.13827481954E+03 -0.72015946422E+02 -0.12052263517E+03  0.19711422538E+03  0.47000000000E+01 0.  1.
         -5    1    1    2    0  502 -0.74362817294E-01 -0.29929588263E+02 -0.12032218790E+03  0.12407781705E+03  0.47000000000E+01 0.  1.
        -11    1    1    2    0    0  0.64769182856E+02  0.99413887862E+02 -0.13935019809E+03  0.18302088913E+03  0.00000000000E+00 0. -1.
         11    1    1    2    0    0  0.73579999505E+02  0.25316468237E+01 -0.62572756996E+02  0.96621816796E+02  0.00000000000E+00 0.  1.
<mgrwt>
<rscale>  0 0.20757461E+03</rscale>
<asrwt>0</asrwt>
<pdfrwt beam="2">  1        1 0.80277121E-01 0.21250435E+03</pdfrwt>
<pdfrwt beam="1">  1       -1 0.12158997E-01 0.21250435E+03</pdfrwt>
<totfact> 0.19016102E+03</totfact>
</mgrwt>
</event>
<event>
 6    1  0.5258538E-006  0.1452994E+03  0.7546771E-02  0.1215246E+00
          2   -1    0    0  501    0  0.00000000000E+00  0.00000000000E+00  0.37591186324E+03  0.37591186324E+03  0.00000000000E+00 0. -1.
         -2   -1    0    0    0  501 -0.00000000000E+00 -0.00000000000E+00 -0.48173115993E+02  0.48173115993E+02  0.00000000000E+00 0.  1.
          5    1    1    2  502    0 -0.99445203363E+01  0.20554686055E+02  0.17326104471E+03  0.17482239050E+03  0.47000000000E+01 0.  1.
         -5    1    1    2    0  502 -0.61963778182E+02 -0.38323358511E+02  0.40046444866E+02  0.83270627237E+02  0.47000000000E+01 0.  1.
        -11    1    1    2    0    0  0.81090591135E+02 -0.10532547581E+02  0.52197225078E+02  0.97011178918E+02  0.00000000000E+00 0.  1.
         11    1    1    2    0    0 -0.91822926167E+01  0.28301220038E+02  0.62234032586E+02  0.68980782579E+02  0.00000000000E+00 0. -1.
<mgrwt>
<rscale>  0 0.13858445E+03</rscale>
<asrwt>0</asrwt>
<pdfrwt beam="1">  1        2 0.57832593E-01 0.14529942E+03</pdfrwt>
<pdfrwt beam="2">  1       -2 0.74112488E-02 0.14529942E+03</pdfrwt>
<totfact> 0.87043808E+03</totfact>
</mgrwt>
</event>
<event>
 6    1  0.5258538E-006  0.1803790E+03  0.7546771E-02  0.1172575E+00
          2   -1    0    0  501    0  0.00000000000E+00  0.00000000000E+00  0.10032005228E+04  0.10032005228E+04  0.00000000000E+00 0. -1.
         -2   -1    0    0    0  501 -0.00000000000E+00 -0.00000000000E+00 -0.29103435195E+02  0.29103435195E+02  0.00000000000E+00 0.  1.
          5    1    1    2  502    0  0.36324065119E+02 -0.88404811851E+02  0.31886672751E+03  0.33291579773E+03  0.47000000000E+01 0. -1.
         -5    1    1    2    0  502 -0.76113589406E+02 -0.35416452720E+02  0.23564773263E+03  0.25019901580E+03  0.47000000000E+01 0. -1.
        -11    1    1    2    0    0 -0.10639758334E+02  0.63413225499E+02  0.91707044420E+02  0.11200278399E+03  0.00000000000E+00 0.  1.
         11    1    1    2    0    0  0.50429282621E+02  0.60408039072E+02  0.32787558307E+03  0.33718636050E+03  0.00000000000E+00 0. -1.
<mgrwt>
<rscale>  0 0.17515647E+03</rscale>
<asrwt>0</asrwt>
<pdfrwt beam="1">  1        2 0.15433852E+00 0.18037904E+03</pdfrwt>
<pdfrwt beam="2">  1       -2 0.44774523E-02 0.18037904E+03</pdfrwt>
<totfact> 0.59597383E+03</totfact>
</mgrwt>
</event>
<event>
 6    1  0.5258538E-006  0.3116019E+03  0.7546771E-02  0.1080935E+00
         -2   -1    0    0    0  501 -0.00000000000E+00  0.00000000000E+00  0.11553951097E+03  0.11553951097E+03  0.00000000000E+00 0.  1.
          2   -1    0    0  501    0  0.00000000000E+00 -0.00000000000E+00 -0.15089103615E+04  0.15089103615E+04  0.00000000000E+00 0. -1.
          5    1    1    2  502    0  0.21190388414E+03 -0.14262396261E+03 -0.10048311569E+04  0.10367992065E+04  0.47000000000E+01 0. -1.
         -5    1    1    2    0  502 -0.50651177019E+01 -0.55294919806E+02 -0.25120155810E+03  0.25730817392E+03  0.47000000000E+01 0.  1.
        -11    1    1    2    0    0 -0.33025721463E+01  0.41716596731E+02 -0.33321720280E+02  0.53493162815E+02  0.00000000000E+00 0. -1.
         11    1    1    2    0    0 -0.20353619429E+03  0.15620228569E+03 -0.10401641530E+03  0.27684932922E+03  0.00000000000E+00 0.  1.
<mgrwt>
<rscale>  0 0.30877321E+03</rscale>
<asrwt>0</asrwt>
<pdfrwt beam="2">  1        2 0.23214005E+00 0.31160188E+03</pdfrwt>
<pdfrwt beam="1">  1       -2 0.17775310E-01 0.31160188E+03</pdfrwt>
<totfact> 0.34706416E+02</totfact>
</mgrwt>
</event>
<event>
 6    1  0.5258538E-006  0.2387647E+03  0.7546771E-02  0.1122208E+00
         -1   -1    0    0    0  501 -0.00000000000E+00  0.00000000000E+00  0.19078677767E+03  0.19078677767E+03  0.00000000000E+00 0.  1.
          1   -1    0    0  501    0  0.00000000000E+00 -0.00000000000E+00 -0.30709805827E+03  0.30709805827E+03  0.00000000000E+00 0. -1.
          5    1    1    2  502    0  0.30658157455E+02  0.59482461912E+02  0.34681009865E+02  0.75517867680E+02  0.47000000000E+01 0. -1.
         -5    1    1    2    0  502  0.15587700892E+03  0.37371664951E+02 -0.30722304590E+02  0.16327961676E+03  0.47000000000E+01 0.  1.
        -11    1    1    2    0    0 -0.17180877721E+03 -0.99898784197E+02 -0.13320466304E+03  0.23925197024E+03  0.00000000000E+00 0. -1.
         11    1    1    2    0    0 -0.14726389166E+02  0.30446573337E+01  0.12934677159E+02  0.19835381251E+02  0.00000000000E+00 0.  1.
<mgrwt>
<rscale>  0 0.23640904E+03</rscale>
<asrwt>0</asrwt>
<pdfrwt beam="2">  1        1 0.47245854E-01 0.23876467E+03</pdfrwt>
<pdfrwt beam="1">  1       -1 0.29351812E-01 0.23876467E+03</pdfrwt>
<totfact> 0.90326533E+02</totfact>
</mgrwt>
</event>
<event>
 6    1  0.5258538E-006  0.1403351E+03  0.7546771E-02  0.1231026E+00
          2   -1    0    0  501    0  0.00000000000E+00  0.00000000000E+00  0.44662169974E+03  0.44662169974E+03  0.00000000000E+00 0. -1.
         -2   -1    0    0    0  501 -0.00000000000E+00 -0.00000000000E+00 -0.16767250398E+03  0.16767250398E+03  0.00000000000E+00 0.  1.
          5    1    1    2  502    0  0.74863295889E+02  0.34973793939E+02  0.33328408664E+03  0.34340654004E+03  0.47000000000E+01 0. -1.
         -5    1    1    2    0  502 -0.47359130374E+02 -0.10328272338E+02  0.87197563574E+02  0.99875249849E+02  0.47000000000E+01 0.  1.
        -11    1    1    2    0    0 -0.14041752504E+02  0.33013376113E+02 -0.42372921400E+02  0.55520431228E+02  0.00000000000E+00 0. -1.
         11    1    1    2    0    0 -0.13462413011E+02 -0.57658897714E+02 -0.99159533058E+02  0.11549198260E+03  0.00000000000E+00 0.  1.
<mgrwt>
<rscale>  0 0.12762317E+03</rscale>
<asrwt>0</asrwt>
<pdfrwt beam="1">  1        2 0.68711030E-01 0.14033505E+03</pdfrwt>
<pdfrwt beam="2">  1       -2 0.25795770E-01 0.14033505E+03</pdfrwt>
<totfact> 0.94582069E+02</totfact>
</mgrwt>
</event>
<event>
 6    1  0.5258538E-006  0.1315196E+03  0.7546771E-02  0.1238621E+00
          2   -1    0    0  501    0  0.00000000000E+00  0.00000000000E+00  0.87072384444E+03  0.87072384444E+03  0.00000000000E+00 0. -1.
         -2   -1    0    0    0  501 -0.00000000000E+00 -0.00000000000E+00 -0.15616552732E+02  0.15616552732E+02  0.00000000000E+00 0.  1.
          5    1    1    2  502    0  0.19748469178E+02 -0.80229528385E+01  0.13330442084E+02  0.25576561404E+02  0.47000000000E+01 0.  1.
         -5    1    1    2    0  502 -0.47168337533E+02  0.38354391121E+02  0.52764974178E+03  0.53116122918E+03  0.47000000000E+01 0.  1.
        -11    1    1    2    0    0  0.36227495547E+01  0.22119859016E+02  0.20485688812E+02  0.30365703077E+02  0.00000000000E+00 0.  1.
         11    1    1    2    0    0  0.23797118801E+02 -0.52451297298E+02  0.29364141903E+03  0.29923690351E+03  0.00000000000E+00 0. -1.
<mgrwt>
<rscale>  0 0.12275422E+03</rscale>
<asrwt>0</asrwt>
<pdfrwt beam="1">  1        2 0.13395748E+00 0.13151961E+03</pdfrwt>
<pdfrwt beam="2">  1       -2 0.24025473E-02 0.13151961E+03</pdfrwt>
<totfact> 0.17785834E+04</totfact>
</mgrwt>
</event>
<event>
 6    1  0.5258538E-006  0.1551553E+03  0.7546771E-02  0.1202629E+00
         -2   -1    0    0    0  501 -0.00000000000E+00  0.00000000000E+00  0.11120415674E+04  0.11120415674E+04  0.00000000000E+00 0. -1.
          2   -1    0    0  501    0  0.00000000000E+00 -0.00000000000E+00 -0.18380372309E+02  0.18380372309E+02  0.00000000000E+00 0.  1.
          5    1    1    2  502    0  0.96358855468E+02  0.32739463646E+02  0.28754058974E+03  0.30505504791E+03  0.47000000000E+01 0.  1.
         -5    1    1    2    0  502 -0.17078874809E+02  0.13791114428E+02  0.36452285626E+03  0.36521347941E+03  0.47000000000E+01 0.  1.
        -11    1    1    2    0    0 -0.97804317764E+02 -0.50993957448E+02  0.37679242531E+03  0.39260489050E+03  0.00000000000E+00 0.  1.
         11    1    1    2    0    0  0.18524337105E+02  0.44633793736E+01  0.64805323789E+02  0.67548521909E+02  0.00000000000E+00 0. -1.
<mgrwt>
<rscale>  0 0.14825875E+03</rscale>
<asrwt>0</asrwt>
<pdfrwt beam="2">  1        2 0.28277505E-02 0.15515528E+03</pdfrwt>
<pdfrwt beam="1">  1       -2 0.17108327E+00 0.15515528E+03</pdfrwt>
<totfact> 0.74357672E+02</totfact>
</mgrwt>
</event>
<event>
 6    1  0.5258538E-006  0.1502779E+03  0.7546771E-02  0.1208151E+00
          1   -1    0    0  501    0  0.00000000000E+00  0.00000000000E+00  0.19889557857E+03  0.19889557857E+03  0.00000000000E+00 0. -1.
         -1   -1    0    0    0  501 -0.00000000000E+00 -0.00000000000E+00 -0.10054230954E+03  0.10054230954E+03  0.00000000000E+00 0.  1.
          5    1    1    2  502    0  0.10158437414E+03 -0.53748895017E+02  0.51442915194E+02  0.12600314404E+03  0.47000000000E+01 0. -1.
         -5    1    1    2    0  502 -0.30944223889E+02  0.93855028302E+01  0.32699485821E+02  0.46227470495E+02  0.47000000000E+01 0. -1.
        -11    1    1    2    0    0 -0.58128200649E+02  0.54489842719E+02 -0.26068500193E+02  0.83830766265E+02  0.00000000000E+00 0.  1.
         11    1    1    2    0    0 -0.12511949602E+02 -0.10126450532E+02  0.40279368208E+02  0.43376507310E+02  0.00000000000E+00 0. -1.
<mgrwt>
<rscale>  0 0.14391879E+03</rscale>
<asrwt>0</asrwt>
<pdfrwt beam="1">  1        1 0.30599320E-01 0.15027788E+03</pdfrwt>
<pdfrwt beam="2">  1       -1 0.15468048E-01 0.15027788E+03</pdfrwt>
<totfact> 0.43599488E+03</totfact>
</mgrwt>
</event>
<event>
 6    1  0.5258538E-006  0.1461666E+03  0.7546771E-02  0.1214878E+00
          2   -1    0    0  501    0  0.00000000000E+00  0.00000000000E+00  0.52950418108E+03  0.52950418108E+03  0.00000000000E+00 0. -1.
         -2   -1    0    0    0  501 -0.00000000000E+00 -0.00000000000E+00 -0.75802127600E+02  0.75802127600E+02  0.00000000000E+00 0.  1.
          5    1    1    2  502    0 -0.44906010517E+02 -0.33696268763E+02  0.76512134232E+02  0.95016761646E+02  0.47000000000E+01 0. -1.
         -5    1    1    2    0  502  0.36836799809E+02 -0.41638604174E+02  0.38685394221E+03  0.39085647721E+03  0.47000000000E+01 0. -1.
        -11    1    1    2    0    0 -0.31800275134E+02  0.10863838864E+02 -0.25263119791E+02  0.42041713988E+02  0.00000000000E+00 0.  1.
         11    1    1    2    0    0  0.39869485842E+02  0.64471034073E+02  0.15599096833E+02  0.77391355834E+02  0.00000000000E+00 0. -1.
<mgrwt>
<rscale>  0 0.13885474E+03</rscale>
<asrwt>0</asrwt>
<pdfrwt beam="1">  1        2 0.81462180E-01 0.14616663E+03</pdfrwt>
<pdfrwt beam="2">  1       -2 0.11661866E-01 0.14616663E+03</pdfrwt>
<totfact> 0.29525165E+03</totfact>
</mgrwt>
</event>
<event>
 6    1  0.5258538E-006  0.1329522E+03  0.7546771E-02  0.1235156E+00
         -2   -1    0    0    0  501 -0.00000000000E+00  0.00000000000E+00  0.46618978531E+03  0.46618978531E+03  0.00000000000E+00 0.  1.
          2   -1    0    0  501    0  0.00000000000E+00 -0.00000000000E+00 -0.37221812226E+02  0.37221812226E+02  0.00000000000E+00 0. -1.
          5    1    1    2  502    0 -0.57780422833E+02 -0.29395202057E+02  0.19854921463E+02  0.67962953681E+02  0.47000000000E+01 0.  1.
         -5    1    1    2    0  502  0.14345912191E+02  0.42209359093E+02  0.10608942213E+03  0.11517157062E+03  0.47000000000E+01 0.  1.
        -11    1    1    2    0    0  0.16396924555E+02  0.40265415010E+02  0.11037096945E+03  0.11862509717E+03  0.00000000000E+00 0.  1.
         11    1    1    2    0    0  0.27037586088E+02 -0.53079572046E+02  0.19265266004E+03  0.20165197606E+03  0.00000000000E+00 0. -1.
<mgrwt>
<rscale>  0 0.12494481E+03</rscale>
<asrwt>0</asrwt>
<pdfrwt beam="2">  1        2 0.57264330E-02 0.13295216E+03</pdfrwt>
<pdfrwt beam="1">  1       -2 0.71721501E-01 0.13295216E+03</pdfrwt>
<totfact> 0.22801770E+03</totfact>
</mgrwt>
</event>
<event>
 6    1  0.5258538E-006  0.1420674E+03  0.7546771E-02  0.1220530E+00
         -1   -1    0    0    0  501 -0.00000000000E+00  0.00000000000E+00  0.19881279855E+02  0.19881279855E+02  0.00000000000E+00 0.  1.
          1   -1    0    0  501    0  0.00000000000E+00 -0.00000000000E+00 -0.83385711157E+03  0.83385711157E+03  0.00000000000E+00 0. -1.
          5    1    1    2  502    0 -0.26137956107E+02  0.91236695804E+02 -0.21144474323E+03  0.23181522135E+03  0.47000000000E+01 0. -1.
         -5    1    1    2    0  502 -0.74178314651E+01 -0.32644085612E+02 -0.21577015970E+03  0.21840218031E+03  0.47000000000E+01 0. -1.
        -11    1    1    2    0    0  0.36897522855E+02  0.41461876836E+01 -0.58403230759E+02  0.69206614050E+02  0.00000000000E+00 0.  1.
         11    1    1    2    0    0 -0.33417352829E+01 -0.62738797876E+02 -0.32835769803E+03  0.33431437571E+03  0.00000000000E+00 0. -1.
<mgrwt>
<rscale>  0 0.13478077E+03</rscale>
<asrwt>0</asrwt>
<pdfrwt beam="2">  1        1 0.12828569E+00 0.14206736E+03</pdfrwt>
<pdfrwt beam="1">  1       -1 0.30586588E-02 0.14206736E+03</pdfrwt>
<totfact> 0.76612932E+03</totfact>
</mgrwt>
</event>
<event>
 6    1  0.5258538E-006  0.3665162E+03  0.7546771E-02  0.1056033E+00
          1   -1    0    0  501    0  0.00000000000E+00  0.00000000000E+00  0.97799512455E+03  0.97799512455E+03  0.00000000000E+00 0. -1.
         -1   -1    0    0    0  501 -0.00000000000E+00 -0.00000000000E+00 -0.34339168893E+02  0.34339168893E+02  0.00000000000E+00 0.  1.
          5    1    1    2  502    0 -0.24444284972E+02  0.16291772531E+02  0.61151660369E+03  0.61223981536E+03  0.47000000000E+01 0.  1.
         -5    1    1    2    0  502 -0.59645937387E+02  0.46974318050E+02  0.17102492535E+03  0.18717862990E+03  0.47000000000E+01 0.  1.
        -11    1    1    2    0    0  0.25798553184E+02 -0.73176993787E+02  0.11086408021E+03  0.13531918581E+03  0.00000000000E+00 0.  1.
         11    1    1    2    0    0  0.58291669174E+02  0.99109032060E+01  0.50250346405E+02  0.77596662372E+02  0.00000000000E+00 0. -1.
<mgrwt>
<rscale>  0 0.36651625E+03</rscale>
<asrwt>0</asrwt>
<pdfrwt beam="1">  1        1 0.15046077E+00 0.36651625E+03</pdfrwt>
<pdfrwt beam="2">  1       -1 0.52829498E-02 0.36651625E+03</pdfrwt>
<totfact> 0.26981474E+03</totfact>
</mgrwt>
</event>
<event>
 6    1  0.5258538E-006  0.2387163E+03  0.7546771E-02  0.1123426E+00
          2   -1    0    0  501    0  0.00000000000E+00  0.00000000000E+00  0.43220800632E+03  0.43220800632E+03  0.00000000000E+00 0. -1.
         -2   -1    0    0    0  501 -0.00000000000E+00 -0.00000000000E+00 -0.13157916679E+03  0.13157916679E+03  0.00000000000E+00 0.  1.
          5    1    1    2  502    0 -0.28884965834E+02  0.17559516192E+03  0.12068620100E+03  0.21507034024E+03  0.47000000000E+01 0.  1.
         -5    1    1    2    0  502 -0.39089065534E+02  0.16084645575E+02  0.10564584899E+03  0.11388505730E+03  0.47000000000E+01 0.  1.
        -11    1    1    2    0    0  0.78587075081E+02 -0.85968615839E+02  0.36350655631E+02  0.12201598848E+03  0.00000000000E+00 0.  1.
         11    1    1    2    0    0 -0.10613043714E+02 -0.10571119165E+03  0.37946133911E+02  0.11281578709E+03  0.00000000000E+00 0. -1.
<mgrwt>
<rscale>  0 0.23462545E+03</rscale>
<asrwt>0</asrwt>
<pdfrwt beam="1">  1        2 0.66493539E-01 0.23871627E+03</pdfrwt>
<pdfrwt beam="2">  1       -2 0.20242949E-01 0.23871627E+03</pdfrwt>
<totfact> 0.15048126E+03</totfact>
</mgrwt>
</event>
<event>
 6    1  0.5258538E-006  0.1367940E+03  0.7546771E-02  0.1230267E+00
         -4   -1    0    0    0  501 -0.00000000000E+00  0.00000000000E+00  0.16497491913E+03  0.16497491913E+03  0.00000000000E+00 0.  1.
          4   -1    0    0  501    0  0.00000000000E+00 -0.00000000000E+00 -0.89155549343E+02  0.89155549343E+02  0.00000000000E+00 0. -1.
          5    1    1    2  502    0 -0.20165072980E+02 -0.31875271652E+02  0.37006201827E+02  0.53049147824E+02  0.47000000000E+01 0.  1.
         -5    1    1    2    0  502  0.64956390269E+02  0.64765907494E+02  0.13819125004E+02  0.92881718471E+02  0.47000000000E+01 0.  1.
        -11    1    1    2    0    0 -0.34708389273E+01 -0.19898485079E+02 -0.31250005840E+02  0.37209666705E+02  0.00000000000E+00 0. -1.
         11    1    1    2    0    0 -0.41320478361E+02 -0.12992150763E+02  0.56244048792E+02  0.70989935470E+02  0.00000000000E+00 0.  1.
<mgrwt>
<rscale>  0 0.12812380E+03</rscale>
<asrwt>0</asrwt>
<pdfrwt beam="2">  1        4 0.13716238E-01 0.13679402E+03</pdfrwt>
<pdfrwt beam="1">  1       -4 0.25380757E-01 0.13679402E+03</pdfrwt>
<totfact> 0.10613507E+03</totfact>
</mgrwt>
</event>
<event>
 6    1  0.5685874E-006  0.2364730E+03  0.7546771E-02  0.1124603E+00
         -3   -1    0    0    0  501 -0.00000000000E+00  0.00000000000E+00  0.11412039517E+03  0.11412039517E+03  0.00000000000E+00 0.  1.
          3   -1    0    0  501    0  0.00000000000E+00 -0.00000000000E+00 -0.46230116395E+03  0.46230116395E+03  0.00000000000E+00 0. -1.
          5    1    1    2  502    0 -0.12084128095E+03 -0.13820108116E+03 -0.17565452663E+03  0.25412350686E+03  0.47000000000E+01 0. -1.
         -5    1    1    2    0  502 -0.33601419280E+02  0.99758558720E+01  0.73596024792E+01  0.36122386780E+02  0.47000000000E+01 0. -1.
        -11    1    1    2    0    0  0.89066367564E+02  0.11132578045E+03 -0.74103693532E+02  0.16067857548E+03  0.00000000000E+00 0.  1.
         11    1    1    2    0    0  0.65376332668E+02  0.16899444839E+02 -0.10578215109E+03  0.12549709000E+03  0.00000000000E+00 0. -1.
<mgrwt>
<rscale>  0 0.23291802E+03</rscale>
<asrwt>0</asrwt>
<pdfrwt beam="2">  1        3 0.71123257E-01 0.23647304E+03</pdfrwt>
<pdfrwt beam="1">  1       -3 0.17556984E-01 0.23647304E+03</pdfrwt>
<totfact> 0.13482389E+02</totfact>
</mgrwt>
</event>
<event>
 6    1  0.5258538E-006  0.1343151E+03  0.7546771E-02  0.1235980E+00
          2   -1    0    0  501    0  0.00000000000E+00  0.00000000000E+00  0.17683487303E+03  0.17683487303E+03  0.00000000000E+00 0. -1.
         -2   -1    0    0    0  501 -0.00000000000E+00 -0.00000000000E+00 -0.78024891398E+02  0.78024891398E+02  0.00000000000E+00 0.  1.
          5    1    1    2  502    0  0.11875024731E+02 -0.45469217837E+02  0.16538142026E+02  0.50040644728E+02  0.47000000000E+01 0. -1.
         -5    1    1    2    0  502 -0.57481318376E+02  0.63831200583E+02  0.55461504585E+02  0.10235522762E+03  0.47000000000E+01 0. -1.
        -11    1    1    2    0    0  0.34189502079E+02  0.26171503988E+02 -0.92453180231E+01  0.44038001530E+02  0.00000000000E+00 0.  1.
         11    1    1    2    0    0  0.11416791566E+02 -0.44533486734E+02  0.36055653047E+02  0.58425890554E+02  0.00000000000E+00 0. -1.
<mgrwt>
<rscale>  0 0.12441890E+03</rscale>
<asrwt>0</asrwt>
<pdfrwt beam="1">  1        2 0.27205365E-01 0.13431512E+03</pdfrwt>
<pdfrwt beam="2">  1       -2 0.12003829E-01 0.13431512E+03</pdfrwt>
<totfact> 0.91155175E+03</totfact>
</mgrwt>
</event>
<event>
 6    1  0.5258538E-006  0.1363912E+03  0.7546771E-02  0.1227641E+00
          2   -1    0    0  501    0  0.00000000000E+00  0.00000000000E+00  0.69652274947E+02  0.69652274947E+02  0.00000000000E+00 0. -1.
         -2   -1    0    0    0  501 -0.00000000000E+00 -0.00000000000E+00 -0.22533727832E+03  0.22533727832E+03  0.00000000000E+00 0.  1.
          5    1    1    2  502    0  0.63288263806E+02 -0.22536435239E+02 -0.36650610661E+02  0.76672371235E+02  0.47000000000E+01 0. -1.
         -5    1    1    2    0  502 -0.60828537121E+02 -0.31980317483E+02 -0.29995909052E+02  0.75131193219E+02  0.47000000000E+01 0. -1.
        -11    1    1    2    0    0 -0.73276502794E+01  0.45536165625E+02 -0.11032366158E+03  0.11957653258E+03  0.00000000000E+00 0.  1.
         11    1    1    2    0    0  0.48679235945E+01  0.89805870971E+01  0.21285177921E+02  0.23609456238E+02  0.00000000000E+00 0. -1.
<mgrwt>
<rscale>  0 0.12987501E+03</rscale>
<asrwt>0</asrwt>
<pdfrwt beam="1">  1        2 0.10715735E-01 0.13639122E+03</pdfrwt>
<pdfrwt beam="2">  1       -2 0.34667273E-01 0.13639122E+03</pdfrwt>
<totfact> 0.43848804E+03</totfact>
</mgrwt>
</event>
<event>
 6    1  0.5258538E-006  0.1307361E+03  0.7546771E-02  0.1233804E+00
          2   -1    0    0  501    0  0.00000000000E+00  0.00000000000E+00  0.70372549710E+02  0.70372549710E+02  0.00000000000E+00 0. -1.
         -2   -1    0    0    0  501 -0.00000000000E+00 -0.00000000000E+00 -0.22973958680E+03  0.22973958680E+03  0.00000000000E+00 0.  1.
          5    1    1    2  502    0  0.23807766024E+02 -0.25864720078E+02 -0.73096364386E+02  0.81246304250E+02  0.47000000000E+01 0. -1.
         -5    1    1    2    0  502 -0.44873382353E+02 -0.56504142033E+01  0.32221898354E+02  0.55730497557E+02  0.47000000000E+01 0. -1.
        -11    1    1    2    0    0 -0.34467944717E+02 -0.84187084596E+01 -0.13782992406E+02  0.38064218694E+02  0.00000000000E+00 0.  1.
         11    1    1    2    0    0  0.55533561045E+02  0.39933842740E+02 -0.10470957865E+03  0.12507111601E+03  0.00000000000E+00 0. -1.
<mgrwt>
<rscale>  0 0.12581283E+03</rscale>
<asrwt>0</asrwt>
<pdfrwt beam="1">  1        2 0.10826546E-01 0.13073608E+03</pdfrwt>
<pdfrwt beam="2">  1       -2 0.35344552E-01 0.13073608E+03</pdfrwt>
<totfact> 0.41667431E+03</totfact>
</mgrwt>
</event>
<event>
 6    1  0.5258538E-006  0.4221392E+03  0.7546771E-02  0.1036372E+00
         -1   -1    0    0    0  501 -0.00000000000E+00  0.00000000000E+00  0.59597103562E+02  0.59597103562E+02  0.00000000000E+00 0.  1.
          1   -1    0    0  501    0  0.00000000000E+00 -0.00000000000E+00 -0.74752594587E+03  0.74752594587E+03  0.00000000000E+00 0. -1.
          5    1    1    2  502    0  0.36425776666E+01 -0.11202529558E+03 -0.36964606051E+03  0.38629423407E+03  0.47000000000E+01 0. -1.
         -5    1    1    2    0  502 -0.37065393119E+02  0.79855603128E+01 -0.26578639273E+03  0.26851835896E+03  0.47000000000E+01 0.  1.
        -11    1    1    2    0    0  0.40347119390E+02  0.25208338541E+02  0.13296317255E+02  0.49397797801E+02  0.00000000000E+00 0.  1.
         11    1    1    2    0    0 -0.69243039382E+01  0.78831396727E+02 -0.65792706325E+02  0.10291265860E+03  0.00000000000E+00 0. -1.
<mgrwt>
<rscale>  0 0.42213922E+03</rscale>
<asrwt>0</asrwt>
<pdfrwt beam="2">  1        1 0.11500400E+00 0.42213922E+03</pdfrwt>
<pdfrwt beam="1">  1       -1 0.91687844E-02 0.42213922E+03</pdfrwt>
<totfact> 0.17870078E+03</totfact>
</mgrwt>
</event>
<event>
 6    1  0.5258538E-006  0.1365895E+03  0.7546771E-02  0.1229342E+00
          1   -1    0    0  501    0  0.00000000000E+00  0.00000000000E+00  0.26145231587E+03  0.26145231587E+03  0.00000000000E+00 0. -1.
         -1   -1    0    0    0  501 -0.00000000000E+00 -0.00000000000E+00 -0.59435447245E+02  0.59435447245E+02  0.00000000000E+00 0.  1.
          5    1    1    2  502    0  0.81299337027E+02  0.28440723069E+02  0.52782192563E+02  0.10112619236E+03  0.47000000000E+01 0.  1.
         -5    1    1    2    0  502 -0.26867416775E+02 -0.20289771753E+02  0.91233958512E+02  0.97361481643E+02  0.47000000000E+01 0.  1.
        -11    1    1    2    0    0 -0.80555304538E+02 -0.11693196552E+02  0.44902157078E+02  0.92962850887E+02  0.00000000000E+00 0.  1.
         11    1    1    2    0    0  0.26123384285E+02  0.35422452363E+01  0.13098560471E+02  0.29437238224E+02  0.00000000000E+00 0. -1.
<mgrwt>
<rscale>  0 0.12873692E+03</rscale>
<asrwt>0</asrwt>
<pdfrwt beam="1">  1        1 0.40223432E-01 0.13658955E+03</pdfrwt>
<pdfrwt beam="2">  1       -1 0.91439151E-02 0.13658955E+03</pdfrwt>
<totfact> 0.69561173E+03</totfact>
</mgrwt>
</event>
<event>
 6    1  0.5258538E-006  0.1377590E+03  0.7546771E-02  0.1228980E+00
          2   -1    0    0  501    0  0.00000000000E+00  0.00000000000E+00  0.39143377484E+02  0.39143377484E+02  0.00000000000E+00 0.  1.
         -2   -1    0    0    0  501 -0.00000000000E+00 -0.00000000000E+00 -0.53123876106E+03  0.53123876106E+03  0.00000000000E+00 0. -1.
          5    1    1    2  502    0 -0.46889565073E+02  0.84412468204E+02 -0.68941335262E+02  0.11873960506E+03  0.47000000000E+01 0. -1.
         -5    1    1    2    0  502  0.21145587230E+02 -0.32555684680E+02 -0.48382473409E+02  0.62209020226E+02  0.47000000000E+01 0. -1.
        -11    1    1    2    0    0 -0.29126776066E+02  0.15111193978E+01 -0.94587579522E+02  0.98982133568E+02  0.00000000000E+00 0.  1.
         11    1    1    2    0    0  0.54870753909E+02 -0.53367902923E+02 -0.28018399538E+03  0.29045137969E+03  0.00000000000E+00 0. -1.
<mgrwt>
<rscale>  0 0.12897782E+03</rscale>
<asrwt>0</asrwt>
<pdfrwt beam="1">  1        2 0.60220586E-02 0.13775895E+03</pdfrwt>
<pdfrwt beam="2">  1       -2 0.81729034E-01 0.13775895E+03</pdfrwt>
<totfact> 0.16134153E+03</totfact>
</mgrwt>
</event>
<event>
 6    1  0.5258538E-006  0.1390649E+03  0.7546771E-02  0.1225997E+00
         -1   -1    0    0    0  501 -0.00000000000E+00  0.00000000000E+00  0.54157425586E+02  0.54157425586E+02  0.00000000000E+00 0.  1.
          1   -1    0    0  501    0  0.00000000000E+00 -0.00000000000E+00 -0.30818765968E+03  0.30818765968E+03  0.00000000000E+00 0. -1.
          5    1    1    2  502    0 -0.60161629523E+02  0.76994199911E+02 -0.11834567881E+03  0.15354256146E+03  0.47000000000E+01 0. -1.
         -5    1    1    2    0  502  0.14542196471E+02 -0.36592661854E+02 -0.71897584243E+02  0.82108775412E+02  0.47000000000E+01 0. -1.
        -11    1    1    2    0    0 -0.12957991895E+02 -0.50961026337E+01  0.16259859798E+02  0.21407074920E+02  0.00000000000E+00 0.  1.
         11    1    1    2    0    0  0.58577424947E+02 -0.35305435423E+02 -0.80046830841E+02  0.10528667348E+03  0.00000000000E+00 0. -1.
<mgrwt>
<rscale>  0 0.13098808E+03</rscale>
<asrwt>0</asrwt>
<pdfrwt beam="2">  1        1 0.47413487E-01 0.13906493E+03</pdfrwt>
<pdfrwt beam="1">  1       -1 0.83319114E-02 0.13906493E+03</pdfrwt>
<totfact> 0.65422669E+03</totfact>
</mgrwt>
</event>
<event>
 6    1  0.5258538E-006  0.1256994E+03  0.7546771E-02  0.1248588E+00
         -2   -1    0    0    0  501 -0.00000000000E+00  0.00000000000E+00  0.17165987413E+03  0.17165987413E+03  0.00000000000E+00 0.  1.
          2   -1    0    0  501    0  0.00000000000E+00 -0.00000000000E+00 -0.70024290157E+02  0.70024290157E+02  0.00000000000E+00 0. -1.
          5    1    1    2  502    0 -0.45129972385E+02 -0.12499459290E+02 -0.10618127856E+02  0.48247129750E+02  0.47000000000E+01 0. -1.
         -5    1    1    2    0  502  0.58212915041E+02  0.14215072277E+02  0.65533711013E+02  0.88924513137E+02  0.47000000000E+01 0. -1.
        -11    1    1    2    0    0  0.26167645473E+02  0.32267735516E+02  0.21993088419E+02  0.47006896974E+02  0.00000000000E+00 0.  1.
         11    1    1    2    0    0 -0.39250588130E+02 -0.33983348503E+02  0.24726912399E+02  0.57505624427E+02  0.00000000000E+00 0. -1.
<mgrwt>
<rscale>  0 0.11673189E+03</rscale>
<asrwt>0</asrwt>
<pdfrwt beam="2">  1        2 0.10772968E-01 0.12569940E+03</pdfrwt>
<pdfrwt beam="1">  1       -2 0.26409211E-01 0.12569940E+03</pdfrwt>
<totfact> 0.70667855E+03</totfact>
</mgrwt>
</event>
<event>
 6    1  0.5258538E-006  0.5681566E+03  0.7546771E-02  0.9973766E-01
         -2   -1    0    0    0  501 -0.00000000000E+00  0.00000000000E+00  0.20837393611E+03  0.20837393611E+03  0.00000000000E+00 0.  1.
          2   -1    0    0  501    0  0.00000000000E+00 -0.00000000000E+00 -0.38728679725E+03  0.38728679725E+03  0.00000000000E+00 0. -1.
          5    1    1    2  502    0 -0.18740664907E+03 -0.48196053767E+02 -0.28971247000E+03  0.34842433467E+03  0.47000000000E+01 0.  1.
         -5    1    1    2    0  502  0.43525272035E+01 -0.55075633680E+01  0.96068394631E+01  0.12792932102E+02  0.47000000000E+01 0.  1.
        -11    1    1    2    0    0  0.24261566081E+02  0.46395074422E+02  0.29091248323E+02  0.59895135431E+02  0.00000000000E+00 0.  1.
         11    1    1    2    0    0  0.15879255578E+03  0.73085427129E+01  0.72101521083E+02  0.17454833116E+03  0.00000000000E+00 0. -1.
<mgrwt>
<rscale>  0 0.56815658E+03</rscale>
<asrwt>0</asrwt>
<pdfrwt beam="2">  1        2 0.59582583E-01 0.56815658E+03</pdfrwt>
<pdfrwt beam="1">  1       -2 0.32057529E-01 0.56815658E+03</pdfrwt>
<totfact> 0.75031280E+02</totfact>
</mgrwt>
</event>
<event>
 6    1  0.5258538E-006  0.1320253E+03  0.7546771E-02  0.1237756E+00
          1   -1    0    0  501    0  0.00000000000E+00  0.00000000000E+00  0.21519897390E+04  0.21519897390E+04  0.00000000000E+00 0. -1.
         -1   -1    0    0    0  501 -0.00000000000E+00 -0.00000000000E+00 -0.89054562759E+01  0.89054562759E+01  0.00000000000E+00 0.  1.
          5    1    1    2  502    0 -0.14759258179E+02 -0.76690235433E+01  0.13999271134E+04  0.14000338077E+04  0.47000000000E+01 0.  1.
         -5    1    1    2    0  502  0.55811602669E+02  0.18722473419E+02  0.35744297571E+03  0.36228860993E+03  0.47000000000E+01 0.  1.
        -11    1    1    2    0    0 -0.66513785037E+02  0.69199886787E+01  0.30014842752E+03  0.30750780215E+03  0.00000000000E+00 0. -1.
         11    1    1    2    0    0  0.25461440548E+02 -0.17973438555E+02  0.85565766004E+02  0.91064975485E+02  0.00000000000E+00 0.  1.
<mgrwt>
<rscale>  0 0.12329667E+03</rscale>
<asrwt>0</asrwt>
<pdfrwt beam="1">  1        1 0.33107493E+00 0.13202528E+03</pdfrwt>
<pdfrwt beam="2">  1       -1 0.13700719E-02 0.13202528E+03</pdfrwt>
<totfact> 0.31889907E+03</totfact>
</mgrwt>
</event>
<event>
 6    1  0.5258538E-006  0.2297882E+03  0.7546771E-02  0.1152678E+00
         -2   -1    0    0    0  501 -0.00000000000E+00  0.00000000000E+00  0.16011497262E+03  0.16011497262E+03  0.00000000000E+00 0.  1.
          2   -1    0    0  501    0  0.00000000000E+00 -0.00000000000E+00 -0.22378727395E+03  0.22378727395E+03  0.00000000000E+00 0. -1.
          5    1    1    2  502    0  0.14127688271E+02  0.77166512827E+02 -0.69452015391E+02  0.10488057360E+03  0.47000000000E+01 0. -1.
         -5    1    1    2    0  502 -0.92778429146E+02 -0.10973487228E+03 -0.37548286203E+02  0.14859859658E+03  0.47000000000E+01 0.  1.
        -11    1    1    2    0    0  0.14222641485E+02  0.42888391524E+02  0.46836264747E+02  0.65079438794E+02  0.00000000000E+00 0. -1.
         11    1    1    2    0    0  0.64428099390E+02 -0.10320032066E+02 -0.35082644870E+01  0.65343637583E+02  0.00000000000E+00 0.  1.
<mgrwt>
<rscale>  0 0.19655584E+03</rscale>
<asrwt>0</asrwt>
<pdfrwt beam="2">  1        2 0.34428811E-01 0.22978822E+03</pdfrwt>
<pdfrwt beam="1">  1       -2 0.24633073E-01 0.22978822E+03</pdfrwt>
<totfact> 0.21802978E+03</totfact>
</mgrwt>
</event>
<event>
 6    1  0.5258538E-006  0.1277898E+03  0.7546771E-02  0.1242368E+00
         -2   -1    0    0    0  501 -0.00000000000E+00  0.00000000000E+00  0.28877433153E+02  0.28877433153E+02  0.00000000000E+00 0.  1.
          2   -1    0    0  501    0  0.00000000000E+00 -0.00000000000E+00 -0.46887528741E+03  0.46887528741E+03  0.00000000000E+00 0. -1.
          5    1    1    2  502    0  0.45119344001E+02 -0.27748510867E+02 -0.88478605716E+02  0.10322930169E+03  0.47000000000E+01 0. -1.
         -5    1    1    2    0  502 -0.68963916930E+02  0.15971259228E+02 -0.20270311601E+03  0.21475974064E+03  0.47000000000E+01 0. -1.
        -11    1    1    2    0    0  0.45773044229E+02  0.35620530003E+02 -0.52812197492E+02  0.78441837941E+02  0.00000000000E+00 0.  1.
         11    1    1    2    0    0 -0.21928471300E+02 -0.23843278364E+02 -0.96003935038E+02  0.10132184029E+03  0.00000000000E+00 0. -1.
<mgrwt>
<rscale>  0 0.12044272E+03</rscale>
<asrwt>0</asrwt>
<pdfrwt beam="2">  1        2 0.72134654E-01 0.12778981E+03</pdfrwt>
<pdfrwt beam="1">  1       -2 0.44426824E-02 0.12778981E+03</pdfrwt>
<totfact> 0.14751334E+04</totfact>
</mgrwt>
</event>
<event>
 6    1  0.5258538E-006  0.1471316E+03  0.7546771E-02  0.1221902E+00
         -1   -1    0    0    0  501 -0.00000000000E+00  0.00000000000E+00  0.12044128958E+02  0.12044128958E+02  0.00000000000E+00 0.  1.
          1   -1    0    0  501    0  0.00000000000E+00 -0.00000000000E+00 -0.14407510103E+04  0.14407510103E+04  0.00000000000E+00 0. -1.
          5    1    1    2  502    0  0.73916274777E+02 -0.28119983943E+02 -0.97259903426E+03  0.97582033214E+03  0.47000000000E+01 0. -1.
         -5    1    1    2    0  502 -0.36219379831E+02  0.10614074996E+02 -0.10305331085E+03  0.10984797194E+03  0.47000000000E+01 0.  1.
        -11    1    1    2    0    0 -0.18961360754E+02  0.54587732769E+02 -0.23405989553E+03  0.24108792684E+03  0.00000000000E+00 0.  1.
         11    1    1    2    0    0 -0.18735534192E+02 -0.37081823822E+02 -0.11899464072E+03  0.12603890836E+03  0.00000000000E+00 0. -1.
<mgrwt>
<rscale>  0 0.13381515E+03</rscale>
<asrwt>0</asrwt>
<pdfrwt beam="2">  1        1 0.22165389E+00 0.14713157E+03</pdfrwt>
<pdfrwt beam="1">  1       -1 0.18529439E-02 0.14713157E+03</pdfrwt>
<totfact> 0.59061830E+03</totfact>
</mgrwt>
</event>
<event>
 6    1  0.5258538E-006  0.1473000E+03  0.7546771E-02  0.1212888E+00
          2   -1    0    0  501    0  0.00000000000E+00  0.00000000000E+00  0.59811545317E+03  0.59811545317E+03  0.00000000000E+00 0. -1.
         -2   -1    0    0    0  501 -0.00000000000E+00 -0.00000000000E+00 -0.31150816952E+02  0.31150816952E+02  0.00000000000E+00 0.  1.
          5    1    1    2  502    0 -0.11757685096E+02 -0.33494861054E+02  0.34005349406E+03  0.34193364517E+03  0.47000000000E+01 0. -1.
         -5    1    1    2    0  502 -0.35153453297E+02 -0.28743109837E+02  0.25748578287E+02  0.52411934954E+02  0.47000000000E+01 0. -1.
        -11    1    1    2    0    0  0.64808240130E+02  0.19022160108E+02  0.78023635528E+02  0.10319708458E+03  0.00000000000E+00 0.  1.
         11    1    1    2    0    0 -0.17897101736E+02  0.43215810782E+02  0.12313892834E+03  0.13172360542E+03  0.00000000000E+00 0. -1.
<mgrwt>
<rscale>  0 0.14032836E+03</rscale>
<asrwt>0</asrwt>
<pdfrwt beam="1">  1        2 0.92017754E-01 0.14729997E+03</pdfrwt>
<pdfrwt beam="2">  1       -2 0.47924338E-02 0.14729997E+03</pdfrwt>
<totfact> 0.10155017E+04</totfact>
</mgrwt>
</event>
<event>
 6    1  0.5258538E-006  0.2629181E+03  0.7546771E-02  0.1105403E+00
          2   -1    0    0  501    0  0.00000000000E+00  0.00000000000E+00  0.12877385545E+04  0.12877385545E+04  0.00000000000E+00 0.  1.
         -2   -1    0    0    0  501 -0.00000000000E+00 -0.00000000000E+00 -0.13420023375E+02  0.13420023375E+02  0.00000000000E+00 0. -1.
          5    1    1    2  502    0 -0.63116591585E+02 -0.29144684655E+02  0.23207353670E+03  0.24230834326E+03  0.47000000000E+01 0. -1.
         -5    1    1    2    0  502  0.68349773228E+01  0.12166402235E+02  0.68058665946E+03  0.68074593594E+03  0.47000000000E+01 0. -1.
        -11    1    1    2    0    0  0.36874597107E+02 -0.37411983971E+02  0.17598450254E+03  0.18365711963E+03  0.00000000000E+00 0. -1.
         11    1    1    2    0    0  0.19407017155E+02  0.54390266391E+02  0.18567383241E+03  0.19444717904E+03  0.00000000000E+00 0.  1.
<mgrwt>
<rscale>  0 0.26291810E+03</rscale>
<asrwt>0</asrwt>
<pdfrwt beam="1">  1        2 0.19811353E+00 0.26291810E+03</pdfrwt>
<pdfrwt beam="2">  1       -2 0.20646200E-02 0.26291810E+03</pdfrwt>
<totfact> 0.13115972E+04</totfact>
</mgrwt>
</event>
<event>
 6    1  0.5258538E-006  0.3231617E+03  0.7546771E-02  0.1074203E+00
          1   -1    0    0  501    0  0.00000000000E+00  0.00000000000E+00  0.46105622171E+02  0.46105622171E+02  0.00000000000E+00 0. -1.
         -1   -1    0    0    0  501 -0.00000000000E+00 -0.00000000000E+00 -0.56627305265E+03  0.56627305265E+03  0.00000000000E+00 0.  1.
          5    1    1    2  502    0  0.43079160116E+02  0.95724886666E+02 -0.25094709595E+03  0.27205808742E+03  0.47000000000E+01 0. -1.
         -5    1    1    2    0  502  0.12060106806E+02  0.81854737672E+01  0.13849019858E+02  0.20647845117E+02  0.47000000000E+01 0. -1.
        -11    1    1    2    0    0 -0.70137984123E+02 -0.47494453322E+02 -0.20793396454E+03  0.22452526255E+03  0.00000000000E+00 0.  1.
         11    1    1    2    0    0  0.14998717201E+02 -0.56415907112E+02 -0.75135389850E+02  0.95147479740E+02  0.00000000000E+00 0. -1.
<mgrwt>
<rscale>  0 0.32316170E+03</rscale>
<asrwt>0</asrwt>
<pdfrwt beam="1">  1        1 0.70931730E-02 0.32316170E+03</pdfrwt>
<pdfrwt beam="2">  1       -1 0.87118926E-01 0.32316170E+03</pdfrwt>
<totfact> 0.14007601E+03</totfact>
</mgrwt>
</event>
<event>
 6    1  0.5258538E-006  0.1453673E+03  0.7546771E-02  0.1212742E+00
          2   -1    0    0  501    0  0.00000000000E+00  0.00000000000E+00  0.54858490967E+03  0.54858490967E+03  0.00000000000E+00 0. -1.
         -2   -1    0    0    0  501 -0.00000000000E+00 -0.00000000000E+00 -0.37362836251E+02  0.37362836251E+02  0.00000000000E+00 0.  1.
          5    1    1    2  502    0  0.88530829033E+01 -0.53397230536E+02  0.14562750948E+03  0.15543198777E+03  0.47000000000E+01 0. -1.
         -5    1    1    2    0  502  0.77935934512E+02  0.46441849726E+02  0.21722677849E+03  0.23545789133E+03  0.47000000000E+01 0.  1.
        -11    1    1    2    0    0  0.13133998274E+02 -0.19097985125E+02  0.31424974272E+02  0.39048226009E+02  0.00000000000E+00 0. -1.
         11    1    1    2    0    0 -0.99923015689E+02  0.26053365934E+02  0.11694281118E+03  0.15600964082E+03  0.00000000000E+00 0.  1.
<mgrwt>
<rscale>  0 0.14043724E+03</rscale>
<asrwt>0</asrwt>
<pdfrwt beam="1">  1        2 0.84397673E-01 0.14536734E+03</pdfrwt>
<pdfrwt beam="2">  1       -2 0.57481290E-02 0.14536734E+03</pdfrwt>
<totfact> 0.85039422E+03</totfact>
</mgrwt>
</event>
<event>
 6    1  0.5258538E-006  0.1305082E+03  0.7546771E-02  0.1240720E+00
          2   -1    0    0  501    0  0.00000000000E+00  0.00000000000E+00  0.63781067401E+02  0.63781067401E+02  0.00000000000E+00 0. -1.
         -2   -1    0    0    0  501 -0.00000000000E+00 -0.00000000000E+00 -0.20559497652E+03  0.20559497652E+03  0.00000000000E+00 0.  1.
          5    1    1    2  502    0  0.27963462189E+02 -0.37461152440E+02 -0.27962593421E+02  0.54674397944E+02  0.47000000000E+01 0.  1.
         -5    1    1    2    0  502 -0.40483491803E+02  0.72826172570E+02 -0.43111089540E+02  0.93931999665E+02  0.47000000000E+01 0.  1.
        -11    1    1    2    0    0  0.39189259620E+02 -0.13660898090E+01 -0.16105675258E+01  0.39246123359E+02  0.00000000000E+00 0. -1.
         11    1    1    2    0    0 -0.26669230006E+02 -0.33998930321E+02 -0.69129658635E+02  0.81523522956E+02  0.00000000000E+00 0.  1.
<mgrwt>
<rscale>  0 0.12145222E+03</rscale>
<asrwt>0</asrwt>
<pdfrwt beam="1">  1        2 0.98124718E-02 0.13050821E+03</pdfrwt>
<pdfrwt beam="2">  1       -2 0.31629997E-01 0.13050821E+03</pdfrwt>
<totfact> 0.57566280E+03</totfact>
</mgrwt>
</event>
<event>
 6    1  0.5258538E-006  0.2184852E+03  0.7546771E-02  0.1155134E+00
          2   -1    0    0  501    0  0.00000000000E+00  0.00000000000E+00  0.10531724681E+04  0.10531724681E+04  0.00000000000E+00 0. -1.
         -2   -1    0    0    0  501 -0.00000000000E+00 -0.00000000000E+00 -0.30016308128E+02  0.30016308128E+02  0.00000000000E+00 0.  1.
          5    1    1    2  502    0  0.31664216190E+02 -0.44381237736E+01  0.39587846409E+03  0.39719537744E+03  0.47000000000E+01 0. -1.
         -5    1    1    2    0  502 -0.98947071707E+02  0.74640411352E+02  0.17874318773E+03  0.21756132737E+03  0.47000000000E+01 0.  1.
        -11    1    1    2    0    0 -0.10112466829E+02  0.13960419015E+02  0.30410181439E+02  0.34956178561E+02  0.00000000000E+00 0.  1.
         11    1    1    2    0    0  0.77395322345E+02 -0.84162706594E+02  0.41812432675E+03  0.43347589290E+03  0.00000000000E+00 0. -1.
<mgrwt>
<rscale>  0 0.19373613E+03</rscale>
<asrwt>0</asrwt>
<pdfrwt beam="1">  1        2 0.16202650E+00 0.21848516E+03</pdfrwt>
<pdfrwt beam="2">  1       -2 0.46178944E-02 0.21848516E+03</pdfrwt>
<totfact> 0.53425212E+03</totfact>
</mgrwt>
</event>
<event>
 6    1  0.5258538E-006  0.1326185E+03  0.7546771E-02  0.1228589E+00
          2   -1    0    0  501    0  0.00000000000E+00  0.00000000000E+00  0.80360662964E+03  0.80360662964E+03  0.00000000000E+00 0.  1.
         -2   -1    0    0    0  501 -0.00000000000E+00 -0.00000000000E+00 -0.20100559738E+02  0.20100559738E+02  0.00000000000E+00 0. -1.
          5    1    1    2  502    0 -0.11824660558E+02 -0.19873549796E+02  0.97156918034E+01  0.25519899021E+02  0.47000000000E+01 0.  1.
         -5    1    1    2    0  502  0.50449450996E+02 -0.18558484108E+01  0.45290851170E+03  0.45573764520E+03  0.47000000000E+01 0.  1.
        -11    1    1    2    0    0  0.37556987471E+02  0.16769498361E+02  0.14484080829E+03  0.15056760319E+03  0.00000000000E+00 0.  1.
         11    1    1    2    0    0 -0.76181777909E+02  0.49598998459E+01  0.17604105811E+03  0.19188204197E+03  0.00000000000E+00 0. -1.
<mgrwt>
<rscale>  0 0.12923946E+03</rscale>
<asrwt>0</asrwt>
<pdfrwt beam="1">  1        2 0.12363176E+00 0.13261851E+03</pdfrwt>
<pdfrwt beam="2">  1       -2 0.30923944E-02 0.13261851E+03</pdfrwt>
<totfact> 0.13611455E+04</totfact>
</mgrwt>
</event>
<event>
 6    1  0.5258538E-006  0.1272189E+03  0.7546771E-02  0.1252068E+00
          1   -1    0    0  501    0  0.00000000000E+00  0.00000000000E+00  0.39942825678E+03  0.39942825678E+03  0.00000000000E+00 0. -1.
         -1   -1    0    0    0  501 -0.00000000000E+00 -0.00000000000E+00 -0.28140343549E+02  0.28140343549E+02  0.00000000000E+00 0.  1.
          5    1    1    2  502    0  0.10919601451E+02  0.45566287590E+02  0.44175792003E+02  0.64568683273E+02  0.47000000000E+01 0. -1.
         -5    1    1    2    0  502 -0.29571448063E+02 -0.60230724152E+02  0.19599273321E+03  0.20721354238E+03  0.47000000000E+01 0. -1.
        -11    1    1    2    0    0 -0.83431066534E+01  0.33067373611E+02  0.19074733128E+02  0.39075619894E+02  0.00000000000E+00 0.  1.
         11    1    1    2    0    0  0.26994953266E+02 -0.18402937049E+02  0.11204465489E+03  0.11671075479E+03  0.00000000000E+00 0. -1.
<mgrwt>
<rscale>  0 0.11472174E+03</rscale>
<asrwt>0</asrwt>
<pdfrwt beam="1">  1        1 0.61450497E-01 0.12721894E+03</pdfrwt>
<pdfrwt beam="2">  1       -1 0.43292839E-02 0.12721894E+03</pdfrwt>
<totfact> 0.12473924E+04</totfact>
</mgrwt>
</event>
<event>
 6    1  0.5258538E-006  0.1651883E+03  0.7546771E-02  0.1192573E+00
          2   -1    0    0  501    0  0.00000000000E+00  0.00000000000E+00  0.24005997881E+04  0.24005997881E+04  0.00000000000E+00 0. -1.
         -2   -1    0    0    0  501 -0.00000000000E+00 -0.00000000000E+00 -0.12757848942E+02  0.12757848942E+02  0.00000000000E+00 0.  1.
          5    1    1    2  502    0 -0.33145422988E+02 -0.93274304101E+01  0.35556069413E+03  0.35725497510E+03  0.47000000000E+01 0. -1.
         -5    1    1    2    0  502  0.11000069329E+03  0.69310715620E+02  0.15572934837E+04  0.15627185326E+04  0.47000000000E+01 0.  1.
        -11    1    1    2    0    0 -0.59040068585E+02 -0.83951815850E+02  0.34110324976E+03  0.35620929814E+03  0.00000000000E+00 0. -1.
         11    1    1    2    0    0 -0.17815201713E+02  0.23968530640E+02  0.13388451164E+03  0.13717483126E+03  0.00000000000E+00 0.  1.
<mgrwt>
<rscale>  0 0.15661422E+03</rscale>
<asrwt>0</asrwt>
<pdfrwt beam="1">  1        2 0.36932268E+00 0.16518827E+03</pdfrwt>
<pdfrwt beam="2">  1       -2 0.19627479E-02 0.16518827E+03</pdfrwt>
<totfact> 0.36251835E+03</totfact>
</mgrwt>
</event>
<event>
 6    1  0.5258538E-006  0.2808853E+03  0.7546771E-02  0.1095206E+00
          3   -1    0    0  501    0  0.00000000000E+00  0.00000000000E+00  0.46141303424E+03  0.46141303424E+03  0.00000000000E+00 0. -1.
         -3   -1    0    0    0  501 -0.00000000000E+00 -0.00000000000E+00 -0.42747241097E+02  0.42747241097E+02  0.00000000000E+00 0.  1.
          5    1    1    2  502    0 -0.92666044229E+02  0.31023527886E+01  0.30422866170E+03  0.31807827488E+03  0.47000000000E+01 0. -1.
         -5    1    1    2    0  502  0.25492402810E+02 -0.12456336776E+02  0.21160050273E+02  0.35705190862E+02  0.47000000000E+01 0.  1.
        -11    1    1    2    0    0  0.25700015312E+02 -0.24337808265E+01  0.10299335681E+03  0.10617930883E+03  0.00000000000E+00 0. -1.
         11    1    1    2    0    0  0.41473626107E+02  0.11787764814E+02 -0.97162756466E+01  0.44197500769E+02  0.00000000000E+00 0.  1.
<mgrwt>
<rscale>  0 0.28088527E+03</rscale>
<asrwt>0</asrwt>
<pdfrwt beam="1">  1        3 0.70986617E-01 0.28088527E+03</pdfrwt>
<pdfrwt beam="2">  1       -3 0.65764989E-02 0.28088527E+03</pdfrwt>
<totfact> 0.72241356E+02</totfact>
</mgrwt>
</event>
<event>
 6    1  0.5258538E-006  0.1279127E+03  0.7546771E-02  0.1247030E+00
          2   -1    0    0  501    0  0.00000000000E+00  0.00000000000E+00  0.58542356383E+03  0.58542356383E+03  0.00000000000E+00 0. -1.
         -2   -1    0    0    0  501 -0.00000000000E+00 -0.00000000000E+00 -0.20591899617E+02  0.20591899617E+02  0.00000000000E+00 0.  1.
          5    1    1    2  502    0  0.48243146723E+02 -0.33663091148E+02  0.20157334427E+03  0.21003454009E+03  0.47000000000E+01 0.  1.
         -5    1    1    2    0  502 -0.64446337684E+02  0.11909431470E+02  0.13837968939E+03  0.15318679262E+03  0.47000000000E+01 0.  1.
        -11    1    1    2    0    0  0.22047775426E+02  0.38446779196E+02  0.22003786014E+03  0.22445694270E+03  0.00000000000E+00 0. -1.
         11    1    1    2    0    0 -0.58445844649E+01 -0.16693119518E+02  0.48407704182E+01  0.18337188036E+02  0.00000000000E+00 0.  1.
<mgrwt>
<rscale>  0 0.11764724E+03</rscale>
<asrwt>0</asrwt>
<pdfrwt beam="1">  1        2 0.90065151E-01 0.12791275E+03</pdfrwt>
<pdfrwt beam="2">  1       -2 0.31679850E-02 0.12791275E+03</pdfrwt>
<totfact> 0.19041183E+04</totfact>
</mgrwt>
</event>
<event>
 6    1  0.5258538E-006  0.1313627E+03  0.7546771E-02  0.1242845E+00
          1   -1    0    0  501    0  0.00000000000E+00  0.00000000000E+00  0.19044450090E+03  0.19044450090E+03  0.00000000000E+00 0. -1.
         -1   -1    0    0    0  501 -0.00000000000E+00 -0.00000000000E+00 -0.16290818844E+03  0.16290818844E+03  0.00000000000E+00 0.  1.
          5    1    1    2  502    0 -0.41205161559E+02  0.79640798825E+01  0.16072629737E+03  0.16618160119E+03  0.47000000000E+01 0. -1.
         -5    1    1    2    0  502  0.29386143500E+02 -0.11830473599E+02 -0.10194386550E+02  0.33608347959E+02  0.47000000000E+01 0.  1.
        -11    1    1    2    0    0  0.26824876697E+01  0.43462832337E+02 -0.94138644739E+02  0.10372221540E+03  0.00000000000E+00 0. -1.
         11    1    1    2    0    0  0.91365303892E+01 -0.39596438621E+02 -0.28856953620E+02  0.49840524789E+02  0.00000000000E+00 0.  1.
<mgrwt>
<rscale>  0 0.12015292E+03</rscale>
<asrwt>0</asrwt>
<pdfrwt beam="1">  1        1 0.29299154E-01 0.13136273E+03</pdfrwt>
<pdfrwt beam="2">  1       -1 0.25062798E-01 0.13136273E+03</pdfrwt>
<totfact> 0.21071024E+03</totfact>
</mgrwt>
</event>
<event>
 6    1  0.5258538E-006  0.1415359E+03  0.7546771E-02  0.1221941E+00
          1   -1    0    0  501    0  0.00000000000E+00  0.00000000000E+00  0.51445348560E+02  0.51445348560E+02  0.00000000000E+00 0. -1.
         -1   -1    0    0    0  501 -0.00000000000E+00 -0.00000000000E+00 -0.32696457605E+03  0.32696457605E+03  0.00000000000E+00 0.  1.
          5    1    1    2  502    0  0.53170872333E+02 -0.79550190494E+02 -0.48017162695E+02  0.10715928511E+03  0.47000000000E+01 0. -1.
         -5    1    1    2    0  502 -0.27480394929E+02  0.18333676290E+02 -0.68396274859E+02  0.76101486230E+02  0.47000000000E+01 0. -1.
        -11    1    1    2    0    0  0.14779885295E+02 -0.15115120467E+02 -0.60296305665E+02  0.63894885186E+02  0.00000000000E+00 0.  1.
         11    1    1    2    0    0 -0.40470362698E+02  0.76331634671E+02 -0.98809484271E+02  0.13125426808E+03  0.00000000000E+00 0. -1.
<mgrwt>
<rscale>  0 0.13378817E+03</rscale>
<asrwt>0</asrwt>
<pdfrwt beam="1">  1        1 0.79146687E-02 0.14153594E+03</pdfrwt>
<pdfrwt beam="2">  1       -1 0.50302244E-01 0.14153594E+03</pdfrwt>
<totfact> 0.34539307E+03</totfact>
</mgrwt>
</event>
<event>
 6    1  0.5258538E-006  0.1494773E+03  0.7546771E-02  0.1210187E+00
         -1   -1    0    0    0  501 -0.00000000000E+00  0.00000000000E+00  0.20981682528E+02  0.20981682528E+02  0.00000000000E+00 0.  1.
          1   -1    0    0  501    0  0.00000000000E+00 -0.00000000000E+00 -0.90070442001E+03  0.90070442001E+03  0.00000000000E+00 0. -1.
          5    1    1    2  502    0  0.74466988790E+02  0.73107098379E+02 -0.41743684272E+03  0.43030871233E+03  0.47000000000E+01 0. -1.
         -5    1    1    2    0  502 -0.43201815941E+02  0.26672328136E+01 -0.12596110343E+03  0.13327340548E+03  0.47000000000E+01 0. -1.
        -11    1    1    2    0    0  0.95896494319E+01  0.17690796966E+02 -0.41265971557E+02  0.45910849284E+02  0.00000000000E+00 0.  1.
         11    1    1    2    0    0 -0.40854822280E+02 -0.93465128158E+02 -0.29505881978E+03  0.31219313544E+03  0.00000000000E+00 0. -1.
<mgrwt>
<rscale>  0 0.14236073E+03</rscale>
<asrwt>0</asrwt>
<pdfrwt beam="2">  1        1 0.13856993E+00 0.14947734E+03</pdfrwt>
<pdfrwt beam="1">  1       -1 0.32279508E-02 0.14947734E+03</pdfrwt>
<totfact> 0.62911546E+03</totfact>
</mgrwt>
</event>
<event>
 6    1  0.5258538E-006  0.1281093E+03  0.7546771E-02  0.1244753E+00
          1   -1    0    0  501    0  0.00000000000E+00  0.00000000000E+00  0.10941376916E+04  0.10941376916E+04  0.00000000000E+00 0. -1.
         -1   -1    0    0    0  501 -0.00000000000E+00 -0.00000000000E+00 -0.16603655088E+02  0.16603655088E+02  0.00000000000E+00 0.  1.
          5    1    1    2  502    0 -0.25449340574E+01 -0.33960526159E+02  0.71482515201E+03  0.71565136901E+03  0.47000000000E+01 0.  1.
         -5    1    1    2    0  502  0.25983921969E+02  0.49396265230E+02  0.18639684343E+03  0.19463049211E+03  0.47000000000E+01 0.  1.
        -11    1    1    2    0    0 -0.18037744220E+02  0.19576987128E+02  0.70609452671E+01  0.27540435538E+02  0.00000000000E+00 0.  1.
         11    1    1    2    0    0 -0.54012436920E+01 -0.35012726200E+02  0.16925109577E+03  0.17291904999E+03  0.00000000000E+00 0. -1.
<mgrwt>
<rscale>  0 0.11900194E+03</rscale>
<asrwt>0</asrwt>
<pdfrwt beam="1">  1        1 0.16832882E+00 0.12810926E+03</pdfrwt>
<pdfrwt beam="2">  1       -1 0.25544093E-02 0.12810926E+03</pdfrwt>
<totfact> 0.63312020E+03</totfact>
</mgrwt>
</event>
<event>
 6    1  0.5258538E-006  0.3346043E+03  0.7546771E-02  0.1069118E+00
          2   -1    0    0  501    0  0.00000000000E+00  0.00000000000E+00  0.21205852546E+03  0.21205852546E+03  0.00000000000E+00 0. -1.
         -2   -1    0    0    0  501 -0.00000000000E+00 -0.00000000000E+00 -0.13199192061E+03  0.13199192061E+03  0.00000000000E+00 0.  1.
          5    1    1    2  502    0  0.57179584220E+02  0.13238725684E+03 -0.12917847011E+02  0.14486149038E+03  0.47000000000E+01 0.  1.
         -5    1    1    2    0  502 -0.53760544837E+01 -0.18702294526E+02  0.25327290326E+02  0.32283733019E+02  0.47000000000E+01 0.  1.
        -11    1    1    2    0    0 -0.55041888271E+02 -0.77929117319E+02  0.60484699820E+01  0.95598853443E+02  0.00000000000E+00 0.  1.
         11    1    1    2    0    0  0.32383585346E+01 -0.35755844994E+02  0.61608691555E+02  0.71306369228E+02  0.00000000000E+00 0. -1.
<mgrwt>
<rscale>  0 0.33460432E+03</rscale>
<asrwt>0</asrwt>
<pdfrwt beam="1">  1        2 0.32624389E-01 0.33460432E+03</pdfrwt>
<pdfrwt beam="2">  1       -2 0.20306449E-01 0.33460432E+03</pdfrwt>
<totfact> 0.32799928E+03</totfact>
</mgrwt>
</event>
<event>
 6    1  0.5258538E-006  0.1256528E+03  0.7546771E-02  0.1249013E+00
          2   -1    0    0  501    0  0.00000000000E+00  0.00000000000E+00  0.63792766117E+02  0.63792766117E+02  0.00000000000E+00 0. -1.
         -2   -1    0    0    0  501 -0.00000000000E+00 -0.00000000000E+00 -0.22147565352E+03  0.22147565352E+03  0.00000000000E+00 0.  1.
          5    1    1    2  502    0  0.39688230543E+02 -0.52847982495E+00 -0.59001538218E+02  0.71265043651E+02  0.47000000000E+01 0.  1.
         -5    1    1    2    0  502 -0.52448409473E+02  0.12579409806E+01  0.25868199658E+02  0.58682806897E+02  0.47000000000E+01 0.  1.
        -11    1    1    2    0    0 -0.12544444508E+02  0.40709680028E+02 -0.72886635660E+02  0.84422170038E+02  0.00000000000E+00 0.  1.
         11    1    1    2    0    0  0.25304623438E+02 -0.41439141184E+02 -0.51662913184E+02  0.70898399052E+02  0.00000000000E+00 0. -1.
<mgrwt>
<rscale>  0 0.11648404E+03</rscale>
<asrwt>0</asrwt>
<pdfrwt beam="1">  1        2 0.98142717E-02 0.12565280E+03</pdfrwt>
<pdfrwt beam="2">  1       -2 0.34073177E-01 0.12565280E+03</pdfrwt>
<totfact> 0.50108607E+03</totfact>
</mgrwt>
</event>
<event>
 6    1  0.5258538E-006  0.1352393E+03  0.7546771E-02  0.1232026E+00
          2   -1    0    0  501    0  0.00000000000E+00  0.00000000000E+00  0.65063260301E+03  0.65063260301E+03  0.00000000000E+00 0.  1.
         -2   -1    0    0    0  501 -0.00000000000E+00 -0.00000000000E+00 -0.22219058268E+02  0.22219058268E+02  0.00000000000E+00 0. -1.
          5    1    1    2  502    0 -0.96212801168E+01  0.53758559217E+02  0.17594436164E+03  0.18428526830E+03  0.47000000000E+01 0.  1.
         -5    1    1    2    0  502  0.61125969066E+02 -0.50152393577E+02  0.18997006788E+03  0.20582119271E+03  0.47000000000E+01 0.  1.
        -11    1    1    2    0    0  0.13974796470E+02  0.22631584522E+02  0.31563945283E+02  0.41276702826E+02  0.00000000000E+00 0. -1.
         11    1    1    2    0    0 -0.65479485419E+02 -0.26237750162E+02  0.23093516993E+03  0.24146849744E+03  0.00000000000E+00 0.  1.
<mgrwt>
<rscale>  0 0.12696787E+03</rscale>
<asrwt>0</asrwt>
<pdfrwt beam="1">  1        2 0.10009731E+00 0.13523935E+03</pdfrwt>
<pdfrwt beam="2">  1       -2 0.34183172E-02 0.13523935E+03</pdfrwt>
<totfact> 0.15151897E+04</totfact>
</mgrwt>
</event>
<event>
 6    1  0.5258538E-006  0.2149181E+03  0.7546771E-02  0.1142129E+00
          2   -1    0    0  501    0  0.00000000000E+00  0.00000000000E+00  0.64873527867E+03  0.64873527867E+03  0.00000000000E+00 0. -1.
         -2   -1    0    0    0  501 -0.00000000000E+00 -0.00000000000E+00 -0.80293066885E+02  0.80293066885E+02  0.00000000000E+00 0.  1.
          5    1    1    2  502    0 -0.19994234976E+02 -0.33347872760E+02  0.31708378875E+02  0.50392076171E+02  0.47000000000E+01 0.  1.
         -5    1    1    2    0  502 -0.15457656027E+03  0.42778634719E+02  0.42751228428E+03  0.45663198288E+03  0.47000000000E+01 0.  1.
        -11    1    1    2    0    0  0.29453842898E+02 -0.34595668062E+02  0.33094646745E+02  0.56210717424E+02  0.00000000000E+00 0.  1.
         11    1    1    2    0    0  0.14511695235E+03  0.25164906104E+02  0.76126901882E+02  0.16579356908E+03  0.00000000000E+00 0. -1.
<mgrwt>
<rscale>  0 0.20929100E+03</rscale>
<asrwt>0</asrwt>
<pdfrwt beam="1">  1        2 0.99805424E-01 0.21491808E+03</pdfrwt>
<pdfrwt beam="2">  1       -2 0.12352780E-01 0.21491808E+03</pdfrwt>
<totfact> 0.21563523E+03</totfact>
</mgrwt>
</event>
<event>
 6    1  0.5258538E-006  0.2370271E+03  0.7546771E-02  0.1124307E+00
         -2   -1    0    0    0  501 -0.00000000000E+00  0.00000000000E+00  0.10103618984E+03  0.10103618984E+03  0.00000000000E+00 0.  1.
          2   -1    0    0  501    0  0.00000000000E+00 -0.00000000000E+00 -0.55677430163E+03  0.55677430163E+03  0.00000000000E+00 0. -1.
          5    1    1    2  502    0 -0.61140059375E+02  0.13468668147E+03 -0.12186834779E+03  0.19170965865E+03  0.47000000000E+01 0.  1.
         -5    1    1    2    0  502  0.85817892463E+01  0.59720990868E+02 -0.19387989871E+03  0.20310526576E+03  0.47000000000E+01 0.  1.
        -11    1    1    2    0    0  0.28657317046E+02 -0.67248618335E+01 -0.37971523999E+02  0.48044793909E+02  0.00000000000E+00 0. -1.
         11    1    1    2    0    0  0.23900953083E+02 -0.18768281051E+03 -0.10201834129E+03  0.21495077315E+03  0.00000000000E+00 0.  1.
<mgrwt>
<rscale>  0 0.23334602E+03</rscale>
<asrwt>0</asrwt>
<pdfrwt beam="2">  1        2 0.85657584E-01 0.23702715E+03</pdfrwt>
<pdfrwt beam="1">  1       -2 0.15544029E-01 0.23702715E+03</pdfrwt>
<totfact> 0.17701168E+03</totfact>
</mgrwt>
</event>
<event>
 6    1  0.5258538E-006  0.1428174E+03  0.7546771E-02  0.1220716E+00
          3   -1    0    0  501    0  0.00000000000E+00  0.00000000000E+00  0.23761003580E+02  0.23761003580E+02  0.00000000000E+00 0. -1.
         -3   -1    0    0    0  501 -0.00000000000E+00 -0.00000000000E+00 -0.70011083027E+03  0.70011083027E+03  0.00000000000E+00 0.  1.
          5    1    1    2  502    0 -0.59707956680E+02 -0.57316613259E+01 -0.43064137151E+03  0.43482407119E+03  0.47000000000E+01 0.  1.
         -5    1    1    2    0  502 -0.93544482840E+01  0.63851019623E+01  0.56652896282E+01  0.13507802795E+02  0.47000000000E+01 0.  1.
        -11    1    1    2    0    0  0.77598701873E+02 -0.15743704849E+02 -0.24430697897E+03  0.25681768387E+03  0.00000000000E+00 0.  1.
         11    1    1    2    0    0 -0.85362969084E+01  0.15090264212E+02 -0.70667658376E+01  0.18722275992E+02  0.00000000000E+00 0. -1.
<mgrwt>
<rscale>  0 0.13464935E+03</rscale>
<asrwt>0</asrwt>
<pdfrwt beam="1">  1        3 0.36555393E-02 0.14281736E+03</pdfrwt>
<pdfrwt beam="2">  1       -3 0.10770935E+00 0.14281736E+03</pdfrwt>
<totfact> 0.66547315E+02</totfact>
</mgrwt>
</event>
<event>
 6    1  0.5258538E-006  0.1838428E+03  0.7546771E-02  0.1169257E+00
         -2   -1    0    0    0  501 -0.00000000000E+00  0.00000000000E+00  0.86805940263E+02  0.86805940263E+02  0.00000000000E+00 0.  1.
          2   -1    0    0  501    0  0.00000000000E+00 -0.00000000000E+00 -0.42487592098E+03  0.42487592098E+03  0.00000000000E+00 0. -1.
          5    1    1    2  502    0 -0.94180888217E+02  0.67241976561E+02 -0.25073706565E+03  0.27619320993E+03  0.47000000000E+01 0.  1.
         -5    1    1    2    0  502  0.23545196420E+02  0.47573071066E+02 -0.35614839301E+02  0.64094306639E+02  0.47000000000E+01 0.  1.
        -11    1    1    2    0    0  0.17086048720E+02 -0.78210197866E+02 -0.67412489947E+02  0.10465759367E+03  0.00000000000E+00 0. -1.
         11    1    1    2    0    0  0.53549643077E+02 -0.36604849760E+02  0.15694414181E+02  0.66736751015E+02  0.00000000000E+00 0.  1.
<mgrwt>
<rscale>  0 0.17850545E+03</rscale>
<asrwt>0</asrwt>
<pdfrwt beam="2">  1        2 0.65365526E-01 0.18384281E+03</pdfrwt>
<pdfrwt beam="1">  1       -2 0.13354760E-01 0.18384281E+03</pdfrwt>
<totfact> 0.30477243E+03</totfact>
</mgrwt>
</event>
<event>
 6    1  0.5258538E-006  0.1261602E+03  0.7546771E-02  0.1252001E+00
          2   -1    0    0  501    0  0.00000000000E+00  0.00000000000E+00  0.13417660823E+03  0.13417660823E+03  0.00000000000E+00 0. -1.
         -2   -1    0    0    0  501 -0.00000000000E+00 -0.00000000000E+00 -0.13242539964E+03  0.13242539964E+03  0.00000000000E+00 0.  1.
          5    1    1    2  502    0 -0.62658189369E+02 -0.28242506811E+02  0.25087089201E+02  0.73315345805E+02  0.47000000000E+01 0.  1.
         -5    1    1    2    0  502  0.49241341031E+02  0.17575723628E+02  0.55463634965E+02  0.76367012061E+02  0.47000000000E+01 0.  1.
        -11    1    1    2    0    0 -0.98391539434E+01 -0.34266866856E+02 -0.35745115823E+02  0.50485051447E+02  0.00000000000E+00 0. -1.
         11    1    1    2    0    0  0.23256002282E+02  0.44933650038E+02 -0.43054399755E+02  0.66434598563E+02  0.00000000000E+00 0.  1.
<mgrwt>
<rscale>  0 0.11475990E+03</rscale>
<asrwt>0</asrwt>
<pdfrwt beam="1">  1        2 0.20642555E-01 0.12616017E+03</pdfrwt>
<pdfrwt beam="2">  1       -2 0.20373138E-01 0.12616017E+03</pdfrwt>
<totfact> 0.51708077E+03</totfact>
</mgrwt>
</event>
<event>
 6    1  0.5258538E-006  0.1755764E+03  0.7546771E-02  0.1173891E+00
          1   -1    0    0  501    0  0.00000000000E+00  0.00000000000E+00  0.45522047479E+03  0.45522047479E+03  0.00000000000E+00 0. -1.
         -1   -1    0    0    0  501 -0.00000000000E+00 -0.00000000000E+00 -0.82913108157E+02  0.82913108157E+02  0.00000000000E+00 0.  1.
          5    1    1    2  502    0  0.59723017373E+02  0.29846289079E+02  0.39538913154E+02  0.77737091721E+02  0.47000000000E+01 0. -1.
         -5    1    1    2    0  502  0.62800043942E+02 -0.16058490839E+02  0.27412442608E+03  0.28172328910E+03  0.47000000000E+01 0. -1.
        -11    1    1    2    0    0 -0.11520848583E+03 -0.54426620172E+02  0.42139069963E+02  0.13420489339E+03  0.00000000000E+00 0.  1.
         11    1    1    2    0    0 -0.73145754822E+01  0.40638821932E+02  0.16504957441E+02  0.44468308745E+02  0.00000000000E+00 0. -1.
<mgrwt>
<rscale>  0 0.17385077E+03</rscale>
<asrwt>0</asrwt>
<pdfrwt beam="1">  1        1 0.70033918E-01 0.17557641E+03</pdfrwt>
<pdfrwt beam="2">  1       -1 0.12755863E-01 0.17557641E+03</pdfrwt>
<totfact> 0.21020765E+03</totfact>
</mgrwt>
</event>
<event>
 6    1  0.5258538E-006  0.1445763E+03  0.7546771E-02  0.1217480E+00
          2   -1    0    0  501    0  0.00000000000E+00  0.00000000000E+00  0.14141229859E+02  0.14141229859E+02  0.00000000000E+00 0.  1.
         -2   -1    0    0    0  501 -0.00000000000E+00 -0.00000000000E+00 -0.12053205747E+04  0.12053205747E+04  0.00000000000E+00 0. -1.
          5    1    1    2  502    0 -0.19926132813E+02 -0.35409116409E+02 -0.24050536253E+03  0.24395855324E+03  0.47000000000E+01 0. -1.
         -5    1    1    2    0  502  0.92035407488E+02  0.44241777947E+02 -0.43611303130E+03  0.44793360804E+03  0.47000000000E+01 0. -1.
        -11    1    1    2    0    0  0.47127881189E+01  0.19371911569E+02 -0.29194598207E+02  0.35352593882E+02  0.00000000000E+00 0.  1.
         11    1    1    2    0    0 -0.76822062794E+02 -0.28204573106E+02 -0.48536635282E+03  0.49221704940E+03  0.00000000000E+00 0. -1.
<mgrwt>
<rscale>  0 0.13695956E+03</rscale>
<asrwt>0</asrwt>
<pdfrwt beam="1">  1        2 0.21755730E-02 0.14457632E+03</pdfrwt>
<pdfrwt beam="2">  1       -2 0.18543400E+00 0.14457632E+03</pdfrwt>
<totfact> 0.84949533E+02</totfact>
</mgrwt>
</event>
<event>
 6    1  0.5258538E-006  0.1293700E+03  0.7546771E-02  0.1242487E+00
         -1   -1    0    0    0  501 -0.00000000000E+00  0.00000000000E+00  0.21704923997E+02  0.21704923997E+02  0.00000000000E+00 0.  1.
          1   -1    0    0  501    0  0.00000000000E+00 -0.00000000000E+00 -0.60451321175E+03  0.60451321175E+03  0.00000000000E+00 0. -1.
          5    1    1    2  502    0 -0.15466450785E+02  0.42263676369E+02 -0.55663050846E+02  0.71734891577E+02  0.47000000000E+01 0. -1.
         -5    1    1    2    0  502 -0.14378707016E+02 -0.57133330763E+02 -0.32448342938E+03  0.32982199842E+03  0.47000000000E+01 0. -1.
        -11    1    1    2    0    0  0.50616074950E+02  0.37748297930E+02 -0.15979509485E+03  0.17181790762E+03  0.00000000000E+00 0. -1.
         11    1    1    2    0    0 -0.20770917148E+02 -0.22878643537E+02 -0.42866712676E+02  0.52843338132E+02  0.00000000000E+00 0.  1.
<mgrwt>
<rscale>  0 0.12037079E+03</rscale>
<asrwt>0</asrwt>
<pdfrwt beam="2">  1        1 0.93002026E-01 0.12936997E+03</pdfrwt>
<pdfrwt beam="1">  1       -1 0.33392193E-02 0.12936997E+03</pdfrwt>
<totfact> 0.10652588E+04</totfact>
</mgrwt>
</event>
<event>
 6    1  0.5258538E-006  0.1370576E+03  0.7546771E-02  0.1228998E+00
          1   -1    0    0  501    0  0.00000000000E+00  0.00000000000E+00  0.11256819771E+03  0.11256819771E+03  0.00000000000E+00 0. -1.
         -1   -1    0    0    0  501 -0.00000000000E+00 -0.00000000000E+00 -0.16966500258E+03  0.16966500258E+03  0.00000000000E+00 0.  1.
          5    1    1    2  502    0  0.78930939825E+02 -0.36777755594E+02  0.51001798445E+00  0.87206918800E+02  0.47000000000E+01 0. -1.
         -5    1    1    2    0  502 -0.22730625641E+02  0.35341898281E+02  0.33663597941E+02  0.54046821761E+02  0.47000000000E+01 0. -1.
        -11    1    1    2    0    0  0.17785237084E+02  0.24201828014E+02 -0.24951311609E+02  0.39046268559E+02  0.00000000000E+00 0.  1.
         11    1    1    2    0    0 -0.73985551268E+02 -0.22765970701E+02 -0.66319109190E+02  0.10193319117E+03  0.00000000000E+00 0. -1.
<mgrwt>
<rscale>  0 0.12896628E+03</rscale>
<asrwt>0</asrwt>
<pdfrwt beam="1">  1        1 0.17318184E-01 0.13705759E+03</pdfrwt>
<pdfrwt beam="2">  1       -1 0.26102308E-01 0.13705759E+03</pdfrwt>
<totfact> 0.38348961E+03</totfact>
</mgrwt>
</event>
<event>
 6    1  0.5258538E-006  0.2140287E+03  0.7546771E-02  0.1142025E+00
         -2   -1    0    0    0  501 -0.00000000000E+00  0.00000000000E+00  0.84159982033E+02  0.84159982033E+02  0.00000000000E+00 0.  1.
          2   -1    0    0  501    0  0.00000000000E+00 -0.00000000000E+00 -0.51085606673E+03  0.51085606673E+03  0.00000000000E+00 0. -1.
          5    1    1    2  502    0  0.96712782587E+02  0.92777282317E+02 -0.25528144743E+03  0.28836035413E+03  0.47000000000E+01 0.  1.
         -5    1    1    2    0  502 -0.31672283142E+00  0.51759280631E+02 -0.10739663686E+02  0.53071214616E+02  0.47000000000E+01 0.  1.
        -11    1    1    2    0    0 -0.40129542923E+02 -0.34222124828E+02 -0.10563388354E+03  0.11806799480E+03  0.00000000000E+00 0.  1.
         11    1    1    2    0    0 -0.56266516833E+02 -0.11031443812E+03 -0.55041090033E+02  0.13551648522E+03  0.00000000000E+00 0. -1.
<mgrwt>
<rscale>  0 0.20942117E+03</rscale>
<asrwt>0</asrwt>
<pdfrwt beam="2">  1        2 0.78593240E-01 0.21402870E+03</pdfrwt>
<pdfrwt beam="1">  1       -2 0.12947690E-01 0.21402870E+03</pdfrwt>
<totfact> 0.26285600E+03</totfact>
</mgrwt>
</event>
<event>
 6    1  0.5258538E-006  0.1406447E+03  0.7546771E-02  0.1223573E+00
          2   -1    0    0  501    0  0.00000000000E+00  0.00000000000E+00  0.13069706505E+03  0.13069706505E+03  0.00000000000E+00 0. -1.
         -2   -1    0    0    0  501 -0.00000000000E+00 -0.00000000000E+00 -0.12256291607E+03  0.12256291607E+03  0.00000000000E+00 0.  1.
          5    1    1    2  502    0  0.69947547347E+02 -0.33377437931E+02  0.11104355514E+02  0.78435383942E+02  0.47000000000E+01 0.  1.
         -5    1    1    2    0  502 -0.10485637510E+02  0.58418434890E+02 -0.18735835296E+02  0.62416213064E+02  0.47000000000E+01 0.  1.
        -11    1    1    2    0    0 -0.60747031972E+00  0.21951816719E+02  0.28548358160E+02  0.36017496180E+02  0.00000000000E+00 0.  1.
         11    1    1    2    0    0 -0.58854439518E+02 -0.46992813678E+02 -0.12782729390E+02  0.76390887932E+02  0.00000000000E+00 0. -1.
<mgrwt>
<rscale>  0 0.13265197E+03</rscale>
<asrwt>0</asrwt>
<pdfrwt beam="1">  1        2 0.20107241E-01 0.14064470E+03</pdfrwt>
<pdfrwt beam="2">  1       -2 0.18855833E-01 0.14064470E+03</pdfrwt>
<totfact> 0.61137120E+03</totfact>
</mgrwt>
</event>
<event>
 6    1  0.5258538E-006  0.1466806E+03  0.7546771E-02  0.1213882E+00
         -1   -1    0    0    0  501 -0.00000000000E+00  0.00000000000E+00  0.92021606935E+02  0.92021606935E+02  0.00000000000E+00 0.  1.
          1   -1    0    0  501    0  0.00000000000E+00 -0.00000000000E+00 -0.34242948344E+03  0.34242948344E+03  0.00000000000E+00 0. -1.
          5    1    1    2  502    0 -0.48421549298E+02  0.29072402685E+02 -0.62963727563E+02  0.84713470139E+02  0.47000000000E+01 0. -1.
         -5    1    1    2    0  502 -0.87077844777E+01 -0.80335815993E+02 -0.21201874235E+03  0.22694427940E+03  0.47000000000E+01 0. -1.
        -11    1    1    2    0    0  0.44878479897E+02  0.78120771779E+02  0.24134272249E+02  0.93270552900E+02  0.00000000000E+00 0. -1.
         11    1    1    2    0    0  0.12250853879E+02 -0.26857358471E+02  0.44032116612E+00  0.29522787936E+02  0.00000000000E+00 0.  1.
<mgrwt>
<rscale>  0 0.13958995E+03</rscale>
<asrwt>0</asrwt>
<pdfrwt beam="2">  1        1 0.52681459E-01 0.14668059E+03</pdfrwt>
<pdfrwt beam="1">  1       -1 0.14157170E-01 0.14668059E+03</pdfrwt>
<totfact> 0.25483880E+03</totfact>
</mgrwt>
</event>
<event>
 6    1  0.5258538E-006  0.2643817E+03  0.7546771E-02  0.1133197E+00
          2   -1    0    0  501    0  0.00000000000E+00  0.00000000000E+00  0.12911836660E+03  0.12911836660E+03  0.00000000000E+00 0. -1.
         -2   -1    0    0    0  501 -0.00000000000E+00 -0.00000000000E+00 -0.85123904503E+03  0.85123904503E+03  0.00000000000E+00 0.  1.
          5    1    1    2  502    0 -0.87499164634E+02  0.45186309954E+02  0.98252178005E+02  0.13918867375E+03  0.47000000000E+01 0. -1.
         -5    1    1    2    0  502  0.34430053438E+02  0.31568064628E+02 -0.11675420276E+03  0.12583960086E+03  0.47000000000E+01 0.  1.
        -11    1    1    2    0    0 -0.19313150234E+02 -0.44758836563E+02 -0.22590672482E+03  0.23110646798E+03  0.00000000000E+00 0. -1.
         11    1    1    2    0    0  0.72382261430E+02 -0.31995538018E+02 -0.47771192887E+03  0.48422266903E+03  0.00000000000E+00 0.  1.
<mgrwt>
<rscale>  0 0.22092311E+03</rscale>
<asrwt>0</asrwt>
<pdfrwt beam="1">  1        2 0.19864364E-01 0.26438166E+03</pdfrwt>
<pdfrwt beam="2">  1       -2 0.13095985E+00 0.26438166E+03</pdfrwt>
<totfact> 0.12587938E+02</totfact>
</mgrwt>
</event>
<event>
 6    1  0.5258538E-006  0.3444546E+03  0.7546771E-02  0.1064914E+00
          1   -1    0    0  501    0  0.00000000000E+00  0.00000000000E+00  0.11208377716E+03  0.11208377716E+03  0.00000000000E+00 0. -1.
         -1   -1    0    0    0  501 -0.00000000000E+00 -0.00000000000E+00 -0.26464356449E+03  0.26464356449E+03  0.00000000000E+00 0.  1.
          5    1    1    2  502    0 -0.19334529308E+02 -0.11853043546E+03 -0.26701231150E+02  0.12311918575E+03  0.47000000000E+01 0. -1.
         -5    1    1    2    0  502  0.12960118175E+02  0.11749487731E+02  0.37640390786E+02  0.41772049789E+02  0.47000000000E+01 0. -1.
        -11    1    1    2    0    0 -0.29324305922E+01  0.31650549230E+02 -0.12081709128E+03  0.12492848339E+03  0.00000000000E+00 0.  1.
         11    1    1    2    0    0  0.93068417245E+01  0.75130398501E+02 -0.42681855687E+02  0.86907622719E+02  0.00000000000E+00 0. -1.
<mgrwt>
<rscale>  0 0.34445464E+03</rscale>
<asrwt>0</asrwt>
<pdfrwt beam="1">  1        1 0.17243658E-01 0.34445464E+03</pdfrwt>
<pdfrwt beam="2">  1       -1 0.40714394E-01 0.34445464E+03</pdfrwt>
<totfact> 0.18603280E+03</totfact>
</mgrwt>
</event>
<event>
 6    1  0.5258538E-006  0.1269422E+03  0.7546771E-02  0.1248786E+00
          1   -1    0    0  501    0  0.00000000000E+00  0.00000000000E+00  0.27878491980E+03  0.27878491980E+03  0.00000000000E+00 0. -1.
         -1   -1    0    0    0  501 -0.00000000000E+00 -0.00000000000E+00 -0.43184793349E+02  0.43184793349E+02  0.00000000000E+00 0.  1.
          5    1    1    2  502    0  0.16175186923E+02 -0.42839107542E+02  0.11502396639E+03  0.12389281114E+03  0.47000000000E+01 0. -1.
         -5    1    1    2    0  502 -0.13356172408E+02  0.64807160917E+02  0.44076492978E+02  0.79644100101E+02  0.47000000000E+01 0. -1.
        -11    1    1    2    0    0 -0.11515525363E+02  0.32852700458E+02  0.26901542887E+02  0.43995457282E+02  0.00000000000E+00 0.  1.
         11    1    1    2    0    0  0.86965108491E+01 -0.54820753833E+02  0.49598124192E+02  0.74437344627E+02  0.00000000000E+00 0. -1.
<mgrwt>
<rscale>  0 0.11661641E+03</rscale>
<asrwt>0</asrwt>
<pdfrwt beam="1">  1        1 0.42889987E-01 0.12694218E+03</pdfrwt>
<pdfrwt beam="2">  1       -1 0.66438145E-02 0.12694218E+03</pdfrwt>
<totfact> 0.10339590E+04</totfact>
</mgrwt>
</event>
<event>
 6    1  0.5258538E-006  0.1821405E+03  0.7546771E-02  0.1171219E+00
         -1   -1    0    0    0  501 -0.00000000000E+00  0.00000000000E+00  0.49362328229E+02  0.49362328229E+02  0.00000000000E+00 0.  1.
          1   -1    0    0  501    0  0.00000000000E+00 -0.00000000000E+00 -0.59757637176E+03  0.59757637176E+03  0.00000000000E+00 0. -1.
          5    1    1    2  502    0 -0.58540808605E+01  0.74301717781E+02 -0.33481645532E+02  0.81842080346E+02  0.47000000000E+01 0. -1.
         -5    1    1    2    0  502 -0.17709505251E+02  0.56062930159E+02 -0.23714343417E+03  0.24436811798E+03  0.47000000000E+01 0. -1.
        -11    1    1    2    0    0  0.27372289758E+02 -0.83697033418E+02 -0.84500937418E+02  0.12204443483E+03  0.00000000000E+00 0.  1.
         11    1    1    2    0    0 -0.38087036467E+01 -0.46667614522E+02 -0.19308802641E+03  0.19868406683E+03  0.00000000000E+00 0. -1.
<mgrwt>
<rscale>  0 0.17651466E+03</rscale>
<asrwt>0</asrwt>
<pdfrwt beam="2">  1        1 0.91934832E-01 0.18214049E+03</pdfrwt>
<pdfrwt beam="1">  1       -1 0.75942039E-02 0.18214049E+03</pdfrwt>
<totfact> 0.32500827E+03</totfact>
</mgrwt>
</event>
<event>
 6    1  0.5258538E-006  0.1796637E+03  0.7546771E-02  0.1173498E+00
         -1   -1    0    0    0  501 -0.00000000000E+00  0.00000000000E+00  0.73799913418E+03  0.73799913418E+03  0.00000000000E+00 0.  1.
          1   -1    0    0  501    0  0.00000000000E+00 -0.00000000000E+00 -0.38923227905E+02  0.38923227905E+02  0.00000000000E+00 0. -1.
          5    1    1    2  502    0  0.59115292838E+02 -0.73341802607E+02  0.27867984065E+03  0.29420771818E+03  0.47000000000E+01 0. -1.
         -5    1    1    2    0  502 -0.42840866885E+02 -0.54645036754E+02  0.73920452859E+02  0.10152705683E+03  0.47000000000E+01 0. -1.
        -11    1    1    2    0    0 -0.20723662647E+02  0.11227621533E+03  0.34653523110E+03  0.36485899347E+03  0.00000000000E+00 0.  1.
         11    1    1    2    0    0  0.44492366941E+01  0.15710624031E+02 -0.59618333228E-01  0.16328593600E+02  0.00000000000E+00 0. -1.
<mgrwt>
<rscale>  0 0.17423944E+03</rscale>
<asrwt>0</asrwt>
<pdfrwt beam="2">  1        1 0.59881895E-02 0.17966370E+03</pdfrwt>
<pdfrwt beam="1">  1       -1 0.11353832E+00 0.17966370E+03</pdfrwt>
<totfact> 0.96805003E+02</totfact>
</mgrwt>
</event>
<event>
 6    1  0.5258538E-006  0.4045384E+03  0.7546771E-02  0.1042219E+00
         -2   -1    0    0    0  501 -0.00000000000E+00  0.00000000000E+00  0.28067467520E+02  0.28067467520E+02  0.00000000000E+00 0.  1.
          2   -1    0    0  501    0  0.00000000000E+00 -0.00000000000E+00 -0.14576601816E+04  0.14576601816E+04  0.00000000000E+00 0. -1.
          5    1    1    2  502    0  0.77199881459E+02  0.53777571830E+02 -0.11352549306E+04  0.11391565724E+04  0.47000000000E+01 0. -1.
         -5    1    1    2    0  502  0.30866083983E+02 -0.15227066703E+02 -0.83186487772E+02  0.90147991928E+02  0.47000000000E+01 0.  1.
        -11    1    1    2    0    0 -0.38292144346E+02 -0.26943377745E+02 -0.16607341281E+03  0.17254742062E+03  0.00000000000E+00 0. -1.
         11    1    1    2    0    0 -0.69773821096E+02 -0.11607127382E+02 -0.45077882891E+02  0.83875664184E+02  0.00000000000E+00 0.  1.
<mgrwt>
<rscale>  0 0.40453840E+03</rscale>
<asrwt>0</asrwt>
<pdfrwt beam="2">  1        2 0.22425543E+00 0.40453840E+03</pdfrwt>
<pdfrwt beam="1">  1       -2 0.43180716E-02 0.40453840E+03</pdfrwt>
<totfact> 0.35240942E+03</totfact>
</mgrwt>
</event>
<event>
 6    1  0.5258538E-006  0.3408289E+03  0.7546771E-02  0.1066443E+00
         -3   -1    0    0    0  501 -0.00000000000E+00  0.00000000000E+00  0.28783597394E+02  0.28783597394E+02  0.00000000000E+00 0.  1.
          3   -1    0    0  501    0  0.00000000000E+00 -0.00000000000E+00 -0.10089453349E+04  0.10089453349E+04  0.00000000000E+00 0. -1.
          5    1    1    2  502    0  0.73197422401E+02 -0.10353232696E+03 -0.28573777763E+03  0.31264192447E+03  0.47000000000E+01 0.  1.
         -5    1    1    2    0  502 -0.16945899445E+02 -0.13804200542E+02 -0.28647738276E+03  0.28734839532E+03  0.47000000000E+01 0.  1.
        -11    1    1    2    0    0 -0.65551261798E+02  0.34133327238E+02 -0.21713608616E+03  0.22936898627E+03  0.00000000000E+00 0. -1.
         11    1    1    2    0    0  0.92997388419E+01  0.83203200264E+02 -0.19081049100E+03  0.20836962627E+03  0.00000000000E+00 0.  1.
<mgrwt>
<rscale>  0 0.34082885E+03</rscale>
<asrwt>0</asrwt>
<pdfrwt beam="2">  1        3 0.15522235E+00 0.34082885E+03</pdfrwt>
<pdfrwt beam="1">  1       -3 0.44282461E-02 0.34082885E+03</pdfrwt>
<totfact> 0.22361336E+02</totfact>
</mgrwt>
</event>
<event>
 6    1  0.5258538E-006  0.1272008E+03  0.7546771E-02  0.1246970E+00
          1   -1    0    0  501    0  0.00000000000E+00  0.00000000000E+00  0.12237554316E+03  0.12237554316E+03  0.00000000000E+00 0. -1.
         -1   -1    0    0    0  501 -0.00000000000E+00 -0.00000000000E+00 -0.12142421642E+03  0.12142421642E+03  0.00000000000E+00 0.  1.
          5    1    1    2  502    0  0.54949982496E+02  0.50236482705E+02  0.24123070732E+02  0.78404191931E+02  0.47000000000E+01 0. -1.
         -5    1    1    2    0  502 -0.41616143284E+02 -0.30823080545E+02  0.28020327002E+02  0.59069403259E+02  0.47000000000E+01 0. -1.
        -11    1    1    2    0    0  0.16770061357E+01  0.35754416654E+02 -0.23324105641E+02  0.42722412897E+02  0.00000000000E+00 0.  1.
         11    1    1    2    0    0 -0.15010845347E+02 -0.55167818813E+02 -0.27867965354E+02  0.63603751490E+02  0.00000000000E+00 0. -1.
<mgrwt>
<rscale>  0 0.11768236E+03</rscale>
<asrwt>0</asrwt>
<pdfrwt beam="1">  1        1 0.18827007E-01 0.12720085E+03</pdfrwt>
<pdfrwt beam="2">  1       -1 0.18680649E-01 0.12720085E+03</pdfrwt>
<totfact> 0.58993890E+03</totfact>
</mgrwt>
</event>
<event>
 6    1  0.5258538E-006  0.1402480E+03  0.7546771E-02  0.1224217E+00
          2   -1    0    0  501    0  0.00000000000E+00  0.00000000000E+00  0.90078969038E+03  0.90078969038E+03  0.00000000000E+00 0. -1.
         -2   -1    0    0    0  501 -0.00000000000E+00 -0.00000000000E+00 -0.18756344337E+02  0.18756344337E+02  0.00000000000E+00 0.  1.
          5    1    1    2  502    0 -0.15271910139E+02  0.63788441913E+02  0.16072948221E+03  0.17366131697E+03  0.47000000000E+01 0. -1.
         -5    1    1    2    0  502  0.50743980768E+02 -0.11002457852E+02  0.44757926267E+03  0.45060547271E+03  0.47000000000E+01 0. -1.
        -11    1    1    2    0    0 -0.12335852245E+01  0.24892856277E+02  0.47302610566E+02  0.53466933637E+02  0.00000000000E+00 0.  1.
         11    1    1    2    0    0 -0.34238485405E+02 -0.77678840337E+02  0.22642199060E+03  0.24181231140E+03  0.00000000000E+00 0. -1.
<mgrwt>
<rscale>  0 0.13220700E+03</rscale>
<asrwt>0</asrwt>
<pdfrwt beam="1">  1        2 0.13858300E+00 0.14024798E+03</pdfrwt>
<pdfrwt beam="2">  1       -2 0.28855921E-02 0.14024798E+03</pdfrwt>
<totfact> 0.13074601E+04</totfact>
</mgrwt>
</event>
<event>
 6    1  0.5258538E-006  0.1678310E+03  0.7546771E-02  0.1186016E+00
          2   -1    0    0  501    0  0.00000000000E+00  0.00000000000E+00  0.12601100995E+04  0.12601100995E+04  0.00000000000E+00 0.  1.
         -2   -1    0    0    0  501 -0.00000000000E+00 -0.00000000000E+00 -0.26898023693E+02  0.26898023693E+02  0.00000000000E+00 0. -1.
          5    1    1    2  502    0  0.17309161184E+02  0.97376881766E+02  0.41348627479E+03  0.42517626181E+03  0.47000000000E+01 0. -1.
         -5    1    1    2    0  502 -0.53289158882E+02  0.86784748033E+01  0.56557749504E+03  0.56816814701E+03  0.47000000000E+01 0. -1.
        -11    1    1    2    0    0  0.33784891054E+02 -0.81029803973E+01  0.20586862814E+02  0.40384354339E+02  0.00000000000E+00 0. -1.
         11    1    1    2    0    0  0.21951066451E+01 -0.97952376172E+02  0.23356144317E+03  0.25327936005E+03  0.00000000000E+00 0.  1.
<mgrwt>
<rscale>  0 0.16239734E+03</rscale>
<asrwt>0</asrwt>
<pdfrwt beam="1">  1        2 0.19386305E+00 0.16783101E+03</pdfrwt>
<pdfrwt beam="2">  1       -2 0.41381585E-02 0.16783101E+03</pdfrwt>
<totfact> 0.47670111E+03</totfact>
</mgrwt>
</event>
<event>
 6    1  0.5258538E-006  0.1540820E+03  0.7546771E-02  0.1204740E+00
          2   -1    0    0  501    0  0.00000000000E+00  0.00000000000E+00  0.50230053483E+03  0.50230053483E+03  0.00000000000E+00 0.  1.
         -2   -1    0    0    0  501 -0.00000000000E+00 -0.00000000000E+00 -0.42352496026E+02  0.42352496026E+02  0.00000000000E+00 0. -1.
          5    1    1    2  502    0 -0.17804900814E+02  0.29728564670E+02  0.12884056602E+03  0.13350199813E+03  0.47000000000E+01 0.  1.
         -5    1    1    2    0  502 -0.22464234763E+02 -0.11031568218E+03  0.19741313286E+03  0.22730645966E+03  0.47000000000E+01 0.  1.
        -11    1    1    2    0    0 -0.64716643452E+00  0.73928626730E+02  0.11854303543E+03  0.13970795225E+03  0.00000000000E+00 0.  1.
         11    1    1    2    0    0  0.40916302011E+02  0.66584907759E+01  0.15151304501E+02  0.44136620824E+02  0.00000000000E+00 0. -1.
<mgrwt>
<rscale>  0 0.14657932E+03</rscale>
<asrwt>0</asrwt>
<pdfrwt beam="1">  1        2 0.77277001E-01 0.15408201E+03</pdfrwt>
<pdfrwt beam="2">  1       -2 0.65157690E-02 0.15408201E+03</pdfrwt>
<totfact> 0.77779553E+03</totfact>
</mgrwt>
</event>
<event>
 6    1  0.5258538E-006  0.1404087E+03  0.7546771E-02  0.1228056E+00
         -2   -1    0    0    0  501 -0.00000000000E+00  0.00000000000E+00  0.17776075106E+02  0.17776075106E+02  0.00000000000E+00 0.  1.
          2   -1    0    0  501    0  0.00000000000E+00 -0.00000000000E+00 -0.83172093443E+03  0.83172093443E+03  0.00000000000E+00 0. -1.
          5    1    1    2  502    0  0.58158436887E+02 -0.29121273225E+01 -0.22548399867E+03  0.23292919079E+03  0.47000000000E+01 0.  1.
         -5    1    1    2    0  502 -0.47988772849E+02  0.66048415715E+02 -0.28119205077E+03  0.29284189412E+03  0.47000000000E+01 0.  1.
        -11    1    1    2    0    0  0.13303997392E+02 -0.71663263677E+02 -0.26283825998E+03  0.27275734750E+03  0.00000000000E+00 0.  1.
         11    1    1    2    0    0 -0.23473661431E+02  0.85269752841E+01 -0.44430549902E+02  0.50968577114E+02  0.00000000000E+00 0. -1.
<mgrwt>
<rscale>  0 0.12959643E+03</rscale>
<asrwt>0</asrwt>
<pdfrwt beam="2">  1        2 0.12795705E+00 0.14040874E+03</pdfrwt>
<pdfrwt beam="1">  1       -2 0.27347811E-02 0.14040874E+03</pdfrwt>
<totfact> 0.15676238E+04</totfact>
</mgrwt>
</event>
<event>
 6    1  0.5258538E-006  0.1276439E+03  0.7546771E-02  0.1244491E+00
         -3   -1    0    0    0  501 -0.00000000000E+00  0.00000000000E+00  0.44561484281E+03  0.44561484281E+03  0.00000000000E+00 0.  1.
          3   -1    0    0  501    0  0.00000000000E+00 -0.00000000000E+00 -0.33034120582E+02  0.33034120582E+02  0.00000000000E+00 0. -1.
          5    1    1    2  502    0 -0.28063942649E+02 -0.69874692864E+02  0.84283116880E+02  0.11311848377E+03  0.47000000000E+01 0.  1.
         -5    1    1    2    0  502  0.10507871726E+02  0.50901613459E+02  0.56263967403E+02  0.76740560650E+02  0.47000000000E+01 0.  1.
        -11    1    1    2    0    0  0.41934204843E+02  0.43690901486E+02  0.19732868800E+03  0.20641216901E+03  0.00000000000E+00 0.  1.
         11    1    1    2    0    0 -0.24378133920E+02 -0.24717822081E+02  0.74704949951E+02  0.82377749964E+02  0.00000000000E+00 0. -1.
<mgrwt>
<rscale>  0 0.11915866E+03</rscale>
<asrwt>0</asrwt>
<pdfrwt beam="2">  1        3 0.50821727E-02 0.12764393E+03</pdfrwt>
<pdfrwt beam="1">  1       -3 0.68556125E-01 0.12764393E+03</pdfrwt>
<totfact> 0.10547864E+03</totfact>
</mgrwt>
</event>
<event>
 6    1  0.5258538E-006  0.1276783E+03  0.7546771E-02  0.1243701E+00
         -2   -1    0    0    0  501 -0.00000000000E+00  0.00000000000E+00  0.23761431738E+03  0.23761431738E+03  0.00000000000E+00 0. -1.
          2   -1    0    0  501    0  0.00000000000E+00 -0.00000000000E+00 -0.53923519374E+02  0.53923519374E+02  0.00000000000E+00 0.  1.
          5    1    1    2  502    0  0.52938285640E+02  0.21213463583E+02  0.17263607525E+02  0.59771190958E+02  0.47000000000E+01 0. -1.
         -5    1    1    2    0  502 -0.41894629713E+02 -0.44770572119E+02  0.79090549896E+02  0.10018467552E+03  0.47000000000E+01 0. -1.
        -11    1    1    2    0    0  0.12437007886E+02 -0.30985635132E+02  0.11610805398E+02  0.35349675411E+02  0.00000000000E+00 0.  1.
         11    1    1    2    0    0 -0.23480663814E+02  0.54542743668E+02  0.75725835189E+02  0.96232294865E+02  0.00000000000E+00 0. -1.
<mgrwt>
<rscale>  0 0.11963456E+03</rscale>
<asrwt>0</asrwt>
<pdfrwt beam="2">  1        2 0.82959262E-02 0.12767833E+03</pdfrwt>
<pdfrwt beam="1">  1       -2 0.36556048E-01 0.12767833E+03</pdfrwt>
<totfact> 0.54245869E+03</totfact>
</mgrwt>
</event>
<event>
 6    1  0.5258538E-006  0.1474038E+03  0.7546771E-02  0.1212934E+00
         -2   -1    0    0    0  501 -0.00000000000E+00  0.00000000000E+00  0.14337077598E+03  0.14337077598E+03  0.00000000000E+00 0.  1.
          2   -1    0    0  501    0  0.00000000000E+00 -0.00000000000E+00 -0.13702870778E+03  0.13702870778E+03  0.00000000000E+00 0. -1.
          5    1    1    2  502    0  0.44888389654E+02 -0.90063963920E+01 -0.83315400563E+02  0.95182081678E+02  0.47000000000E+01 0. -1.
         -5    1    1    2    0  502  0.31486989105E+02 -0.73102416932E+01  0.46427888774E+02  0.56767146947E+02  0.47000000000E+01 0. -1.
        -11    1    1    2    0    0 -0.45042405575E+02 -0.37442553106E+02  0.17654565100E+02  0.61175540472E+02  0.00000000000E+00 0.  1.
         11    1    1    2    0    0 -0.31332973183E+02  0.53759191191E+02  0.25575014886E+02  0.67274714659E+02  0.00000000000E+00 0. -1.
<mgrwt>
<rscale>  0 0.14029414E+03</rscale>
<asrwt>0</asrwt>
<pdfrwt beam="2">  1        2 0.21081340E-01 0.14740380E+03</pdfrwt>
<pdfrwt beam="1">  1       -2 0.22057042E-01 0.14740380E+03</pdfrwt>
<totfact> 0.44534536E+03</totfact>
</mgrwt>
</event>
<event>
 6    1  0.5258538E-006  0.1516889E+03  0.7546771E-02  0.1207799E+00
          1   -1    0    0  501    0  0.00000000000E+00  0.00000000000E+00  0.11816538571E+04  0.11816538571E+04  0.00000000000E+00 0. -1.
         -1   -1    0    0    0  501 -0.00000000000E+00 -0.00000000000E+00 -0.18013409256E+02  0.18013409256E+02  0.00000000000E+00 0.  1.
          5    1    1    2  502    0 -0.11232625717E+02  0.42867234643E+02  0.17351122621E+03  0.17914242185E+03  0.47000000000E+01 0. -1.
         -5    1    1    2    0  502  0.96899245227E+02 -0.36144607282E+02  0.65725291545E+03  0.66535658202E+03  0.47000000000E+01 0. -1.
        -11    1    1    2    0    0 -0.30985269440E+02 -0.46608085882E+02  0.14077981074E+03  0.15149704850E+03  0.00000000000E+00 0. -1.
         11    1    1    2    0    0 -0.54681350070E+02  0.39885458522E+02  0.19209649545E+03  0.20367121400E+03  0.00000000000E+00 0.  1.
<mgrwt>
<rscale>  0 0.14419023E+03</rscale>
<asrwt>0</asrwt>
<pdfrwt beam="1">  1        1 0.18179284E+00 0.15168885E+03</pdfrwt>
<pdfrwt beam="2">  1       -1 0.27712947E-02 0.15168885E+03</pdfrwt>
<totfact> 0.49197713E+03</totfact>
</mgrwt>
</event>
<event>
 6    1  0.6444263E-006  0.3443077E+03  0.7546771E-02  0.1066136E+00
         -1   -1    0    0    0  501 -0.00000000000E+00  0.00000000000E+00  0.22268551065E+03  0.22268551065E+03  0.00000000000E+00 0.  1.
          1   -1    0    0  501    0  0.00000000000E+00 -0.00000000000E+00 -0.53762609222E+03  0.53762609222E+03  0.00000000000E+00 0. -1.
          5    1    1    2  502    0  0.27296752619E+03 -0.10088006478E+03 -0.23245548654E+03  0.37248584006E+03  0.47000000000E+01 0.  1.
         -5    1    1    2    0  502  0.38346778761E+02  0.23369824278E+02 -0.42776069063E+01  0.45354294713E+02  0.47000000000E+01 0.  1.
        -11    1    1    2    0    0 -0.13399027548E+03  0.51092200556E+02 -0.77892158971E+02  0.16319005886E+03  0.00000000000E+00 0.  1.
         11    1    1    2    0    0 -0.17732402947E+03  0.26418039942E+02 -0.31532915766E+00  0.17928140923E+03  0.00000000000E+00 0. -1.
<mgrwt>
<rscale>  0 0.34155346E+03</rscale>
<asrwt>0</asrwt>
<pdfrwt beam="2">  1        1 0.82711706E-01 0.34430774E+03</pdfrwt>
<pdfrwt beam="1">  1       -1 0.34259310E-01 0.34430774E+03</pdfrwt>
<totfact> 0.33297103E+02</totfact>
</mgrwt>
</event>
<event>
 6    1  0.5258538E-006  0.4203549E+03  0.7546771E-02  0.1036951E+00
         -1   -1    0    0    0  501 -0.00000000000E+00  0.00000000000E+00  0.38348631257E+02  0.38348631257E+02  0.00000000000E+00 0.  1.
          1   -1    0    0  501    0  0.00000000000E+00 -0.00000000000E+00 -0.11519203794E+04  0.11519203794E+04  0.00000000000E+00 0. -1.
          5    1    1    2  502    0 -0.10387311968E+02  0.11225230960E+01 -0.45235738163E+03  0.45250242764E+03  0.47000000000E+01 0.  1.
         -5    1    1    2    0  502 -0.15342917214E+02  0.12926663533E+03 -0.46936406493E+03  0.48710366819E+03  0.47000000000E+01 0.  1.
        -11    1    1    2    0    0  0.70315493781E+01 -0.12137100709E+03 -0.10275847023E+03  0.15918438131E+03  0.00000000000E+00 0.  1.
         11    1    1    2    0    0  0.18698679804E+02 -0.90181513386E+01 -0.89091831381E+02  0.91478533541E+02  0.00000000000E+00 0. -1.
<mgrwt>
<rscale>  0 0.42035494E+03</rscale>
<asrwt>0</asrwt>
<pdfrwt beam="2">  1        1 0.17721850E+00 0.42035494E+03</pdfrwt>
<pdfrwt beam="1">  1       -1 0.58997899E-02 0.42035494E+03</pdfrwt>
<totfact> 0.16950851E+03</totfact>
</mgrwt>
</event>
<event>
 6    1  0.5258538E-006  0.1684909E+03  0.7546771E-02  0.1186356E+00
         -2   -1    0    0    0  501 -0.00000000000E+00  0.00000000000E+00  0.16640995528E+02  0.16640995528E+02  0.00000000000E+00 0.  1.
          2   -1    0    0  501    0  0.00000000000E+00 -0.00000000000E+00 -0.18447000270E+04  0.18447000270E+04  0.00000000000E+00 0. -1.
          5    1    1    2  502    0 -0.44483601687E+01  0.39486872891E+02 -0.32287853395E+03  0.32534848813E+03  0.47000000000E+01 0.  1.
         -5    1    1    2    0  502 -0.10168968857E+03 -0.78361545096E+02 -0.10659068044E+04  0.10736203846E+04  0.47000000000E+01 0.  1.
        -11    1    1    2    0    0 -0.13983569753E+02  0.42736591406E+01 -0.19452050814E+02  0.24334885789E+02  0.00000000000E+00 0.  1.
         11    1    1    2    0    0  0.12012161849E+03  0.34601013064E+02 -0.41982164222E+03  0.43803726395E+03  0.00000000000E+00 0. -1.
<mgrwt>
<rscale>  0 0.16209132E+03</rscale>
<asrwt>0</asrwt>
<pdfrwt beam="2">  1        2 0.28379980E+00 0.16849092E+03</pdfrwt>
<pdfrwt beam="1">  1       -2 0.25601550E-02 0.16849092E+03</pdfrwt>
<totfact> 0.47857494E+03</totfact>
</mgrwt>
</event>
<event>
 6    1  0.5258538E-006  0.1357726E+03  0.7546771E-02  0.1231636E+00
          1   -1    0    0  501    0  0.00000000000E+00  0.00000000000E+00  0.22474671871E+03  0.22474671871E+03  0.00000000000E+00 0. -1.
         -1   -1    0    0    0  501 -0.00000000000E+00 -0.00000000000E+00 -0.70000548252E+02  0.70000548252E+02  0.00000000000E+00 0.  1.
          5    1    1    2  502    0  0.12245465011E+02  0.30832382311E+02  0.13499151939E+01  0.33533557571E+02  0.47000000000E+01 0.  1.
         -5    1    1    2    0  502 -0.21503254190E+02 -0.83017884666E+02  0.12691622710E+03  0.15324548221E+03  0.47000000000E+01 0.  1.
        -11    1    1    2    0    0 -0.15725156985E+02 -0.97658050171E+01  0.36013543312E+02  0.40492305587E+02  0.00000000000E+00 0. -1.
         11    1    1    2    0    0  0.24982946163E+02  0.61951307371E+02 -0.95335151520E+01  0.67475921596E+02  0.00000000000E+00 0.  1.
<mgrwt>
<rscale>  0 0.12722293E+03</rscale>
<asrwt>0</asrwt>
<pdfrwt beam="1">  1        1 0.34576418E-01 0.13577263E+03</pdfrwt>
<pdfrwt beam="2">  1       -1 0.10769315E-01 0.13577263E+03</pdfrwt>
<totfact> 0.65323661E+03</totfact>
</mgrwt>
</event>
<event>
 6    1  0.5258538E-006  0.3389645E+03  0.7546771E-02  0.1067238E+00
          3   -1    0    0  501    0  0.00000000000E+00  0.00000000000E+00  0.13555874506E+03  0.13555874506E+03  0.00000000000E+00 0. -1.
         -3   -1    0    0    0  501 -0.00000000000E+00 -0.00000000000E+00 -0.21189513862E+03  0.21189513862E+03  0.00000000000E+00 0.  1.
          5    1    1    2  502    0  0.17246661679E+02  0.23001703831E+02 -0.36818114754E+02  0.46948794364E+02  0.47000000000E+01 0.  1.
         -5    1    1    2    0  502 -0.83697239798E+02  0.70881021511E+02  0.58206551789E+02  0.12425554246E+03  0.47000000000E+01 0.  1.
        -11    1    1    2    0    0 -0.11028940480E+02 -0.49956894832E+02 -0.61759832807E+02  0.80197293082E+02  0.00000000000E+00 0.  1.
         11    1    1    2    0    0  0.77479518599E+02 -0.43925830510E+02 -0.35964997793E+02  0.96052253771E+02  0.00000000000E+00 0. -1.
<mgrwt>
<rscale>  0 0.33896454E+03</rscale>
<asrwt>0</asrwt>
<pdfrwt beam="1">  1        3 0.20855191E-01 0.33896454E+03</pdfrwt>
<pdfrwt beam="2">  1       -3 0.32599252E-01 0.33896454E+03</pdfrwt>
<totfact> 0.49491621E+02</totfact>
</mgrwt>
</event>
<event>
 6    1  0.5258538E-006  0.2652171E+03  0.7546771E-02  0.1104049E+00
          2   -1    0    0  501    0  0.00000000000E+00  0.00000000000E+00  0.47812994293E+02  0.47812994293E+02  0.00000000000E+00 0. -1.
         -2   -1    0    0    0  501 -0.00000000000E+00 -0.00000000000E+00 -0.36778756594E+03  0.36778756594E+03  0.00000000000E+00 0.  1.
          5    1    1    2  502    0  0.57536040660E+02  0.81177553475E+02 -0.62090769464E+02  0.11737778672E+03  0.47000000000E+01 0. -1.
         -5    1    1    2    0  502 -0.21702406680E+02 -0.15525814772E+02 -0.86763425344E+02  0.90895694934E+02  0.47000000000E+01 0. -1.
        -11    1    1    2    0    0  0.22506251403E+02 -0.43453664585E+02 -0.10792688341E+03  0.11850301465E+03  0.00000000000E+00 0.  1.
         11    1    1    2    0    0 -0.58339885383E+02 -0.22198074117E+02 -0.63193493423E+02  0.88824063924E+02  0.00000000000E+00 0. -1.
<mgrwt>
<rscale>  0 0.26521708E+03</rscale>
<asrwt>0</asrwt>
<pdfrwt beam="1">  1        2 0.73558453E-02 0.26521708E+03</pdfrwt>
<pdfrwt beam="2">  1       -2 0.56582702E-01 0.26521708E+03</pdfrwt>
<totfact> 0.28149964E+03</totfact>
</mgrwt>
</event>
<event>
 6    1  0.5258538E-006  0.1328718E+03  0.7546771E-02  0.1234764E+00
          2   -1    0    0  501    0  0.00000000000E+00  0.00000000000E+00  0.22872131136E+03  0.22872131136E+03  0.00000000000E+00 0. -1.
         -2   -1    0    0    0  501 -0.00000000000E+00 -0.00000000000E+00 -0.61707574841E+02  0.61707574841E+02  0.00000000000E+00 0.  1.
          5    1    1    2  502    0 -0.75855594474E+02 -0.43728181770E+02  0.48905824893E+02  0.10039967531E+03  0.47000000000E+01 0.  1.
         -5    1    1    2    0  502  0.39652123533E+02  0.16909983846E+02  0.43673085845E+02  0.61544023930E+02  0.47000000000E+01 0.  1.
        -11    1    1    2    0    0 -0.28729077833E+02 -0.86498445851E+01  0.14792752297E+02  0.33451535764E+02  0.00000000000E+00 0.  1.
         11    1    1    2    0    0  0.64932548774E+02  0.35468042509E+02  0.59642073481E+02  0.95033651192E+02  0.00000000000E+00 0. -1.
<mgrwt>
<rscale>  0 0.12519586E+03</rscale>
<asrwt>0</asrwt>
<pdfrwt beam="1">  1        2 0.35187894E-01 0.13287177E+03</pdfrwt>
<pdfrwt beam="2">  1       -2 0.94934732E-02 0.13287177E+03</pdfrwt>
<totfact> 0.99924284E+03</totfact>
</mgrwt>
</event>
<event>
 6    1  0.5258538E-006  0.1396143E+03  0.7546771E-02  0.1226167E+00
          3   -1    0    0  501    0  0.00000000000E+00  0.00000000000E+00  0.14046558593E+03  0.14046558593E+03  0.00000000000E+00 0. -1.
         -3   -1    0    0    0  501 -0.00000000000E+00 -0.00000000000E+00 -0.11051222317E+03  0.11051222317E+03  0.00000000000E+00 0.  1.
          5    1    1    2  502    0  0.27653093088E+02  0.21497461087E+02  0.56501908192E+02  0.66643754545E+02  0.47000000000E+01 0.  1.
         -5    1    1    2    0  502 -0.67194159694E+02  0.26519613970E+02 -0.24806357807E+02  0.76523136434E+02  0.47000000000E+01 0.  1.
        -11    1    1    2    0    0  0.82879363859E+01 -0.25770750807E+02 -0.43418742723E+02  0.51166480301E+02  0.00000000000E+00 0.  1.
         11    1    1    2    0    0  0.31253130220E+02 -0.22246324251E+02  0.41676555094E+02  0.56644437818E+02  0.00000000000E+00 0. -1.
<mgrwt>
<rscale>  0 0.13087266E+03</rscale>
<asrwt>0</asrwt>
<pdfrwt beam="1">  1        3 0.21610090E-01 0.13961429E+03</pdfrwt>
<pdfrwt beam="2">  1       -3 0.17001880E-01 0.13961429E+03</pdfrwt>
<totfact> 0.13490654E+03</totfact>
</mgrwt>
</event>
<event>
 6    1  0.5258538E-006  0.1559900E+03  0.7546771E-02  0.1210857E+00
          1   -1    0    0  501    0  0.00000000000E+00  0.00000000000E+00  0.48868700040E+02  0.48868700040E+02  0.00000000000E+00 0. -1.
         -1   -1    0    0    0  501 -0.00000000000E+00 -0.00000000000E+00 -0.39050218929E+03  0.39050218929E+03  0.00000000000E+00 0.  1.
          5    1    1    2  502    0  0.56062337717E+02 -0.11660739462E+00 -0.65592376485E+02  0.86414403664E+02  0.47000000000E+01 0.  1.
         -5    1    1    2    0  502 -0.35177009151E+02 -0.90846414925E+02 -0.67179455412E+02  0.11842998905E+03  0.47000000000E+01 0.  1.
        -11    1    1    2    0    0 -0.10736830285E+02 -0.34894197690E+01 -0.28985722641E+02  0.31106714579E+02  0.00000000000E+00 0.  1.
         11    1    1    2    0    0 -0.10148498280E+02  0.94452442089E+02 -0.17987593471E+03  0.20341978203E+03  0.00000000000E+00 0. -1.
<mgrwt>
<rscale>  0 0.14185276E+03</rscale>
<asrwt>0</asrwt>
<pdfrwt beam="1">  1        1 0.75182618E-02 0.15598995E+03</pdfrwt>
<pdfrwt beam="2">  1       -1 0.60077258E-01 0.15598995E+03</pdfrwt>
<totfact> 0.26708078E+03</totfact>
</mgrwt>
</event>
<event>
 6    1  0.5258538E-006  0.1805245E+03  0.7546771E-02  0.1173033E+00
         -4   -1    0    0    0  501 -0.00000000000E+00  0.00000000000E+00  0.39509897927E+03  0.39509897927E+03  0.00000000000E+00 0.  1.
          4   -1    0    0  501    0  0.00000000000E+00 -0.00000000000E+00 -0.77786862587E+02  0.77786862587E+02  0.00000000000E+00 0. -1.
          5    1    1    2  502    0  0.78329213341E+02 -0.79710113929E+02  0.40129661024E+02  0.11883453883E+03  0.47000000000E+01 0. -1.
         -5    1    1    2    0  502 -0.41429970530E+02 -0.45201813547E+02  0.67619549207E+02  0.91400983808E+02  0.47000000000E+01 0. -1.
        -11    1    1    2    0    0  0.28200899458E+01  0.11778235521E+03  0.15083956798E+03  0.19139804433E+03  0.00000000000E+00 0.  1.
         11    1    1    2    0    0 -0.39719332757E+02  0.71295722696E+01  0.58723338464E+02  0.71252274882E+02  0.00000000000E+00 0. -1.
<mgrwt>
<rscale>  0 0.17470014E+03</rscale>
<asrwt>0</asrwt>
<pdfrwt beam="2">  1        4 0.11967210E-01 0.18052447E+03</pdfrwt>
<pdfrwt beam="1">  1       -4 0.60784457E-01 0.18052447E+03</pdfrwt>
<totfact> 0.25224139E+02</totfact>
</mgrwt>
</event>
<event>
 6    1  0.5258538E-006  0.2059835E+03  0.7546771E-02  0.1148673E+00
         -2   -1    0    0    0  501 -0.00000000000E+00  0.00000000000E+00  0.45328473089E+02  0.45328473089E+02  0.00000000000E+00 0.  1.
          2   -1    0    0  501    0  0.00000000000E+00 -0.00000000000E+00 -0.90787220863E+03  0.90787220863E+03  0.00000000000E+00 0. -1.
          5    1    1    2  502    0  0.34027619116E+02  0.56077631649E+02 -0.16524623924E+03  0.17785103097E+03  0.47000000000E+01 0. -1.
         -5    1    1    2    0  502  0.12979167813E+03 -0.51995108147E+02 -0.39965547079E+03  0.42343353235E+03  0.47000000000E+01 0. -1.
        -11    1    1    2    0    0 -0.16332478997E+02 -0.21091331584E+02 -0.10704958729E+03  0.11032319917E+03  0.00000000000E+00 0. -1.
         11    1    1    2    0    0 -0.14748681825E+03  0.17008808082E+02 -0.19059243822E+03  0.24159291922E+03  0.00000000000E+00 0.  1.
<mgrwt>
<rscale>  0 0.20126839E+03</rscale>
<asrwt>0</asrwt>
<pdfrwt beam="2">  1        2 0.13967265E+00 0.20598346E+03</pdfrwt>
<pdfrwt beam="1">  1       -2 0.69736109E-02 0.20598346E+03</pdfrwt>
<totfact> 0.34906541E+03</totfact>
</mgrwt>
</event>
<event>
 6    1  0.5258538E-006  0.2494416E+03  0.7546771E-02  0.1113658E+00
          1   -1    0    0  501    0  0.00000000000E+00  0.00000000000E+00  0.57346769642E+03  0.57346769642E+03  0.00000000000E+00 0. -1.
         -1   -1    0    0    0  501 -0.00000000000E+00 -0.00000000000E+00 -0.27124937919E+02  0.27124937919E+02  0.00000000000E+00 0.  1.
          5    1    1    2  502    0 -0.63983485626E+01  0.15911902101E+02 -0.15432145581E+01  0.17849341836E+02  0.47000000000E+01 0.  1.
         -5    1    1    2    0  502 -0.64953878327E+01 -0.75407901519E+02  0.33419432726E+03  0.34269006412E+03  0.47000000000E+01 0.  1.
        -11    1    1    2    0    0  0.17962553842E+02  0.12929533132E+02  0.88218615708E+00  0.22149591869E+02  0.00000000000E+00 0.  1.
         11    1    1    2    0    0 -0.50688174464E+01  0.46566466285E+02  0.21280945965E+03  0.21790363652E+03  0.00000000000E+00 0. -1.
<mgrwt>
<rscale>  0 0.24944158E+03</rscale>
<asrwt>0</asrwt>
<pdfrwt beam="1">  1        1 0.88225791E-01 0.24944158E+03</pdfrwt>
<pdfrwt beam="2">  1       -1 0.41730678E-02 0.24944158E+03</pdfrwt>
<totfact> 0.85707015E+03</totfact>
</mgrwt>
</event>
<event>
 6    1  0.5258538E-006  0.1517199E+03  0.7546771E-02  0.1205847E+00
          2   -1    0    0  501    0  0.00000000000E+00  0.00000000000E+00  0.15854548728E+04  0.15854548728E+04  0.00000000000E+00 0.  1.
         -2   -1    0    0    0  501 -0.00000000000E+00 -0.00000000000E+00 -0.13665432523E+02  0.13665432523E+02  0.00000000000E+00 0. -1.
          5    1    1    2  502    0 -0.37850518516E+02  0.64754394694E+02  0.79510505505E+03  0.79864881640E+03  0.47000000000E+01 0. -1.
         -5    1    1    2    0  502  0.61265927011E+02  0.17979076430E+02  0.28794878382E+03  0.29498025884E+03  0.47000000000E+01 0. -1.
        -11    1    1    2    0    0 -0.56939817250E+02 -0.28375837739E+02  0.20440226710E+03  0.21407386051E+03  0.00000000000E+00 0. -1.
         11    1    1    2    0    0  0.33524408755E+02 -0.54357633385E+02  0.28433333434E+03  0.29141736960E+03  0.00000000000E+00 0.  1.
<mgrwt>
<rscale>  0 0.14570946E+03</rscale>
<asrwt>0</asrwt>
<pdfrwt beam="1">  1        2 0.24391599E+00 0.15171993E+03</pdfrwt>
<pdfrwt beam="2">  1       -2 0.21023755E-02 0.15171993E+03</pdfrwt>
<totfact> 0.86682001E+03</totfact>
</mgrwt>
</event>
<event>
 6    1  0.5258538E-006  0.1319552E+03  0.7546771E-02  0.1240721E+00
          3   -1    0    0  501    0  0.00000000000E+00  0.00000000000E+00  0.31589119903E+03  0.31589119903E+03  0.00000000000E+00 0. -1.
         -3   -1    0    0    0  501 -0.00000000000E+00 -0.00000000000E+00 -0.55398281591E+02  0.55398281591E+02  0.00000000000E+00 0.  1.
          5    1    1    2  502    0  0.14136274817E+02 -0.42592295821E+02  0.14032478707E+02  0.47253977480E+02  0.47000000000E+01 0. -1.
         -5    1    1    2    0  502  0.12099549569E+02  0.94255033710E+01  0.22673972141E+03  0.22730646818E+03  0.47000000000E+01 0. -1.
        -11    1    1    2    0    0 -0.38915356143E+02  0.47087562283E+02 -0.96459778117E+01  0.61844064820E+02  0.00000000000E+00 0.  1.
         11    1    1    2    0    0  0.12679531758E+02 -0.13920769833E+02  0.29366695139E+02  0.34884970141E+02  0.00000000000E+00 0. -1.
<mgrwt>
<rscale>  0 0.12145196E+03</rscale>
<asrwt>0</asrwt>
<pdfrwt beam="1">  1        3 0.48598645E-01 0.13195524E+03</pdfrwt>
<pdfrwt beam="2">  1       -3 0.85228127E-02 0.13195524E+03</pdfrwt>
<totfact> 0.93474178E+02</totfact>
</mgrwt>
</event>
<event>
 6    1  0.5258538E-006  0.1450986E+03  0.7546771E-02  0.1215567E+00
         -2   -1    0    0    0  501 -0.00000000000E+00  0.00000000000E+00  0.19733444646E+03  0.19733444646E+03  0.00000000000E+00 0.  1.
          2   -1    0    0  501    0  0.00000000000E+00 -0.00000000000E+00 -0.10354864167E+03  0.10354864167E+03  0.00000000000E+00 0. -1.
          5    1    1    2  502    0 -0.16916762604E+02  0.33300970024E+02  0.68969150993E+01  0.38272560660E+02  0.47000000000E+01 0. -1.
         -5    1    1    2    0  502  0.82717134742E+02 -0.66456976779E+02 -0.12376311724E+02  0.10692949656E+03  0.47000000000E+01 0. -1.
        -11    1    1    2    0    0 -0.45259180793E+02  0.43474607767E+02  0.11274398293E+03  0.12903348656E+03  0.00000000000E+00 0.  1.
         11    1    1    2    0    0 -0.20541191345E+02 -0.10318601012E+02 -0.13478781517E+02  0.26647544350E+02  0.00000000000E+00 0. -1.
<mgrwt>
<rscale>  0 0.13834985E+03</rscale>
<asrwt>0</asrwt>
<pdfrwt beam="2">  1        2 0.15930560E-01 0.14509863E+03</pdfrwt>
<pdfrwt beam="1">  1       -2 0.30359146E-01 0.14509863E+03</pdfrwt>
<totfact> 0.34957618E+03</totfact>
</mgrwt>
</event>
<event>
 6    1  0.5258538E-006  0.2701690E+03  0.7546771E-02  0.1101183E+00
          1   -1    0    0  501    0  0.00000000000E+00  0.00000000000E+00  0.31445073995E+03  0.31445073995E+03  0.00000000000E+00 0. -1.
         -1   -1    0    0    0  501 -0.00000000000E+00 -0.00000000000E+00 -0.58030773760E+02  0.58030773760E+02  0.00000000000E+00 0.  1.
          5    1    1    2  502    0 -0.13535955142E+02  0.23265674234E+02  0.11081533357E+03  0.11413431488E+03  0.47000000000E+01 0.  1.
         -5    1    1    2    0  502 -0.43895518073E+02 -0.76173849124E+02  0.39855473554E+02  0.96642747113E+02  0.47000000000E+01 0.  1.
        -11    1    1    2    0    0  0.37180057693E+02 -0.40052367191E+01 -0.27771059984E+01  0.37498145674E+02  0.00000000000E+00 0.  1.
         11    1    1    2    0    0  0.20251415522E+02  0.56913411609E+02  0.10852626507E+03  0.12420630604E+03  0.00000000000E+00 0. -1.
<mgrwt>
<rscale>  0 0.27016898E+03</rscale>
<asrwt>0</asrwt>
<pdfrwt beam="1">  1        1 0.48377036E-01 0.27016898E+03</pdfrwt>
<pdfrwt beam="2">  1       -1 0.89278115E-02 0.27016898E+03</pdfrwt>
<totfact> 0.59537913E+03</totfact>
</mgrwt>
</event>
<event>
 6    1  0.5258538E-006  0.1165032E+03  0.7546771E-02  0.1258834E+00
         -1   -1    0    0    0  501 -0.00000000000E+00  0.00000000000E+00  0.41780110467E+03  0.41780110467E+03  0.00000000000E+00 0.  1.
          1   -1    0    0  501    0  0.00000000000E+00 -0.00000000000E+00 -0.26977677258E+02  0.26977677258E+02  0.00000000000E+00 0. -1.
          5    1    1    2  502    0 -0.47426811691E+02 -0.59138010251E+01  0.28139507130E+02  0.55661453190E+02  0.47000000000E+01 0. -1.
         -5    1    1    2    0  502  0.20836286858E+02  0.21613848900E+02  0.18283633774E+03  0.18534434362E+03  0.47000000000E+01 0.  1.
        -11    1    1    2    0    0 -0.25615963259E+02  0.19869671008E+02  0.67542409052E+02  0.74919679792E+02  0.00000000000E+00 0.  1.
         11    1    1    2    0    0  0.52206488092E+02 -0.35569718883E+02  0.11230517349E+03  0.12885330532E+03  0.00000000000E+00 0. -1.
<mgrwt>
<rscale>  0 0.11094262E+03</rscale>
<asrwt>0</asrwt>
<pdfrwt beam="2">  1        1 0.41504122E-02 0.11650316E+03</pdfrwt>
<pdfrwt beam="1">  1       -1 0.64277088E-01 0.11650316E+03</pdfrwt>
<totfact> 0.51727229E+03</totfact>
</mgrwt>
</event>
<event>
 6    1  0.5258538E-006  0.1356919E+03  0.7546771E-02  0.1231448E+00
          3   -1    0    0  501    0  0.00000000000E+00  0.00000000000E+00  0.28437755866E+02  0.28437755866E+02  0.00000000000E+00 0. -1.
         -3   -1    0    0    0  501 -0.00000000000E+00 -0.00000000000E+00 -0.53365046997E+03  0.53365046997E+03  0.00000000000E+00 0.  1.
          5    1    1    2  502    0  0.34200458577E+02  0.50332406720E+02 -0.17263036538E+03  0.18310203599E+03  0.47000000000E+01 0. -1.
         -5    1    1    2    0  502 -0.72496698475E+02 -0.14000220192E+02 -0.16868849855E+03  0.18420010043E+03  0.47000000000E+01 0. -1.
        -11    1    1    2    0    0  0.49879119825E+02 -0.45084301424E+02 -0.16692366385E+03  0.17995563448E+03  0.00000000000E+00 0.  1.
         11    1    1    2    0    0 -0.11582879927E+02  0.87521148958E+01  0.30298136757E+01  0.14830454931E+02  0.00000000000E+00 0. -1.
<mgrwt>
<rscale>  0 0.12734591E+03</rscale>
<asrwt>0</asrwt>
<pdfrwt beam="1">  1        3 0.43750394E-02 0.13569190E+03</pdfrwt>
<pdfrwt beam="2">  1       -3 0.82100071E-01 0.13569190E+03</pdfrwt>
<totfact> 0.91656902E+02</totfact>
</mgrwt>
</event>
<event>
 6    1  0.5258538E-006  0.1455035E+03  0.7546771E-02  0.1214987E+00
          2   -1    0    0  501    0  0.00000000000E+00  0.00000000000E+00  0.18999785306E+04  0.18999785306E+04  0.00000000000E+00 0. -1.
         -2   -1    0    0    0  501 -0.00000000000E+00 -0.00000000000E+00 -0.10894215392E+02  0.10894215392E+02  0.00000000000E+00 0.  1.
          5    1    1    2  502    0  0.29946523993E+02  0.67162838901E+02  0.40373004088E+03  0.41039941171E+03  0.47000000000E+01 0. -1.
         -5    1    1    2    0  502  0.33094254969E+02 -0.27540449089E+02  0.98068869280E+03  0.98164459364E+03  0.47000000000E+01 0. -1.
        -11    1    1    2    0    0  0.38377757469E+01 -0.43437728447E+02  0.10673548449E+03  0.11529973298E+03  0.00000000000E+00 0.  1.
         11    1    1    2    0    0 -0.66878554708E+02  0.38153386345E+01  0.39793009708E+03  0.40352900770E+03  0.00000000000E+00 0. -1.
<mgrwt>
<rscale>  0 0.13877489E+03</rscale>
<asrwt>0</asrwt>
<pdfrwt beam="1">  1        2 0.29230413E+00 0.14550355E+03</pdfrwt>
<pdfrwt beam="2">  1       -2 0.16760347E-02 0.14550355E+03</pdfrwt>
<totfact> 0.82919685E+03</totfact>
</mgrwt>
</event>
<event>
 6    1  0.5258538E-006  0.3324144E+03  0.7546771E-02  0.1070074E+00
          1   -1    0    0  501    0  0.00000000000E+00  0.00000000000E+00  0.73437679484E+03  0.73437679484E+03  0.00000000000E+00 0. -1.
         -1   -1    0    0    0  501 -0.00000000000E+00 -0.00000000000E+00 -0.37616694624E+02  0.37616694624E+02  0.00000000000E+00 0.  1.
          5    1    1    2  502    0 -0.28308539413E+02  0.24244346754E+02  0.34347324164E+03  0.34552151811E+03  0.47000000000E+01 0. -1.
         -5    1    1    2    0  502 -0.24987985971E+02 -0.88804779020E+02  0.24370087420E+03  0.26062021085E+03  0.47000000000E+01 0. -1.
        -11    1    1    2    0    0  0.22302554682E+01  0.47646470125E+02  0.46426715810E+01  0.47924049853E+02  0.00000000000E+00 0.  1.
         11    1    1    2    0    0  0.51066269916E+02  0.16913962141E+02  0.10494331280E+03  0.11792771065E+03  0.00000000000E+00 0. -1.
<mgrwt>
<rscale>  0 0.33241437E+03</rscale>
<asrwt>0</asrwt>
<pdfrwt beam="1">  1        1 0.11298103E+00 0.33241437E+03</pdfrwt>
<pdfrwt beam="2">  1       -1 0.57871843E-02 0.33241437E+03</pdfrwt>
<totfact> 0.37139698E+03</totfact>
</mgrwt>
</event>
<event>
 6    1  0.5258538E-006  0.1261631E+03  0.7546771E-02  0.1248755E+00
         -3   -1    0    0    0  501 -0.00000000000E+00  0.00000000000E+00  0.22706419299E+03  0.22706419299E+03  0.00000000000E+00 0.  1.
          3   -1    0    0  501    0  0.00000000000E+00 -0.00000000000E+00 -0.65181235357E+02  0.65181235357E+02  0.00000000000E+00 0. -1.
          5    1    1    2  502    0  0.36947942139E+01  0.29506408988E+02 -0.39382554627E+02  0.49571718596E+02  0.47000000000E+01 0.  1.
         -5    1    1    2    0  502  0.73273650845E+01 -0.42524613452E+02  0.66595895941E+02  0.79492995821E+02  0.47000000000E+01 0.  1.
        -11    1    1    2    0    0 -0.46804413648E+02  0.24239628554E+02  0.61775469122E+02  0.81206042353E+02  0.00000000000E+00 0.  1.
         11    1    1    2    0    0  0.35782254349E+02 -0.11221424090E+02  0.72894147199E+02  0.81974671581E+02  0.00000000000E+00 0. -1.
<mgrwt>
<rscale>  0 0.11663418E+03</rscale>
<asrwt>0</asrwt>
<pdfrwt beam="2">  1        3 0.10027882E-01 0.12616313E+03</pdfrwt>
<pdfrwt beam="1">  1       -3 0.34932952E-01 0.12616313E+03</pdfrwt>
<totfact> 0.13445573E+03</totfact>
</mgrwt>
</event>
<event>
 6    1  0.5258538E-006  0.3375988E+03  0.7546771E-02  0.1067823E+00
         -2   -1    0    0    0  501 -0.00000000000E+00  0.00000000000E+00  0.35084252776E+02  0.35084252776E+02  0.00000000000E+00 0.  1.
          2   -1    0    0  501    0  0.00000000000E+00 -0.00000000000E+00 -0.81213731438E+03  0.81213731438E+03  0.00000000000E+00 0. -1.
          5    1    1    2  502    0  0.10242186695E+03  0.44935143212E+02 -0.15924113592E+03  0.19465157409E+03  0.47000000000E+01 0. -1.
         -5    1    1    2    0  502  0.24019745201E+02 -0.17267659849E+02 -0.25803787490E+03  0.25977058171E+03  0.47000000000E+01 0. -1.
        -11    1    1    2    0    0 -0.70558877772E+02 -0.33832006423E+02 -0.99820781626E+02  0.12683591106E+03  0.00000000000E+00 0.  1.
         11    1    1    2    0    0 -0.55882734383E+02  0.61645230601E+01 -0.25995326915E+03  0.26596350030E+03  0.00000000000E+00 0. -1.
<mgrwt>
<rscale>  0 0.33759876E+03</rscale>
<asrwt>0</asrwt>
<pdfrwt beam="2">  1        2 0.12494420E+00 0.33759876E+03</pdfrwt>
<pdfrwt beam="1">  1       -2 0.53975773E-02 0.33759876E+03</pdfrwt>
<totfact> 0.60816565E+03</totfact>
</mgrwt>
</event>
<event>
 6    1  0.5258538E-006  0.1736423E+03  0.7546771E-02  0.1180137E+00
          2   -1    0    0  501    0  0.00000000000E+00  0.00000000000E+00  0.58327174995E+02  0.58327174995E+02  0.00000000000E+00 0. -1.
         -2   -1    0    0    0  501 -0.00000000000E+00 -0.00000000000E+00 -0.54123997742E+03  0.54123997742E+03  0.00000000000E+00 0.  1.
          5    1    1    2  502    0  0.20780796203E+02 -0.86267312115E+02 -0.95336696480E+02  0.13032676750E+03  0.47000000000E+01 0. -1.
         -5    1    1    2    0  502 -0.24504380569E+02 -0.34200896410E+02 -0.28058854949E+03  0.28376432138E+03  0.47000000000E+01 0. -1.
        -11    1    1    2    0    0  0.11967756909E+02  0.12818390457E+03 -0.69454828448E+02  0.14628162493E+03  0.00000000000E+00 0. -1.
         11    1    1    2    0    0 -0.82441725438E+01 -0.77156960472E+01 -0.37532727999E+02  0.39194438603E+02  0.00000000000E+00 0.  1.
<mgrwt>
<rscale>  0 0.16782295E+03</rscale>
<asrwt>0</asrwt>
<pdfrwt beam="1">  1        2 0.89734111E-02 0.17364227E+03</pdfrwt>
<pdfrwt beam="2">  1       -2 0.83267693E-01 0.17364227E+03</pdfrwt>
<totfact> 0.94282930E+02</totfact>
</mgrwt>
</event>
<event>
 6    1  0.5258538E-006  0.1274133E+03  0.7546771E-02  0.1246012E+00
          2   -1    0    0  501    0  0.00000000000E+00  0.00000000000E+00  0.77789930865E+03  0.77789930865E+03  0.00000000000E+00 0. -1.
         -2   -1    0    0    0  501 -0.00000000000E+00 -0.00000000000E+00 -0.40013604496E+02  0.40013604496E+02  0.00000000000E+00 0.  1.
          5    1    1    2  502    0 -0.50493368196E+02  0.84460677491E+01  0.28888587851E+03  0.29342470430E+03  0.47000000000E+01 0. -1.
         -5    1    1    2    0  502  0.74876827150E+02 -0.12118723912E+02  0.41822830711E+03  0.42507694548E+03  0.47000000000E+01 0. -1.
        -11    1    1    2    0    0 -0.12722786740E+02  0.35378565695E+02  0.48415449431E+02  0.61299004532E+02  0.00000000000E+00 0. -1.
         11    1    1    2    0    0 -0.11660672213E+02 -0.31705909532E+02 -0.17643930895E+02  0.38112258830E+02  0.00000000000E+00 0.  1.
<mgrwt>
<rscale>  0 0.11825029E+03</rscale>
<asrwt>0</asrwt>
<pdfrwt beam="1">  1        2 0.11967681E+00 0.12741330E+03</pdfrwt>
<pdfrwt beam="2">  1       -2 0.61559397E-02 0.12741330E+03</pdfrwt>
<totfact> 0.50641375E+03</totfact>
</mgrwt>
</event>
<event>
 6    1  0.5258538E-006  0.1289154E+03  0.7546771E-02  0.1244017E+00
         -2   -1    0    0    0  501 -0.00000000000E+00  0.00000000000E+00  0.14451018197E+02  0.14451018197E+02  0.00000000000E+00 0.  1.
          2   -1    0    0  501    0  0.00000000000E+00 -0.00000000000E+00 -0.89524721203E+03  0.89524721203E+03  0.00000000000E+00 0. -1.
          5    1    1    2  502    0 -0.65569932604E+02 -0.23427696325E+02 -0.46324608905E+03  0.46847337389E+03  0.47000000000E+01 0.  1.
         -5    1    1    2    0  502  0.34988201899E+02  0.31123146350E+02 -0.12108748378E+03  0.12991186720E+03  0.47000000000E+01 0.  1.
        -11    1    1    2    0    0  0.59799558341E+02 -0.65160446067E+01 -0.24343790771E+03  0.25075976736E+03  0.00000000000E+00 0. -1.
         11    1    1    2    0    0 -0.29217827636E+02 -0.11794054191E+01 -0.53024713283E+02  0.60553221778E+02  0.00000000000E+00 0.  1.
<mgrwt>
<rscale>  0 0.11944379E+03</rscale>
<asrwt>0</asrwt>
<pdfrwt beam="2">  1        2 0.13773037E+00 0.12891537E+03</pdfrwt>
<pdfrwt beam="1">  1       -2 0.22232331E-02 0.12891537E+03</pdfrwt>
<totfact> 0.19180859E+04</totfact>
</mgrwt>
</event>
<event>
 6    1  0.5258538E-006  0.1255587E+03  0.7546771E-02  0.1248683E+00
          2   -1    0    0  501    0  0.00000000000E+00  0.00000000000E+00  0.12187979285E+04  0.12187979285E+04  0.00000000000E+00 0. -1.
         -2   -1    0    0    0  501 -0.00000000000E+00 -0.00000000000E+00 -0.10849297788E+02  0.10849297788E+02  0.00000000000E+00 0.  1.
          5    1    1    2  502    0  0.77261248550E+01 -0.16258015331E+02  0.84547269425E+03  0.84567735147E+03  0.47000000000E+01 0.  1.
         -5    1    1    2    0  502 -0.18341752927E+02  0.11052378369E+02  0.22814984072E+02  0.31641562323E+02  0.47000000000E+01 0.  1.
        -11    1    1    2    0    0  0.51706211954E+02  0.24757494934E+01  0.20992621581E+03  0.21621442546E+03  0.00000000000E+00 0.  1.
         11    1    1    2    0    0 -0.41090583882E+02  0.27298874685E+01  0.12973473656E+03  0.13611388702E+03  0.00000000000E+00 0. -1.
<mgrwt>
<rscale>  0 0.11667646E+03</rscale>
<asrwt>0</asrwt>
<pdfrwt beam="1">  1        2 0.18750727E+00 0.12555869E+03</pdfrwt>
<pdfrwt beam="2">  1       -2 0.16691237E-02 0.12555869E+03</pdfrwt>
<totfact> 0.18772285E+04</totfact>
</mgrwt>
</event>
<event>
 6    1  0.5258538E-006  0.2564522E+03  0.7546771E-02  0.1109294E+00
         -1   -1    0    0    0  501 -0.00000000000E+00  0.00000000000E+00  0.17141584971E+03  0.17141584971E+03  0.00000000000E+00 0.  1.
          1   -1    0    0  501    0  0.00000000000E+00 -0.00000000000E+00 -0.95918389650E+02  0.95918389650E+02  0.00000000000E+00 0. -1.
          5    1    1    2  502    0  0.48796986328E+02 -0.84595427801E+02  0.45131628625E+02  0.10768698242E+03  0.47000000000E+01 0. -1.
         -5    1    1    2    0  502 -0.14269702255E+02  0.27777399268E+02 -0.18311857819E+02  0.36505101689E+02  0.47000000000E+01 0. -1.
        -11    1    1    2    0    0 -0.59544591446E+02  0.10584499424E+02  0.23933311820E+02  0.65041474562E+02  0.00000000000E+00 0.  1.
         11    1    1    2    0    0  0.25017307373E+02  0.46233529110E+02  0.24744377431E+02  0.58100680690E+02  0.00000000000E+00 0. -1.
<mgrwt>
<rscale>  0 0.25645220E+03</rscale>
<asrwt>0</asrwt>
<pdfrwt beam="2">  1        1 0.14756675E-01 0.25645220E+03</pdfrwt>
<pdfrwt beam="1">  1       -1 0.26371669E-01 0.25645220E+03</pdfrwt>
<totfact> 0.47976606E+03</totfact>
</mgrwt>
</event>
<event>
 6    1  0.5258538E-006  0.1243357E+03  0.7546771E-02  0.1245173E+00
         -1   -1    0    0    0  501 -0.00000000000E+00  0.00000000000E+00  0.27420573007E+02  0.27420573007E+02  0.00000000000E+00 0.  1.
          1   -1    0    0  501    0  0.00000000000E+00 -0.00000000000E+00 -0.51551194425E+03  0.51551194425E+03  0.00000000000E+00 0. -1.
          5    1    1    2  502    0 -0.24222821558E+02  0.51884931636E+01 -0.12525131507E+03  0.12776403044E+03  0.47000000000E+01 0. -1.
         -5    1    1    2    0  502  0.69770833463E+02 -0.25823500108E+02 -0.61744516930E+02  0.96795132785E+02  0.47000000000E+01 0.  1.
        -11    1    1    2    0    0 -0.72200986440E+02  0.24038262994E+02 -0.20825119149E+03  0.22171914506E+03  0.00000000000E+00 0. -1.
         11    1    1    2    0    0  0.26652974535E+02 -0.34032560492E+01 -0.92844347757E+02  0.96654208981E+02  0.00000000000E+00 0.  1.
<mgrwt>
<rscale>  0 0.11875052E+03</rscale>
<asrwt>0</asrwt>
<pdfrwt beam="2">  1        1 0.79309530E-01 0.12433574E+03</pdfrwt>
<pdfrwt beam="1">  1       -1 0.42185497E-02 0.12433574E+03</pdfrwt>
<totfact> 0.93315533E+03</totfact>
</mgrwt>
</event>
<event>
 6    1  0.5258538E-006  0.1799460E+03  0.7546771E-02  0.1173575E+00
          1   -1    0    0  501    0  0.00000000000E+00  0.00000000000E+00  0.12657113689E+04  0.12657113689E+04  0.00000000000E+00 0. -1.
         -1   -1    0    0    0  501 -0.00000000000E+00 -0.00000000000E+00 -0.27175026842E+02  0.27175026842E+02  0.00000000000E+00 0.  1.
          5    1    1    2  502    0  0.25390568900E+02 -0.27236528822E+02  0.50595116595E+03  0.50734128732E+03  0.47000000000E+01 0. -1.
         -5    1    1    2    0  502  0.10006743841E+03  0.59100786298E+02  0.41318421097E+03  0.42924314481E+03  0.47000000000E+01 0. -1.
        -11    1    1    2    0    0 -0.26389816180E+02 -0.13249888777E+02  0.10452330882E+02  0.31324641601E+02  0.00000000000E+00 0.  1.
         11    1    1    2    0    0 -0.99068191130E+02 -0.18614368698E+02  0.30894863429E+03  0.32497732205E+03  0.00000000000E+00 0. -1.
<mgrwt>
<rscale>  0 0.17416299E+03</rscale>
<asrwt>0</asrwt>
<pdfrwt beam="1">  1        1 0.19472478E+00 0.17994598E+03</pdfrwt>
<pdfrwt beam="2">  1       -1 0.41807743E-02 0.17994598E+03</pdfrwt>
<totfact> 0.23643253E+03</totfact>
</mgrwt>
</event>
<event>
 6    1  0.5258538E-006  0.1257212E+03  0.7546771E-02  0.1249169E+00
         -2   -1    0    0    0  501 -0.00000000000E+00  0.00000000000E+00  0.36850231889E+02  0.36850231889E+02  0.00000000000E+00 0.  1.
          2   -1    0    0  501    0  0.00000000000E+00 -0.00000000000E+00 -0.32289966645E+03  0.32289966645E+03  0.00000000000E+00 0. -1.
          5    1    1    2  502    0  0.47527957938E+02 -0.25045044741E+02 -0.42066152194E+02  0.68394533496E+02  0.47000000000E+01 0. -1.
         -5    1    1    2    0  502 -0.51305172088E+02  0.38011727401E+02 -0.12774132818E+03  0.14288823964E+03  0.47000000000E+01 0. -1.
        -11    1    1    2    0    0  0.79494725873E+01  0.29940764726E+02 -0.80562591500E+01  0.32008542895E+02  0.00000000000E+00 0.  1.
         11    1    1    2    0    0 -0.41722584377E+01 -0.42907447386E+02 -0.10818569504E+03  0.11645858231E+03  0.00000000000E+00 0. -1.
<mgrwt>
<rscale>  0 0.11639304E+03</rscale>
<asrwt>0</asrwt>
<pdfrwt beam="2">  1        2 0.49676874E-01 0.12572124E+03</pdfrwt>
<pdfrwt beam="1">  1       -2 0.56692661E-02 0.12572124E+03</pdfrwt>
<totfact> 0.15215727E+04</totfact>
</mgrwt>
</event>
<event>
 6    1  0.5258538E-006  0.1728246E+03  0.7546771E-02  0.1181142E+00
          1   -1    0    0  501    0  0.00000000000E+00  0.00000000000E+00  0.11729522321E+03  0.11729522321E+03  0.00000000000E+00 0. -1.
         -1   -1    0    0    0  501 -0.00000000000E+00 -0.00000000000E+00 -0.22306561976E+03  0.22306561976E+03  0.00000000000E+00 0.  1.
          5    1    1    2  502    0 -0.12398517227E+02 -0.51644798108E+02 -0.84256511310E+02  0.99710371072E+02  0.47000000000E+01 0. -1.
         -5    1    1    2    0  502 -0.49051970038E+02 -0.50663542282E+02  0.36565073883E+02  0.79573770234E+02  0.47000000000E+01 0. -1.
        -11    1    1    2    0    0  0.36514523717E+02  0.84353911700E+02 -0.81180241134E+02  0.12263410787E+03  0.00000000000E+00 0.  1.
         11    1    1    2    0    0  0.24935963548E+02  0.17954428690E+02  0.23101282005E+02  0.38442593798E+02  0.00000000000E+00 0. -1.
<mgrwt>
<rscale>  0 0.16687899E+03</rscale>
<asrwt>0</asrwt>
<pdfrwt beam="1">  1        1 0.18045419E-01 0.17282456E+03</pdfrwt>
<pdfrwt beam="2">  1       -1 0.34317787E-01 0.17282456E+03</pdfrwt>
<totfact> 0.23188664E+03</totfact>
</mgrwt>
</event>
<event>
 6    1  0.5258538E-006  0.1728802E+03  0.7546771E-02  0.1182984E+00
         -2   -1    0    0    0  501 -0.00000000000E+00  0.00000000000E+00  0.10058119906E+04  0.10058119906E+04  0.00000000000E+00 0.  1.
          2   -1    0    0  501    0  0.00000000000E+00 -0.00000000000E+00 -0.25141469579E+02  0.25141469579E+02  0.00000000000E+00 0. -1.
          5    1    1    2  502    0 -0.14542223031E+02 -0.49311246535E+02  0.90685696740E+02  0.10435066305E+03  0.47000000000E+01 0.  1.
         -5    1    1    2    0  502  0.11203491740E+03 -0.19682334814E+02  0.40070436928E+03  0.41656367890E+03  0.47000000000E+01 0.  1.
        -11    1    1    2    0    0 -0.66504322133E+02  0.36054302313E+01  0.30220713504E+03  0.30945916768E+03  0.00000000000E+00 0.  1.
         11    1    1    2    0    0 -0.30988372237E+02  0.65388151118E+02  0.18707331991E+03  0.20057995050E+03  0.00000000000E+00 0. -1.
<mgrwt>
<rscale>  0 0.16516646E+03</rscale>
<asrwt>0</asrwt>
<pdfrwt beam="2">  1        2 0.38679192E-02 0.17288017E+03</pdfrwt>
<pdfrwt beam="1">  1       -2 0.15474027E+00 0.17288017E+03</pdfrwt>
<totfact> 0.63878990E+02</totfact>
</mgrwt>
</event>
<event>
 6    1  0.5258538E-006  0.2647646E+03  0.7546771E-02  0.1104314E+00
          1   -1    0    0  501    0  0.00000000000E+00  0.00000000000E+00  0.53893680349E+03  0.53893680349E+03  0.00000000000E+00 0. -1.
         -1   -1    0    0    0  501 -0.00000000000E+00 -0.00000000000E+00 -0.32517861675E+02  0.32517861675E+02  0.00000000000E+00 0.  1.
          5    1    1    2  502    0 -0.36841028445E+02  0.67945459139E+02  0.12021061971E+03  0.14299136298E+03  0.47000000000E+01 0.  1.
         -5    1    1    2    0  502  0.32444618145E+02 -0.17473717070E+02  0.21781476753E+03  0.22096005746E+03  0.47000000000E+01 0.  1.
        -11    1    1    2    0    0 -0.52159257046E+02 -0.33216633750E+02  0.79012939580E+02  0.10033432849E+03  0.00000000000E+00 0. -1.
         11    1    1    2    0    0  0.56555667346E+02 -0.17255108318E+02  0.89380614994E+02  0.10716891624E+03  0.00000000000E+00 0.  1.
<mgrwt>
<rscale>  0 0.26476459E+03</rscale>
<asrwt>0</asrwt>
<pdfrwt beam="1">  1        1 0.82913348E-01 0.26476459E+03</pdfrwt>
<pdfrwt beam="2">  1       -1 0.50027484E-02 0.26476459E+03</pdfrwt>
<totfact> 0.71303848E+03</totfact>
</mgrwt>
</event>
<event>
 6    1  0.5258538E-006  0.4096396E+03  0.7546771E-02  0.1040492E+00
         -2   -1    0    0    0  501 -0.00000000000E+00  0.00000000000E+00  0.37237549379E+02  0.37237549379E+02  0.00000000000E+00 0.  1.
          2   -1    0    0  501    0  0.00000000000E+00 -0.00000000000E+00 -0.11265821626E+04  0.11265821626E+04  0.00000000000E+00 0. -1.
          5    1    1    2  502    0  0.18324940770E+03 -0.22312750754E+02 -0.38484728354E+03  0.42685796926E+03  0.47000000000E+01 0.  1.
         -5    1    1    2    0  502 -0.11562339096E+02  0.24606229025E+01 -0.12725833997E+03  0.12789260120E+03  0.47000000000E+01 0.  1.
        -11    1    1    2    0    0 -0.69087159383E+02  0.24172399161E+02 -0.12099539175E+03  0.14141154585E+03  0.00000000000E+00 0.  1.
         11    1    1    2    0    0 -0.10259990922E+03 -0.43202713094E+01 -0.45624359792E+03  0.46765759564E+03  0.00000000000E+00 0. -1.
<mgrwt>
<rscale>  0 0.40963964E+03</rscale>
<asrwt>0</asrwt>
<pdfrwt beam="2">  1        2 0.17332034E+00 0.40963964E+03</pdfrwt>
<pdfrwt beam="1">  1       -2 0.57288537E-02 0.40963964E+03</pdfrwt>
<totfact> 0.35140117E+03</totfact>
</mgrwt>
</event>
<event>
 6    1  0.5258538E-006  0.1477475E+03  0.7546771E-02  0.1211965E+00
          2   -1    0    0  501    0  0.00000000000E+00  0.00000000000E+00  0.12038883046E+03  0.12038883046E+03  0.00000000000E+00 0. -1.
         -2   -1    0    0    0  501 -0.00000000000E+00 -0.00000000000E+00 -0.18545718309E+03  0.18545718309E+03  0.00000000000E+00 0.  1.
          5    1    1    2  502    0 -0.23155493870E+02  0.24058027456E+02 -0.26728952681E+02  0.43028972714E+02  0.47000000000E+01 0. -1.
         -5    1    1    2    0  502  0.89689888264E+02  0.18112514215E+02  0.56642657925E+02  0.10771638652E+03  0.47000000000E+01 0. -1.
        -11    1    1    2    0    0 -0.41284604644E+02 -0.36284228443E+02  0.17130591755E+01  0.54989984416E+02  0.00000000000E+00 0. -1.
         11    1    1    2    0    0 -0.25249789750E+02 -0.58863132278E+01 -0.96695117052E+02  0.10011066990E+03  0.00000000000E+00 0.  1.
<mgrwt>
<rscale>  0 0.14101871E+03</rscale>
<asrwt>0</asrwt>
<pdfrwt beam="1">  1        2 0.18521359E-01 0.14774753E+03</pdfrwt>
<pdfrwt beam="2">  1       -2 0.28531874E-01 0.14774753E+03</pdfrwt>
<totfact> 0.32872669E+03</totfact>
</mgrwt>
</event>
<event>
 6    1  0.5258538E-006  0.2055365E+03  0.7546771E-02  0.1149763E+00
          1   -1    0    0  501    0  0.00000000000E+00  0.00000000000E+00  0.10360195827E+03  0.10360195827E+03  0.00000000000E+00 0. -1.
         -1   -1    0    0    0  501 -0.00000000000E+00 -0.00000000000E+00 -0.37172781068E+03  0.37172781068E+03  0.00000000000E+00 0.  1.
          5    1    1    2  502    0 -0.71647514703E+01 -0.85310378745E+02  0.11507732356E+02  0.86508452126E+02  0.47000000000E+01 0.  1.
         -5    1    1    2    0  502  0.20064357816E+02 -0.77344197454E+02 -0.12457989972E+03  0.14807749575E+03  0.47000000000E+01 0.  1.
        -11    1    1    2    0    0 -0.25227132066E+02  0.12512611505E+03 -0.66829790430E+02  0.14408044193E+03  0.00000000000E+00 0. -1.
         11    1    1    2    0    0  0.12327525720E+02  0.37528461151E+02 -0.88223894619E+02  0.96663379149E+02  0.00000000000E+00 0.  1.
<mgrwt>
<rscale>  0 0.19997108E+03</rscale>
<asrwt>0</asrwt>
<pdfrwt beam="1">  1        1 0.15938763E-01 0.20553650E+03</pdfrwt>
<pdfrwt beam="2">  1       -1 0.57188894E-01 0.20553650E+03</pdfrwt>
<totfact> 0.10906910E+03</totfact>
</mgrwt>
</event>
<event>
 6    1  0.5258538E-006  0.1259945E+03  0.7546771E-02  0.1261607E+00
          1   -1    0    0  501    0  0.00000000000E+00  0.00000000000E+00  0.20935819906E+03  0.20935819906E+03  0.00000000000E+00 0. -1.
         -1   -1    0    0    0  501 -0.00000000000E+00 -0.00000000000E+00 -0.58189081500E+02  0.58189081500E+02  0.00000000000E+00 0.  1.
          5    1    1    2  502    0  0.32650700284E+02 -0.13165908233E+02  0.15113107854E+03  0.15524851777E+03  0.47000000000E+01 0.  1.
         -5    1    1    2    0  502 -0.28546570501E+02  0.28402530385E+02 -0.12412034431E+01  0.40561570552E+02  0.47000000000E+01 0.  1.
        -11    1    1    2    0    0 -0.24106644949E+02  0.11974864898E+02 -0.18441731026E+02  0.32628594258E+02  0.00000000000E+00 0.  1.
         11    1    1    2    0    0  0.20002515166E+02 -0.27211487050E+02  0.19720973483E+02  0.39108597975E+02  0.00000000000E+00 0. -1.
<mgrwt>
<rscale>  0 0.10944163E+03</rscale>
<asrwt>0</asrwt>
<pdfrwt beam="1">  1        1 0.32208953E-01 0.12599451E+03</pdfrwt>
<pdfrwt beam="2">  1       -1 0.89521665E-02 0.12599451E+03</pdfrwt>
<totfact> 0.93996376E+03</totfact>
</mgrwt>
</event>
<event>
 6    1  0.5258538E-006  0.3379508E+03  0.7546771E-02  0.1067672E+00
         -1   -1    0    0    0  501 -0.00000000000E+00  0.00000000000E+00  0.49512842315E+02  0.49512842315E+02  0.00000000000E+00 0.  1.
          1   -1    0    0  501    0  0.00000000000E+00 -0.00000000000E+00 -0.57667220116E+03  0.57667220116E+03  0.00000000000E+00 0. -1.
          5    1    1    2  502    0  0.84417936064E+01  0.46909990217E+01  0.81067739071E+01  0.13456564729E+02  0.47000000000E+01 0.  1.
         -5    1    1    2    0  502  0.72575457893E+02  0.77354304795E+02 -0.39780700651E+03  0.41173218235E+03  0.47000000000E+01 0.  1.
        -11    1    1    2    0    0 -0.26176720089E+02  0.11397455480E+02 -0.64042904239E+02  0.70118587046E+02  0.00000000000E+00 0. -1.
         11    1    1    2    0    0 -0.54840531410E+02 -0.93442759297E+02 -0.73416222004E+02  0.13087770935E+03  0.00000000000E+00 0.  1.
<mgrwt>
<rscale>  0 0.33795076E+03</rscale>
<asrwt>0</asrwt>
<pdfrwt beam="2">  1        1 0.88718801E-01 0.33795076E+03</pdfrwt>
<pdfrwt beam="1">  1       -1 0.76173603E-02 0.33795076E+03</pdfrwt>
<totfact> 0.34591383E+03</totfact>
</mgrwt>
</event>
<event>
 6    1  0.5258538E-006  0.2522572E+03  0.7546771E-02  0.1111887E+00
         -2   -1    0    0    0  501 -0.00000000000E+00  0.00000000000E+00  0.46419287024E+03  0.46419287024E+03  0.00000000000E+00 0. -1.
          2   -1    0    0  501    0  0.00000000000E+00 -0.00000000000E+00 -0.34271149648E+02  0.34271149648E+02  0.00000000000E+00 0.  1.
          5    1    1    2  502    0  0.70767598274E+01 -0.39932496226E+01 -0.14263986372E+02  0.17075651654E+02  0.47000000000E+01 0. -1.
         -5    1    1    2    0  502  0.40760698950E+02 -0.37918739096E+02  0.25938125864E+03  0.26532996945E+03  0.47000000000E+01 0. -1.
        -11    1    1    2    0    0  0.72704670246E+01  0.25820991963E+02  0.49684271354E+01  0.27281286350E+02  0.00000000000E+00 0.  1.
         11    1    1    2    0    0 -0.55107925802E+02  0.16090996756E+02  0.17983602119E+03  0.18877711244E+03  0.00000000000E+00 0. -1.
<mgrwt>
<rscale>  0 0.25225720E+03</rscale>
<asrwt>0</asrwt>
<pdfrwt beam="2">  1        2 0.52724849E-02 0.25225720E+03</pdfrwt>
<pdfrwt beam="1">  1       -2 0.71414283E-01 0.25225720E+03</pdfrwt>
<totfact> 0.26584141E+03</totfact>
</mgrwt>
</event>
<event>
 6    1  0.5258538E-006  0.2920350E+03  0.7546771E-02  0.1091036E+00
          1   -1    0    0  501    0  0.00000000000E+00  0.00000000000E+00  0.35161259698E+03  0.35161259698E+03  0.00000000000E+00 0. -1.
         -1   -1    0    0    0  501 -0.00000000000E+00 -0.00000000000E+00 -0.27340254148E+03  0.27340254148E+03  0.00000000000E+00 0.  1.
          5    1    1    2  502    0 -0.83147566856E+02 -0.13855197145E+03  0.84852140601E+02  0.18257092438E+03  0.47000000000E+01 0. -1.
         -5    1    1    2    0  502  0.44105167884E+02 -0.12247624205E+03  0.76968591551E+02  0.15130085851E+03  0.47000000000E+01 0. -1.
        -11    1    1    2    0    0  0.40798106181E+02  0.11024788925E+03  0.23381341734E+01  0.11757784411E+03  0.00000000000E+00 0. -1.
         11    1    1    2    0    0 -0.17557072080E+01  0.15078032424E+03 -0.85948810831E+02  0.17356551146E+03  0.00000000000E+00 0.  1.
<mgrwt>
<rscale>  0 0.28868900E+03</rscale>
<asrwt>0</asrwt>
<pdfrwt beam="1">  1        1 0.54094246E-01 0.29203496E+03</pdfrwt>
<pdfrwt beam="2">  1       -1 0.42061929E-01 0.29203496E+03</pdfrwt>
<totfact> 0.40553982E+02</totfact>
</mgrwt>
</event>
<event>
 6    1  0.5258538E-006  0.1557176E+03  0.7546771E-02  0.1201896E+00
          2   -1    0    0  501    0  0.00000000000E+00  0.00000000000E+00  0.60921278234E+03  0.60921278234E+03  0.00000000000E+00 0.  1.
         -2   -1    0    0    0  501 -0.00000000000E+00 -0.00000000000E+00 -0.33689884901E+02  0.33689884901E+02  0.00000000000E+00 0. -1.
          5    1    1    2  502    0 -0.66351522521E+02  0.29378682384E+02  0.17511930746E+03  0.18961670117E+03  0.47000000000E+01 0. -1.
         -5    1    1    2    0  502 -0.10460606913E+02 -0.81560405495E+02  0.16238864002E+03  0.18208153242E+03  0.47000000000E+01 0. -1.
        -11    1    1    2    0    0 -0.18913774201E+02 -0.35301152409E+01  0.34409416948E+02  0.39423350224E+02  0.00000000000E+00 0. -1.
         11    1    1    2    0    0  0.95725903635E+02  0.55711838352E+02  0.20360553302E+03  0.23178108343E+03  0.00000000000E+00 0.  1.
<mgrwt>
<rscale>  0 0.14884745E+03</rscale>
<asrwt>0</asrwt>
<pdfrwt beam="1">  1        2 0.93725035E-01 0.15571757E+03</pdfrwt>
<pdfrwt beam="2">  1       -2 0.51830597E-02 0.15571757E+03</pdfrwt>
<totfact> 0.88679360E+03</totfact>
</mgrwt>
</event>
<event>
 6    1  0.5258538E-006  0.1772629E+03  0.7546771E-02  0.1176138E+00
          2   -1    0    0  501    0  0.00000000000E+00  0.00000000000E+00  0.18218555820E+04  0.18218555820E+04  0.00000000000E+00 0. -1.
         -2   -1    0    0    0  501 -0.00000000000E+00 -0.00000000000E+00 -0.18081166501E+02  0.18081166501E+02  0.00000000000E+00 0.  1.
          5    1    1    2  502    0  0.78864017575E+02  0.40953692746E+02  0.37503523173E+03  0.38544812006E+03  0.47000000000E+01 0.  1.
         -5    1    1    2    0  502  0.45872811479E+02 -0.25533367564E+02  0.94052723260E+03  0.94200309604E+03  0.47000000000E+01 0.  1.
        -11    1    1    2    0    0 -0.55246016647E+02 -0.36387636017E+01  0.74542111838E+02  0.92854129651E+02  0.00000000000E+00 0.  1.
         11    1    1    2    0    0 -0.69490812406E+02 -0.11781561580E+02  0.41366983933E+03  0.41963140275E+03  0.00000000000E+00 0. -1.
<mgrwt>
<rscale>  0 0.17164966E+03</rscale>
<asrwt>0</asrwt>
<pdfrwt beam="1">  1        2 0.28028533E+00 0.17726289E+03</pdfrwt>
<pdfrwt beam="2">  1       -2 0.27817194E-02 0.17726289E+03</pdfrwt>
<totfact> 0.43540319E+03</totfact>
</mgrwt>
</event>
<event>
 6    1  0.5258538E-006  0.1284679E+03  0.7546771E-02  0.1244692E+00
         -3   -1    0    0    0  501 -0.00000000000E+00  0.00000000000E+00  0.24958982184E+02  0.24958982184E+02  0.00000000000E+00 0.  1.
          3   -1    0    0  501    0  0.00000000000E+00 -0.00000000000E+00 -0.89063000350E+03  0.89063000350E+03  0.00000000000E+00 0. -1.
          5    1    1    2  502    0 -0.91319120508E+01 -0.54362460227E+02 -0.39237921382E+03  0.39626027601E+03  0.47000000000E+01 0.  1.
         -5    1    1    2    0  502 -0.16202916301E+02  0.69798479815E+02 -0.37880532482E+03  0.38555145752E+03  0.47000000000E+01 0.  1.
        -11    1    1    2    0    0 -0.27411207034E+02  0.14724712836E+02 -0.17490521642E+02  0.35694674483E+02  0.00000000000E+00 0.  1.
         11    1    1    2    0    0  0.52746035385E+02 -0.30160732424E+02 -0.76995961031E+02  0.98082577680E+02  0.00000000000E+00 0. -1.
<mgrwt>
<rscale>  0 0.11903833E+03</rscale>
<asrwt>0</asrwt>
<pdfrwt beam="2">  1        3 0.13701999E+00 0.12846787E+03</pdfrwt>
<pdfrwt beam="1">  1       -3 0.38398437E-02 0.12846787E+03</pdfrwt>
<totfact> 0.34489369E+02</totfact>
</mgrwt>
</event>
<event>
 6    1  0.5258538E-006  0.2145895E+03  0.7546771E-02  0.1141457E+00
         -1   -1    0    0    0  501 -0.00000000000E+00  0.00000000000E+00  0.41687151460E+02  0.41687151460E+02  0.00000000000E+00 0.  1.
          1   -1    0    0  501    0  0.00000000000E+00 -0.00000000000E+00 -0.10220532435E+04  0.10220532435E+04  0.00000000000E+00 0. -1.
          5    1    1    2  502    0 -0.77891501685E+02  0.37165196625E+02 -0.15600088297E+03  0.17834433931E+03  0.47000000000E+01 0. -1.
         -5    1    1    2    0  502 -0.89201402131E+02 -0.88440151982E+02 -0.31936976598E+03  0.34321667798E+03  0.47000000000E+01 0. -1.
        -11    1    1    2    0    0  0.66586659853E+02  0.44192298075E+02 -0.11968964015E+03  0.14391786699E+03  0.00000000000E+00 0.  1.
         11    1    1    2    0    0  0.10050624396E+03  0.70826572817E+01 -0.38530580297E+03  0.39826151071E+03  0.00000000000E+00 0. -1.
<mgrwt>
<rscale>  0 0.21013729E+03</rscale>
<asrwt>0</asrwt>
<pdfrwt beam="2">  1        1 0.15723897E+00 0.21458947E+03</pdfrwt>
<pdfrwt beam="1">  1       -1 0.64134076E-02 0.21458947E+03</pdfrwt>
<totfact> 0.18558161E+03</totfact>
</mgrwt>
</event>
<event>
 6    1  0.5258538E-006  0.1285027E+03  0.7546771E-02  0.1243614E+00
          2   -1    0    0  501    0  0.00000000000E+00  0.00000000000E+00  0.35982995432E+02  0.35982995432E+02  0.00000000000E+00 0. -1.
         -2   -1    0    0    0  501 -0.00000000000E+00 -0.00000000000E+00 -0.35584174609E+03  0.35584174609E+03  0.00000000000E+00 0.  1.
          5    1    1    2  502    0 -0.74680352395E+01  0.44871572390E+02 -0.10515661602E+03  0.11467010705E+03  0.47000000000E+01 0.  1.
         -5    1    1    2    0  502 -0.37254834378E+01 -0.72471741169E+02 -0.58012306229E+02  0.93024460058E+02  0.47000000000E+01 0.  1.
        -11    1    1    2    0    0  0.33594807333E+02 -0.20206575320E+02 -0.95965683187E+02  0.10366450268E+03  0.00000000000E+00 0.  1.
         11    1    1    2    0    0 -0.22401288656E+02  0.47806744099E+02 -0.60724145231E+02  0.80465671741E+02  0.00000000000E+00 0. -1.
<mgrwt>
<rscale>  0 0.11968740E+03</rscale>
<asrwt>0</asrwt>
<pdfrwt beam="1">  1        2 0.55358457E-02 0.12850267E+03</pdfrwt>
<pdfrwt beam="2">  1       -2 0.54744882E-01 0.12850267E+03</pdfrwt>
<totfact> 0.41593621E+03</totfact>
</mgrwt>
</event>
<event>
 6    1  0.5258538E-006  0.1616430E+03  0.7546771E-02  0.1196831E+00
         -2   -1    0    0    0  501 -0.00000000000E+00  0.00000000000E+00  0.10103953902E+03  0.10103953902E+03  0.00000000000E+00 0. -1.
          2   -1    0    0  501    0  0.00000000000E+00 -0.00000000000E+00 -0.28755934567E+03  0.28755934567E+03  0.00000000000E+00 0.  1.
          5    1    1    2  502    0  0.64775555757E+00 -0.32749897023E+02  0.85860376366E+01  0.34187503339E+02  0.47000000000E+01 0.  1.
         -5    1    1    2    0  502  0.60387528539E+02 -0.49585849483E+02 -0.20970340413E+03  0.22383703397E+03  0.47000000000E+01 0.  1.
        -11    1    1    2    0    0 -0.49071153863E+02  0.89475622294E+01 -0.12518878133E+02  0.51427223540E+02  0.00000000000E+00 0.  1.
         11    1    1    2    0    0 -0.11964130233E+02  0.73388184276E+02  0.27116437975E+02  0.79147123840E+02  0.00000000000E+00 0. -1.
<mgrwt>
<rscale>  0 0.15300282E+03</rscale>
<asrwt>0</asrwt>
<pdfrwt beam="2">  1        2 0.44239898E-01 0.16164302E+03</pdfrwt>
<pdfrwt beam="1">  1       -2 0.15544545E-01 0.16164302E+03</pdfrwt>
<totfact> 0.35940430E+03</totfact>
</mgrwt>
</event>
<event>
 6    1  0.5258538E-006  0.1720422E+03  0.7546771E-02  0.1181838E+00
         -2   -1    0    0    0  501 -0.00000000000E+00  0.00000000000E+00  0.10256082677E+03  0.10256082677E+03  0.00000000000E+00 0. -1.
          2   -1    0    0  501    0  0.00000000000E+00 -0.00000000000E+00 -0.28032363378E+03  0.28032363378E+03  0.00000000000E+00 0.  1.
          5    1    1    2  502    0 -0.30037897456E+02 -0.17694381330E+02 -0.41401809196E+02  0.54328318757E+02  0.47000000000E+01 0. -1.
         -5    1    1    2    0  502  0.12571736371E+03 -0.51725075977E+02 -0.11293313887E+03  0.17679457819E+03  0.47000000000E+01 0. -1.
        -11    1    1    2    0    0  0.32274804810E+01  0.30310556325E+02 -0.33060129821E+02  0.44967973479E+02  0.00000000000E+00 0.  1.
         11    1    1    2    0    0 -0.98906946737E+02  0.39108900983E+02  0.96322708797E+01  0.10679359012E+03  0.00000000000E+00 0. -1.
<mgrwt>
<rscale>  0 0.16622920E+03</rscale>
<asrwt>0</asrwt>
<pdfrwt beam="2">  1        2 0.43126712E-01 0.17204220E+03</pdfrwt>
<pdfrwt beam="1">  1       -2 0.15778589E-01 0.17204220E+03</pdfrwt>
<totfact> 0.36133394E+03</totfact>
</mgrwt>
</event>
<event>
 6    1  0.5258538E-006  0.3248711E+03  0.7546771E-02  0.1075163E+00
          2   -1    0    0  501    0  0.00000000000E+00  0.00000000000E+00  0.62156676387E+03  0.62156676387E+03  0.00000000000E+00 0. -1.
         -2   -1    0    0    0  501 -0.00000000000E+00 -0.00000000000E+00 -0.16262645078E+03  0.16262645078E+03  0.00000000000E+00 0.  1.
          5    1    1    2  502    0  0.18089030249E+03 -0.11384076911E+03  0.12181492849E+03  0.24605281760E+03  0.47000000000E+01 0. -1.
         -5    1    1    2    0  502  0.36506421263E+02 -0.92686067140E+02  0.13622539062E+03  0.16882793870E+03  0.47000000000E+01 0. -1.
        -11    1    1    2    0    0 -0.14185869039E+03  0.88950010714E+02  0.13356401232E+03  0.21418528855E+03  0.00000000000E+00 0.  1.
         11    1    1    2    0    0 -0.75538033356E+02  0.11757682554E+03  0.67335981660E+02  0.15512716981E+03  0.00000000000E+00 0. -1.
<mgrwt>
<rscale>  0 0.32105888E+03</rscale>
<asrwt>0</asrwt>
<pdfrwt beam="1">  1        2 0.95625655E-01 0.32487111E+03</pdfrwt>
<pdfrwt beam="2">  1       -2 0.25019454E-01 0.32487111E+03</pdfrwt>
<totfact> 0.68877029E+02</totfact>
</mgrwt>
</event>
<event>
 6    1  0.5258538E-006  0.2460169E+03  0.7546771E-02  0.1115848E+00
         -1   -1    0    0    0  501 -0.00000000000E+00  0.00000000000E+00  0.59915965710E+02  0.59915965710E+02  0.00000000000E+00 0.  1.
          1   -1    0    0  501    0  0.00000000000E+00 -0.00000000000E+00 -0.25253837259E+03  0.25253837259E+03  0.00000000000E+00 0. -1.
          5    1    1    2  502    0  0.37454989144E+02 -0.18995861481E+02 -0.10721127110E+03  0.11523916703E+03  0.47000000000E+01 0. -1.
         -5    1    1    2    0  502 -0.72882629688E+02  0.64744670070E+01 -0.56353525565E+02  0.92474895387E+02  0.47000000000E+01 0.  1.
        -11    1    1    2    0    0  0.41962969609E+01  0.46169776498E+02 -0.35487605036E+02  0.58383450406E+02  0.00000000000E+00 0.  1.
         11    1    1    2    0    0  0.31231343583E+02 -0.33648382024E+02  0.64299948285E+01  0.46356825478E+02  0.00000000000E+00 0. -1.
<mgrwt>
<rscale>  0 0.24601691E+03</rscale>
<asrwt>0</asrwt>
<pdfrwt beam="2">  1        1 0.38852058E-01 0.24601691E+03</pdfrwt>
<pdfrwt beam="1">  1       -1 0.92178407E-02 0.24601691E+03</pdfrwt>
<totfact> 0.74363116E+03</totfact>
</mgrwt>
</event>
<event>
 6    1  0.5258538E-006  0.1952104E+03  0.7546771E-02  0.1158375E+00
          1   -1    0    0  501    0  0.00000000000E+00  0.00000000000E+00  0.48540683935E+03  0.48540683935E+03  0.00000000000E+00 0. -1.
         -1   -1    0    0    0  501 -0.00000000000E+00 -0.00000000000E+00 -0.72754582486E+02  0.72754582486E+02  0.00000000000E+00 0.  1.
          5    1    1    2  502    0  0.39867179152E+02 -0.15735925020E+02  0.17591415848E+03  0.18112120932E+03  0.47000000000E+01 0. -1.
         -5    1    1    2    0  502  0.42451473495E+02 -0.10958907200E+03  0.86795733863E+02  0.14617620094E+03  0.47000000000E+01 0. -1.
        -11    1    1    2    0    0 -0.68271223980E+02  0.10587676872E+03  0.16101400164E+03  0.20444157822E+03  0.00000000000E+00 0. -1.
         11    1    1    2    0    0 -0.14047428666E+02  0.19448228300E+02 -0.11071637127E+02  0.26422433363E+02  0.00000000000E+00 0.  1.
<mgrwt>
<rscale>  0 0.19009617E+03</rscale>
<asrwt>0</asrwt>
<pdfrwt beam="1">  1        1 0.74677973E-01 0.19521042E+03</pdfrwt>
<pdfrwt beam="2">  1       -1 0.11193013E-01 0.19521042E+03</pdfrwt>
<totfact> 0.23756954E+03</totfact>
</mgrwt>
</event>
<event>
 6    1  0.5258538E-006  0.1293868E+03  0.7546771E-02  0.1244966E+00
          1   -1    0    0  501    0  0.00000000000E+00  0.00000000000E+00  0.15575638761E+04  0.15575638761E+04  0.00000000000E+00 0. -1.
         -1   -1    0    0    0  501 -0.00000000000E+00 -0.00000000000E+00 -0.96559521026E+01  0.96559521026E+01  0.00000000000E+00 0.  1.
          5    1    1    2  502    0 -0.62495031076E+02 -0.24765765069E+02  0.61088097867E+03  0.61458655381E+03  0.47000000000E+01 0. -1.
         -5    1    1    2    0  502  0.38645042412E+02  0.48156661409E+02  0.60126531313E+03  0.60444567176E+03  0.47000000000E+01 0. -1.
        -11    1    1    2    0    0 -0.20979846695E+02  0.11313343151E+02  0.36433117112E+02  0.43537543834E+02  0.00000000000E+00 0.  1.
         11    1    1    2    0    0  0.44829835359E+02 -0.34704239492E+02  0.29932851505E+03  0.30465005875E+03  0.00000000000E+00 0. -1.
<mgrwt>
<rscale>  0 0.11887394E+03</rscale>
<asrwt>0</asrwt>
<pdfrwt beam="1">  1        1 0.23962501E+00 0.12938676E+03</pdfrwt>
<pdfrwt beam="2">  1       -1 0.14855323E-02 0.12938676E+03</pdfrwt>
<totfact> 0.67846787E+03</totfact>
</mgrwt>
</event>
<event>
 6    1  0.5258538E-006  0.3406583E+03  0.7546771E-02  0.1067662E+00
         -2   -1    0    0    0  501 -0.00000000000E+00  0.00000000000E+00  0.24726756058E+03  0.24726756058E+03  0.00000000000E+00 0.  1.
          2   -1    0    0  501    0  0.00000000000E+00 -0.00000000000E+00 -0.47655670675E+03  0.47655670675E+03  0.00000000000E+00 0. -1.
          5    1    1    2  502    0 -0.11209845237E+03  0.55634771259E+02 -0.11194896591E+03  0.16797604521E+03  0.47000000000E+01 0.  1.
         -5    1    1    2    0  502 -0.20442842172E+03 -0.40415324342E+02 -0.81715830416E+02  0.22388377563E+03  0.47000000000E+01 0.  1.
        -11    1    1    2    0    0  0.21439337523E+03 -0.95819153915E+01 -0.67250875514E+02  0.22489778279E+03  0.00000000000E+00 0.  1.
         11    1    1    2    0    0  0.10213349886E+03 -0.56375315251E+01  0.31626525675E+02  0.10706666370E+03  0.00000000000E+00 0. -1.
<mgrwt>
<rscale>  0 0.33797401E+03</rscale>
<asrwt>0</asrwt>
<pdfrwt beam="2">  1        2 0.73316416E-01 0.34065828E+03</pdfrwt>
<pdfrwt beam="1">  1       -2 0.38041163E-01 0.34065828E+03</pdfrwt>
<totfact> 0.43251270E+02</totfact>
</mgrwt>
</event>
<event>
 6    1  0.5258538E-006  0.1504515E+03  0.7546771E-02  0.1202266E+00
         -1   -1    0    0    0  501 -0.00000000000E+00  0.00000000000E+00  0.19137123713E+03  0.19137123713E+03  0.00000000000E+00 0.  1.
          1   -1    0    0  501    0  0.00000000000E+00 -0.00000000000E+00 -0.12585892137E+03  0.12585892137E+03  0.00000000000E+00 0. -1.
          5    1    1    2  502    0  0.46921310153E+02  0.91852420959E+02 -0.90817153088E+01  0.10364865718E+03  0.47000000000E+01 0. -1.
         -5    1    1    2    0  502  0.20420530526E+02 -0.42097950663E+02 -0.91050070080E+01  0.47898086283E+02  0.47000000000E+01 0. -1.
        -11    1    1    2    0    0 -0.26938721535E+02  0.24845525514E+02 -0.11268045717E+02  0.38340105768E+02  0.00000000000E+00 0. -1.
         11    1    1    2    0    0 -0.40403119144E+02 -0.74599995810E+02  0.94967083794E+02  0.12734330927E+03  0.00000000000E+00 0.  1.
<mgrwt>
<rscale>  0 0.14854979E+03</rscale>
<asrwt>0</asrwt>
<pdfrwt beam="2">  1        1 0.19362911E-01 0.15045152E+03</pdfrwt>
<pdfrwt beam="1">  1       -1 0.29441729E-01 0.15045152E+03</pdfrwt>
<totfact> 0.27331085E+03</totfact>
</mgrwt>
</event>
<event>
 6    1  0.5258538E-006  0.1332913E+03  0.7546771E-02  0.1234576E+00
         -1   -1    0    0    0  501 -0.00000000000E+00  0.00000000000E+00  0.36439804268E+02  0.36439804268E+02  0.00000000000E+00 0.  1.
          1   -1    0    0  501    0  0.00000000000E+00 -0.00000000000E+00 -0.46429198505E+03  0.46429198505E+03  0.00000000000E+00 0. -1.
          5    1    1    2  502    0  0.79435305271E+02 -0.38830973764E+02 -0.19466809659E+03  0.21385876198E+03  0.47000000000E+01 0.  1.
         -5    1    1    2    0  502 -0.38701997098E+02  0.16822095855E+02 -0.14280089254E+03  0.14897990602E+03  0.47000000000E+01 0.  1.
        -11    1    1    2    0    0 -0.14123099823E+02 -0.15453935577E+00  0.18705769873E+02  0.23439105306E+02  0.00000000000E+00 0.  1.
         11    1    1    2    0    0 -0.26610208350E+02  0.22163417265E+02 -0.10908896152E+03  0.11445401600E+03  0.00000000000E+00 0. -1.
<mgrwt>
<rscale>  0 0.12531617E+03</rscale>
<asrwt>0</asrwt>
<pdfrwt beam="2">  1        1 0.71429527E-01 0.13329134E+03</pdfrwt>
<pdfrwt beam="1">  1       -1 0.56061245E-02 0.13329134E+03</pdfrwt>
<totfact> 0.70569729E+03</totfact>
</mgrwt>
</event>
<event>
 6    1  0.5258538E-006  0.2276730E+03  0.7546771E-02  0.1128288E+00
         -1   -1    0    0    0  501 -0.00000000000E+00  0.00000000000E+00  0.34291427677E+02  0.34291427677E+02  0.00000000000E+00 0.  1.
          1   -1    0    0  501    0  0.00000000000E+00 -0.00000000000E+00 -0.37790066918E+03  0.37790066918E+03  0.00000000000E+00 0. -1.
          5    1    1    2  502    0  0.14853914884E+02 -0.11960918521E+02 -0.20676072415E+03  0.20769157280E+03  0.47000000000E+01 0. -1.
         -5    1    1    2    0  502 -0.10316926909E+02  0.44446035521E+02 -0.13723002859E+02  0.47877968439E+02  0.47000000000E+01 0. -1.
        -11    1    1    2    0    0 -0.42836230551E+02  0.30769574234E+01 -0.41655366267E+02  0.59829590117E+02  0.00000000000E+00 0.  1.
         11    1    1    2    0    0  0.38299242576E+02 -0.35562074423E+02 -0.81470148225E+02  0.96792965504E+02  0.00000000000E+00 0. -1.
<mgrwt>
<rscale>  0 0.22767304E+03</rscale>
<asrwt>0</asrwt>
<pdfrwt beam="2">  1        1 0.58138565E-01 0.22767304E+03</pdfrwt>
<pdfrwt beam="1">  1       -1 0.52756042E-02 0.22767304E+03</pdfrwt>
<totfact> 0.10394348E+04</totfact>
</mgrwt>
</event>
<event>
 6    1  0.5258538E-006  0.1450277E+03  0.7546771E-02  0.1216731E+00
         -2   -1    0    0    0  501 -0.00000000000E+00  0.00000000000E+00  0.75302716487E+02  0.75302716487E+02  0.00000000000E+00 0.  1.
          2   -1    0    0  501    0  0.00000000000E+00 -0.00000000000E+00 -0.24469260835E+03  0.24469260835E+03  0.00000000000E+00 0. -1.
          5    1    1    2  502    0  0.41834165578E+01 -0.38166040756E+02 -0.14849065421E+03  0.15344612093E+03  0.47000000000E+01 0. -1.
         -5    1    1    2    0  502 -0.26868107848E+02 -0.31801332087E+02  0.14170258681E+02  0.44227889085E+02  0.47000000000E+01 0. -1.
        -11    1    1    2    0    0  0.13905813340E+02  0.91722695626E+02 -0.34106715732E+02  0.98841755324E+02  0.00000000000E+00 0. -1.
         11    1    1    2    0    0  0.87788779498E+01 -0.21755322783E+02 -0.96278059626E+00  0.23479559492E+02  0.00000000000E+00 0.  1.
<mgrwt>
<rscale>  0 0.13750153E+03</rscale>
<asrwt>0</asrwt>
<pdfrwt beam="2">  1        2 0.37645017E-01 0.14502774E+03</pdfrwt>
<pdfrwt beam="1">  1       -2 0.11585033E-01 0.14502774E+03</pdfrwt>
<totfact> 0.68310745E+03</totfact>
</mgrwt>
</event>
<event>
 6    1  0.5258538E-006  0.1200985E+03  0.7546771E-02  0.1256737E+00
         -2   -1    0    0    0  501 -0.00000000000E+00  0.00000000000E+00  0.14526816775E+03  0.14526816775E+03  0.00000000000E+00 0.  1.
          2   -1    0    0  501    0  0.00000000000E+00 -0.00000000000E+00 -0.20191551026E+04  0.20191551026E+04  0.00000000000E+00 0. -1.
          5    1    1    2  502    0  0.15974376612E+02  0.48125953920E+02 -0.14559058901E+04  0.14567962586E+04  0.47000000000E+01 0. -1.
         -5    1    1    2    0  502 -0.10309908675E+02 -0.53295399580E+02 -0.54697370487E+03  0.54968083254E+03  0.47000000000E+01 0.  1.
        -11    1    1    2    0    0 -0.37923275425E+02  0.81304629454E+01  0.11723484781E+03  0.12348396166E+03  0.00000000000E+00 0.  1.
         11    1    1    2    0    0  0.32258807488E+02 -0.29610172850E+01  0.11757812386E+02  0.34462217514E+02  0.00000000000E+00 0. -1.
<mgrwt>
<rscale>  0 0.11209583E+03</rscale>
<asrwt>0</asrwt>
<pdfrwt beam="2">  1        2 0.31063926E+00 0.12009848E+03</pdfrwt>
<pdfrwt beam="1">  1       -2 0.22348948E-01 0.12009848E+03</pdfrwt>
<totfact> 0.13490325E+02</totfact>
</mgrwt>
</event>
<event>
 6    1  0.5258538E-006  0.1277061E+03  0.7546771E-02  0.1245851E+00
         -1   -1    0    0    0  501 -0.00000000000E+00  0.00000000000E+00  0.21542762907E+02  0.21542762907E+02  0.00000000000E+00 0.  1.
          1   -1    0    0  501    0  0.00000000000E+00 -0.00000000000E+00 -0.66786519056E+03  0.66786519056E+03  0.00000000000E+00 0. -1.
          5    1    1    2  502    0 -0.38323832660E+02  0.18542545645E+02 -0.83741998787E+02  0.94060376938E+02  0.47000000000E+01 0. -1.
         -5    1    1    2    0  502  0.63332653321E+02 -0.29169691886E+02 -0.41092995331E+03  0.41683019615E+03  0.47000000000E+01 0. -1.
        -11    1    1    2    0    0  0.31829812038E+02  0.73438837390E+01 -0.83818869465E+02  0.89959282129E+02  0.00000000000E+00 0. -1.
         11    1    1    2    0    0 -0.56838632699E+02  0.32832625015E+01 -0.67831606097E+02  0.88558098249E+02  0.00000000000E+00 0.  1.
<mgrwt>
<rscale>  0 0.11834575E+03</rscale>
<asrwt>0</asrwt>
<pdfrwt beam="2">  1        1 0.10274848E+00 0.12770606E+03</pdfrwt>
<pdfrwt beam="1">  1       -1 0.33142715E-02 0.12770606E+03</pdfrwt>
<totfact> 0.93759336E+03</totfact>
</mgrwt>
</event>
<event>
 6    1  0.5258538E-006  0.3966473E+03  0.7546771E-02  0.1044947E+00
          2   -1    0    0  501    0  0.00000000000E+00  0.00000000000E+00  0.47404722854E+03  0.47404722854E+03  0.00000000000E+00 0. -1.
         -2   -1    0    0    0  501 -0.00000000000E+00 -0.00000000000E+00 -0.82971192968E+02  0.82971192968E+02  0.00000000000E+00 0.  1.
          5    1    1    2  502    0 -0.68325829092E+02  0.15265244193E+03  0.18320557058E+03  0.24810795642E+03  0.47000000000E+01 0. -1.
         -5    1    1    2    0  502  0.34339997063E+02  0.48807650484E+01  0.58272327507E+02  0.67976550507E+02  0.47000000000E+01 0. -1.
        -11    1    1    2    0    0 -0.71483902846E+01 -0.10629818612E+03  0.13779534813E+03  0.17417796021E+03  0.00000000000E+00 0. -1.
         11    1    1    2    0    0  0.41134222313E+02 -0.51235020856E+02  0.11802789357E+02  0.66755954372E+02  0.00000000000E+00 0.  1.
<mgrwt>
<rscale>  0 0.39664727E+03</rscale>
<asrwt>0</asrwt>
<pdfrwt beam="1">  1        2 0.72930341E-01 0.39664727E+03</pdfrwt>
<pdfrwt beam="2">  1       -2 0.12764799E-01 0.39664727E+03</pdfrwt>
<totfact> 0.29718772E+03</totfact>
</mgrwt>
</event>
<event>
 6    1  0.5258538E-006  0.3213588E+03  0.7546771E-02  0.1075026E+00
          1   -1    0    0  501    0  0.00000000000E+00  0.00000000000E+00  0.84692051502E+03  0.84692051502E+03  0.00000000000E+00 0. -1.
         -1   -1    0    0    0  501 -0.00000000000E+00 -0.00000000000E+00 -0.30484399524E+02  0.30484399524E+02  0.00000000000E+00 0.  1.
          5    1    1    2  502    0 -0.87052538239E+02 -0.49674570452E+02  0.42294925671E+03  0.43468824589E+03  0.47000000000E+01 0. -1.
         -5    1    1    2    0  502  0.35916487201E+02  0.58692649433E+01  0.28544781218E+03  0.28779677865E+03  0.47000000000E+01 0. -1.
        -11    1    1    2    0    0  0.54426972327E+02 -0.12232033303E+01  0.92201002124E+02  0.10707388260E+03  0.00000000000E+00 0. -1.
         11    1    1    2    0    0 -0.32909212895E+01  0.45028508839E+02  0.15838044483E+02  0.47846007401E+02  0.00000000000E+00 0.  1.
<mgrwt>
<rscale>  0 0.32135876E+03</rscale>
<asrwt>0</asrwt>
<pdfrwt beam="1">  1        1 0.13029545E+00 0.32135876E+03</pdfrwt>
<pdfrwt beam="2">  1       -1 0.46899083E-02 0.32135876E+03</pdfrwt>
<totfact> 0.40914034E+03</totfact>
</mgrwt>
</event>
<event>
 6    1  0.5258538E-006  0.1256016E+03  0.7546771E-02  0.1248476E+00
          2   -1    0    0  501    0  0.00000000000E+00  0.00000000000E+00  0.18229945619E+04  0.18229945619E+04  0.00000000000E+00 0.  1.
         -2   -1    0    0    0  501 -0.00000000000E+00 -0.00000000000E+00 -0.15092899402E+02  0.15092899402E+02  0.00000000000E+00 0. -1.
          5    1    1    2  502    0  0.57965548913E+02  0.20086473408E+02  0.92486772065E+03  0.92691200336E+03  0.47000000000E+01 0. -1.
         -5    1    1    2    0  502 -0.62177147164E+02 -0.85917532674E+01  0.72212565252E+03  0.72486368641E+03  0.47000000000E+01 0. -1.
        -11    1    1    2    0    0  0.11692439003E+02  0.37489058878E+02  0.42037151304E+02  0.57526209289E+02  0.00000000000E+00 0. -1.
         11    1    1    2    0    0 -0.74808407524E+01 -0.48983779019E+02  0.11887113799E+03  0.12878556220E+03  0.00000000000E+00 0.  1.
<mgrwt>
<rscale>  0 0.11679751E+03</rscale>
<asrwt>0</asrwt>
<pdfrwt beam="1">  1        2 0.28046053E+00 0.12560158E+03</pdfrwt>
<pdfrwt beam="2">  1       -2 0.23219860E-02 0.12560158E+03</pdfrwt>
<totfact> 0.56352834E+03</totfact>
</mgrwt>
</event>
<event>
 6    1  0.5258538E-006  0.1343367E+03  0.7546771E-02  0.1233779E+00
         -3   -1    0    0    0  501 -0.00000000000E+00  0.00000000000E+00  0.43220881096E+02  0.43220881096E+02  0.00000000000E+00 0.  1.
          3   -1    0    0  501    0  0.00000000000E+00 -0.00000000000E+00 -0.39379863832E+03  0.39379863832E+03  0.00000000000E+00 0. -1.
          5    1    1    2  502    0 -0.59365906463E+02 -0.71007776931E+01 -0.47192208810E+02  0.76314654336E+02  0.47000000000E+01 0.  1.
         -5    1    1    2    0  502  0.15711477813E+02 -0.15622532240E+02 -0.23643841459E+03  0.23752079476E+03  0.47000000000E+01 0.  1.
        -11    1    1    2    0    0  0.61532406198E+02  0.30306135216E+02 -0.18578122027E+02  0.71062264686E+02  0.00000000000E+00 0.  1.
         11    1    1    2    0    0 -0.17877977548E+02 -0.75828252832E+01 -0.48369011790E+02  0.52121805629E+02  0.00000000000E+00 0. -1.
<mgrwt>
<rscale>  0 0.12582892E+03</rscale>
<asrwt>0</asrwt>
<pdfrwt beam="2">  1        3 0.60584406E-01 0.13433674E+03</pdfrwt>
<pdfrwt beam="1">  1       -3 0.66493663E-02 0.13433674E+03</pdfrwt>
<totfact> 0.89731797E+02</totfact>
</mgrwt>
</event>
<event>
 6    1  0.5258538E-006  0.1360684E+03  0.7546771E-02  0.1229065E+00
         -2   -1    0    0    0  501 -0.00000000000E+00  0.00000000000E+00  0.23488410791E+03  0.23488410791E+03  0.00000000000E+00 0.  1.
          2   -1    0    0  501    0  0.00000000000E+00 -0.00000000000E+00 -0.65727617399E+02  0.65727617399E+02  0.00000000000E+00 0. -1.
          5    1    1    2  502    0  0.24112645940E+02  0.44869897210E+02 -0.43675907274E+01  0.51340950698E+02  0.47000000000E+01 0.  1.
         -5    1    1    2    0  502 -0.67445501423E+02 -0.13065046676E+02  0.75546861647E+02  0.10222039626E+03  0.47000000000E+01 0.  1.
        -11    1    1    2    0    0  0.29776333223E+02  0.30198123872E+02  0.21127143916E+02  0.47380511981E+02  0.00000000000E+00 0.  1.
         11    1    1    2    0    0  0.13556522260E+02 -0.62002974406E+02  0.76850075677E+02  0.99669866372E+02  0.00000000000E+00 0. -1.
<mgrwt>
<rscale>  0 0.12892147E+03</rscale>
<asrwt>0</asrwt>
<pdfrwt beam="2">  1        2 0.10111941E-01 0.13606836E+03</pdfrwt>
<pdfrwt beam="1">  1       -2 0.36136016E-01 0.13606836E+03</pdfrwt>
<totfact> 0.43582923E+03</totfact>
</mgrwt>
</event>
<event>
 6    1  0.5258538E-006  0.3435989E+03  0.7546771E-02  0.1080560E+00
         -2   -1    0    0    0  501 -0.00000000000E+00  0.00000000000E+00  0.64044953759E+02  0.64044953759E+02  0.00000000000E+00 0.  1.
          2   -1    0    0  501    0  0.00000000000E+00 -0.00000000000E+00 -0.13816006241E+04  0.13816006241E+04  0.00000000000E+00 0. -1.
          5    1    1    2  502    0  0.19028811892E+03  0.79988393763E+02 -0.71979765680E+03  0.74882472454E+03  0.47000000000E+01 0. -1.
         -5    1    1    2    0  502 -0.90471302415E+02  0.90311262986E+02 -0.26651705996E+03  0.29562580068E+03  0.47000000000E+01 0.  1.
        -11    1    1    2    0    0 -0.35417924649E+01 -0.10736451163E+03 -0.19727096968E+03  0.22462305788E+03  0.00000000000E+00 0.  1.
         11    1    1    2    0    0 -0.96275024038E+02 -0.62935145114E+02 -0.13396998388E+03  0.17657199473E+03  0.00000000000E+00 0. -1.
<mgrwt>
<rscale>  0 0.30955416E+03</rscale>
<asrwt>0</asrwt>
<pdfrwt beam="2">  1        2 0.21255391E+00 0.34359886E+03</pdfrwt>
<pdfrwt beam="1">  1       -2 0.98530712E-02 0.34359886E+03</pdfrwt>
<totfact> 0.10717391E+03</totfact>
</mgrwt>
</event>
<event>
 6    1  0.5258538E-006  0.1253008E+03  0.7546771E-02  0.1286577E+00
         -1   -1    0    0    0  501 -0.00000000000E+00  0.00000000000E+00  0.42455271475E+03  0.42455271475E+03  0.00000000000E+00 0.  1.
          1   -1    0    0  501    0  0.00000000000E+00 -0.00000000000E+00 -0.20424037770E+02  0.20424037770E+02  0.00000000000E+00 0. -1.
          5    1    1    2  502    0  0.59245360370E+02 -0.59312451017E+02  0.14351955244E+03  0.16627667156E+03  0.47000000000E+01 0. -1.
         -5    1    1    2    0  502 -0.27979962443E+02  0.29516277147E+02  0.57190533763E+02  0.70334458603E+02  0.47000000000E+01 0.  1.
        -11    1    1    2    0    0 -0.27832659025E+02  0.19638113798E+02  0.14284034882E+03  0.14684576151E+03  0.00000000000E+00 0.  1.
         11    1    1    2    0    0 -0.34327389019E+01  0.10158060071E+02  0.60578241948E+02  0.61519860844E+02  0.00000000000E+00 0. -1.
<mgrwt>
<rscale>  0 0.97071593E+02</rscale>
<asrwt>0</asrwt>
<pdfrwt beam="2">  1        1 0.31421600E-02 0.12530079E+03</pdfrwt>
<pdfrwt beam="1">  1       -1 0.65315796E-01 0.12530079E+03</pdfrwt>
<totfact> 0.73956772E+03</totfact>
</mgrwt>
</event>
<event>
 6    1  0.5258538E-006  0.1261668E+03  0.7546771E-02  0.1248629E+00
         -1   -1    0    0    0  501 -0.00000000000E+00  0.00000000000E+00  0.72457845256E+02  0.72457845256E+02  0.00000000000E+00 0.  1.
          1   -1    0    0  501    0  0.00000000000E+00 -0.00000000000E+00 -0.16591965770E+03  0.16591965770E+03  0.00000000000E+00 0. -1.
          5    1    1    2  502    0 -0.36516388765E+02  0.26622339615E+02  0.18285531061E+02  0.48975976368E+02  0.47000000000E+01 0. -1.
         -5    1    1    2    0  502  0.41114354826E+02 -0.10130053508E+02 -0.81905883051E+02  0.92323733867E+02  0.47000000000E+01 0. -1.
        -11    1    1    2    0    0  0.21769296493E+01 -0.28905547407E+02  0.26325797917E+02  0.39157596065E+02  0.00000000000E+00 0.  1.
         11    1    1    2    0    0 -0.67748957102E+01  0.12413261300E+02 -0.56167258369E+02  0.57920196656E+02  0.00000000000E+00 0. -1.
<mgrwt>
<rscale>  0 0.11670789E+03</rscale>
<asrwt>0</asrwt>
<pdfrwt beam="2">  1        1 0.25526101E-01 0.12616679E+03</pdfrwt>
<pdfrwt beam="1">  1       -1 0.11147361E-01 0.12616679E+03</pdfrwt>
<totfact> 0.89883538E+03</totfact>
</mgrwt>
</event>
<event>
 6    1  0.5258538E-006  0.1291557E+03  0.7546771E-02  0.1249276E+00
          4   -1    0    0  501    0  0.00000000000E+00  0.00000000000E+00  0.48148744074E+02  0.48148744074E+02  0.00000000000E+00 0. -1.
         -4   -1    0    0    0  501 -0.00000000000E+00 -0.00000000000E+00 -0.27744024262E+03  0.27744024262E+03  0.00000000000E+00 0.  1.
          5    1    1    2  502    0 -0.45966572674E+02 -0.38835974138E+02 -0.66830467854E+02  0.90053096139E+02  0.47000000000E+01 0.  1.
         -5    1    1    2    0  502  0.18105291000E+02  0.55593679759E+02 -0.79584119277E+01  0.59193623911E+02  0.47000000000E+01 0.  1.
        -11    1    1    2    0    0  0.53229658838E+02 -0.15203003339E+02 -0.77404859467E+02  0.95163229032E+02  0.00000000000E+00 0. -1.
         11    1    1    2    0    0 -0.25368377164E+02 -0.15547022823E+01 -0.77097759298E+02  0.81179037614E+02  0.00000000000E+00 0.  1.
<mgrwt>
<rscale>  0 0.11633062E+03</rscale>
<asrwt>0</asrwt>
<pdfrwt beam="1">  1        4 0.74074992E-02 0.12915575E+03</pdfrwt>
<pdfrwt beam="2">  1       -4 0.42683114E-01 0.12915575E+03</pdfrwt>
<totfact> 0.10954536E+03</totfact>
</mgrwt>
</event>
<event>
 6    1  0.5258538E-006  0.1667809E+03  0.7546771E-02  0.1188050E+00
         -2   -1    0    0    0  501 -0.00000000000E+00  0.00000000000E+00  0.41742524957E+03  0.41742524957E+03  0.00000000000E+00 0.  1.
          2   -1    0    0  501    0  0.00000000000E+00 -0.00000000000E+00 -0.58755907908E+02  0.58755907908E+02  0.00000000000E+00 0. -1.
          5    1    1    2  502    0  0.35767446808E+02 -0.55485292691E+02  0.26009767108E+02  0.71109253555E+02  0.47000000000E+01 0. -1.
         -5    1    1    2    0  502 -0.31167570983E+02 -0.54821037297E+02  0.20011116202E+03  0.20986502990E+03  0.47000000000E+01 0. -1.
        -11    1    1    2    0    0  0.13943937278E+02  0.71885700905E+02  0.13380004857E+03  0.15252685133E+03  0.00000000000E+00 0.  1.
         11    1    1    2    0    0 -0.18543813103E+02  0.38420629082E+02 -0.12516360345E+01  0.42680022683E+02  0.00000000000E+00 0. -1.
<mgrwt>
<rscale>  0 0.16057426E+03</rscale>
<asrwt>0</asrwt>
<pdfrwt beam="2">  1        2 0.90393707E-02 0.16678091E+03</pdfrwt>
<pdfrwt beam="1">  1       -2 0.64219267E-01 0.16678091E+03</pdfrwt>
<totfact> 0.16320141E+03</totfact>
</mgrwt>
</event>
<event>
 6    1  0.5258538E-006  0.1256523E+03  0.7546771E-02  0.1249521E+00
         -2   -1    0    0    0  501 -0.00000000000E+00  0.00000000000E+00  0.29850721814E+02  0.29850721814E+02  0.00000000000E+00 0.  1.
          2   -1    0    0  501    0  0.00000000000E+00 -0.00000000000E+00 -0.61580758599E+03  0.61580758599E+03  0.00000000000E+00 0. -1.
          5    1    1    2  502    0  0.38965420143E+02  0.22256605555E+02 -0.47527355261E+03  0.47741041073E+03  0.47000000000E+01 0. -1.
         -5    1    1    2    0  502 -0.26178646504E+02 -0.21388278906E+02 -0.38254314052E+02  0.51266583180E+02  0.47000000000E+01 0. -1.
        -11    1    1    2    0    0  0.23480129665E+02 -0.29908063717E+02 -0.10286125488E+02  0.39390520965E+02  0.00000000000E+00 0.  1.
         11    1    1    2    0    0 -0.36266903305E+02  0.29039737068E+02 -0.62142872019E+02  0.77590792927E+02  0.00000000000E+00 0. -1.
<mgrwt>
<rscale>  0 0.11618819E+03</rscale>
<asrwt>0</asrwt>
<pdfrwt beam="2">  1        2 0.94739616E-01 0.12565227E+03</pdfrwt>
<pdfrwt beam="1">  1       -2 0.45924194E-02 0.12565227E+03</pdfrwt>
<totfact> 0.10360212E+04</totfact>
</mgrwt>
</event>
<event>
 6    1  0.5258538E-006  0.1930744E+03  0.7546771E-02  0.1160519E+00
         -2   -1    0    0    0  501 -0.00000000000E+00  0.00000000000E+00  0.77910249762E+02  0.77910249762E+02  0.00000000000E+00 0. -1.
          2   -1    0    0  501    0  0.00000000000E+00 -0.00000000000E+00 -0.53957432885E+03  0.53957432885E+03  0.00000000000E+00 0.  1.
          5    1    1    2  502    0  0.73735053979E+02  0.99659360243E+01 -0.13204860473E+03  0.15164136005E+03  0.47000000000E+01 0.  1.
         -5    1    1    2    0  502 -0.88286690077E+00  0.11787964901E+03 -0.24862002266E+03  0.27519156377E+03  0.47000000000E+01 0.  1.
        -11    1    1    2    0    0  0.17636605881E+02 -0.35324483230E+02 -0.36588698590E+02  0.53829377174E+02  0.00000000000E+00 0.  1.
         11    1    1    2    0    0 -0.90488792959E+02 -0.92521101800E+02 -0.44406753100E+02  0.13682227761E+03  0.00000000000E+00 0. -1.
<mgrwt>
<rscale>  0 0.18773635E+03</rscale>
<asrwt>0</asrwt>
<pdfrwt beam="2">  1        2 0.83011434E-01 0.19307444E+03</pdfrwt>
<pdfrwt beam="1">  1       -2 0.11986192E-01 0.19307444E+03</pdfrwt>
<totfact> 0.27922828E+03</totfact>
</mgrwt>
</event>
<event>
 6    1  0.5258538E-006  0.1574958E+03  0.7546771E-02  0.1199666E+00
          2   -1    0    0  501    0  0.00000000000E+00  0.00000000000E+00  0.19523873090E+03  0.19523873090E+03  0.00000000000E+00 0. -1.
         -2   -1    0    0    0  501 -0.00000000000E+00 -0.00000000000E+00 -0.10937796012E+03  0.10937796012E+03  0.00000000000E+00 0.  1.
          5    1    1    2  502    0  0.57503212295E+01  0.42128313159E+02  0.73026013614E+02  0.84633029180E+02  0.47000000000E+01 0. -1.
         -5    1    1    2    0  502  0.38396045392E+02  0.42904343194E+02 -0.47662184984E+02  0.74892007879E+02  0.47000000000E+01 0. -1.
        -11    1    1    2    0    0 -0.45360631327E+02 -0.51147809986E+02 -0.78330189309E+01  0.68811638015E+02  0.00000000000E+00 0.  1.
         11    1    1    2    0    0  0.12142647050E+01 -0.33884846367E+02  0.68329961077E+02  0.76280015946E+02  0.00000000000E+00 0. -1.
<mgrwt>
<rscale>  0 0.15065877E+03</rscale>
<asrwt>0</asrwt>
<pdfrwt beam="1">  1        2 0.30036728E-01 0.15749576E+03</pdfrwt>
<pdfrwt beam="2">  1       -2 0.16827378E-01 0.15749576E+03</pdfrwt>
<totfact> 0.47725912E+03</totfact>
</mgrwt>
</event>
<event>
 6    1  0.5258538E-006  0.1692503E+03  0.7546771E-02  0.1185375E+00
          1   -1    0    0  501    0  0.00000000000E+00  0.00000000000E+00  0.11655903070E+03  0.11655903070E+03  0.00000000000E+00 0. -1.
         -1   -1    0    0    0  501 -0.00000000000E+00 -0.00000000000E+00 -0.21365998822E+03  0.21365998822E+03  0.00000000000E+00 0.  1.
          5    1    1    2  502    0  0.77196317886E+02  0.56033367735E+02 -0.99745623736E+02  0.13809521805E+03  0.47000000000E+01 0.  1.
         -5    1    1    2    0  502  0.49624710415E+01  0.23160146165E+02  0.35503417961E+02  0.42937177087E+02  0.47000000000E+01 0.  1.
        -11    1    1    2    0    0 -0.52842743407E+02 -0.96196905040E+02 -0.35076432283E+02  0.11522393923E+03  0.00000000000E+00 0. -1.
         11    1    1    2    0    0 -0.29316045521E+02  0.17003391140E+02  0.22176805357E+01  0.33962684556E+02  0.00000000000E+00 0.  1.
<mgrwt>
<rscale>  0 0.16297839E+03</rscale>
<asrwt>0</asrwt>
<pdfrwt beam="1">  1        1 0.17932159E-01 0.16925031E+03</pdfrwt>
<pdfrwt beam="2">  1       -1 0.32870767E-01 0.16925031E+03</pdfrwt>
<totfact> 0.25149990E+03</totfact>
</mgrwt>
</event>
<event>
 6    1  0.5258538E-006  0.1681283E+03  0.7546771E-02  0.1187241E+00
         -2   -1    0    0    0  501 -0.00000000000E+00  0.00000000000E+00  0.87463180996E+02  0.87463180996E+02  0.00000000000E+00 0.  1.
          2   -1    0    0  501    0  0.00000000000E+00 -0.00000000000E+00 -0.75934891975E+03  0.75934891975E+03  0.00000000000E+00 0. -1.
          5    1    1    2  502    0  0.10228586248E+02  0.30389956526E+02 -0.44880826335E+02  0.55358395992E+02  0.47000000000E+01 0.  1.
         -5    1    1    2    0  502  0.10013484239E+03 -0.51854687066E+02 -0.63866164957E+03  0.64855738980E+03  0.47000000000E+01 0.  1.
        -11    1    1    2    0    0 -0.10864265730E+03  0.31456481175E+02  0.34212901790E+02  0.11816623816E+03  0.00000000000E+00 0.  1.
         11    1    1    2    0    0 -0.17207713409E+01 -0.99917506362E+01 -0.22556164642E+02  0.24730076792E+02  0.00000000000E+00 0. -1.
<mgrwt>
<rscale>  0 0.16129592E+03</rscale>
<asrwt>0</asrwt>
<pdfrwt beam="2">  1        2 0.11682291E+00 0.16812828E+03</pdfrwt>
<pdfrwt beam="1">  1       -2 0.13455874E-01 0.16812828E+03</pdfrwt>
<totfact> 0.15468154E+03</totfact>
</mgrwt>
</event>
<event>
 6    1  0.5258538E-006  0.1514112E+03  0.7546771E-02  0.1207981E+00
         -1   -1    0    0    0  501 -0.00000000000E+00  0.00000000000E+00  0.28781831990E+02  0.28781831990E+02  0.00000000000E+00 0.  1.
          1   -1    0    0  501    0  0.00000000000E+00 -0.00000000000E+00 -0.75013496348E+03  0.75013496348E+03  0.00000000000E+00 0. -1.
          5    1    1    2  502    0 -0.31929713234E+02  0.55587386387E+02 -0.95499901811E+02  0.11511639917E+03  0.47000000000E+01 0. -1.
         -5    1    1    2    0  502 -0.37531216199E+02 -0.58133662616E+01 -0.43176996652E+03  0.43346254903E+03  0.47000000000E+01 0. -1.
        -11    1    1    2    0    0  0.56109846925E+02 -0.67631660863E+02 -0.97688006173E+02  0.13139750006E+03  0.00000000000E+00 0.  1.
         11    1    1    2    0    0  0.13351082508E+02  0.17857640738E+02 -0.96395256983E+02  0.98940347208E+02  0.00000000000E+00 0. -1.
<mgrwt>
<rscale>  0 0.14405007E+03</rscale>
<asrwt>0</asrwt>
<pdfrwt beam="2">  1        1 0.11540538E+00 0.15141119E+03</pdfrwt>
<pdfrwt beam="1">  1       -1 0.44279742E-02 0.15141119E+03</pdfrwt>
<totfact> 0.52357236E+03</totfact>
</mgrwt>
</event>
<event>
 6    1  0.5258538E-006  0.1293864E+03  0.7546771E-02  0.1242342E+00
          1   -1    0    0  501    0  0.00000000000E+00  0.00000000000E+00  0.13697909126E+03  0.13697909126E+03  0.00000000000E+00 0. -1.
         -1   -1    0    0    0  501 -0.00000000000E+00 -0.00000000000E+00 -0.98019275180E+02  0.98019275180E+02  0.00000000000E+00 0.  1.
          5    1    1    2  502    0  0.24436752140E+02 -0.50623586380E+02 -0.21067494769E+02  0.60214879299E+02  0.47000000000E+01 0.  1.
         -5    1    1    2    0  502  0.59407245111E+01  0.36688445304E+02  0.67596685745E+02  0.77283479155E+02  0.47000000000E+01 0.  1.
        -11    1    1    2    0    0 -0.10088513311E+02 -0.39016579021E+02 -0.63733264452E-01  0.40299821355E+02  0.00000000000E+00 0.  1.
         11    1    1    2    0    0 -0.20288963341E+02  0.52951720097E+02 -0.75056416298E+01  0.57200186633E+02  0.00000000000E+00 0. -1.
<mgrwt>
<rscale>  0 0.12045903E+03</rscale>
<asrwt>0</asrwt>
<pdfrwt beam="1">  1        1 0.21073706E-01 0.12938637E+03</pdfrwt>
<pdfrwt beam="2">  1       -1 0.15079889E-01 0.12938637E+03</pdfrwt>
<totfact> 0.71781700E+03</totfact>
</mgrwt>
</event>
<event>
 6    1  0.5258538E-006  0.3076131E+03  0.7546771E-02  0.1081496E+00
          1   -1    0    0  501    0  0.00000000000E+00  0.00000000000E+00  0.78506238193E+02  0.78506238193E+02  0.00000000000E+00 0. -1.
         -1   -1    0    0    0  501 -0.00000000000E+00 -0.00000000000E+00 -0.30133216144E+03  0.30133216144E+03  0.00000000000E+00 0.  1.
          5    1    1    2  502    0 -0.10923640451E+03 -0.18579786316E+02 -0.51282058338E+02  0.12218731537E+03  0.47000000000E+01 0. -1.
         -5    1    1    2    0  502  0.11583649537E+01  0.46050166381E+02 -0.21718494181E+02  0.51144331285E+02  0.47000000000E+01 0.  1.
        -11    1    1    2    0    0  0.59691510088E+02  0.29005869771E+02 -0.85077894528E+02  0.10790118162E+03  0.00000000000E+00 0.  1.
         11    1    1    2    0    0  0.48386529466E+02 -0.56476249836E+02 -0.64747476202E+02  0.98605571363E+02  0.00000000000E+00 0. -1.
<mgrwt>
<rscale>  0 0.30761310E+03</rscale>
<asrwt>0</asrwt>
<pdfrwt beam="1">  1        1 0.12077883E-01 0.30761310E+03</pdfrwt>
<pdfrwt beam="2">  1       -1 0.46358795E-01 0.30761310E+03</pdfrwt>
<totfact> 0.23511548E+03</totfact>
</mgrwt>
</event>
<event>
 6    1  0.5258538E-006  0.1533413E+03  0.7546771E-02  0.1205363E+00
         -1   -1    0    0    0  501 -0.00000000000E+00  0.00000000000E+00  0.39290271960E+03  0.39290271960E+03  0.00000000000E+00 0.  1.
          1   -1    0    0  501    0  0.00000000000E+00 -0.00000000000E+00 -0.49774868394E+02  0.49774868394E+02  0.00000000000E+00 0. -1.
          5    1    1    2  502    0  0.49623896558E+02  0.96340782994E+01  0.91823321434E+00  0.50776763647E+02  0.47000000000E+01 0.  1.
         -5    1    1    2    0  502  0.34483153967E+02  0.18860893555E+02  0.19008885259E+03  0.19416663743E+03  0.47000000000E+01 0.  1.
        -11    1    1    2    0    0 -0.51932100941E+01 -0.28717463453E+02  0.34092632627E+01  0.29381715645E+02  0.00000000000E+00 0. -1.
         11    1    1    2    0    0 -0.78913840431E+02  0.22249159876E+00  0.14871150214E+03  0.16835247127E+03  0.00000000000E+00 0.  1.
<mgrwt>
<rscale>  0 0.14608883E+03</rscale>
<asrwt>0</asrwt>
<pdfrwt beam="2">  1        1 0.76576723E-02 0.15334133E+03</pdfrwt>
<pdfrwt beam="1">  1       -1 0.60446570E-01 0.15334133E+03</pdfrwt>
<totfact> 0.25729671E+03</totfact>
</mgrwt>
</event>
<event>
 6    1  0.5258538E-006  0.2471513E+03  0.7546771E-02  0.1115118E+00
          1   -1    0    0  501    0  0.00000000000E+00  0.00000000000E+00  0.13972184734E+04  0.13972184734E+04  0.00000000000E+00 0. -1.
         -1   -1    0    0    0  501 -0.00000000000E+00 -0.00000000000E+00 -0.10929526838E+02  0.10929526838E+02  0.00000000000E+00 0.  1.
          5    1    1    2  502    0 -0.33044057389E+02 -0.11965641267E+02  0.19148927218E+03  0.19474423653E+03  0.47000000000E+01 0. -1.
         -5    1    1    2    0  502  0.74133417340E+02  0.14609990558E+02  0.87688788845E+03  0.88014980220E+03  0.47000000000E+01 0.  1.
        -11    1    1    2    0    0 -0.28083279002E+02 -0.40724225726E+02  0.98963581642E+02  0.11063870757E+03  0.00000000000E+00 0. -1.
         11    1    1    2    0    0 -0.13006080949E+02  0.38079876435E+02  0.21894820426E+03  0.22261525392E+03  0.00000000000E+00 0.  1.
<mgrwt>
<rscale>  0 0.24715126E+03</rscale>
<asrwt>0</asrwt>
<pdfrwt beam="1">  1        1 0.21495655E+00 0.24715126E+03</pdfrwt>
<pdfrwt beam="2">  1       -1 0.16814668E-02 0.24715126E+03</pdfrwt>
<totfact> 0.73879864E+03</totfact>
</mgrwt>
</event>
<event>
 6    1  0.5258538E-006  0.1225035E+03  0.7546771E-02  0.1247811E+00
         -1   -1    0    0    0  501 -0.00000000000E+00  0.00000000000E+00  0.15934512323E+03  0.15934512323E+03  0.00000000000E+00 0.  1.
          1   -1    0    0  501    0  0.00000000000E+00 -0.00000000000E+00 -0.16271704044E+03  0.16271704044E+03  0.00000000000E+00 0. -1.
          5    1    1    2  502    0  0.37068886231E+02  0.22986715578E+02 -0.70085959745E+02  0.82683874927E+02  0.47000000000E+01 0. -1.
         -5    1    1    2    0  502 -0.70859071247E+02  0.16367190592E+02 -0.46620114680E+02  0.86512530876E+02  0.47000000000E+01 0.  1.
        -11    1    1    2    0    0  0.28537547616E+02  0.70747512650E+01 -0.93128154518E+00  0.29416169273E+02  0.00000000000E+00 0. -1.
         11    1    1    2    0    0  0.52526373998E+01 -0.46428657435E+02  0.11426543876E+03  0.12344958860E+03  0.00000000000E+00 0.  1.
<mgrwt>
<rscale>  0 0.11718729E+03</rscale>
<asrwt>0</asrwt>
<pdfrwt beam="2">  1        1 0.25033391E-01 0.12250353E+03</pdfrwt>
<pdfrwt beam="1">  1       -1 0.24514634E-01 0.12250353E+03</pdfrwt>
<totfact> 0.26504220E+03</totfact>
</mgrwt>
</event>
<event>
 6    1  0.5258538E-006  0.1365754E+03  0.7546771E-02  0.1224964E+00
          1   -1    0    0  501    0  0.00000000000E+00  0.00000000000E+00  0.36334232905E+03  0.36334232905E+03  0.00000000000E+00 0. -1.
         -1   -1    0    0    0  501 -0.00000000000E+00 -0.00000000000E+00 -0.45214766542E+02  0.45214766542E+02  0.00000000000E+00 0.  1.
          5    1    1    2  502    0  0.55977855451E+02 -0.64820731591E+02  0.12385840392E+03  0.15065935672E+03  0.47000000000E+01 0. -1.
         -5    1    1    2    0  502  0.12784958287E+02  0.42183612527E+02  0.23183040570E+02  0.50024550915E+02  0.47000000000E+01 0.  1.
        -11    1    1    2    0    0  0.14143330603E+02  0.30205865184E+02  0.35037139826E+02  0.48373848920E+02  0.00000000000E+00 0.  1.
         11    1    1    2    0    0 -0.82906144341E+02 -0.75687461204E+01  0.13604897819E+03  0.15949933904E+03  0.00000000000E+00 0. -1.
<mgrwt>
<rscale>  0 0.13169381E+03</rscale>
<asrwt>0</asrwt>
<pdfrwt beam="1">  1        1 0.55898818E-01 0.13657542E+03</pdfrwt>
<pdfrwt beam="2">  1       -1 0.69561182E-02 0.13657542E+03</pdfrwt>
<totfact> 0.69861413E+03</totfact>
</mgrwt>
</event>
<event>
 6    1  0.5258538E-006  0.1414813E+03  0.7546771E-02  0.1221451E+00
         -4   -1    0    0    0  501 -0.00000000000E+00  0.00000000000E+00  0.76188588322E+02  0.76188588322E+02  0.00000000000E+00 0.  1.
          4   -1    0    0  501    0  0.00000000000E+00 -0.00000000000E+00 -0.24724325588E+03  0.24724325588E+03  0.00000000000E+00 0. -1.
          5    1    1    2  502    0  0.37276762431E+02  0.72775270571E+02 -0.66974341992E+02  0.10579909976E+03  0.47000000000E+01 0. -1.
         -5    1    1    2    0  502  0.24957528690E+02 -0.50040050899E+02 -0.84856079812E+02  0.10173263593E+03  0.47000000000E+01 0. -1.
        -11    1    1    2    0    0 -0.22379721942E+02 -0.15087058543E+01  0.37317826522E+02  0.43540192052E+02  0.00000000000E+00 0.  1.
         11    1    1    2    0    0 -0.39854569179E+02 -0.21226513818E+02 -0.56542072278E+02  0.72359916465E+02  0.00000000000E+00 0. -1.
<mgrwt>
<rscale>  0 0.13413145E+03</rscale>
<asrwt>0</asrwt>
<pdfrwt beam="2">  1        4 0.38037423E-01 0.14148125E+03</pdfrwt>
<pdfrwt beam="1">  1       -4 0.11721321E-01 0.14148125E+03</pdfrwt>
<totfact> 0.64900872E+02</totfact>
</mgrwt>
</event>
<event>
 6    1  0.5258538E-006  0.1456586E+03  0.7546771E-02  0.1215439E+00
          2   -1    0    0  501    0  0.00000000000E+00  0.00000000000E+00  0.61338309382E+03  0.61338309382E+03  0.00000000000E+00 0. -1.
         -2   -1    0    0    0  501 -0.00000000000E+00 -0.00000000000E+00 -0.28524643813E+02  0.28524643813E+02  0.00000000000E+00 0.  1.
          5    1    1    2  502    0 -0.68480137089E+02  0.27731395164E+02  0.15263225521E+03  0.16963860051E+03  0.47000000000E+01 0.  1.
         -5    1    1    2    0  502  0.72798151417E+01 -0.70690616745E+02  0.17302316766E+03  0.18710763093E+03  0.47000000000E+01 0.  1.
        -11    1    1    2    0    0  0.46128308959E+02  0.20078000028E+01  0.22507974246E+03  0.22976671346E+03  0.00000000000E+00 0. -1.
         11    1    1    2    0    0  0.15072012988E+02  0.40951421578E+02  0.34123284677E+02  0.55394792733E+02  0.00000000000E+00 0.  1.
<mgrwt>
<rscale>  0 0.13844369E+03</rscale>
<asrwt>0</asrwt>
<pdfrwt beam="1">  1        2 0.94366620E-01 0.14565857E+03</pdfrwt>
<pdfrwt beam="2">  1       -2 0.43884072E-02 0.14565857E+03</pdfrwt>
<totfact> 0.11249705E+04</totfact>
</mgrwt>
</event>
<event>
 6    1  0.5258538E-006  0.1442172E+03  0.7546771E-02  0.1218726E+00
         -1   -1    0    0    0  501 -0.00000000000E+00  0.00000000000E+00  0.28824159734E+02  0.28824159734E+02  0.00000000000E+00 0.  1.
          1   -1    0    0  501    0  0.00000000000E+00 -0.00000000000E+00 -0.69208860184E+03  0.69208860184E+03  0.00000000000E+00 0. -1.
          5    1    1    2  502    0 -0.11096417454E+02 -0.95379524541E+02 -0.29953503248E+03  0.31458498036E+03  0.47000000000E+01 0.  1.
         -5    1    1    2    0  502 -0.28830271857E+02  0.35559852065E+02 -0.20883907205E+03  0.21384932936E+03  0.47000000000E+01 0.  1.
        -11    1    1    2    0    0  0.25516189859E+02  0.77421878898E+02 -0.14755659954E+03  0.16857690632E+03  0.00000000000E+00 0. -1.
         11    1    1    2    0    0  0.14410499452E+02 -0.17602206422E+02 -0.73337380348E+01  0.23901545535E+02  0.00000000000E+00 0.  1.
<mgrwt>
<rscale>  0 0.13606389E+03</rscale>
<asrwt>0</asrwt>
<pdfrwt beam="2">  1        1 0.10647516E+00 0.14421716E+03</pdfrwt>
<pdfrwt beam="1">  1       -1 0.44344865E-02 0.14421716E+03</pdfrwt>
<totfact> 0.58576030E+03</totfact>
</mgrwt>
</event>
<event>
 6    1  0.5258538E-006  0.1259049E+03  0.7546771E-02  0.1249581E+00
         -1   -1    0    0    0  501 -0.00000000000E+00  0.00000000000E+00  0.27909757127E+02  0.27909757127E+02  0.00000000000E+00 0.  1.
          1   -1    0    0  501    0  0.00000000000E+00 -0.00000000000E+00 -0.43245568473E+03  0.43245568473E+03  0.00000000000E+00 0. -1.
          5    1    1    2  502    0  0.19629042502E+01 -0.23022322536E+02 -0.26517669261E+03  0.26622293033E+03  0.47000000000E+01 0.  1.
         -5    1    1    2    0  502  0.12477271728E+02  0.27331121754E+02 -0.36515830330E+01  0.30628362424E+02  0.47000000000E+01 0.  1.
        -11    1    1    2    0    0 -0.49437823898E+02  0.96369571692E+01 -0.55854374304E+02  0.75210906816E+02  0.00000000000E+00 0. -1.
         11    1    1    2    0    0  0.34997647920E+02 -0.13945756387E+02 -0.79863277659E+02  0.88303242293E+02  0.00000000000E+00 0.  1.
<mgrwt>
<rscale>  0 0.11615335E+03</rscale>
<asrwt>0</asrwt>
<pdfrwt beam="2">  1        1 0.66531640E-01 0.12590492E+03</pdfrwt>
<pdfrwt beam="1">  1       -1 0.42938090E-02 0.12590492E+03</pdfrwt>
<totfact> 0.11410487E+04</totfact>
</mgrwt>
</event>
<event>
 6    1  0.5258538E-006  0.1276306E+03  0.7546771E-02  0.1246538E+00
          2   -1    0    0  501    0  0.00000000000E+00  0.00000000000E+00  0.51327027606E+03  0.51327027606E+03  0.00000000000E+00 0. -1.
         -2   -1    0    0    0  501 -0.00000000000E+00 -0.00000000000E+00 -0.26256537953E+02  0.26256537953E+02  0.00000000000E+00 0.  1.
          5    1    1    2  502    0 -0.40541909666E+02 -0.64839881558E+02  0.21588331432E+03  0.22907542880E+03  0.47000000000E+01 0. -1.
         -5    1    1    2    0  502  0.28410422776E+02  0.42109319236E+02  0.14496603417E+03  0.15368014821E+03  0.47000000000E+01 0. -1.
        -11    1    1    2    0    0  0.15134816765E+02  0.55788419251E+02  0.95210117299E+02  0.11138391642E+03  0.00000000000E+00 0. -1.
         11    1    1    2    0    0 -0.30033298747E+01 -0.33057856930E+02  0.30954272315E+02  0.45387320582E+02  0.00000000000E+00 0.  1.
<mgrwt>
<rscale>  0 0.11793820E+03</rscale>
<asrwt>0</asrwt>
<pdfrwt beam="1">  1        2 0.78964650E-01 0.12763064E+03</pdfrwt>
<pdfrwt beam="2">  1       -2 0.40394678E-02 0.12763064E+03</pdfrwt>
<totfact> 0.15393284E+04</totfact>
</mgrwt>
</event>
<event>
 6    1  0.5258538E-006  0.1314540E+03  0.7546771E-02  0.1238783E+00
         -2   -1    0    0    0  501 -0.00000000000E+00  0.00000000000E+00  0.72194220903E+02  0.72194220903E+02  0.00000000000E+00 0.  1.
          2   -1    0    0  501    0  0.00000000000E+00 -0.00000000000E+00 -0.25907862721E+03  0.25907862721E+03  0.00000000000E+00 0. -1.
          5    1    1    2  502    0 -0.66929467708E+02  0.27329847602E+02 -0.62273319780E+02  0.95532876928E+02  0.47000000000E+01 0.  1.
         -5    1    1    2    0  502  0.27096240318E+02 -0.35653558013E+02 -0.12836941662E+03  0.13603741971E+03  0.47000000000E+01 0.  1.
        -11    1    1    2    0    0  0.41045125753E+02 -0.31474067229E+02  0.21624116225E+02  0.56061766459E+02  0.00000000000E+00 0.  1.
         11    1    1    2    0    0 -0.12118983629E+01  0.39797777640E+02 -0.17865786134E+02  0.43640785017E+02  0.00000000000E+00 0. -1.
<mgrwt>
<rscale>  0 0.12265343E+03</rscale>
<asrwt>0</asrwt>
<pdfrwt beam="2">  1        2 0.39858250E-01 0.13145398E+03</pdfrwt>
<pdfrwt beam="1">  1       -2 0.11106803E-01 0.13145398E+03</pdfrwt>
<totfact> 0.68287806E+03</totfact>
</mgrwt>
</event>
<event>
 6    1  0.5258538E-006  0.3125244E+03  0.7546771E-02  0.1079142E+00
          2   -1    0    0  501    0  0.00000000000E+00  0.00000000000E+00  0.98006689899E+03  0.98006689899E+03  0.00000000000E+00 0. -1.
         -2   -1    0    0    0  501 -0.00000000000E+00 -0.00000000000E+00 -0.24914493976E+02  0.24914493976E+02  0.00000000000E+00 0.  1.
          5    1    1    2  502    0 -0.30119475250E+02  0.16532601189E+02  0.61435422422E+02  0.70547224039E+02  0.47000000000E+01 0.  1.
         -5    1    1    2    0  502 -0.38220087298E+01 -0.11805811854E+03  0.55698092461E+03  0.56938753716E+03  0.47000000000E+01 0.  1.
        -11    1    1    2    0    0  0.47029607124E+02  0.23111306765E+02  0.74921490588E+02  0.91428366487E+02  0.00000000000E+00 0.  1.
         11    1    1    2    0    0 -0.13088123144E+02  0.78414210588E+02  0.26181456740E+03  0.27361826527E+03  0.00000000000E+00 0. -1.
<mgrwt>
<rscale>  0 0.31252437E+03</rscale>
<asrwt>0</asrwt>
<pdfrwt beam="1">  1        2 0.15077949E+00 0.31252437E+03</pdfrwt>
<pdfrwt beam="2">  1       -2 0.38329998E-02 0.31252437E+03</pdfrwt>
<totfact> 0.79346378E+03</totfact>
</mgrwt>
</event>
<event>
 6    1  0.5258538E-006  0.1250329E+03  0.7546771E-02  0.1248434E+00
         -1   -1    0    0    0  501 -0.00000000000E+00  0.00000000000E+00  0.99863173305E+02  0.99863173305E+02  0.00000000000E+00 0.  1.
          1   -1    0    0  501    0  0.00000000000E+00 -0.00000000000E+00 -0.13188918458E+03  0.13188918458E+03  0.00000000000E+00 0. -1.
          5    1    1    2  502    0  0.45493009702E+02 -0.40780014787E+02 -0.58674411981E+01  0.61555994054E+02  0.47000000000E+01 0.  1.
         -5    1    1    2    0  502 -0.41492991084E+02  0.40557470850E+02 -0.44361313162E+02  0.73188748154E+02  0.47000000000E+01 0.  1.
        -11    1    1    2    0    0  0.19353673056E+02  0.34426485369E+00  0.52250148157E+02  0.55720383716E+02  0.00000000000E+00 0.  1.
         11    1    1    2    0    0 -0.23353691675E+02 -0.12172091736E+00 -0.34047405067E+02  0.41287231957E+02  0.00000000000E+00 0. -1.
<mgrwt>
<rscale>  0 0.11682175E+03</rscale>
<asrwt>0</asrwt>
<pdfrwt beam="2">  1        1 0.20290644E-01 0.12503287E+03</pdfrwt>
<pdfrwt beam="1">  1       -1 0.15363565E-01 0.12503287E+03</pdfrwt>
<totfact> 0.72953589E+03</totfact>
</mgrwt>
</event>
<event>
 6    1  0.5258538E-006  0.1681317E+03  0.7546771E-02  0.1204979E+00
          2   -1    0    0  501    0  0.00000000000E+00  0.00000000000E+00  0.60830388712E+03  0.60830388712E+03  0.00000000000E+00 0. -1.
         -2   -1    0    0    0  501 -0.00000000000E+00 -0.00000000000E+00 -0.10023471466E+03  0.10023471466E+03  0.00000000000E+00 0.  1.
          5    1    1    2  502    0 -0.89337017972E+02 -0.65664205391E+01  0.40886320127E+03  0.41858741979E+03  0.47000000000E+01 0. -1.
         -5    1    1    2    0  502  0.63836484283E+02  0.28291932399E+02  0.16079422479E+03  0.17536363047E+03  0.47000000000E+01 0.  1.
        -11    1    1    2    0    0  0.14112523183E+02 -0.90476680516E+01  0.22909848575E+02  0.28388109650E+02  0.00000000000E+00 0. -1.
         11    1    1    2    0    0  0.11388010505E+02 -0.12677843809E+02 -0.84498102180E+02  0.86199441872E+02  0.00000000000E+00 0.  1.
<mgrwt>
<rscale>  0 0.14639095E+03</rscale>
<asrwt>0</asrwt>
<pdfrwt beam="1">  1        2 0.93585211E-01 0.16813170E+03</pdfrwt>
<pdfrwt beam="2">  1       -2 0.15420726E-01 0.16813170E+03</pdfrwt>
<totfact> 0.16110450E+03</totfact>
</mgrwt>
</event>
<event>
 6    1  0.5258538E-006  0.1664901E+03  0.7546771E-02  0.1186170E+00
         -2   -1    0    0    0  501 -0.00000000000E+00  0.00000000000E+00  0.37045475276E+02  0.37045475276E+02  0.00000000000E+00 0. -1.
          2   -1    0    0  501    0  0.00000000000E+00 -0.00000000000E+00 -0.74995422610E+03  0.74995422610E+03  0.00000000000E+00 0.  1.
          5    1    1    2  502    0 -0.27950250461E+02 -0.61228560172E+02 -0.80964613511E+02  0.10539218056E+03  0.47000000000E+01 0.  1.
         -5    1    1    2    0  502 -0.41354389385E+02 -0.24161641520E+02 -0.41477960486E+03  0.41756218824E+03  0.47000000000E+01 0.  1.
        -11    1    1    2    0    0  0.48350393970E+02 -0.10109193740E+02 -0.99299228701E+02  0.11090668698E+03  0.00000000000E+00 0.  1.
         11    1    1    2    0    0  0.20954245876E+02  0.95499395432E+02 -0.11786530376E+03  0.15313864560E+03  0.00000000000E+00 0. -1.
<mgrwt>
<rscale>  0 0.16225849E+03</rscale>
<asrwt>0</asrwt>
<pdfrwt beam="2">  1        2 0.11537757E+00 0.16649007E+03</pdfrwt>
<pdfrwt beam="1">  1       -2 0.56993039E-02 0.16649007E+03</pdfrwt>
<totfact> 0.60256861E+03</totfact>
</mgrwt>
</event>
<event>
 6    1  0.5258538E-006  0.1797093E+03  0.7546771E-02  0.1173852E+00
          4   -1    0    0  501    0  0.00000000000E+00  0.00000000000E+00  0.32389471083E+02  0.32389471083E+02  0.00000000000E+00 0.  1.
         -4   -1    0    0    0  501 -0.00000000000E+00 -0.00000000000E+00 -0.89410136027E+03  0.89410136027E+03  0.00000000000E+00 0. -1.
          5    1    1    2  502    0 -0.41161831388E+02  0.78190198929E+02 -0.38554353176E+03  0.39556783041E+03  0.47000000000E+01 0.  1.
         -5    1    1    2    0  502 -0.73815236925E+02 -0.19444424000E+02 -0.13545420780E+03  0.15555290817E+03  0.47000000000E+01 0.  1.
        -11    1    1    2    0    0  0.26582888521E+02 -0.60251803103E+02 -0.10882306038E+03  0.12719822408E+03  0.00000000000E+00 0. -1.
         11    1    1    2    0    0  0.88394179792E+02  0.15060281740E+01 -0.23189108924E+03  0.24817186870E+03  0.00000000000E+00 0.  1.
<mgrwt>
<rscale>  0 0.17388840E+03</rscale>
<asrwt>0</asrwt>
<pdfrwt beam="1">  1        4 0.49829954E-02 0.17970928E+03</pdfrwt>
<pdfrwt beam="2">  1       -4 0.13755406E+00 0.17970928E+03</pdfrwt>
<totfact> 0.16666411E+02</totfact>
</mgrwt>
</event>
<event>
 6    1  0.5258538E-006  0.1464556E+03  0.7546771E-02  0.1234168E+00
         -2   -1    0    0    0  501 -0.00000000000E+00  0.00000000000E+00  0.60260062076E+02  0.60260062076E+02  0.00000000000E+00 0.  1.
          2   -1    0    0  501    0  0.00000000000E+00 -0.00000000000E+00 -0.22912406176E+03  0.22912406176E+03  0.00000000000E+00 0. -1.
          5    1    1    2  502    0 -0.50643786899E+02 -0.33859206484E+02 -0.15872202927E+03  0.17007648747E+03  0.47000000000E+01 0. -1.
         -5    1    1    2    0  502  0.24955521823E+02 -0.23970257519E+02  0.12296004480E+02  0.37022061546E+02  0.47000000000E+01 0.  1.
        -11    1    1    2    0    0  0.39000674992E+02  0.35751769555E+02 -0.19284044983E+02  0.56312663470E+02  0.00000000000E+00 0. -1.
         11    1    1    2    0    0 -0.13312409916E+02  0.22077694448E+02 -0.31539299078E+01  0.25972911345E+02  0.00000000000E+00 0.  1.
<mgrwt>
<rscale>  0 0.12557864E+03</rscale>
<asrwt>0</asrwt>
<pdfrwt beam="2">  1        2 0.35249856E-01 0.14645555E+03</pdfrwt>
<pdfrwt beam="1">  1       -2 0.92707787E-02 0.14645555E+03</pdfrwt>
<totfact> 0.10427354E+04</totfact>
</mgrwt>
</event>
<event>
 6    1  0.5258538E-006  0.4405286E+03  0.7546771E-02  0.1030585E+00
          2   -1    0    0  501    0  0.00000000000E+00  0.00000000000E+00  0.85558852878E+03  0.85558852878E+03  0.00000000000E+00 0.  1.
         -2   -1    0    0    0  501 -0.00000000000E+00 -0.00000000000E+00 -0.56705244666E+02  0.56705244666E+02  0.00000000000E+00 0. -1.
          5    1    1    2  502    0  0.18530053849E+02  0.15002243874E+02  0.85858423056E+02  0.89231098988E+02  0.47000000000E+01 0. -1.
         -5    1    1    2    0  502 -0.50621474904E+02 -0.16909311705E+03  0.55657005854E+03  0.58390695836E+03  0.47000000000E+01 0. -1.
        -11    1    1    2    0    0 -0.25152790284E+02  0.59843075890E+02  0.88047216409E+02  0.10938998541E+03  0.00000000000E+00 0. -1.
         11    1    1    2    0    0  0.57244211340E+02  0.94247797283E+02  0.68407586111E+02  0.12976573069E+03  0.00000000000E+00 0.  1.
<mgrwt>
<rscale>  0 0.44052858E+03</rscale>
<asrwt>0</asrwt>
<pdfrwt beam="1">  1        2 0.13162899E+00 0.44052858E+03</pdfrwt>
<pdfrwt beam="2">  1       -2 0.87238844E-02 0.44052858E+03</pdfrwt>
<totfact> 0.26914024E+03</totfact>
</mgrwt>
</event>
<event>
 6    1  0.5258538E-006  0.1559453E+03  0.7546771E-02  0.1201584E+00
          1   -1    0    0  501    0  0.00000000000E+00  0.00000000000E+00  0.53107791032E+03  0.53107791032E+03  0.00000000000E+00 0. -1.
         -1   -1    0    0    0  501 -0.00000000000E+00 -0.00000000000E+00 -0.56168921852E+02  0.56168921852E+02  0.00000000000E+00 0.  1.
          5    1    1    2  502    0  0.50636119989E+02  0.20362509594E+02  0.18901306319E+03  0.19679094618E+03  0.47000000000E+01 0.  1.
         -5    1    1    2    0  502  0.25754219564E+00 -0.98486490855E+02  0.22692759965E+03  0.24742247411E+03  0.47000000000E+01 0.  1.
        -11    1    1    2    0    0 -0.33778996003E+02  0.82259855629E+01 -0.16734931446E+02  0.38584262854E+02  0.00000000000E+00 0.  1.
         11    1    1    2    0    0 -0.17114666182E+02  0.69897995697E+02  0.75703257074E+02  0.10444914903E+03  0.00000000000E+00 0. -1.
<mgrwt>
<rscale>  0 0.14909927E+03</rscale>
<asrwt>0</asrwt>
<pdfrwt beam="1">  1        1 0.81704290E-01 0.15594527E+03</pdfrwt>
<pdfrwt beam="2">  1       -1 0.86413730E-02 0.15594527E+03</pdfrwt>
<totfact> 0.31159374E+03</totfact>
</mgrwt>
</event>
<event>
 6    1  0.5258538E-006  0.1490549E+03  0.7546771E-02  0.1211062E+00
          2   -1    0    0  501    0  0.00000000000E+00  0.00000000000E+00  0.24516921180E+03  0.24516921180E+03  0.00000000000E+00 0. -1.
         -2   -1    0    0    0  501 -0.00000000000E+00 -0.00000000000E+00 -0.12881806704E+03  0.12881806704E+03  0.00000000000E+00 0.  1.
          5    1    1    2  502    0 -0.34316089043E+02  0.66308562777E+02  0.95844152972E+02  0.12158376176E+03  0.47000000000E+01 0. -1.
         -5    1    1    2    0  502 -0.46393400844E+02 -0.57648718263E+02  0.86500318910E+02  0.11393031875E+03  0.47000000000E+01 0. -1.
        -11    1    1    2    0    0  0.35494337813E+02  0.15012028876E+02 -0.77141981847E+02  0.86232791854E+02  0.00000000000E+00 0.  1.
         11    1    1    2    0    0  0.45215152074E+02 -0.23671873390E+02  0.11148654720E+02  0.52240406478E+02  0.00000000000E+00 0. -1.
<mgrwt>
<rscale>  0 0.14169833E+03</rscale>
<asrwt>0</asrwt>
<pdfrwt beam="1">  1        2 0.37718340E-01 0.14905494E+03</pdfrwt>
<pdfrwt beam="2">  1       -2 0.19818164E-01 0.14905494E+03</pdfrwt>
<totfact> 0.28298130E+03</totfact>
</mgrwt>
</event>
<event>
 6    1  0.5258538E-006  0.1297050E+03  0.7546771E-02  0.1242759E+00
         -2   -1    0    0    0  501 -0.00000000000E+00  0.00000000000E+00  0.98934217444E+01  0.98934217444E+01  0.00000000000E+00 0. -1.
          2   -1    0    0  501    0  0.00000000000E+00 -0.00000000000E+00 -0.14580251001E+04  0.14580251001E+04  0.00000000000E+00 0.  1.
          5    1    1    2  502    0 -0.47005960203E+02 -0.57871419933E+02 -0.44642394472E+03  0.45263129582E+03  0.47000000000E+01 0. -1.
         -5    1    1    2    0  502  0.37288526112E+02  0.24658370476E+02 -0.62514598997E+03  0.62675997653E+03  0.47000000000E+01 0. -1.
        -11    1    1    2    0    0  0.11297936747E+02 -0.30188838734E+02 -0.13110777334E+03  0.13501206460E+03  0.00000000000E+00 0.  1.
         11    1    1    2    0    0 -0.15805026562E+01  0.63401888190E+02 -0.24545397032E+03  0.25351518487E+03  0.00000000000E+00 0. -1.
<mgrwt>
<rscale>  0 0.12020512E+03</rscale>
<asrwt>0</asrwt>
<pdfrwt beam="2">  1        2 0.22431142E+00 0.12970503E+03</pdfrwt>
<pdfrwt beam="1">  1       -2 0.15220658E-02 0.12970503E+03</pdfrwt>
<totfact> 0.16010584E+04</totfact>
</mgrwt>
</event>
<event>
 6    1  0.5258538E-006  0.1536053E+03  0.7546771E-02  0.1200682E+00
          1   -1    0    0  501    0  0.00000000000E+00  0.00000000000E+00  0.48594430438E+03  0.48594430438E+03  0.00000000000E+00 0. -1.
         -1   -1    0    0    0  501 -0.00000000000E+00 -0.00000000000E+00 -0.44579393448E+02  0.44579393448E+02  0.00000000000E+00 0.  1.
          5    1    1    2  502    0 -0.17237579450E+02 -0.59982500787E+02  0.51183295445E+02  0.80850814953E+02  0.47000000000E+01 0. -1.
         -5    1    1    2    0  502 -0.72461991849E+02  0.46313004399E+01  0.20885403783E+03  0.22116574853E+03  0.47000000000E+01 0.  1.
        -11    1    1    2    0    0  0.82090274861E+01 -0.12224853887E+02  0.82097759479E+02  0.83407897086E+02  0.00000000000E+00 0. -1.
         11    1    1    2    0    0  0.81490543814E+02  0.67576054235E+02  0.99229818182E+02  0.14509923726E+03  0.00000000000E+00 0.  1.
<mgrwt>
<rscale>  0 0.14983042E+03</rscale>
<asrwt>0</asrwt>
<pdfrwt beam="1">  1        1 0.74760659E-01 0.15360531E+03</pdfrwt>
<pdfrwt beam="2">  1       -1 0.68583686E-02 0.15360531E+03</pdfrwt>
<totfact> 0.49618339E+03</totfact>
</mgrwt>
</event>
<event>
 6    1  0.5258538E-006  0.1434723E+03  0.7546771E-02  0.1220318E+00
         -1   -1    0    0    0  501 -0.00000000000E+00  0.00000000000E+00  0.10929670811E+03  0.10929670811E+03  0.00000000000E+00 0.  1.
          1   -1    0    0  501    0  0.00000000000E+00 -0.00000000000E+00 -0.18070620101E+03  0.18070620101E+03  0.00000000000E+00 0. -1.
          5    1    1    2  502    0 -0.22406966561E+02 -0.96221335459E+02 -0.59728181863E+02  0.11554290656E+03  0.47000000000E+01 0. -1.
         -5    1    1    2    0  502 -0.18848790538E+02  0.39150167868E+02 -0.39410282311E+02  0.58849578594E+02  0.47000000000E+01 0. -1.
        -11    1    1    2    0    0  0.15119480363E+02  0.73681911474E+01 -0.30427677581E+02  0.34766830316E+02  0.00000000000E+00 0. -1.
         11    1    1    2    0    0  0.26136276736E+02  0.49702976444E+02  0.58156648853E+02  0.80843593653E+02  0.00000000000E+00 0.  1.
<mgrwt>
<rscale>  0 0.13493012E+03</rscale>
<asrwt>0</asrwt>
<pdfrwt beam="2">  1        1 0.27800953E-01 0.14347231E+03</pdfrwt>
<pdfrwt beam="1">  1       -1 0.16814878E-01 0.14347231E+03</pdfrwt>
<totfact> 0.42964211E+03</totfact>
</mgrwt>
</event>
<event>
 6    1  0.5258538E-006  0.1367100E+03  0.7546771E-02  0.1230123E+00
         -2   -1    0    0    0  501 -0.00000000000E+00  0.00000000000E+00  0.23973357097E+02  0.23973357097E+02  0.00000000000E+00 0.  1.
          2   -1    0    0  501    0  0.00000000000E+00 -0.00000000000E+00 -0.65424639449E+03  0.65424639449E+03  0.00000000000E+00 0. -1.
          5    1    1    2  502    0 -0.15900123984E+02  0.31690715664E+02 -0.21731475305E+03  0.22023829662E+03  0.47000000000E+01 0. -1.
         -5    1    1    2    0  502  0.48576803006E+02 -0.76380661390E+02 -0.21978943042E+03  0.23774607242E+03  0.47000000000E+01 0. -1.
        -11    1    1    2    0    0 -0.27613615502E+01  0.63678392151E+02 -0.83898694964E+02  0.10536391110E+03  0.00000000000E+00 0.  1.
         11    1    1    2    0    0 -0.29915317472E+02 -0.18988446425E+02 -0.10927015895E+03  0.11487147146E+03  0.00000000000E+00 0. -1.
<mgrwt>
<rscale>  0 0.12821861E+03</rscale>
<asrwt>0</asrwt>
<pdfrwt beam="2">  1        2 0.10065328E+00 0.13670997E+03</pdfrwt>
<pdfrwt beam="1">  1       -2 0.36882092E-02 0.13670997E+03</pdfrwt>
<totfact> 0.13464856E+04</totfact>
</mgrwt>
</event>
<event>
 6    1  0.5258538E-006  0.3786510E+03  0.7546771E-02  0.1051433E+00
          3   -1    0    0  501    0  0.00000000000E+00  0.00000000000E+00  0.31002538669E+03  0.31002538669E+03  0.00000000000E+00 0. -1.
         -3   -1    0    0    0  501 -0.00000000000E+00 -0.00000000000E+00 -0.11561678063E+03  0.11561678063E+03  0.00000000000E+00 0.  1.
          5    1    1    2  502    0 -0.13553716497E+03  0.71612376096E+02  0.95566814056E+02  0.18070351808E+03  0.47000000000E+01 0.  1.
         -5    1    1    2    0  502  0.26051294592E+02  0.35768582531E+02  0.29467817567E+02  0.53371375458E+02  0.47000000000E+01 0.  1.
        -11    1    1    2    0    0  0.10282754382E+03 -0.42832876693E+02  0.28867192054E+02  0.11507160323E+03  0.00000000000E+00 0.  1.
         11    1    1    2    0    0  0.66583265564E+01 -0.64548081934E+02  0.40506782380E+02  0.76495670549E+02  0.00000000000E+00 0. -1.
<mgrwt>
<rscale>  0 0.37865096E+03</rscale>
<asrwt>0</asrwt>
<pdfrwt beam="1">  1        3 0.47696213E-01 0.37865096E+03</pdfrwt>
<pdfrwt beam="2">  1       -3 0.17787197E-01 0.37865096E+03</pdfrwt>
<totfact> 0.31523155E+02</totfact>
</mgrwt>
</event>
<event>
 6    1  0.5258538E-006  0.1326179E+03  0.7546771E-02  0.1236988E+00
         -1   -1    0    0    0  501 -0.00000000000E+00  0.00000000000E+00  0.16998687077E+03  0.16998687077E+03  0.00000000000E+00 0.  1.
          1   -1    0    0  501    0  0.00000000000E+00 -0.00000000000E+00 -0.91253939542E+02  0.91253939542E+02  0.00000000000E+00 0. -1.
          5    1    1    2  502    0 -0.45572429552E+02 -0.25259099302E+02  0.72151273167E+00  0.52320923286E+02  0.47000000000E+01 0. -1.
         -5    1    1    2    0  502  0.80100737964E+02 -0.24912974110E+01 -0.20672119223E+01  0.80303786650E+02  0.47000000000E+01 0. -1.
        -11    1    1    2    0    0 -0.24361474968E+02 -0.13915395183E+02  0.80996659677E+02  0.85718017736E+02  0.00000000000E+00 0.  1.
         11    1    1    2    0    0 -0.10166833443E+02  0.41665791896E+02 -0.91802925840E+00  0.42898082641E+02  0.00000000000E+00 0. -1.
<mgrwt>
<rscale>  0 0.12377990E+03</rscale>
<asrwt>0</asrwt>
<pdfrwt beam="2">  1        1 0.14039068E-01 0.13261788E+03</pdfrwt>
<pdfrwt beam="1">  1       -1 0.26151826E-01 0.13261788E+03</pdfrwt>
<totfact> 0.50031538E+03</totfact>
</mgrwt>
</event>
<event>
 6    1  0.5258538E-006  0.3490610E+03  0.7546771E-02  0.1063001E+00
         -1   -1    0    0    0  501 -0.00000000000E+00  0.00000000000E+00  0.37717500786E+03  0.37717500786E+03  0.00000000000E+00 0.  1.
          1   -1    0    0  501    0  0.00000000000E+00 -0.00000000000E+00 -0.80760653910E+02  0.80760653910E+02  0.00000000000E+00 0. -1.
          5    1    1    2  502    0  0.40331855981E+02  0.12409487387E+03  0.62450449139E+02  0.14473543079E+03  0.47000000000E+01 0.  1.
         -5    1    1    2    0  502 -0.31492494478E+02  0.11349462346E+02  0.84965212524E+02  0.91442686111E+02  0.47000000000E+01 0.  1.
        -11    1    1    2    0    0 -0.29887201749E+02 -0.69766037446E+02  0.25072222840E+02  0.79932228590E+02  0.00000000000E+00 0.  1.
         11    1    1    2    0    0  0.21047840245E+02 -0.65678298771E+02  0.12392646945E+03  0.14182531628E+03  0.00000000000E+00 0. -1.
<mgrwt>
<rscale>  0 0.34906103E+03</rscale>
<asrwt>0</asrwt>
<pdfrwt beam="2">  1        1 0.12424716E-01 0.34906103E+03</pdfrwt>
<pdfrwt beam="1">  1       -1 0.58026923E-01 0.34906103E+03</pdfrwt>
<totfact> 0.14896605E+03</totfact>
</mgrwt>
</event>
<event>
 6    1  0.5258538E-006  0.1986328E+03  0.7546771E-02  0.1155449E+00
         -1   -1    0    0    0  501 -0.00000000000E+00  0.00000000000E+00  0.36352350809E+02  0.36352350809E+02  0.00000000000E+00 0.  1.
          1   -1    0    0  501    0  0.00000000000E+00 -0.00000000000E+00 -0.98261805389E+03  0.98261805389E+03  0.00000000000E+00 0. -1.
          5    1    1    2  502    0 -0.29629750225E+02 -0.10375867085E+03 -0.26304541871E+03  0.28435675863E+03  0.47000000000E+01 0. -1.
         -5    1    1    2    0  502 -0.90082178216E+02  0.62973102757E+01 -0.19963148316E+03  0.21915582131E+03  0.47000000000E+01 0. -1.
        -11    1    1    2    0    0  0.34652585649E+02 -0.65060665122E+00 -0.38443429703E+02  0.51760238296E+02  0.00000000000E+00 0.  1.
         11    1    1    2    0    0  0.85059342791E+02  0.98111967223E+02 -0.44514537152E+03  0.46369758646E+03  0.00000000000E+00 0. -1.
<mgrwt>
<rscale>  0 0.19337824E+03</rscale>
<asrwt>0</asrwt>
<pdfrwt beam="2">  1        1 0.15117197E+00 0.19863283E+03</pdfrwt>
<pdfrwt beam="1">  1       -1 0.55926707E-02 0.19863283E+03</pdfrwt>
<totfact> 0.24375776E+03</totfact>
</mgrwt>
</event>
<event>
 6    1  0.5258538E-006  0.1463729E+03  0.7546771E-02  0.1216114E+00
          1   -1    0    0  501    0  0.00000000000E+00  0.00000000000E+00  0.51182700451E+02  0.51182700451E+02  0.00000000000E+00 0. -1.
         -1   -1    0    0    0  501 -0.00000000000E+00 -0.00000000000E+00 -0.35164297846E+03  0.35164297846E+03  0.00000000000E+00 0.  1.
          5    1    1    2  502    0  0.62404426831E+02 -0.64577694677E+02 -0.63529376054E+02  0.11010296435E+03  0.47000000000E+01 0. -1.
         -5    1    1    2    0  502  0.12916754106E+02  0.53316701283E+02 -0.59939749534E+02  0.81390274275E+02  0.47000000000E+01 0. -1.
        -11    1    1    2    0    0 -0.78786645139E+02  0.32501460882E+02 -0.10000689352E+03  0.13139657211E+03  0.00000000000E+00 0.  1.
         11    1    1    2    0    0  0.34654642025E+01 -0.21240467488E+02 -0.76984258901E+02  0.79935868168E+02  0.00000000000E+00 0. -1.
<mgrwt>
<rscale>  0 0.13795005E+03</rscale>
<asrwt>0</asrwt>
<pdfrwt beam="1">  1        1 0.78742614E-02 0.14637293E+03</pdfrwt>
<pdfrwt beam="2">  1       -1 0.54098921E-01 0.14637293E+03</pdfrwt>
<totfact> 0.30467104E+03</totfact>
</mgrwt>
</event>
<event>
 6    1  0.5258538E-006  0.1281861E+03  0.7546771E-02  0.1244335E+00
         -2   -1    0    0    0  501 -0.00000000000E+00  0.00000000000E+00  0.20330098054E+03  0.20330098054E+03  0.00000000000E+00 0.  1.
          2   -1    0    0  501    0  0.00000000000E+00 -0.00000000000E+00 -0.89275609908E+02  0.89275609908E+02  0.00000000000E+00 0. -1.
          5    1    1    2  502    0 -0.21036995304E+02  0.28493919153E+02 -0.40001342516E+02  0.53634466560E+02  0.47000000000E+01 0. -1.
         -5    1    1    2    0  502  0.65046021500E+02 -0.31653790081E+02  0.22123377058E+02  0.75792355498E+02  0.47000000000E+01 0.  1.
        -11    1    1    2    0    0  0.11509799675E+02  0.29591541509E+02  0.64634200949E+02  0.72011907000E+02  0.00000000000E+00 0.  1.
         11    1    1    2    0    0 -0.55518825872E+02 -0.26431670581E+02  0.67269135137E+02  0.91137861386E+02  0.00000000000E+00 0. -1.
<mgrwt>
<rscale>  0 0.11925273E+03</rscale>
<asrwt>0</asrwt>
<pdfrwt beam="2">  1        2 0.13734709E-01 0.12818612E+03</pdfrwt>
<pdfrwt beam="1">  1       -2 0.31277074E-01 0.12818612E+03</pdfrwt>
<totfact> 0.39128534E+03</totfact>
</mgrwt>
</event>
<event>
 6    1  0.5258538E-006  0.1706748E+03  0.7546771E-02  0.1183364E+00
         -1   -1    0    0    0  501 -0.00000000000E+00  0.00000000000E+00  0.68608807023E+03  0.68608807023E+03  0.00000000000E+00 0.  1.
          1   -1    0    0  501    0  0.00000000000E+00 -0.00000000000E+00 -0.40963532766E+02  0.40963532766E+02  0.00000000000E+00 0. -1.
          5    1    1    2  502    0  0.47788117483E+02  0.37570435956E+02  0.32670747919E+02  0.69171595327E+02  0.47000000000E+01 0. -1.
         -5    1    1    2    0  502  0.65855489670E+02 -0.61821903981E+02  0.19890045028E+03  0.21850028022E+03  0.47000000000E+01 0. -1.
        -11    1    1    2    0    0 -0.12213441185E+03  0.19803571994E+01  0.31182224685E+03  0.33489378914E+03  0.00000000000E+00 0. -1.
         11    1    1    2    0    0  0.84908047003E+01  0.22271110825E+02  0.10173109242E+03  0.10448593832E+03  0.00000000000E+00 0.  1.
<mgrwt>
<rscale>  0 0.16481601E+03</rscale>
<asrwt>0</asrwt>
<pdfrwt beam="2">  1        1 0.63020825E-02 0.17067480E+03</pdfrwt>
<pdfrwt beam="1">  1       -1 0.10555200E+00 0.17067480E+03</pdfrwt>
<totfact> 0.10650487E+03</totfact>
</mgrwt>
</event>
<event>
 6    1  0.5258538E-006  0.1640324E+03  0.7546771E-02  0.1191343E+00
         -4   -1    0    0    0  501 -0.00000000000E+00  0.00000000000E+00  0.93757892052E+02  0.93757892052E+02  0.00000000000E+00 0. -1.
          4   -1    0    0  501    0  0.00000000000E+00 -0.00000000000E+00 -0.25559371651E+03  0.25559371651E+03  0.00000000000E+00 0.  1.
          5    1    1    2  502    0  0.10487123245E+03  0.78011439879E+02 -0.74587319622E+02  0.15056267265E+03  0.47000000000E+01 0.  1.
         -5    1    1    2    0  502 -0.14668279703E+02 -0.21931575715E+02 -0.45215569197E+02  0.52561298886E+02  0.47000000000E+01 0.  1.
        -11    1    1    2    0    0 -0.64503530552E+02 -0.78669776275E+02 -0.46248977742E+02  0.11175243664E+03  0.00000000000E+00 0.  1.
         11    1    1    2    0    0 -0.25699422199E+02  0.22589912110E+02  0.42160421013E+01  0.34475200384E+02  0.00000000000E+00 0. -1.
<mgrwt>
<rscale>  0 0.15767861E+03</rscale>
<asrwt>0</asrwt>
<pdfrwt beam="2">  1        4 0.39322109E-01 0.16403236E+03</pdfrwt>
<pdfrwt beam="1">  1       -4 0.14424291E-01 0.16403236E+03</pdfrwt>
<totfact> 0.43688538E+02</totfact>
</mgrwt>
</event>
<event>
 6    1  0.5258538E-006  0.1169504E+03  0.7546771E-02  0.1258701E+00
         -1   -1    0    0    0  501 -0.00000000000E+00  0.00000000000E+00  0.42610560773E+02  0.42610560773E+02  0.00000000000E+00 0.  1.
          1   -1    0    0  501    0  0.00000000000E+00 -0.00000000000E+00 -0.27151423066E+03  0.27151423066E+03  0.00000000000E+00 0. -1.
          5    1    1    2  502    0  0.21963084861E+01 -0.62580331387E+02 -0.12097480901E+03  0.13630156295E+03  0.47000000000E+01 0. -1.
         -5    1    1    2    0  502 -0.24877638969E+02  0.38698596877E+02 -0.31911536547E+02  0.56186426170E+02  0.47000000000E+01 0.  1.
        -11    1    1    2    0    0 -0.17677446215E+02 -0.17660196580E+02 -0.54312614589E+02  0.59784904043E+02  0.00000000000E+00 0. -1.
         11    1    1    2    0    0  0.40358776697E+02  0.41541931089E+02 -0.21704709745E+02  0.61851898275E+02  0.00000000000E+00 0.  1.
<mgrwt>
<rscale>  0 0.11101541E+03</rscale>
<asrwt>0</asrwt>
<pdfrwt beam="2">  1        1 0.41771420E-01 0.11695038E+03</pdfrwt>
<pdfrwt beam="1">  1       -1 0.65554708E-02 0.11695038E+03</pdfrwt>
<totfact> 0.10825096E+04</totfact>
</mgrwt>
</event>
<event>
 6    1  0.5258538E-006  0.1792222E+03  0.7546771E-02  0.1174718E+00
          1   -1    0    0  501    0  0.00000000000E+00  0.00000000000E+00  0.91034247639E+03  0.91034247639E+03  0.00000000000E+00 0. -1.
         -1   -1    0    0    0  501 -0.00000000000E+00 -0.00000000000E+00 -0.31305470793E+02  0.31305470793E+02  0.00000000000E+00 0.  1.
          5    1    1    2  502    0  0.86499970686E+02 -0.24842050517E+02  0.26002676960E+03  0.27520062375E+03  0.47000000000E+01 0.  1.
         -5    1    1    2    0  502  0.27142189416E+02  0.84694992661E+02  0.26886282102E+03  0.28323002446E+03  0.47000000000E+01 0.  1.
        -11    1    1    2    0    0 -0.89001283785E+02 -0.16374115533E+02  0.13628897764E+03  0.16359714423E+03  0.00000000000E+00 0.  1.
         11    1    1    2    0    0 -0.24640876317E+02 -0.43478826612E+02  0.21385843734E+03  0.21962015474E+03  0.00000000000E+00 0. -1.
<mgrwt>
<rscale>  0 0.17303657E+03</rscale>
<asrwt>0</asrwt>
<pdfrwt beam="1">  1        1 0.14005267E+00 0.17922218E+03</pdfrwt>
<pdfrwt beam="2">  1       -1 0.48162270E-02 0.17922218E+03</pdfrwt>
<totfact> 0.34503896E+03</totfact>
</mgrwt>
</event>
<event>
 6    1  0.5258538E-006  0.1455704E+03  0.7546771E-02  0.1217328E+00
         -1   -1    0    0    0  501 -0.00000000000E+00  0.00000000000E+00  0.69124524577E+02  0.69124524577E+02  0.00000000000E+00 0.  1.
          1   -1    0    0  501    0  0.00000000000E+00 -0.00000000000E+00 -0.27126057399E+03  0.27126057399E+03  0.00000000000E+00 0. -1.
          5    1    1    2  502    0 -0.19642246698E+02 -0.49576946521E+02 -0.21162828017E+01  0.53574808768E+02  0.47000000000E+01 0. -1.
         -5    1    1    2    0  502  0.85222843923E+02  0.14003679291E+02 -0.56740894522E+02  0.10344397165E+03  0.47000000000E+01 0. -1.
        -11    1    1    2    0    0 -0.43535594608E+02  0.32159259180E+02 -0.15048556016E+03  0.15992332464E+03  0.00000000000E+00 0. -1.
         11    1    1    2    0    0 -0.22045002617E+02  0.34140080500E+01  0.72066880711E+01  0.23442993502E+02  0.00000000000E+00 0.  1.
<mgrwt>
<rscale>  0 0.13706933E+03</rscale>
<asrwt>0</asrwt>
<pdfrwt beam="2">  1        1 0.41732396E-01 0.14557036E+03</pdfrwt>
<pdfrwt beam="1">  1       -1 0.10634542E-01 0.14557036E+03</pdfrwt>
<totfact> 0.52987510E+03</totfact>
</mgrwt>
</event>
<event>
 6    1  0.5258538E-006  0.1366336E+03  0.7546771E-02  0.1229352E+00
         -2   -1    0    0    0  501 -0.00000000000E+00  0.00000000000E+00  0.26704263316E+03  0.26704263316E+03  0.00000000000E+00 0.  1.
          2   -1    0    0  501    0  0.00000000000E+00 -0.00000000000E+00 -0.60132525661E+02  0.60132525661E+02  0.00000000000E+00 0. -1.
          5    1    1    2  502    0  0.89886613576E+02  0.17482972365E+02  0.61397925666E+02  0.11034968463E+03  0.47000000000E+01 0. -1.
         -5    1    1    2    0  502 -0.35081378502E+02 -0.23891123801E+02  0.10191491085E+02  0.43902681064E+02  0.47000000000E+01 0. -1.
        -11    1    1    2    0    0  0.86672406193E+01 -0.24737871341E+02  0.76777823283E+02  0.81129017536E+02  0.00000000000E+00 0.  1.
         11    1    1    2    0    0 -0.63472475693E+02  0.31146022777E+02  0.58542867468E+02  0.91793775588E+02  0.00000000000E+00 0. -1.
<mgrwt>
<rscale>  0 0.12873050E+03</rscale>
<asrwt>0</asrwt>
<pdfrwt beam="2">  1        2 0.92511579E-02 0.13663363E+03</pdfrwt>
<pdfrwt beam="1">  1       -2 0.41083481E-01 0.13663363E+03</pdfrwt>
<totfact> 0.38218975E+03</totfact>
</mgrwt>
</event>
<event>
 6    1  0.5258538E-006  0.1323620E+03  0.7546771E-02  0.1239485E+00
          1   -1    0    0  501    0  0.00000000000E+00  0.00000000000E+00  0.61449343989E+03  0.61449343989E+03  0.00000000000E+00 0. -1.
         -1   -1    0    0    0  501 -0.00000000000E+00 -0.00000000000E+00 -0.22078444635E+02  0.22078444635E+02  0.00000000000E+00 0.  1.
          5    1    1    2  502    0 -0.60925928687E+02 -0.50954480758E+01  0.31700523072E+03  0.32288130742E+03  0.47000000000E+01 0. -1.
         -5    1    1    2    0  502  0.34956136067E+02  0.40022393727E+02  0.84996970255E+02  0.10035087643E+03  0.47000000000E+01 0. -1.
        -11    1    1    2    0    0 -0.17563143797E+02 -0.31232131836E+02  0.28934737440E+02  0.46055717449E+02  0.00000000000E+00 0.  1.
         11    1    1    2    0    0  0.43532936417E+02 -0.36948138158E+01  0.16147805683E+03  0.16728398322E+03  0.00000000000E+00 0. -1.
<mgrwt>
<rscale>  0 0.12221660E+03</rscale>
<asrwt>0</asrwt>
<pdfrwt beam="1">  1        1 0.94537439E-01 0.13236205E+03</pdfrwt>
<pdfrwt beam="2">  1       -1 0.33966843E-02 0.13236205E+03</pdfrwt>
<totfact> 0.10177198E+04</totfact>
</mgrwt>
</event>
<event>
 6    1  0.5258538E-006  0.1393860E+03  0.7546771E-02  0.1227613E+00
          1   -1    0    0  501    0  0.00000000000E+00  0.00000000000E+00  0.51465183653E+03  0.51465183653E+03  0.00000000000E+00 0. -1.
         -1   -1    0    0    0  501 -0.00000000000E+00 -0.00000000000E+00 -0.29421505697E+02  0.29421505697E+02  0.00000000000E+00 0.  1.
          5    1    1    2  502    0 -0.35120395203E+02  0.56792562932E+02  0.28542636070E+03  0.29317082861E+03  0.47000000000E+01 0.  1.
         -5    1    1    2    0  502 -0.21131328454E+02 -0.31523922385E+02  0.21375667963E+02  0.43809815175E+02  0.47000000000E+01 0.  1.
        -11    1    1    2    0    0  0.71294842724E+02 -0.14506175234E+02  0.17321641296E+03  0.18787578193E+03  0.00000000000E+00 0. -1.
         11    1    1    2    0    0 -0.15043119067E+02 -0.10762465314E+02  0.52118892057E+01  0.19216916506E+02  0.00000000000E+00 0.  1.
<mgrwt>
<rscale>  0 0.12989377E+03</rscale>
<asrwt>0</asrwt>
<pdfrwt beam="1">  1        1 0.79177199E-01 0.13938604E+03</pdfrwt>
<pdfrwt beam="2">  1       -1 0.45263859E-02 0.13938604E+03</pdfrwt>
<totfact> 0.84966061E+03</totfact>
</mgrwt>
</event>
<event>
 6    1  0.5258538E-006  0.1176007E+03  0.7546771E-02  0.1259844E+00
         -1   -1    0    0    0  501 -0.00000000000E+00  0.00000000000E+00  0.45600399369E+02  0.45600399369E+02  0.00000000000E+00 0.  1.
          1   -1    0    0  501    0  0.00000000000E+00 -0.00000000000E+00 -0.19156404672E+04  0.19156404672E+04  0.00000000000E+00 0. -1.
          5    1    1    2  502    0 -0.35878156159E+02 -0.16548589843E+02 -0.17085073322E+04  0.17089705943E+04  0.47000000000E+01 0. -1.
         -5    1    1    2    0  502  0.28370568078E+02  0.14301497840E+02 -0.15763581849E+03  0.16087437100E+03  0.47000000000E+01 0.  1.
        -11    1    1    2    0    0  0.80382585760E+01  0.28023954702E+02 -0.38469297503E+02  0.48268441952E+02  0.00000000000E+00 0. -1.
         11    1    1    2    0    0 -0.53067049554E+00 -0.25776862698E+02  0.34572380386E+02  0.43127459319E+02  0.00000000000E+00 0.  1.
<mgrwt>
<rscale>  0 0.11039272E+03</rscale>
<asrwt>0</asrwt>
<pdfrwt beam="2">  1        1 0.29471389E+00 0.11760075E+03</pdfrwt>
<pdfrwt beam="1">  1       -1 0.70154467E-02 0.11760075E+03</pdfrwt>
<totfact> 0.41775984E+02</totfact>
</mgrwt>
</event>
<event>
 6    1  0.5258538E-006  0.1312567E+03  0.7546771E-02  0.1242900E+00
          1   -1    0    0  501    0  0.00000000000E+00  0.00000000000E+00  0.44938096586E+03  0.44938096586E+03  0.00000000000E+00 0. -1.
         -1   -1    0    0    0  501 -0.00000000000E+00 -0.00000000000E+00 -0.44248730507E+02  0.44248730507E+02  0.00000000000E+00 0.  1.
          5    1    1    2  502    0 -0.38382743717E+02  0.35922069788E+02  0.27795741482E+03  0.28292409682E+03  0.47000000000E+01 0. -1.
         -5    1    1    2    0  502  0.26261027172E+02 -0.54180330785E+02  0.96171447127E+02  0.11356138003E+03  0.47000000000E+01 0.  1.
        -11    1    1    2    0    0  0.40186332631E+02  0.21619069389E+02 -0.10600043160E+02  0.46847480258E+02  0.00000000000E+00 0.  1.
         11    1    1    2    0    0 -0.28064616085E+02 -0.33608083928E+01  0.41603416573E+02  0.50296739255E+02  0.00000000000E+00 0. -1.
<mgrwt>
<rscale>  0 0.12011955E+03</rscale>
<asrwt>0</asrwt>
<pdfrwt beam="1">  1        1 0.69135530E-01 0.13125673E+03</pdfrwt>
<pdfrwt beam="2">  1       -1 0.68074973E-02 0.13125673E+03</pdfrwt>
<totfact> 0.55045084E+03</totfact>
</mgrwt>
</event>
<event>
 6    1  0.5258538E-006  0.2953372E+03  0.7546771E-02  0.1087595E+00
          1   -1    0    0  501    0  0.00000000000E+00  0.00000000000E+00  0.77619122963E+03  0.77619122963E+03  0.00000000000E+00 0. -1.
         -1   -1    0    0    0  501 -0.00000000000E+00 -0.00000000000E+00 -0.28093616645E+02  0.28093616645E+02  0.00000000000E+00 0.  1.
          5    1    1    2  502    0  0.34073401547E+02  0.10089684040E+01  0.21945531876E+03  0.22213676337E+03  0.47000000000E+01 0. -1.
         -5    1    1    2    0  502 -0.79385844760E+02  0.67813756318E+02  0.35033579547E+03  0.36559277548E+03  0.47000000000E+01 0.  1.
        -11    1    1    2    0    0  0.39765385395E+02 -0.82114530437E+01  0.13726878547E+03  0.14314829130E+03  0.00000000000E+00 0. -1.
         11    1    1    2    0    0  0.55470578180E+01 -0.60611271678E+02  0.41037713286E+02  0.73407016127E+02  0.00000000000E+00 0.  1.
<mgrwt>
<rscale>  0 0.29533722E+03</rscale>
<asrwt>0</asrwt>
<pdfrwt beam="1">  1        1 0.11941402E+00 0.29533722E+03</pdfrwt>
<pdfrwt beam="2">  1       -1 0.43220955E-02 0.29533722E+03</pdfrwt>
<totfact> 0.52885279E+03</totfact>
</mgrwt>
</event>
<event>
 6    1  0.5258538E-006  0.1257546E+03  0.7546771E-02  0.1248722E+00
          4   -1    0    0  501    0  0.00000000000E+00  0.00000000000E+00  0.34627228754E+03  0.34627228754E+03  0.00000000000E+00 0. -1.
         -4   -1    0    0    0  501 -0.00000000000E+00 -0.00000000000E+00 -0.39617370700E+02  0.39617370700E+02  0.00000000000E+00 0.  1.
          5    1    1    2  502    0  0.23373443607E+02 -0.33737276865E+02  0.23445400970E+02  0.47500510976E+02  0.47000000000E+01 0.  1.
         -5    1    1    2    0  502 -0.34236034622E+02  0.42288661780E+02  0.21793525240E+03  0.22467376621E+03  0.47000000000E+01 0.  1.
        -11    1    1    2    0    0 -0.16519295494E+02  0.98932987325E+01  0.76467651280E+02  0.78854715622E+02  0.00000000000E+00 0. -1.
         11    1    1    2    0    0  0.27381886509E+02 -0.18444683647E+02 -0.11193387815E+02  0.34860665433E+02  0.00000000000E+00 0.  1.
<mgrwt>
<rscale>  0 0.11665360E+03</rscale>
<asrwt>0</asrwt>
<pdfrwt beam="1">  1        4 0.53272658E-01 0.12575459E+03</pdfrwt>
<pdfrwt beam="2">  1       -4 0.60949803E-02 0.12575459E+03</pdfrwt>
<totfact> 0.95763634E+02</totfact>
</mgrwt>
</event>
<event>
 6    1  0.5258538E-006  0.1449650E+03  0.7546771E-02  0.1215772E+00
         -1   -1    0    0    0  501 -0.00000000000E+00  0.00000000000E+00  0.16765929049E+03  0.16765929049E+03  0.00000000000E+00 0.  1.
          1   -1    0    0  501    0  0.00000000000E+00 -0.00000000000E+00 -0.10546355368E+03  0.10546355368E+03  0.00000000000E+00 0. -1.
          5    1    1    2  502    0 -0.60822934577E+02 -0.22017009741E+02  0.65063342637E+02  0.91866787489E+02  0.47000000000E+01 0.  1.
         -5    1    1    2    0  502 -0.12229184124E+02  0.29319827611E+02 -0.44155108037E+02  0.54598249067E+02  0.47000000000E+01 0.  1.
        -11    1    1    2    0    0  0.47418336649E+02 -0.22164915202E+02  0.68648119900E+02  0.86326974245E+02  0.00000000000E+00 0.  1.
         11    1    1    2    0    0  0.25633782052E+02  0.14862097333E+02 -0.27360617695E+02  0.40330833367E+02  0.00000000000E+00 0. -1.
<mgrwt>
<rscale>  0 0.13819958E+03</rscale>
<asrwt>0</asrwt>
<pdfrwt beam="2">  1        1 0.16225162E-01 0.14496500E+03</pdfrwt>
<pdfrwt beam="1">  1       -1 0.25793737E-01 0.14496500E+03</pdfrwt>
<totfact> 0.42666854E+03</totfact>
</mgrwt>
</event>
<event>
 6    1  0.5258538E-006  0.4259489E+03  0.7546771E-02  0.1035147E+00
         -2   -1    0    0    0  501 -0.00000000000E+00  0.00000000000E+00  0.31167311077E+03  0.31167311077E+03  0.00000000000E+00 0.  1.
          2   -1    0    0  501    0  0.00000000000E+00 -0.00000000000E+00 -0.14553108183E+03  0.14553108183E+03  0.00000000000E+00 0. -1.
          5    1    1    2  502    0 -0.37886175356E+02  0.12629574450E+03 -0.34218339720E+02  0.13630466659E+03  0.47000000000E+01 0. -1.
         -5    1    1    2    0  502 -0.24971117834E+02 -0.26176363616E+02 -0.30353346508E+02  0.47457079369E+02  0.47000000000E+01 0. -1.
        -11    1    1    2    0    0  0.49352816910E+02 -0.19477374900E+02  0.14762288656E+03  0.15686805062E+03  0.00000000000E+00 0.  1.
         11    1    1    2    0    0  0.13504476280E+02 -0.80642005980E+02  0.83090828607E+02  0.11657439602E+03  0.00000000000E+00 0. -1.
<mgrwt>
<rscale>  0 0.42594894E+03</rscale>
<asrwt>0</asrwt>
<pdfrwt beam="2">  1        2 0.22389397E-01 0.42594894E+03</pdfrwt>
<pdfrwt beam="1">  1       -2 0.47949709E-01 0.42594894E+03</pdfrwt>
<totfact> 0.10260678E+03</totfact>
</mgrwt>
</event>
<event>
 6    1  0.5258538E-006  0.3161299E+03  0.7546771E-02  0.1077444E+00
          1   -1    0    0  501    0  0.00000000000E+00  0.00000000000E+00  0.26335697271E+03  0.26335697271E+03  0.00000000000E+00 0. -1.
         -1   -1    0    0    0  501 -0.00000000000E+00 -0.00000000000E+00 -0.94869445513E+02  0.94869445513E+02  0.00000000000E+00 0.  1.
          5    1    1    2  502    0 -0.72725981743E+00  0.82060290256E+01  0.14818651829E+03  0.14848973709E+03  0.47000000000E+01 0. -1.
         -5    1    1    2    0  502 -0.77373367715E+02  0.19474912722E+02  0.32381314374E+02  0.86235432263E+02  0.47000000000E+01 0. -1.
        -11    1    1    2    0    0  0.35878453217E+02 -0.24155454325E+02 -0.50371435511E+02  0.66393003354E+02  0.00000000000E+00 0.  1.
         11    1    1    2    0    0  0.42222174315E+02 -0.35254874220E+01  0.38291130046E+02  0.57108245513E+02  0.00000000000E+00 0. -1.
<mgrwt>
<rscale>  0 0.31612991E+03</rscale>
<asrwt>0</asrwt>
<pdfrwt beam="1">  1        1 0.40516457E-01 0.31612991E+03</pdfrwt>
<pdfrwt beam="2">  1       -1 0.14595299E-01 0.31612991E+03</pdfrwt>
<totfact> 0.34706747E+03</totfact>
</mgrwt>
</event>
<event>
 6    1  0.5258538E-006  0.1492104E+03  0.7546771E-02  0.1216777E+00
          2   -1    0    0  501    0  0.00000000000E+00  0.00000000000E+00  0.13158287034E+04  0.13158287034E+04  0.00000000000E+00 0. -1.
         -2   -1    0    0    0  501 -0.00000000000E+00 -0.00000000000E+00 -0.14896180310E+02  0.14896180310E+02  0.00000000000E+00 0.  1.
          5    1    1    2  502    0 -0.21721367342E+02 -0.11001778187E+02  0.93311422489E+03  0.93344367993E+03  0.47000000000E+01 0. -1.
         -5    1    1    2    0  502 -0.15543015747E+02 -0.36451171278E+02  0.68918679678E+02  0.79637601889E+02  0.47000000000E+01 0.  1.
        -11    1    1    2    0    0  0.15314822116E+02  0.71977862444E+02  0.18547626217E+03  0.19954147510E+03  0.00000000000E+00 0.  1.
         11    1    1    2    0    0  0.21949560973E+02 -0.24524912979E+02  0.11342335636E+03  0.11810212679E+03  0.00000000000E+00 0. -1.
<mgrwt>
<rscale>  0 0.13746828E+03</rscale>
<asrwt>0</asrwt>
<pdfrwt beam="1">  1        2 0.20243509E+00 0.14921039E+03</pdfrwt>
<pdfrwt beam="2">  1       -2 0.22917211E-02 0.14921039E+03</pdfrwt>
<totfact> 0.10597672E+04</totfact>
</mgrwt>
</event>
<event>
 6    1  0.5258538E-006  0.1266561E+03  0.7546771E-02  0.1247347E+00
         -1   -1    0    0    0  501 -0.00000000000E+00  0.00000000000E+00  0.19442978703E+02  0.19442978703E+02  0.00000000000E+00 0.  1.
          1   -1    0    0  501    0  0.00000000000E+00 -0.00000000000E+00 -0.14924436351E+04  0.14924436351E+04  0.00000000000E+00 0. -1.
          5    1    1    2  502    0  0.49593328373E+02  0.65694359621E+01 -0.31614965845E+03  0.32011771624E+03  0.47000000000E+01 0. -1.
         -5    1    1    2    0  502 -0.58042820871E+02 -0.25158417060E+02 -0.10402944526E+04  0.10422267283E+04  0.47000000000E+01 0. -1.
        -11    1    1    2    0    0 -0.14301373346E+00  0.55098932246E+02 -0.80221052580E+02  0.97320758652E+02  0.00000000000E+00 0.  1.
         11    1    1    2    0    0  0.85925062316E+01 -0.36509951148E+02 -0.36335492779E+02  0.52221410663E+02  0.00000000000E+00 0. -1.
<mgrwt>
<rscale>  0 0.11746012E+03</rscale>
<asrwt>0</asrwt>
<pdfrwt beam="2">  1        1 0.22960679E+00 0.12665607E+03</pdfrwt>
<pdfrwt beam="1">  1       -1 0.29912265E-02 0.12665607E+03</pdfrwt>
<totfact> 0.27220764E+03</totfact>
</mgrwt>
</event>
<event>
 6    1  0.5258538E-006  0.3102328E+03  0.7546771E-02  0.1080234E+00
         -2   -1    0    0    0  501 -0.00000000000E+00  0.00000000000E+00  0.17707915048E+02  0.17707915048E+02  0.00000000000E+00 0.  1.
          2   -1    0    0  501    0  0.00000000000E+00 -0.00000000000E+00 -0.13587760215E+04  0.13587760215E+04  0.00000000000E+00 0. -1.
          5    1    1    2  502    0 -0.93805718181E+01  0.70394349950E+01 -0.61549243917E+03  0.61562210929E+03  0.47000000000E+01 0.  1.
         -5    1    1    2    0  502 -0.89202498761E+02  0.20037908144E+02 -0.28832762409E+03  0.30251200367E+03  0.47000000000E+01 0.  1.
        -11    1    1    2    0    0  0.41844517662E+02  0.13321327377E+02 -0.57947293552E+02  0.72707016522E+02  0.00000000000E+00 0.  1.
         11    1    1    2    0    0  0.56738552916E+02 -0.40398670516E+02 -0.37930074959E+03  0.38564280702E+03  0.00000000000E+00 0. -1.
<mgrwt>
<rscale>  0 0.31023275E+03</rscale>
<asrwt>0</asrwt>
<pdfrwt beam="2">  1        2 0.20904252E+00 0.31023275E+03</pdfrwt>
<pdfrwt beam="1">  1       -2 0.27242939E-02 0.31023275E+03</pdfrwt>
<totfact> 0.79801379E+03</totfact>
</mgrwt>
</event>
<event>
 6    1  0.5258538E-006  0.1495790E+03  0.7546771E-02  0.1210505E+00
          2   -1    0    0  501    0  0.00000000000E+00  0.00000000000E+00  0.64480075687E+02  0.64480075687E+02  0.00000000000E+00 0. -1.
         -2   -1    0    0    0  501 -0.00000000000E+00 -0.00000000000E+00 -0.31380030053E+03  0.31380030053E+03  0.00000000000E+00 0.  1.
          5    1    1    2  502    0 -0.48602046022E+02  0.59500872829E+02 -0.22783228407E+02  0.80272524823E+02  0.47000000000E+01 0.  1.
         -5    1    1    2    0  502  0.65199058916E+02  0.20955292131E+02 -0.57171309298E+02  0.89334708590E+02  0.47000000000E+01 0.  1.
        -11    1    1    2    0    0 -0.30088914402E+02  0.74100016014E+01 -0.61751596987E+02  0.69090597219E+02  0.00000000000E+00 0.  1.
         11    1    1    2    0    0  0.13491901507E+02 -0.87866166562E+02 -0.10761409015E+03  0.13958254558E+03  0.00000000000E+00 0. -1.
<mgrwt>
<rscale>  0 0.14211975E+03</rscale>
<asrwt>0</asrwt>
<pdfrwt beam="1">  1        2 0.99200115E-02 0.14957903E+03</pdfrwt>
<pdfrwt beam="2">  1       -2 0.48276970E-01 0.14957903E+03</pdfrwt>
<totfact> 0.25802903E+03</totfact>
</mgrwt>
</event>
<event>
 6    1  0.5258538E-006  0.1898004E+03  0.7546771E-02  0.1163619E+00
         -2   -1    0    0    0  501 -0.00000000000E+00  0.00000000000E+00  0.10747355777E+03  0.10747355777E+03  0.00000000000E+00 0. -1.
          2   -1    0    0  501    0  0.00000000000E+00 -0.00000000000E+00 -0.31173651314E+03  0.31173651314E+03  0.00000000000E+00 0.  1.
          5    1    1    2  502    0 -0.92650490100E+02 -0.97351633094E+02 -0.13661726422E+03  0.19169721090E+03  0.47000000000E+01 0. -1.
         -5    1    1    2    0  502 -0.34774806239E+02  0.32857640619E+02 -0.12492394585E+02  0.49669524041E+02  0.47000000000E+01 0. -1.
        -11    1    1    2    0    0  0.27551460784E+02  0.45668724584E+02  0.13720163043E+02  0.55072300391E+02  0.00000000000E+00 0. -1.
         11    1    1    2    0    0  0.99873835555E+02  0.18825267891E+02 -0.68873459600E+02  0.12277103558E+03  0.00000000000E+00 0.  1.
<mgrwt>
<rscale>  0 0.18439231E+03</rscale>
<asrwt>0</asrwt>
<pdfrwt beam="2">  1        2 0.47959463E-01 0.18980045E+03</pdfrwt>
<pdfrwt beam="1">  1       -2 0.16534394E-01 0.18980045E+03</pdfrwt>
<totfact> 0.29971049E+03</totfact>
</mgrwt>
</event>
<event>
 6    1  0.5258538E-006  0.3073662E+03  0.7546771E-02  0.1081615E+00
         -1   -1    0    0    0  501 -0.00000000000E+00  0.00000000000E+00  0.91028715364E+01  0.91028715364E+01  0.00000000000E+00 0.  1.
          1   -1    0    0  501    0  0.00000000000E+00 -0.00000000000E+00 -0.25946201039E+04  0.25946201039E+04  0.00000000000E+00 0. -1.
          5    1    1    2  502    0  0.11289412853E+03 -0.12818500955E+02 -0.17129485986E+04  0.17167190771E+04  0.47000000000E+01 0.  1.
         -5    1    1    2    0  502 -0.29448088739E+02 -0.99677251072E+01 -0.22552071738E+03  0.22770206288E+03  0.47000000000E+01 0.  1.
        -11    1    1    2    0    0 -0.59429456546E+02  0.58156777451E+02 -0.45715216932E+03  0.46465274882E+03  0.00000000000E+00 0. -1.
         11    1    1    2    0    0 -0.24016583251E+02 -0.35370551389E+02 -0.18989574710E+03  0.19464908667E+03  0.00000000000E+00 0.  1.
<mgrwt>
<rscale>  0 0.30736619E+03</rscale>
<asrwt>0</asrwt>
<pdfrwt beam="2">  1        1 0.39917275E+00 0.30736619E+03</pdfrwt>
<pdfrwt beam="1">  1       -1 0.14004403E-02 0.30736619E+03</pdfrwt>
<totfact> 0.15773161E+03</totfact>
</mgrwt>
</event>
<event>
 6    1  0.5258538E-006  0.2733485E+03  0.7546771E-02  0.1101595E+00
          2   -1    0    0  501    0  0.00000000000E+00  0.00000000000E+00  0.18903083753E+03  0.18903083753E+03  0.00000000000E+00 0. -1.
         -2   -1    0    0    0  501 -0.00000000000E+00 -0.00000000000E+00 -0.37364385351E+03  0.37364385351E+03  0.00000000000E+00 0.  1.
          5    1    1    2  502    0  0.79382920688E+01  0.10987515569E+02 -0.29525264830E+02  0.32826410748E+02  0.47000000000E+01 0. -1.
         -5    1    1    2    0  502  0.13563853814E+03 -0.20715085118E+03 -0.60095798621E+02  0.25483893577E+03  0.47000000000E+01 0. -1.
        -11    1    1    2    0    0 -0.92787176992E+02  0.18315281378E+03 -0.69930190204E+02  0.21689777526E+03  0.00000000000E+00 0.  1.
         11    1    1    2    0    0 -0.50789653216E+02  0.13010521829E+02 -0.25061762324E+02  0.58111569268E+02  0.00000000000E+00 0. -1.
<mgrwt>
<rscale>  0 0.26944943E+03</rscale>
<asrwt>0</asrwt>
<pdfrwt beam="1">  1        2 0.29081667E-01 0.27334853E+03</pdfrwt>
<pdfrwt beam="2">  1       -2 0.57483670E-01 0.27334853E+03</pdfrwt>
<totfact> 0.52637919E+02</totfact>
</mgrwt>
</event>
<event>
 6    1  0.5258538E-006  0.1138771E+03  0.7546771E-02  0.1262142E+00
         -1   -1    0    0    0  501 -0.00000000000E+00  0.00000000000E+00  0.19689270957E+02  0.19689270957E+02  0.00000000000E+00 0.  1.
          1   -1    0    0  501    0  0.00000000000E+00 -0.00000000000E+00 -0.56301778881E+03  0.56301778881E+03  0.00000000000E+00 0. -1.
          5    1    1    2  502    0  0.34197019942E+02 -0.32472922824E+01 -0.31661902477E+03  0.31851166059E+03  0.47000000000E+01 0. -1.
         -5    1    1    2    0  502 -0.93089976930E+01  0.13564546002E+02  0.88328295638E+00  0.17132557750E+02  0.47000000000E+01 0.  1.
        -11    1    1    2    0    0  0.31059288014E+02 -0.12646049645E+02 -0.13277953772E+03  0.13694892326E+03  0.00000000000E+00 0.  1.
         11    1    1    2    0    0 -0.55947310264E+02  0.23287959255E+01 -0.94813238312E+02  0.11011391817E+03  0.00000000000E+00 0. -1.
<mgrwt>
<rscale>  0 0.10915545E+03</rscale>
<asrwt>0</asrwt>
<pdfrwt beam="2">  1        1 0.86618105E-01 0.11387705E+03</pdfrwt>
<pdfrwt beam="1">  1       -1 0.30291192E-02 0.11387705E+03</pdfrwt>
<totfact> 0.13377450E+04</totfact>
</mgrwt>
</event>
<event>
 6    1  0.5258538E-006  0.1620795E+03  0.7546771E-02  0.1193890E+00
         -2   -1    0    0    0  501 -0.00000000000E+00  0.00000000000E+00  0.33208174893E+02  0.33208174893E+02  0.00000000000E+00 0.  1.
          2   -1    0    0  501    0  0.00000000000E+00 -0.00000000000E+00 -0.71242797959E+03  0.71242797959E+03  0.00000000000E+00 0. -1.
          5    1    1    2  502    0  0.49293733827E+02 -0.46139989681E+02 -0.40028834618E+03  0.40596997541E+03  0.47000000000E+01 0. -1.
         -5    1    1    2    0  502  0.49906028527E+02  0.17772677837E+02 -0.51584765326E+02  0.74091549954E+02  0.47000000000E+01 0. -1.
        -11    1    1    2    0    0 -0.41656696952E+02  0.12709612963E+01 -0.15630244156E+02  0.44510675977E+02  0.00000000000E+00 0.  1.
         11    1    1    2    0    0 -0.57543065403E+02  0.27096350547E+02 -0.21171644903E+03  0.22106395315E+03  0.00000000000E+00 0. -1.
<mgrwt>
<rscale>  0 0.15548584E+03</rscale>
<asrwt>0</asrwt>
<pdfrwt beam="2">  1        2 0.10960430E+00 0.16207948E+03</pdfrwt>
<pdfrwt beam="1">  1       -2 0.51089503E-02 0.16207948E+03</pdfrwt>
<totfact> 0.75583942E+03</totfact>
</mgrwt>
</event>
<event>
 6    1  0.5258538E-006  0.1792372E+03  0.7546771E-02  0.1173956E+00
         -2   -1    0    0    0  501 -0.00000000000E+00  0.00000000000E+00  0.17398756631E+02  0.17398756631E+02  0.00000000000E+00 0.  1.
          2   -1    0    0  501    0  0.00000000000E+00 -0.00000000000E+00 -0.20006497802E+04  0.20006497802E+04  0.00000000000E+00 0. -1.
          5    1    1    2  502    0 -0.94706005808E+02 -0.10246803193E+03 -0.12220085461E+04  0.12299576829E+04  0.47000000000E+01 0. -1.
         -5    1    1    2    0  502  0.36118112392E+02 -0.11847073953E+02 -0.24856791937E+03  0.25150143488E+03  0.47000000000E+01 0. -1.
        -11    1    1    2    0    0  0.81767830427E+02  0.73317199798E+02 -0.39055959981E+03  0.40570702593E+03  0.00000000000E+00 0. -1.
         11    1    1    2    0    0 -0.23179937010E+02  0.40997906083E+02 -0.12211495835E+03  0.13088239315E+03  0.00000000000E+00 0.  1.
<mgrwt>
<rscale>  0 0.17378617E+03</rscale>
<asrwt>0</asrwt>
<pdfrwt beam="2">  1        2 0.30779190E+00 0.17923721E+03</pdfrwt>
<pdfrwt beam="1">  1       -2 0.26767351E-02 0.17923721E+03</pdfrwt>
<totfact> 0.37251763E+03</totfact>
</mgrwt>
</event>
<event>
 6    1  0.5258538E-006  0.1266574E+03  0.7546771E-02  0.1242516E+00
         -2   -1    0    0    0  501 -0.00000000000E+00  0.00000000000E+00  0.21076288715E+02  0.21076288715E+02  0.00000000000E+00 0.  1.
          2   -1    0    0  501    0  0.00000000000E+00 -0.00000000000E+00 -0.63957665200E+03  0.63957665200E+03  0.00000000000E+00 0. -1.
          5    1    1    2  502    0 -0.18864143128E+02  0.51296777178E+02 -0.16450972106E+03  0.17341497504E+03  0.47000000000E+01 0.  1.
         -5    1    1    2    0  502  0.75122648956E+01 -0.68392520281E+02 -0.12957032407E+03  0.14678054991E+03  0.47000000000E+01 0.  1.
        -11    1    1    2    0    0  0.50082349772E+02 -0.12470226280E+02 -0.20681654850E+03  0.21315917301E+03  0.00000000000E+00 0. -1.
         11    1    1    2    0    0 -0.38730471540E+02  0.29565969383E+02 -0.11760376966E+03  0.12729824276E+03  0.00000000000E+00 0.  1.
<mgrwt>
<rscale>  0 0.12035286E+03</rscale>
<asrwt>0</asrwt>
<pdfrwt beam="2">  1        2 0.98396395E-01 0.12665742E+03</pdfrwt>
<pdfrwt beam="1">  1       -2 0.32425064E-02 0.12665742E+03</pdfrwt>
<totfact> 0.16621242E+04</totfact>
</mgrwt>
</event>
<event>
 6    1  0.5258538E-006  0.1766801E+03  0.7546771E-02  0.1177045E+00
         -1   -1    0    0    0  501 -0.00000000000E+00  0.00000000000E+00  0.90332544105E+02  0.90332544105E+02  0.00000000000E+00 0.  1.
          1   -1    0    0  501    0  0.00000000000E+00 -0.00000000000E+00 -0.32607362754E+03  0.32607362754E+03  0.00000000000E+00 0. -1.
          5    1    1    2  502    0 -0.87286134995E+02  0.72980317752E+01 -0.55927006326E+02  0.10402908568E+03  0.47000000000E+01 0. -1.
         -5    1    1    2    0  502 -0.14285141036E+01  0.80760371722E+02 -0.12463402610E+03  0.14859343443E+03  0.47000000000E+01 0. -1.
        -11    1    1    2    0    0  0.63845264652E+02 -0.28722195499E+02  0.11702554133E+02  0.70979800690E+02  0.00000000000E+00 0.  1.
         11    1    1    2    0    0  0.24869384447E+02 -0.59336207997E+02 -0.66882605148E+02  0.92803850855E+02  0.00000000000E+00 0. -1.
<mgrwt>
<rscale>  0 0.17077242E+03</rscale>
<asrwt>0</asrwt>
<pdfrwt beam="2">  1        1 0.50165173E-01 0.17668008E+03</pdfrwt>
<pdfrwt beam="1">  1       -1 0.13897315E-01 0.17668008E+03</pdfrwt>
<totfact> 0.28083644E+03</totfact>
</mgrwt>
</event>
<event>
 6    1  0.5258538E-006  0.1267125E+03  0.7546771E-02  0.1244947E+00
         -2   -1    0    0    0  501 -0.00000000000E+00  0.00000000000E+00  0.15262231090E+03  0.15262231090E+03  0.00000000000E+00 0.  1.
          2   -1    0    0  501    0  0.00000000000E+00 -0.00000000000E+00 -0.83237442432E+02  0.83237442432E+02  0.00000000000E+00 0. -1.
          5    1    1    2  502    0  0.45727157654E+02 -0.39010307947E+02  0.45840371224E+02  0.75737749552E+02  0.47000000000E+01 0. -1.
         -5    1    1    2    0  502 -0.26041338183E+02  0.45597483240E+02 -0.14728289957E+02  0.54738417014E+02  0.47000000000E+01 0. -1.
        -11    1    1    2    0    0 -0.42825723070E+02 -0.70974545907E+01  0.59719140948E+02  0.73829480654E+02  0.00000000000E+00 0.  1.
         11    1    1    2    0    0  0.23139903599E+02  0.51027929840E+00 -0.21446353746E+02  0.31554106112E+02  0.00000000000E+00 0. -1.
<mgrwt>
<rscale>  0 0.11888563E+03</rscale>
<asrwt>0</asrwt>
<pdfrwt beam="2">  1        2 0.12805760E-01 0.12671254E+03</pdfrwt>
<pdfrwt beam="1">  1       -2 0.23480356E-01 0.12671254E+03</pdfrwt>
<totfact> 0.70498589E+03</totfact>
</mgrwt>
</event>
<event>
 6    1  0.5258538E-006  0.2227327E+03  0.7546771E-02  0.1160114E+00
          1   -1    0    0  501    0  0.00000000000E+00  0.00000000000E+00  0.11876140593E+03  0.11876140593E+03  0.00000000000E+00 0. -1.
         -1   -1    0    0    0  501 -0.00000000000E+00 -0.00000000000E+00 -0.39228401099E+03  0.39228401099E+03  0.00000000000E+00 0.  1.
          5    1    1    2  502    0 -0.10240430691E+03  0.59862726644E+02  0.47167295751E+02  0.12773813802E+03  0.47000000000E+01 0. -1.
         -5    1    1    2    0  502  0.35356788313E+02 -0.68310679700E+02 -0.55834407591E+02  0.95163136308E+02  0.47000000000E+01 0.  1.
        -11    1    1    2    0    0 -0.20724507101E+01  0.19355408492E+02 -0.65658591447E+01  0.20543548771E+02  0.00000000000E+00 0. -1.
         11    1    1    2    0    0  0.69119969309E+02 -0.10907455436E+02 -0.25828963408E+03  0.26760059383E+03  0.00000000000E+00 0.  1.
<mgrwt>
<rscale>  0 0.18817921E+03</rscale>
<asrwt>0</asrwt>
<pdfrwt beam="1">  1        1 0.18270986E-01 0.22273271E+03</pdfrwt>
<pdfrwt beam="2">  1       -1 0.60351385E-01 0.22273271E+03</pdfrwt>
<totfact> 0.82491435E+02</totfact>
</mgrwt>
</event>
<event>
 6    1  0.5258538E-006  0.1356308E+03  0.7546771E-02  0.1231576E+00
         -1   -1    0    0    0  501 -0.00000000000E+00  0.00000000000E+00  0.21254055252E+02  0.21254055252E+02  0.00000000000E+00 0.  1.
          1   -1    0    0  501    0  0.00000000000E+00 -0.00000000000E+00 -0.71126320123E+03  0.71126320123E+03  0.00000000000E+00 0. -1.
          5    1    1    2  502    0 -0.38392001515E+02  0.77599409452E+01 -0.38214837579E+03  0.38417916860E+03  0.47000000000E+01 0.  1.
         -5    1    1    2    0  502  0.12659148114E+02 -0.53677062991E+02 -0.78709530465E+02  0.96222457401E+02  0.47000000000E+01 0.  1.
        -11    1    1    2    0    0  0.47736875389E+02  0.53714595962E+01 -0.60408239898E+02  0.77180420430E+02  0.00000000000E+00 0.  1.
         11    1    1    2    0    0 -0.22004021989E+02  0.40545662449E+02 -0.16874299982E+03  0.17493521005E+03  0.00000000000E+00 0. -1.
<mgrwt>
<rscale>  0 0.12726203E+03</rscale>
<asrwt>0</asrwt>
<pdfrwt beam="2">  1        1 0.10942511E+00 0.13563079E+03</pdfrwt>
<pdfrwt beam="1">  1       -1 0.32698546E-02 0.13563079E+03</pdfrwt>
<totfact> 0.87780093E+03</totfact>
</mgrwt>
</event>
<event>
 6    1  0.5258538E-006  0.2304842E+03  0.7546771E-02  0.1129403E+00
         -2   -1    0    0    0  501 -0.00000000000E+00  0.00000000000E+00  0.16432648079E+03  0.16432648079E+03  0.00000000000E+00 0.  1.
          2   -1    0    0  501    0  0.00000000000E+00 -0.00000000000E+00 -0.86024267032E+03  0.86024267032E+03  0.00000000000E+00 0. -1.
          5    1    1    2  502    0  0.20773272970E+03  0.11287117181E+02 -0.64529564370E+03  0.67801832113E+03  0.47000000000E+01 0. -1.
         -5    1    1    2    0  502 -0.15409636334E+02 -0.56936150049E+01 -0.12065098881E+03  0.12185493525E+03  0.47000000000E+01 0.  1.
        -11    1    1    2    0    0 -0.14717321175E+02  0.99820199576E+01 -0.18480207030E+02  0.25646799350E+02  0.00000000000E+00 0. -1.
         11    1    1    2    0    0 -0.17760577220E+03 -0.15575522134E+02  0.88510650016E+02  0.19904909538E+03  0.00000000000E+00 0.  1.
<mgrwt>
<rscale>  0 0.22611660E+03</rscale>
<asrwt>0</asrwt>
<pdfrwt beam="2">  1        2 0.13234503E+00 0.23048423E+03</pdfrwt>
<pdfrwt beam="1">  1       -2 0.25280997E-01 0.23048423E+03</pdfrwt>
<totfact> 0.45393985E+02</totfact>
</mgrwt>
</event>
<event>
 6    1  0.5258538E-006  0.1905676E+03  0.7546771E-02  0.1162771E+00
          1   -1    0    0  501    0  0.00000000000E+00  0.00000000000E+00  0.93029471971E+03  0.93029471971E+03  0.00000000000E+00 0. -1.
         -1   -1    0    0    0  501 -0.00000000000E+00 -0.00000000000E+00 -0.37008054873E+02  0.37008054873E+02  0.00000000000E+00 0.  1.
          5    1    1    2  502    0  0.10067847160E+02 -0.65317808779E+02  0.78453662428E+02  0.10268809492E+03  0.47000000000E+01 0.  1.
         -5    1    1    2    0  502 -0.66951533019E+01 -0.78490757819E+02  0.50419414368E+03  0.51033268430E+03  0.47000000000E+01 0.  1.
        -11    1    1    2    0    0  0.50672393419E+01  0.82945523911E+02  0.79096449702E+02  0.11472525967E+03  0.00000000000E+00 0.  1.
         11    1    1    2    0    0 -0.84399332001E+01  0.60863042687E+02  0.23154240903E+03  0.23955673570E+03  0.00000000000E+00 0. -1.
<mgrwt>
<rscale>  0 0.18529877E+03</rscale>
<asrwt>0</asrwt>
<pdfrwt beam="1">  1        1 0.14312225E+00 0.19056760E+03</pdfrwt>
<pdfrwt beam="2">  1       -1 0.56935476E-02 0.19056760E+03</pdfrwt>
<totfact> 0.25978404E+03</totfact>
</mgrwt>
</event>
<event>
 6    1  0.5258538E-006  0.3265329E+03  0.7546771E-02  0.1072681E+00
          2   -1    0    0  501    0  0.00000000000E+00  0.00000000000E+00  0.13037385283E+03  0.13037385283E+03  0.00000000000E+00 0. -1.
         -2   -1    0    0    0  501 -0.00000000000E+00 -0.00000000000E+00 -0.20445769229E+03  0.20445769229E+03  0.00000000000E+00 0.  1.
          5    1    1    2  502    0  0.76681699433E+02  0.65137446205E+02  0.65171577033E+02  0.11996830573E+03  0.47000000000E+01 0. -1.
         -5    1    1    2    0  502 -0.23753445821E+02 -0.13003311466E+02 -0.45653292592E+01  0.27861165243E+02  0.47000000000E+01 0.  1.
        -11    1    1    2    0    0 -0.77576830633E+02 -0.39845684512E+02 -0.13346540004E+03  0.15943292080E+03  0.00000000000E+00 0.  1.
         11    1    1    2    0    0  0.24648577020E+02 -0.12288450227E+02 -0.12246871976E+01  0.27569153357E+02  0.00000000000E+00 0. -1.
<mgrwt>
<rscale>  0 0.32653292E+03</rscale>
<asrwt>0</asrwt>
<pdfrwt beam="1">  1        2 0.20057516E-01 0.32653292E+03</pdfrwt>
<pdfrwt beam="2">  1       -2 0.31455030E-01 0.32653292E+03</pdfrwt>
<totfact> 0.26002843E+03</totfact>
</mgrwt>
</event>
<event>
 6    1  0.5258538E-006  0.2090452E+03  0.7546771E-02  0.1146689E+00
          2   -1    0    0  501    0  0.00000000000E+00  0.00000000000E+00  0.21986730777E+04  0.21986730777E+04  0.00000000000E+00 0. -1.
         -2   -1    0    0    0  501 -0.00000000000E+00 -0.00000000000E+00 -0.18863261774E+02  0.18863261774E+02  0.00000000000E+00 0.  1.
          5    1    1    2  502    0 -0.19888894677E+02 -0.53974089809E+01  0.24489479548E+03  0.24580531119E+03  0.47000000000E+01 0.  1.
         -5    1    1    2    0  502  0.11891952439E+03  0.14055836531E+03  0.11423072245E+04  0.11570593729E+04  0.47000000000E+01 0.  1.
        -11    1    1    2    0    0 -0.56540527900E+02 -0.11922858765E+02  0.22754632512E+03  0.23476864342E+03  0.00000000000E+00 0. -1.
         11    1    1    2    0    0 -0.42490101813E+02 -0.12323809757E+03  0.56506147086E+03  0.57990301197E+03  0.00000000000E+00 0.  1.
<mgrwt>
<rscale>  0 0.20365810E+03</rscale>
<asrwt>0</asrwt>
<pdfrwt beam="1">  1        2 0.33825719E+00 0.20904516E+03</pdfrwt>
<pdfrwt beam="2">  1       -2 0.29020420E-02 0.20904516E+03</pdfrwt>
<totfact> 0.26032068E+03</totfact>
</mgrwt>
</event>
<event>
 6    1  0.5258538E-006  0.1360260E+03  0.7546771E-02  0.1231099E+00
         -1   -1    0    0    0  501 -0.00000000000E+00  0.00000000000E+00  0.19709926845E+03  0.19709926845E+03  0.00000000000E+00 0.  1.
          1   -1    0    0  501    0  0.00000000000E+00 -0.00000000000E+00 -0.78032148605E+02  0.78032148605E+02  0.00000000000E+00 0. -1.
          5    1    1    2  502    0  0.81656274141E+02  0.47079654368E+02  0.23433592807E+02  0.97239211400E+02  0.47000000000E+01 0.  1.
         -5    1    1    2    0  502 -0.38462350564E+02 -0.15245240412E+02  0.11628904268E+02  0.43232987181E+02  0.47000000000E+01 0.  1.
        -11    1    1    2    0    0 -0.59547040884E+02 -0.26602392065E+02  0.94287481606E+02  0.11464583084E+03  0.00000000000E+00 0.  1.
         11    1    1    2    0    0  0.16353117307E+02 -0.52320218908E+01 -0.10282858835E+02  0.20013387633E+02  0.00000000000E+00 0. -1.
<mgrwt>
<rscale>  0 0.12757507E+03</rscale>
<asrwt>0</asrwt>
<pdfrwt beam="2">  1        1 0.12004946E-01 0.13602595E+03</pdfrwt>
<pdfrwt beam="1">  1       -1 0.30322964E-01 0.13602595E+03</pdfrwt>
<totfact> 0.48040508E+03</totfact>
</mgrwt>
</event>
<event>
 6    1  0.5258538E-006  0.3133459E+03  0.7546771E-02  0.1078753E+00
         -2   -1    0    0    0  501 -0.00000000000E+00  0.00000000000E+00  0.26224594535E+03  0.26224594535E+03  0.00000000000E+00 0.  1.
          2   -1    0    0  501    0  0.00000000000E+00 -0.00000000000E+00 -0.93600705559E+02  0.93600705559E+02  0.00000000000E+00 0. -1.
          5    1    1    2  502    0  0.55760015277E+02  0.12297525835E+03  0.92501629777E+02  0.16373983932E+03  0.47000000000E+01 0.  1.
         -5    1    1    2    0  502 -0.23373356656E+02 -0.15609559413E+02  0.11136003474E+01  0.28518454589E+02  0.47000000000E+01 0.  1.
        -11    1    1    2    0    0  0.17919396124E+02 -0.77836546523E+02  0.17722048381E+02  0.81815058094E+02  0.00000000000E+00 0. -1.
         11    1    1    2    0    0 -0.50306054746E+02 -0.29529152415E+02  0.57307961288E+02  0.81773298902E+02  0.00000000000E+00 0.  1.
<mgrwt>
<rscale>  0 0.31334585E+03</rscale>
<asrwt>0</asrwt>
<pdfrwt beam="2">  1        2 0.14400109E-01 0.31334585E+03</pdfrwt>
<pdfrwt beam="1">  1       -2 0.40345530E-01 0.31334585E+03</pdfrwt>
<totfact> 0.24019976E+03</totfact>
</mgrwt>
</event>
<event>
 6    1  0.5258538E-006  0.2359061E+03  0.7546771E-02  0.1127237E+00
         -1   -1    0    0    0  501 -0.00000000000E+00  0.00000000000E+00  0.28842675995E+02  0.28842675995E+02  0.00000000000E+00 0.  1.
          1   -1    0    0  501    0  0.00000000000E+00 -0.00000000000E+00 -0.25681629014E+04  0.25681629014E+04  0.00000000000E+00 0. -1.
          5    1    1    2  502    0 -0.11819604252E+02  0.80044645666E+02 -0.42548953163E+03  0.43314002340E+03  0.47000000000E+01 0. -1.
         -5    1    1    2    0  502 -0.11668355368E+03  0.73297206154E+02 -0.16373643811E+04  0.16431590728E+04  0.47000000000E+01 0. -1.
        -11    1    1    2    0    0  0.45493131502E+02 -0.26493096157E+02 -0.18266835827E+03  0.19010323056E+03  0.00000000000E+00 0. -1.
         11    1    1    2    0    0  0.83010026431E+02 -0.12684875566E+03 -0.29379795449E+03  0.33060325068E+03  0.00000000000E+00 0.  1.
<mgrwt>
<rscale>  0 0.22915415E+03</rscale>
<asrwt>0</asrwt>
<pdfrwt beam="2">  1        1 0.39510191E+00 0.23590607E+03</pdfrwt>
<pdfrwt beam="1">  1       -1 0.44373356E-02 0.23590607E+03</pdfrwt>
<totfact> 0.30294536E+02</totfact>
</mgrwt>
</event>
<event>
 6    1  0.5258538E-006  0.2540343E+03  0.7546771E-02  0.1113202E+00
          2   -1    0    0  501    0  0.00000000000E+00  0.00000000000E+00  0.18341009445E+03  0.18341009445E+03  0.00000000000E+00 0.  1.
         -2   -1    0    0    0  501 -0.00000000000E+00 -0.00000000000E+00 -0.33717914799E+03  0.33717914799E+03  0.00000000000E+00 0. -1.
          5    1    1    2  502    0 -0.45281581889E+02 -0.14418388505E+03 -0.84214567734E+02  0.17307107726E+03  0.47000000000E+01 0. -1.
         -5    1    1    2    0  502  0.10166229137E+02 -0.74162127477E+02  0.39656076141E+02  0.84841427037E+02  0.47000000000E+01 0. -1.
        -11    1    1    2    0    0  0.57437529396E+02  0.20061091199E+03 -0.10580967447E+03  0.23396473026E+03  0.00000000000E+00 0.  1.
         11    1    1    2    0    0 -0.22322176644E+02  0.17735100531E+02 -0.34008874765E+01  0.28712007882E+02  0.00000000000E+00 0. -1.
<mgrwt>
<rscale>  0 0.25016250E+03</rscale>
<asrwt>0</asrwt>
<pdfrwt beam="1">  1        2 0.28216938E-01 0.25403425E+03</pdfrwt>
<pdfrwt beam="2">  1       -2 0.51873715E-01 0.25403425E+03</pdfrwt>
<totfact> 0.67061885E+02</totfact>
</mgrwt>
</event>
<event>
 6    1  0.5258538E-006  0.2712824E+03  0.7546771E-02  0.1100548E+00
         -2   -1    0    0    0  501 -0.00000000000E+00  0.00000000000E+00  0.27984650412E+02  0.27984650412E+02  0.00000000000E+00 0.  1.
          2   -1    0    0  501    0  0.00000000000E+00 -0.00000000000E+00 -0.65745103057E+03  0.65745103057E+03  0.00000000000E+00 0. -1.
          5    1    1    2  502    0  0.24196437599E+01 -0.73630106078E+02 -0.10734907900E+03  0.13028108827E+03  0.47000000000E+01 0.  1.
         -5    1    1    2    0  502  0.20600020610E+01 -0.55517573040E+00 -0.34147288396E+03  0.34151189190E+03  0.47000000000E+01 0.  1.
        -11    1    1    2    0    0 -0.17497098191E+02 -0.10941015430E+02 -0.10982196603E+02  0.23376546066E+02  0.00000000000E+00 0.  1.
         11    1    1    2    0    0  0.13017452370E+02  0.85126297239E+02 -0.16966222059E+03  0.19026615475E+03  0.00000000000E+00 0. -1.
<mgrwt>
<rscale>  0 0.27128242E+03</rscale>
<asrwt>0</asrwt>
<pdfrwt beam="2">  1        2 0.10114630E+00 0.27128242E+03</pdfrwt>
<pdfrwt beam="1">  1       -2 0.43053314E-02 0.27128242E+03</pdfrwt>
<totfact> 0.11072195E+04</totfact>
</mgrwt>
</event>
<event>
 6    1  0.5258538E-006  0.3775155E+03  0.7546771E-02  0.1051856E+00
          2   -1    0    0  501    0  0.00000000000E+00  0.00000000000E+00  0.37799149512E+03  0.37799149512E+03  0.00000000000E+00 0. -1.
         -2   -1    0    0    0  501 -0.00000000000E+00 -0.00000000000E+00 -0.94260024609E+02  0.94260024609E+02  0.00000000000E+00 0.  1.
          5    1    1    2  502    0  0.37177468076E+02 -0.14073763496E+03  0.13310948766E+03  0.19730552889E+03  0.47000000000E+01 0. -1.
         -5    1    1    2    0  502  0.21194700014E+02  0.40132686615E+02  0.28875960673E+02  0.53997767995E+02  0.47000000000E+01 0.  1.
        -11    1    1    2    0    0  0.23129935407E+01  0.11500375652E+03  0.48737947478E+02  0.12492638423E+03  0.00000000000E+00 0.  1.
         11    1    1    2    0    0 -0.60685161631E+02 -0.14398808172E+02  0.73008074705E+02  0.96021838615E+02  0.00000000000E+00 0. -1.
<mgrwt>
<rscale>  0 0.37751550E+03</rscale>
<asrwt>0</asrwt>
<pdfrwt beam="1">  1        2 0.58152537E-01 0.37751550E+03</pdfrwt>
<pdfrwt beam="2">  1       -2 0.14501542E-01 0.37751550E+03</pdfrwt>
<totfact> 0.30924916E+03</totfact>
</mgrwt>
</event>
<event>
 6    1  0.5258538E-006  0.3153027E+03  0.7546771E-02  0.1079262E+00
          4   -1    0    0  501    0  0.00000000000E+00  0.00000000000E+00  0.11186434135E+03  0.11186434135E+03  0.00000000000E+00 0.  1.
         -4   -1    0    0    0  501 -0.00000000000E+00 -0.00000000000E+00 -0.92170503364E+03  0.92170503364E+03  0.00000000000E+00 0. -1.
          5    1    1    2  502    0  0.12003126099E+03  0.10764720492E+03 -0.17289800447E+03  0.23645556516E+03  0.47000000000E+01 0.  1.
         -5    1    1    2    0  502  0.15026992348E+03 -0.40655716431E+01 -0.10064649260E+03  0.18096791220E+03  0.47000000000E+01 0.  1.
        -11    1    1    2    0    0 -0.78238328668E+02 -0.52413165913E+02 -0.10373697274E+03  0.14010615813E+03  0.00000000000E+00 0.  1.
         11    1    1    2    0    0 -0.19206285580E+03 -0.51168467367E+02 -0.43255922249E+03  0.47603973951E+03  0.00000000000E+00 0. -1.
<mgrwt>
<rscale>  0 0.31227145E+03</rscale>
<asrwt>0</asrwt>
<pdfrwt beam="1">  1        4 0.17209898E-01 0.31530266E+03</pdfrwt>
<pdfrwt beam="2">  1       -4 0.14180078E+00 0.31530266E+03</pdfrwt>
<totfact> 0.19987453E+01</totfact>
</mgrwt>
</event>
<event>
 6    1  0.5258538E-006  0.1377906E+03  0.7546771E-02  0.1231630E+00
          1   -1    0    0  501    0  0.00000000000E+00  0.00000000000E+00  0.26781507853E+03  0.26781507853E+03  0.00000000000E+00 0. -1.
         -1   -1    0    0    0  501 -0.00000000000E+00 -0.00000000000E+00 -0.57600384354E+02  0.57600384354E+02  0.00000000000E+00 0.  1.
          5    1    1    2  502    0  0.11995324177E+02  0.70417140204E+02  0.36663296223E+02  0.80428531794E+02  0.47000000000E+01 0. -1.
         -5    1    1    2    0  502 -0.41149295283E+01 -0.38903684328E+02  0.12988592217E+03  0.13573088107E+03  0.47000000000E+01 0.  1.
        -11    1    1    2    0    0 -0.34635245836E+02 -0.45122621467E+02  0.53075109455E+02  0.77798576246E+02  0.00000000000E+00 0. -1.
         11    1    1    2    0    0  0.26754851187E+02  0.13609165591E+02 -0.94096336724E+01  0.31457473770E+02  0.00000000000E+00 0.  1.
<mgrwt>
<rscale>  0 0.12722676E+03</rscale>
<asrwt>0</asrwt>
<pdfrwt beam="1">  1        1 0.41202319E-01 0.13779060E+03</pdfrwt>
<pdfrwt beam="2">  1       -1 0.88615977E-02 0.13779060E+03</pdfrwt>
<totfact> 0.70858066E+03</totfact>
</mgrwt>
</event>
<event>
 6    1  0.5258538E-006  0.2482155E+03  0.7546771E-02  0.1114438E+00
          1   -1    0    0  501    0  0.00000000000E+00  0.00000000000E+00  0.44453694900E+03  0.44453694900E+03  0.00000000000E+00 0. -1.
         -1   -1    0    0    0  501 -0.00000000000E+00 -0.00000000000E+00 -0.34648940534E+02  0.34648940534E+02  0.00000000000E+00 0.  1.
          5    1    1    2  502    0 -0.49892304573E+02 -0.58297430909E+02  0.59813476429E+02  0.97404180961E+02  0.47000000000E+01 0.  1.
         -5    1    1    2    0  502  0.12038117237E+02  0.11557860085E+02  0.17106729670E+03  0.17194362563E+03  0.47000000000E+01 0.  1.
        -11    1    1    2    0    0  0.26183105916E+02 -0.25305376127E+02  0.55529244892E+02  0.66403419600E+02  0.00000000000E+00 0.  1.
         11    1    1    2    0    0  0.11671081420E+02  0.72044946951E+02  0.12347799044E+03  0.14343466334E+03  0.00000000000E+00 0. -1.
<mgrwt>
<rscale>  0 0.24821551E+03</rscale>
<asrwt>0</asrwt>
<pdfrwt beam="1">  1        1 0.68390296E-01 0.24821551E+03</pdfrwt>
<pdfrwt beam="2">  1       -1 0.53306066E-02 0.24821551E+03</pdfrwt>
<totfact> 0.83426991E+03</totfact>
</mgrwt>
</event>
<event>
 6    1  0.5258538E-006  0.2867399E+03  0.7546771E-02  0.1132233E+00
          1   -1    0    0  501    0  0.00000000000E+00  0.00000000000E+00  0.15663228947E+03  0.15663228947E+03  0.00000000000E+00 0. -1.
         -1   -1    0    0    0  501 -0.00000000000E+00 -0.00000000000E+00 -0.29355742519E+03  0.29355742519E+03  0.00000000000E+00 0.  1.
          5    1    1    2  502    0 -0.70835012442E+02 -0.11362627875E+03  0.14842014828E+02  0.13479950154E+03  0.47000000000E+01 0. -1.
         -5    1    1    2    0  502  0.11534006417E+03  0.95767405792E+02 -0.25475240275E+02  0.15213745194E+03  0.47000000000E+01 0.  1.
        -11    1    1    2    0    0 -0.47569123120E+01  0.47993322223E+02 -0.36303836714E+02  0.60365186597E+02  0.00000000000E+00 0.  1.
         11    1    1    2    0    0 -0.39748139421E+02 -0.30134449261E+02 -0.89988073566E+02  0.10288757458E+03  0.00000000000E+00 0. -1.
<mgrwt>
<rscale>  0 0.22222773E+03</rscale>
<asrwt>0</asrwt>
<pdfrwt beam="1">  1        1 0.24097275E-01 0.28673986E+03</pdfrwt>
<pdfrwt beam="2">  1       -1 0.45162681E-01 0.28673986E+03</pdfrwt>
<totfact> 0.99543465E+02</totfact>
</mgrwt>
</event>
<event>
 6    1  0.5258538E-006  0.1882181E+03  0.7546771E-02  0.1165015E+00
         -3   -1    0    0    0  501 -0.00000000000E+00  0.00000000000E+00  0.58843748812E+03  0.58843748812E+03  0.00000000000E+00 0.  1.
          3   -1    0    0  501    0  0.00000000000E+00 -0.00000000000E+00 -0.56082599264E+02  0.56082599264E+02  0.00000000000E+00 0. -1.
          5    1    1    2  502    0  0.14613965205E+03  0.26765968843E+02  0.15320806260E+03  0.21346666118E+03  0.47000000000E+01 0.  1.
         -5    1    1    2    0  502 -0.57261427035E+01 -0.36358065228E+02  0.63693845791E+02  0.73713591752E+02  0.47000000000E+01 0.  1.
        -11    1    1    2    0    0 -0.15213792530E+03 -0.43146273725E+00  0.27965408750E+03  0.31835914174E+03  0.00000000000E+00 0.  1.
         11    1    1    2    0    0  0.11724415947E+02  0.10023559122E+02  0.35798892969E+02  0.38980692716E+02  0.00000000000E+00 0. -1.
<mgrwt>
<rscale>  0 0.18291148E+03</rscale>
<asrwt>0</asrwt>
<pdfrwt beam="2">  1        3 0.86280926E-02 0.18821812E+03</pdfrwt>
<pdfrwt beam="1">  1       -3 0.90528840E-01 0.18821812E+03</pdfrwt>
<totfact> 0.25914699E+02</totfact>
</mgrwt>
</event>
<event>
 6    1  0.5258538E-006  0.2677568E+03  0.7546771E-02  0.1128658E+00
         -2   -1    0    0    0  501 -0.00000000000E+00  0.00000000000E+00  0.49146833265E+03  0.49146833265E+03  0.00000000000E+00 0.  1.
          2   -1    0    0  501    0  0.00000000000E+00 -0.00000000000E+00 -0.17701803274E+03  0.17701803274E+03  0.00000000000E+00 0. -1.
          5    1    1    2  502    0  0.60919239377E+02 -0.43879658193E+02 -0.15317544831E+03  0.17064989334E+03  0.47000000000E+01 0. -1.
         -5    1    1    2    0  502  0.12886383839E+02 -0.28755063149E+02  0.97726102315E+02  0.10278810057E+03  0.47000000000E+01 0.  1.
        -11    1    1    2    0    0 -0.94081728026E+02  0.69723182198E+02  0.33067482972E+03  0.35079700212E+03  0.00000000000E+00 0.  1.
         11    1    1    2    0    0  0.20276104811E+02  0.29115391439E+01  0.39224816185E+02  0.44251369371E+02  0.00000000000E+00 0. -1.
<mgrwt>
<rscale>  0 0.22715582E+03</rscale>
<asrwt>0</asrwt>
<pdfrwt beam="2">  1        2 0.27233544E-01 0.26775680E+03</pdfrwt>
<pdfrwt beam="1">  1       -2 0.75610512E-01 0.26775680E+03</pdfrwt>
<totfact> 0.31650489E+02</totfact>
</mgrwt>
</event>
<event>
 6    1  0.5258538E-006  0.3061885E+03  0.7546771E-02  0.1082187E+00
         -2   -1    0    0    0  501 -0.00000000000E+00  0.00000000000E+00  0.60537699850E+03  0.60537699850E+03  0.00000000000E+00 0. -1.
          2   -1    0    0  501    0  0.00000000000E+00 -0.00000000000E+00 -0.38716110314E+02  0.38716110314E+02  0.00000000000E+00 0.  1.
          5    1    1    2  502    0 -0.15502118267E+02  0.36929414832E+02  0.45921852819E+02  0.61114678408E+02  0.47000000000E+01 0.  1.
         -5    1    1    2    0  502  0.11834808473E+03 -0.81867186959E+01  0.27266575850E+03  0.29739199280E+03  0.47000000000E+01 0.  1.
        -11    1    1    2    0    0 -0.39096439477E+02 -0.17582519723E+02  0.20109779214E+03  0.20561614378E+03  0.00000000000E+00 0. -1.
         11    1    1    2    0    0 -0.63749526989E+02 -0.11160176414E+02  0.46975484725E+02  0.79970293823E+02  0.00000000000E+00 0.  1.
<mgrwt>
<rscale>  0 0.30618846E+03</rscale>
<asrwt>0</asrwt>
<pdfrwt beam="2">  1        2 0.59563251E-02 0.30618846E+03</pdfrwt>
<pdfrwt beam="1">  1       -2 0.93134916E-01 0.30618846E+03</pdfrwt>
<totfact> 0.12642442E+03</totfact>
</mgrwt>
</event>
<event>
 6    1  0.5258538E-006  0.2935312E+03  0.7546771E-02  0.1088520E+00
         -2   -1    0    0    0  501 -0.00000000000E+00  0.00000000000E+00  0.41390986108E+02  0.41390986108E+02  0.00000000000E+00 0.  1.
          2   -1    0    0  501    0  0.00000000000E+00 -0.00000000000E+00 -0.52040640247E+03  0.52040640247E+03  0.00000000000E+00 0. -1.
          5    1    1    2  502    0  0.22415520012E+02  0.27240520767E+02 -0.48594756060E+02  0.60233228584E+02  0.47000000000E+01 0. -1.
         -5    1    1    2    0  502  0.80042265161E+00 -0.11724764994E+03 -0.27045257291E+03  0.29481237472E+03  0.47000000000E+01 0. -1.
        -11    1    1    2    0    0  0.23429016534E+02  0.76711081178E+02 -0.80414047804E+02  0.11357784940E+03  0.00000000000E+00 0.  1.
         11    1    1    2    0    0 -0.46644959198E+02  0.13296047998E+02 -0.79554039586E+02  0.93173935869E+02  0.00000000000E+00 0. -1.
<mgrwt>
<rscale>  0 0.29353115E+03</rscale>
<asrwt>0</asrwt>
<pdfrwt beam="2">  1        2 0.80062522E-01 0.29353115E+03</pdfrwt>
<pdfrwt beam="1">  1       -2 0.63678441E-02 0.29353115E+03</pdfrwt>
<totfact> 0.80117347E+03</totfact>
</mgrwt>
</event>
<event>
 6    1  0.5258538E-006  0.1588997E+03  0.7546771E-02  0.1197860E+00
          2   -1    0    0  501    0  0.00000000000E+00  0.00000000000E+00  0.17338203873E+03  0.17338203873E+03  0.00000000000E+00 0. -1.
         -2   -1    0    0    0  501 -0.00000000000E+00 -0.00000000000E+00 -0.12906090548E+03  0.12906090548E+03  0.00000000000E+00 0.  1.
          5    1    1    2  502    0 -0.62038812764E+02  0.22830916879E+02  0.25532193932E+01  0.66322499832E+02  0.47000000000E+01 0.  1.
         -5    1    1    2    0  502  0.45848310865E+02  0.73926893958E+02  0.53190174110E+02  0.10207123925E+03  0.47000000000E+01 0.  1.
        -11    1    1    2    0    0  0.15813582787E+02  0.14503272503E+02  0.36689581543E+01  0.21768683189E+02  0.00000000000E+00 0. -1.
         11    1    1    2    0    0  0.37691911117E+00 -0.11126108334E+03 -0.15091218406E+02  0.11228052194E+03  0.00000000000E+00 0.  1.
<mgrwt>
<rscale>  0 0.15214681E+03</rscale>
<asrwt>0</asrwt>
<pdfrwt beam="1">  1        2 0.26674160E-01 0.15889973E+03</pdfrwt>
<pdfrwt beam="2">  1       -2 0.19855524E-01 0.15889973E+03</pdfrwt>
<totfact> 0.41187159E+03</totfact>
</mgrwt>
</event>
<event>
 6    1  0.5258538E-006  0.1332800E+03  0.7546771E-02  0.1233575E+00
         -1   -1    0    0    0  501 -0.00000000000E+00  0.00000000000E+00  0.27053971719E+02  0.27053971719E+02  0.00000000000E+00 0.  1.
          1   -1    0    0  501    0  0.00000000000E+00 -0.00000000000E+00 -0.59470139387E+03  0.59470139387E+03  0.00000000000E+00 0. -1.
          5    1    1    2  502    0 -0.14285239356E+02  0.34476031786E+02 -0.40737802910E+02  0.55446581654E+02  0.47000000000E+01 0.  1.
         -5    1    1    2    0  502 -0.20286466883E+02 -0.65185398415E+02 -0.37310687602E+03  0.37933034131E+03  0.47000000000E+01 0.  1.
        -11    1    1    2    0    0  0.11643254857E+02  0.31340733684E+02 -0.15980825159E+03  0.16326813605E+03  0.00000000000E+00 0. -1.
         11    1    1    2    0    0  0.22928451381E+02 -0.63136705550E+00  0.60055083725E+01  0.23710306576E+02  0.00000000000E+00 0.  1.
<mgrwt>
<rscale>  0 0.12596087E+03</rscale>
<asrwt>0</asrwt>
<pdfrwt beam="2">  1        1 0.91492525E-01 0.13327999E+03</pdfrwt>
<pdfrwt beam="1">  1       -1 0.41621493E-02 0.13327999E+03</pdfrwt>
<totfact> 0.79055044E+03</totfact>
</mgrwt>
</event>
<event>
 6    1  0.5258538E-006  0.1276094E+03  0.7546771E-02  0.1245784E+00
         -1   -1    0    0    0  501 -0.00000000000E+00  0.00000000000E+00  0.25650286281E+02  0.25650286281E+02  0.00000000000E+00 0.  1.
          1   -1    0    0  501    0  0.00000000000E+00 -0.00000000000E+00 -0.48690367424E+03  0.48690367424E+03  0.00000000000E+00 0. -1.
          5    1    1    2  502    0 -0.11453917150E+01 -0.21129817683E+02 -0.29255943238E+03  0.29336136861E+03  0.47000000000E+01 0.  1.
         -5    1    1    2    0  502 -0.22673177357E+02  0.11539710104E+02 -0.58802643662E-01  0.25871438663E+02  0.47000000000E+01 0.  1.
        -11    1    1    2    0    0  0.14817871730E+02 -0.38533445615E+02 -0.10645794920E+03  0.11418270754E+03  0.00000000000E+00 0. -1.
         11    1    1    2    0    0  0.90006973417E+01  0.48123553194E+02 -0.62177203733E+02  0.79138445706E+02  0.00000000000E+00 0.  1.
<mgrwt>
<rscale>  0 0.11838599E+03</rscale>
<asrwt>0</asrwt>
<pdfrwt beam="2">  1        1 0.74908252E-01 0.12760938E+03</pdfrwt>
<pdfrwt beam="1">  1       -1 0.39461982E-02 0.12760938E+03</pdfrwt>
<totfact> 0.11105464E+04</totfact>
</mgrwt>
</event>
<event>
 6    1  0.5258538E-006  0.1302143E+03  0.7546771E-02  0.1240231E+00
          1   -1    0    0  501    0  0.00000000000E+00  0.00000000000E+00  0.94122787483E+03  0.94122787483E+03  0.00000000000E+00 0. -1.
         -1   -1    0    0    0  501 -0.00000000000E+00 -0.00000000000E+00 -0.14251573639E+02  0.14251573639E+02  0.00000000000E+00 0.  1.
          5    1    1    2  502    0 -0.38713616545E-01  0.75188455852E+02  0.33461190613E+03  0.34298764281E+03  0.47000000000E+01 0.  1.
         -5    1    1    2    0  502  0.24944479043E+02 -0.48644193096E+02  0.25016164347E+03  0.25610822404E+03  0.47000000000E+01 0.  1.
        -11    1    1    2    0    0  0.30956711195E+02 -0.25225564186E+02  0.97074505875E+02  0.10496716985E+03  0.00000000000E+00 0.  1.
         11    1    1    2    0    0 -0.55862476621E+02 -0.13186985693E+01  0.24512824571E+03  0.25141641177E+03  0.00000000000E+00 0. -1.
<mgrwt>
<rscale>  0 0.12175425E+03</rscale>
<asrwt>0</asrwt>
<pdfrwt beam="1">  1        1 0.14480424E+00 0.13021426E+03</pdfrwt>
<pdfrwt beam="2">  1       -1 0.21925505E-02 0.13021426E+03</pdfrwt>
<totfact> 0.10204182E+04</totfact>
</mgrwt>
</event>
<event>
 6    1  0.5258538E-006  0.1624823E+03  0.7546771E-02  0.1192869E+00
          1   -1    0    0  501    0  0.00000000000E+00  0.00000000000E+00  0.10743045009E+04  0.10743045009E+04  0.00000000000E+00 0. -1.
         -1   -1    0    0    0  501 -0.00000000000E+00 -0.00000000000E+00 -0.22620631731E+02  0.22620631731E+02  0.00000000000E+00 0.  1.
          5    1    1    2  502    0  0.80881763589E+02  0.38076954252E+02  0.52732816018E+03  0.53487268826E+03  0.47000000000E+01 0. -1.
         -5    1    1    2    0  502 -0.32377642458E+02  0.53689767983E+02  0.17339633363E+03  0.18444316586E+03  0.47000000000E+01 0. -1.
        -11    1    1    2    0    0 -0.50970266996E+02 -0.23538023270E+02  0.24653454678E+03  0.25284637512E+03  0.00000000000E+00 0. -1.
         11    1    1    2    0    0  0.24661458645E+01 -0.68228698965E+02  0.10442482859E+03  0.12476290340E+03  0.00000000000E+00 0.  1.
<mgrwt>
<rscale>  0 0.15635984E+03</rscale>
<asrwt>0</asrwt>
<pdfrwt beam="1">  1        1 0.16527758E+00 0.16248225E+03</pdfrwt>
<pdfrwt beam="2">  1       -1 0.34800980E-02 0.16248225E+03</pdfrwt>
<totfact> 0.42033066E+03</totfact>
</mgrwt>
</event>
<event>
 6    1  0.5258538E-006  0.2221627E+03  0.7546771E-02  0.1132281E+00
         -1   -1    0    0    0  501 -0.00000000000E+00  0.00000000000E+00  0.10395906037E+03  0.10395906037E+03  0.00000000000E+00 0.  1.
          1   -1    0    0  501    0  0.00000000000E+00 -0.00000000000E+00 -0.11869162505E+03  0.11869162505E+03  0.00000000000E+00 0. -1.
          5    1    1    2  502    0 -0.11993567938E+02  0.73088589302E+01 -0.73247302171E+02  0.74729661889E+02  0.47000000000E+01 0. -1.
         -5    1    1    2    0  502  0.13775372464E+02 -0.33157474331E+02  0.34181584275E+02  0.49796081111E+02  0.47000000000E+01 0.  1.
        -11    1    1    2    0    0 -0.30042500391E+02  0.22299197475E+02 -0.22245587681E+02  0.43527832580E+02  0.00000000000E+00 0. -1.
         11    1    1    2    0    0  0.28260695865E+02  0.35494179259E+01  0.46578740900E+02  0.54597109834E+02  0.00000000000E+00 0.  1.
<mgrwt>
<rscale>  0 0.22216273E+03</rscale>
<asrwt>0</asrwt>
<pdfrwt beam="2">  1        1 0.18260250E-01 0.22216273E+03</pdfrwt>
<pdfrwt beam="1">  1       -1 0.15993702E-01 0.22216273E+03</pdfrwt>
<totfact> 0.81523856E+03</totfact>
</mgrwt>
</event>
<event>
 6    1  0.5258538E-006  0.1315153E+03  0.7546771E-02  0.1234000E+00
          1   -1    0    0  501    0  0.00000000000E+00  0.00000000000E+00  0.14995784563E+03  0.14995784563E+03  0.00000000000E+00 0. -1.
         -1   -1    0    0    0  501 -0.00000000000E+00 -0.00000000000E+00 -0.10556173340E+03  0.10556173340E+03  0.00000000000E+00 0.  1.
          5    1    1    2  502    0  0.42579369306E+02 -0.48548360341E+02  0.64057285464E+00  0.64749102819E+02  0.47000000000E+01 0. -1.
         -5    1    1    2    0  502 -0.65622223747E+02  0.63477176317E+01 -0.12833014643E+02  0.67330127235E+02  0.47000000000E+01 0.  1.
        -11    1    1    2    0    0  0.42713799315E+01  0.73261938498E+02  0.36592074996E+02  0.82003269883E+02  0.00000000000E+00 0.  1.
         11    1    1    2    0    0  0.18771474509E+02 -0.31061295788E+02  0.19996479022E+02  0.41437079103E+02  0.00000000000E+00 0. -1.
<mgrwt>
<rscale>  0 0.12568662E+03</rscale>
<asrwt>0</asrwt>
<pdfrwt beam="1">  1        1 0.23070438E-01 0.13151527E+03</pdfrwt>
<pdfrwt beam="2">  1       -1 0.16240267E-01 0.13151527E+03</pdfrwt>
<totfact> 0.57059649E+03</totfact>
</mgrwt>
</event>
<event>
 6    1  0.5258538E-006  0.1288732E+03  0.7546771E-02  0.1242937E+00
          1   -1    0    0  501    0  0.00000000000E+00  0.00000000000E+00  0.12449134248E+04  0.12449134248E+04  0.00000000000E+00 0. -1.
         -1   -1    0    0    0  501 -0.00000000000E+00 -0.00000000000E+00 -0.12589006655E+02  0.12589006655E+02  0.00000000000E+00 0.  1.
          5    1    1    2  502    0  0.22520984006E+02 -0.54256031323E+02  0.38593070571E+03  0.39040429207E+03  0.47000000000E+01 0. -1.
         -5    1    1    2    0  502 -0.52421809123E+02  0.44815776503E+02  0.56871387391E+03  0.57289969477E+03  0.47000000000E+01 0. -1.
        -11    1    1    2    0    0  0.52420353121E+02  0.32664357837E+02  0.14451347267E+03  0.15715914698E+03  0.00000000000E+00 0.  1.
         11    1    1    2    0    0 -0.22519528004E+02 -0.23224103018E+02  0.13316636585E+03  0.13703929763E+03  0.00000000000E+00 0. -1.
<mgrwt>
<rscale>  0 0.12009683E+03</rscale>
<asrwt>0</asrwt>
<pdfrwt beam="1">  1        1 0.19152505E+00 0.12887318E+03</pdfrwt>
<pdfrwt beam="2">  1       -1 0.19367712E-02 0.12887318E+03</pdfrwt>
<totfact> 0.74357309E+03</totfact>
</mgrwt>
</event>
<event>
 6    1  0.5258538E-006  0.2284242E+03  0.7546771E-02  0.1131270E+00
         -2   -1    0    0    0  501 -0.00000000000E+00  0.00000000000E+00  0.20048284106E+02  0.20048284106E+02  0.00000000000E+00 0.  1.
          2   -1    0    0  501    0  0.00000000000E+00 -0.00000000000E+00 -0.29548398534E+04  0.29548398534E+04  0.00000000000E+00 0. -1.
          5    1    1    2  502    0 -0.28648146769E+02 -0.36172609478E+02 -0.45453503884E+03  0.45689535511E+03  0.47000000000E+01 0.  1.
         -5    1    1    2    0  502 -0.14602910324E+03  0.10854497876E+03 -0.17131135096E+04  0.17227554958E+04  0.47000000000E+01 0. -1.
        -11    1    1    2    0    0  0.15814572458E+03 -0.26301855242E+02 -0.57098315584E+03  0.59306291576E+03  0.00000000000E+00 0.  1.
         11    1    1    2    0    0  0.16531525430E+02 -0.46070514036E+02 -0.19615986504E+03  0.20217437090E+03  0.00000000000E+00 0. -1.
<mgrwt>
<rscale>  0 0.22354095E+03</rscale>
<asrwt>0</asrwt>
<pdfrwt beam="2">  1        2 0.45459068E+00 0.22842417E+03</pdfrwt>
<pdfrwt beam="1">  1       -2 0.30843518E-02 0.22842417E+03</pdfrwt>
<totfact> 0.90782109E+02</totfact>
</mgrwt>
</event>
<event>
 6    1  0.5258538E-006  0.1347623E+03  0.7546771E-02  0.1231845E+00
          1   -1    0    0  501    0  0.00000000000E+00  0.00000000000E+00  0.41270075404E+02  0.41270075404E+02  0.00000000000E+00 0. -1.
         -1   -1    0    0    0  501 -0.00000000000E+00 -0.00000000000E+00 -0.36480325832E+03  0.36480325832E+03  0.00000000000E+00 0.  1.
          5    1    1    2  502    0 -0.66844260056E+01 -0.54095950072E+02 -0.32435226826E+01  0.54805691352E+02  0.47000000000E+01 0.  1.
         -5    1    1    2    0  502  0.21201171460E+02  0.58619200050E+01 -0.14027104157E+03  0.14206303840E+03  0.47000000000E+01 0.  1.
        -11    1    1    2    0    0 -0.53987687573E+02  0.33462277542E+02 -0.12134706245E+03  0.13696533866E+03  0.00000000000E+00 0.  1.
         11    1    1    2    0    0  0.39470942118E+02  0.14771752525E+02 -0.58671556209E+02  0.72239265309E+02  0.00000000000E+00 0. -1.
<mgrwt>
<rscale>  0 0.12708604E+03</rscale>
<asrwt>0</asrwt>
<pdfrwt beam="1">  1        1 0.63492421E-02 0.13476226E+03</pdfrwt>
<pdfrwt beam="2">  1       -1 0.56123581E-01 0.13476226E+03</pdfrwt>
<totfact> 0.37867806E+03</totfact>
</mgrwt>
</event>
<event>
 6    1  0.5258538E-006  0.1487176E+03  0.7546771E-02  0.1211834E+00
         -2   -1    0    0    0  501 -0.00000000000E+00  0.00000000000E+00  0.36642926593E+02  0.36642926593E+02  0.00000000000E+00 0.  1.
          2   -1    0    0  501    0  0.00000000000E+00 -0.00000000000E+00 -0.49847625815E+03  0.49847625815E+03  0.00000000000E+00 0. -1.
          5    1    1    2  502    0  0.44605333967E+02  0.47261102459E+02 -0.16184280174E+03  0.17446612880E+03  0.47000000000E+01 0.  1.
         -5    1    1    2    0  502 -0.74519140550E+02  0.27562275989E+02 -0.11609927387E+03  0.14076190095E+03  0.47000000000E+01 0.  1.
        -11    1    1    2    0    0  0.20542947912E+02 -0.94175292301E+02 -0.16583838588E+03  0.19181597592E+03  0.00000000000E+00 0. -1.
         11    1    1    2    0    0  0.93708586708E+01  0.19351913853E+02 -0.18052870073E+02  0.28075179071E+02  0.00000000000E+00 0.  1.
<mgrwt>
<rscale>  0 0.14111649E+03</rscale>
<asrwt>0</asrwt>
<pdfrwt beam="2">  1        2 0.76688654E-01 0.14871756E+03</pdfrwt>
<pdfrwt beam="1">  1       -2 0.56373734E-02 0.14871756E+03</pdfrwt>
<totfact> 0.97548837E+03</totfact>
</mgrwt>
</event>
<event>
 6    1  0.5258538E-006  0.2231692E+03  0.7546771E-02  0.1134667E+00
          2   -1    0    0  501    0  0.00000000000E+00  0.00000000000E+00  0.82242912102E+02  0.82242912102E+02  0.00000000000E+00 0.  1.
         -2   -1    0    0    0  501 -0.00000000000E+00 -0.00000000000E+00 -0.63693246979E+03  0.63693246979E+03  0.00000000000E+00 0. -1.
          5    1    1    2  502    0  0.66071640506E+01 -0.33124894657E+01 -0.74239470630E+02  0.74754372465E+02  0.47000000000E+01 0. -1.
         -5    1    1    2    0  502  0.12635039908E+02 -0.18056555710E+03 -0.89096457785E+02  0.20180147035E+03  0.47000000000E+01 0. -1.
        -11    1    1    2    0    0 -0.47441995814E+02  0.46363615652E+02 -0.13061874964E+03  0.14649773234E+03  0.00000000000E+00 0. -1.
         11    1    1    2    0    0  0.28199791856E+02  0.13751443091E+03 -0.26073487963E+03  0.29612180674E+03  0.00000000000E+00 0.  1.
<mgrwt>
<rscale>  0 0.21895171E+03</rscale>
<asrwt>0</asrwt>
<pdfrwt beam="1">  1        2 0.12652756E-01 0.22316924E+03</pdfrwt>
<pdfrwt beam="2">  1       -2 0.97989610E-01 0.22316924E+03</pdfrwt>
<totfact> 0.43001627E+02</totfact>
</mgrwt>
</event>
<event>
 6    1  0.5258538E-006  0.1347636E+03  0.7546771E-02  0.1232503E+00
         -2   -1    0    0    0  501 -0.00000000000E+00  0.00000000000E+00  0.72421898506E+02  0.72421898506E+02  0.00000000000E+00 0.  1.
          2   -1    0    0  501    0  0.00000000000E+00 -0.00000000000E+00 -0.21362401294E+03  0.21362401294E+03  0.00000000000E+00 0. -1.
          5    1    1    2  502    0 -0.25438191764E+02 -0.33697455225E+02 -0.17372288273E+02  0.45896693658E+02  0.47000000000E+01 0. -1.
         -5    1    1    2    0  502  0.24144438822E+02  0.84039902333E+02 -0.98888537454E+02  0.13208592639E+03  0.47000000000E+01 0. -1.
        -11    1    1    2    0    0 -0.13507499186E+02 -0.35437273621E+02 -0.57760156367E+02  0.69097674052E+02  0.00000000000E+00 0. -1.
         11    1    1    2    0    0  0.14801252128E+02 -0.14905173487E+02  0.32818867656E+02  0.38965617350E+02  0.00000000000E+00 0.  1.
<mgrwt>
<rscale>  0 0.12665645E+03</rscale>
<asrwt>0</asrwt>
<pdfrwt beam="2">  1        2 0.32865233E-01 0.13476362E+03</pdfrwt>
<pdfrwt beam="1">  1       -2 0.11141830E-01 0.13476362E+03</pdfrwt>
<totfact> 0.83647943E+03</totfact>
</mgrwt>
</event>
<event>
 6    1  0.5258538E-006  0.1366200E+03  0.7546771E-02  0.1230804E+00
          1   -1    0    0  501    0  0.00000000000E+00  0.00000000000E+00  0.22816519829E+03  0.22816519829E+03  0.00000000000E+00 0. -1.
         -1   -1    0    0    0  501 -0.00000000000E+00 -0.00000000000E+00 -0.65414419945E+02  0.65414419945E+02  0.00000000000E+00 0.  1.
          5    1    1    2  502    0  0.26687083471E+01 -0.55608390931E+02  0.28268035673E+00  0.55871146886E+02  0.47000000000E+01 0.  1.
         -5    1    1    2    0  502  0.38525979054E+02  0.18972556052E+02  0.11514485142E+03  0.12298225788E+03  0.47000000000E+01 0.  1.
        -11    1    1    2    0    0 -0.31700032587E+02 -0.13657813747E+02  0.52980381750E+02  0.63232497917E+02  0.00000000000E+00 0. -1.
         11    1    1    2    0    0 -0.94946548140E+01  0.50293648626E+02 -0.56571351860E+01  0.51493715546E+02  0.00000000000E+00 0.  1.
<mgrwt>
<rscale>  0 0.12776931E+03</rscale>
<asrwt>0</asrwt>
<pdfrwt beam="1">  1        1 0.35102338E-01 0.13662000E+03</pdfrwt>
<pdfrwt beam="2">  1       -1 0.10063757E-01 0.13662000E+03</pdfrwt>
<totfact> 0.71145651E+03</totfact>
</mgrwt>
</event>
<event>
 6    1  0.5258538E-006  0.3682772E+03  0.7546771E-02  0.1055354E+00
          1   -1    0    0  501    0  0.00000000000E+00  0.00000000000E+00  0.16925826923E+04  0.16925826923E+04  0.00000000000E+00 0. -1.
         -1   -1    0    0    0  501 -0.00000000000E+00 -0.00000000000E+00 -0.20032712010E+02  0.20032712010E+02  0.00000000000E+00 0.  1.
          5    1    1    2  502    0  0.90020810826E+02 -0.95478082338E+02  0.47537910370E+03  0.49318068983E+03  0.47000000000E+01 0.  1.
         -5    1    1    2    0  502 -0.54073982155E+01 -0.23744064340E+02  0.52246000419E+03  0.52304834052E+03  0.47000000000E+01 0.  1.
        -11    1    1    2    0    0 -0.36416199296E+01  0.83107074023E+02  0.29902483945E+03  0.31038025349E+03  0.00000000000E+00 0.  1.
         11    1    1    2    0    0 -0.80971792681E+02  0.36115072655E+02  0.37568603299E+03  0.38600612050E+03  0.00000000000E+00 0. -1.
<mgrwt>
<rscale>  0 0.36827719E+03</rscale>
<asrwt>0</asrwt>
<pdfrwt beam="1">  1        1 0.26039723E+00 0.36827719E+03</pdfrwt>
<pdfrwt beam="2">  1       -1 0.30819570E-02 0.36827719E+03</pdfrwt>
<totfact> 0.19322154E+03</totfact>
</mgrwt>
</event>
<event>
 6    1  0.5258538E-006  0.1669787E+03  0.7546771E-02  0.1188872E+00
          2   -1    0    0  501    0  0.00000000000E+00  0.00000000000E+00  0.24967738532E+03  0.24967738532E+03  0.00000000000E+00 0. -1.
         -2   -1    0    0    0  501 -0.00000000000E+00 -0.00000000000E+00 -0.13502141103E+03  0.13502141103E+03  0.00000000000E+00 0.  1.
          5    1    1    2  502    0 -0.68096806215E+02 -0.10362002082E+02  0.31276236980E+02  0.75794716857E+02  0.47000000000E+01 0.  1.
         -5    1    1    2    0  502  0.11555724417E+02 -0.84780952977E+02  0.13464908256E+03  0.15960516968E+03  0.47000000000E+01 0.  1.
        -11    1    1    2    0    0  0.26680988832E+02 -0.66448283895E+01 -0.30758908897E+02  0.41256991963E+02  0.00000000000E+00 0.  1.
         11    1    1    2    0    0  0.29860092966E+02  0.10178778345E+03 -0.20510436366E+02  0.10804191784E+03  0.00000000000E+00 0. -1.
<mgrwt>
<rscale>  0 0.15984471E+03</rscale>
<asrwt>0</asrwt>
<pdfrwt beam="1">  1        2 0.38411905E-01 0.16697873E+03</pdfrwt>
<pdfrwt beam="2">  1       -2 0.20772525E-01 0.16697873E+03</pdfrwt>
<totfact> 0.25739850E+03</totfact>
</mgrwt>
</event>
<event>
 6    1  0.5258538E-006  0.1706890E+03  0.7546771E-02  0.1183426E+00
          1   -1    0    0  501    0  0.00000000000E+00  0.00000000000E+00  0.24716322149E+03  0.24716322149E+03  0.00000000000E+00 0. -1.
         -1   -1    0    0    0  501 -0.00000000000E+00 -0.00000000000E+00 -0.13470809170E+03  0.13470809170E+03  0.00000000000E+00 0.  1.
          5    1    1    2  502    0 -0.29271447042E+02 -0.85448281003E+02  0.12073853959E+03  0.15085791753E+03  0.47000000000E+01 0.  1.
         -5    1    1    2    0  502 -0.67672760258E+02  0.21357493346E+02  0.31208132350E+02  0.77664551295E+02  0.47000000000E+01 0.  1.
        -11    1    1    2    0    0  0.33582008458E+02  0.23038304936E+02 -0.62344470196E+02  0.74467091728E+02  0.00000000000E+00 0.  1.
         11    1    1    2    0    0  0.63362198843E+02  0.41052482720E+02  0.22852928050E+02  0.78881752644E+02  0.00000000000E+00 0. -1.
<mgrwt>
<rscale>  0 0.16475893E+03</rscale>
<asrwt>0</asrwt>
<pdfrwt beam="1">  1        1 0.38025111E-01 0.17068898E+03</pdfrwt>
<pdfrwt beam="2">  1       -1 0.20724322E-01 0.17068898E+03</pdfrwt>
<totfact> 0.20966229E+03</totfact>
</mgrwt>
</event>
<event>
 6    1  0.5258538E-006  0.1278039E+03  0.7546771E-02  0.1244982E+00
         -4   -1    0    0    0  501 -0.00000000000E+00  0.00000000000E+00  0.49666658851E+03  0.49666658851E+03  0.00000000000E+00 0.  1.
          4   -1    0    0  501    0  0.00000000000E+00 -0.00000000000E+00 -0.26037363283E+02  0.26037363283E+02  0.00000000000E+00 0. -1.
          5    1    1    2  502    0 -0.40617139892E+02  0.56453885446E+02  0.13200424997E+03  0.14927828122E+03  0.47000000000E+01 0.  1.
         -5    1    1    2    0  502  0.48282379901E+02 -0.30953261273E+02  0.87669341128E+02  0.10486799305E+03  0.47000000000E+01 0.  1.
        -11    1    1    2    0    0 -0.49618709793E+02 -0.15575445739E+02  0.12330405493E+03  0.13382264694E+03  0.00000000000E+00 0. -1.
         11    1    1    2    0    0  0.41953469784E+02 -0.99251784339E+01  0.12765157920E+03  0.13473503058E+03  0.00000000000E+00 0.  1.
<mgrwt>
<rscale>  0 0.11886476E+03</rscale>
<asrwt>0</asrwt>
<pdfrwt beam="2">  1        4 0.40057486E-02 0.12780392E+03</pdfrwt>
<pdfrwt beam="1">  1       -4 0.76410237E-01 0.12780392E+03</pdfrwt>
<totfact> 0.87720285E+02</totfact>
</mgrwt>
</event>
<event>
 6    1  0.5258538E-006  0.2034089E+03  0.7546771E-02  0.1150240E+00
         -1   -1    0    0    0  501 -0.00000000000E+00  0.00000000000E+00  0.23363166160E+03  0.23363166160E+03  0.00000000000E+00 0.  1.
          1   -1    0    0  501    0  0.00000000000E+00 -0.00000000000E+00 -0.18222509773E+03  0.18222509773E+03  0.00000000000E+00 0. -1.
          5    1    1    2  502    0 -0.51409261107E+02 -0.25532373700E+01 -0.71022862945E+02  0.87839445636E+02  0.47000000000E+01 0.  1.
         -5    1    1    2    0  502 -0.98990263779E+02  0.58515147914E+02  0.31616217808E+02  0.11935145616E+03  0.47000000000E+01 0.  1.
        -11    1    1    2    0    0  0.99394735637E+02 -0.95143264031E+01  0.97249324314E+02  0.13938173108E+03  0.00000000000E+00 0.  1.
         11    1    1    2    0    0  0.51004789249E+02 -0.46447584140E+02 -0.64361152991E+01  0.69284126458E+02  0.00000000000E+00 0. -1.
<mgrwt>
<rscale>  0 0.19940714E+03</rscale>
<asrwt>0</asrwt>
<pdfrwt beam="2">  1        1 0.28034630E-01 0.20340891E+03</pdfrwt>
<pdfrwt beam="1">  1       -1 0.35943333E-01 0.20340891E+03</pdfrwt>
<totfact> 0.12265501E+03</totfact>
</mgrwt>
</event>
<event>
 6    1  0.5258538E-006  0.1488998E+03  0.7546771E-02  0.1211560E+00
          3   -1    0    0  501    0  0.00000000000E+00  0.00000000000E+00  0.13745715030E+03  0.13745715030E+03  0.00000000000E+00 0. -1.
         -3   -1    0    0    0  501 -0.00000000000E+00 -0.00000000000E+00 -0.13761593427E+03  0.13761593427E+03  0.00000000000E+00 0.  1.
          5    1    1    2  502    0  0.67811238861E+02 -0.61074495309E+02  0.33899419143E+02  0.97466500457E+02  0.47000000000E+01 0. -1.
         -5    1    1    2    0  502 -0.50038212746E+02 -0.17868896126E+02 -0.71480205500E+01  0.53817324175E+02  0.47000000000E+01 0. -1.
        -11    1    1    2    0    0 -0.27388188623E+02  0.95280237805E+02 -0.12387679407E+02  0.99909414938E+02  0.00000000000E+00 0. -1.
         11    1    1    2    0    0  0.96151625073E+01 -0.16336846371E+02 -0.14522503151E+02  0.23879844998E+02  0.00000000000E+00 0.  1.
<mgrwt>
<rscale>  0 0.14132316E+03</rscale>
<asrwt>0</asrwt>
<pdfrwt beam="1">  1        3 0.21147254E-01 0.14889983E+03</pdfrwt>
<pdfrwt beam="2">  1       -3 0.21171682E-01 0.14889983E+03</pdfrwt>
<totfact> 0.96402062E+02</totfact>
</mgrwt>
</event>
<event>
 6    1  0.5258538E-006  0.2472275E+03  0.7546771E-02  0.1117871E+00
         -1   -1    0    0    0  501 -0.00000000000E+00  0.00000000000E+00  0.65662473220E+02  0.65662473220E+02  0.00000000000E+00 0.  1.
          1   -1    0    0  501    0  0.00000000000E+00 -0.00000000000E+00 -0.10132007701E+04  0.10132007701E+04  0.00000000000E+00 0. -1.
          5    1    1    2  502    0 -0.14900821241E+01  0.55555179128E+01 -0.20800778506E+03  0.20814036795E+03  0.47000000000E+01 0.  1.
         -5    1    1    2    0  502 -0.96854138470E+02  0.18372111481E+03 -0.48379951966E+03  0.52651518249E+03  0.47000000000E+01 0.  1.
        -11    1    1    2    0    0  0.69829642808E+02 -0.10126592032E+03 -0.83404614061E+02  0.14861795073E+03  0.00000000000E+00 0.  1.
         11    1    1    2    0    0  0.28514577786E+02 -0.88010712401E+02 -0.17232637806E+03  0.19558974211E+03  0.00000000000E+00 0. -1.
<mgrwt>
<rscale>  0 0.24290673E+03</rscale>
<asrwt>0</asrwt>
<pdfrwt beam="2">  1        1 0.15587704E+00 0.24722749E+03</pdfrwt>
<pdfrwt beam="1">  1       -1 0.10101919E-01 0.24722749E+03</pdfrwt>
<totfact> 0.94032984E+02</totfact>
</mgrwt>
</event>
<event>
 6    1  0.5258538E-006  0.1590799E+03  0.7546771E-02  0.1198534E+00
         -1   -1    0    0    0  501 -0.00000000000E+00  0.00000000000E+00  0.32301040854E+02  0.32301040854E+02  0.00000000000E+00 0.  1.
          1   -1    0    0  501    0  0.00000000000E+00 -0.00000000000E+00 -0.69736373631E+03  0.69736373631E+03  0.00000000000E+00 0. -1.
          5    1    1    2  502    0  0.18692243796E+02 -0.25383698335E+02 -0.12404468470E+03  0.12807382996E+03  0.47000000000E+01 0.  1.
         -5    1    1    2    0  502 -0.11226254006E+03  0.55795909609E+02 -0.33101938425E+03  0.35399432789E+03  0.47000000000E+01 0.  1.
        -11    1    1    2    0    0  0.19644669212E+02  0.19422902810E+02 -0.11363983829E+02  0.29871429669E+02  0.00000000000E+00 0.  1.
         11    1    1    2    0    0  0.73925627057E+02 -0.49835114084E+02 -0.19863464268E+03  0.21772518964E+03  0.00000000000E+00 0. -1.
<mgrwt>
<rscale>  0 0.15158882E+03</rscale>
<asrwt>0</asrwt>
<pdfrwt beam="2">  1        1 0.10728673E+00 0.15907986E+03</pdfrwt>
<pdfrwt beam="1">  1       -1 0.49693908E-02 0.15907986E+03</pdfrwt>
<totfact> 0.49179168E+03</totfact>
</mgrwt>
</event>
<event>
 6    1  0.5258538E-006  0.1285641E+03  0.7546771E-02  0.1245470E+00
          1   -1    0    0  501    0  0.00000000000E+00  0.00000000000E+00  0.51599509853E+02  0.51599509853E+02  0.00000000000E+00 0. -1.
         -1   -1    0    0    0  501 -0.00000000000E+00 -0.00000000000E+00 -0.32063998609E+03  0.32063998609E+03  0.00000000000E+00 0.  1.
          5    1    1    2  502    0 -0.47623399519E+02  0.22387515685E+02  0.15224961592E+02  0.54982529005E+02  0.47000000000E+01 0. -1.
         -5    1    1    2    0  502  0.23009952317E+02 -0.39707379036E+02 -0.72110116907E+02  0.85604280359E+02  0.47000000000E+01 0. -1.
        -11    1    1    2    0    0  0.26501974620E+01 -0.35506060134E+02 -0.89012881452E+02  0.95869687166E+02  0.00000000000E+00 0. -1.
         11    1    1    2    0    0  0.21963249740E+02  0.52825923485E+02 -0.12314243947E+03  0.13578299941E+03  0.00000000000E+00 0.  1.
<mgrwt>
<rscale>  0 0.11857310E+03</rscale>
<asrwt>0</asrwt>
<pdfrwt beam="1">  1        1 0.79383861E-02 0.12856411E+03</pdfrwt>
<pdfrwt beam="2">  1       -1 0.49329229E-01 0.12856411E+03</pdfrwt>
<totfact> 0.35451228E+03</totfact>
</mgrwt>
</event>
<event>
 6    1  0.5258538E-006  0.1839036E+03  0.7546771E-02  0.1169858E+00
          2   -1    0    0  501    0  0.00000000000E+00  0.00000000000E+00  0.11568818688E+04  0.11568818688E+04  0.00000000000E+00 0. -1.
         -2   -1    0    0    0  501 -0.00000000000E+00 -0.00000000000E+00 -0.26745363023E+02  0.26745363023E+02  0.00000000000E+00 0.  1.
          5    1    1    2  502    0  0.92194358998E+02 -0.87032383944E+01  0.18174662790E+03  0.20403301924E+03  0.47000000000E+01 0. -1.
         -5    1    1    2    0  502  0.61434706843E+01 -0.83624362303E+02  0.30310512671E+03  0.31452437750E+03  0.47000000000E+01 0. -1.
        -11    1    1    2    0    0 -0.67555874507E+02  0.80672630725E+02  0.59960150665E+03  0.60876418777E+03  0.00000000000E+00 0. -1.
         11    1    1    2    0    0 -0.30781955175E+02  0.11654969972E+02  0.45683244506E+02  0.56305647302E+02  0.00000000000E+00 0.  1.
<mgrwt>
<rscale>  0 0.17789289E+03</rscale>
<asrwt>0</asrwt>
<pdfrwt beam="1">  1        2 0.17798179E+00 0.18390364E+03</pdfrwt>
<pdfrwt beam="2">  1       -2 0.41146721E-02 0.18390364E+03</pdfrwt>
<totfact> 0.55045180E+03</totfact>
</mgrwt>
</event>
<event>
 6    1  0.5258538E-006  0.1352670E+03  0.7546771E-02  0.1232469E+00
          2   -1    0    0  501    0  0.00000000000E+00  0.00000000000E+00  0.14291414685E+03  0.14291414685E+03  0.00000000000E+00 0.  1.
         -2   -1    0    0    0  501 -0.00000000000E+00 -0.00000000000E+00 -0.10178493437E+03  0.10178493437E+03  0.00000000000E+00 0. -1.
          5    1    1    2  502    0 -0.44113875928E+02 -0.32551765606E+02  0.65265237832E+02  0.85365641582E+02  0.47000000000E+01 0. -1.
         -5    1    1    2    0  502 -0.52923682276E+01  0.47763171090E+02 -0.26853249358E+02  0.55249585294E+02  0.47000000000E+01 0. -1.
        -11    1    1    2    0    0 -0.22114370616E+02 -0.23185854038E+02 -0.55220893414E+00  0.32045813297E+02  0.00000000000E+00 0. -1.
         11    1    1    2    0    0  0.71520614772E+02  0.79744485533E+01  0.32694329372E+01  0.72038041053E+02  0.00000000000E+00 0.  1.
<mgrwt>
<rscale>  0 0.12667844E+03</rscale>
<asrwt>0</asrwt>
<pdfrwt beam="1">  1        2 0.21986792E-01 0.13526700E+03</pdfrwt>
<pdfrwt beam="2">  1       -2 0.15659221E-01 0.13526700E+03</pdfrwt>
<totfact> 0.75063905E+03</totfact>
</mgrwt>
</event>
<event>
 6    1  0.5258538E-006  0.1267283E+03  0.7546771E-02  0.1242544E+00
         -1   -1    0    0    0  501 -0.00000000000E+00  0.00000000000E+00  0.48690130810E+02  0.48690130810E+02  0.00000000000E+00 0.  1.
          1   -1    0    0  501    0  0.00000000000E+00 -0.00000000000E+00 -0.30405553272E+03  0.30405553272E+03  0.00000000000E+00 0. -1.
          5    1    1    2  502    0  0.31886518746E+02 -0.13917233917E+02 -0.20931902838E+03  0.21224275045E+03  0.47000000000E+01 0. -1.
         -5    1    1    2    0  502  0.54557716570E+01 -0.17220973011E+02  0.12055367752E+02  0.22220469109E+02  0.47000000000E+01 0.  1.
        -11    1    1    2    0    0 -0.58995708864E+02 -0.31381932709E+01 -0.19268575786E+02  0.62141933782E+02  0.00000000000E+00 0. -1.
         11    1    1    2    0    0  0.21653418461E+02  0.34276400198E+02 -0.38833165498E+02  0.56140510189E+02  0.00000000000E+00 0.  1.
<mgrwt>
<rscale>  0 0.12033576E+03</rscale>
<asrwt>0</asrwt>
<pdfrwt beam="2">  1        1 0.46777775E-01 0.12672825E+03</pdfrwt>
<pdfrwt beam="1">  1       -1 0.74907892E-02 0.12672825E+03</pdfrwt>
<totfact> 0.77610631E+03</totfact>
</mgrwt>
</event>
<event>
 6    1  0.5258538E-006  0.3990683E+03  0.7546771E-02  0.1054837E+00
         -2   -1    0    0    0  501 -0.00000000000E+00  0.00000000000E+00  0.27954766949E+03  0.27954766949E+03  0.00000000000E+00 0.  1.
          2   -1    0    0  501    0  0.00000000000E+00 -0.00000000000E+00 -0.53953821827E+03  0.53953821827E+03  0.00000000000E+00 0. -1.
          5    1    1    2  502    0 -0.35949020025E+02 -0.90499946459E+01 -0.17174217751E+03  0.17576034815E+03  0.47000000000E+01 0. -1.
         -5    1    1    2    0  502  0.25456314660E+03 -0.16448099816E+03 -0.15748327498E+03  0.34158376171E+03  0.47000000000E+01 0.  1.
        -11    1    1    2    0    0 -0.17266934118E+03  0.17352144638E+03  0.73522813798E+02  0.25559733545E+03  0.00000000000E+00 0.  1.
         11    1    1    2    0    0 -0.45944785396E+02  0.95464258469E-02 -0.42879100816E+01  0.46144442451E+02  0.00000000000E+00 0. -1.
<mgrwt>
<rscale>  0 0.36962237E+03</rscale>
<asrwt>0</asrwt>
<pdfrwt beam="2">  1        2 0.83005879E-01 0.39906833E+03</pdfrwt>
<pdfrwt beam="1">  1       -2 0.43007334E-01 0.39906833E+03</pdfrwt>
<totfact> 0.29539211E+02</totfact>
</mgrwt>
</event>
<event>
 6    1  0.5258538E-006  0.1605065E+03  0.7546771E-02  0.1196319E+00
         -2   -1    0    0    0  501 -0.00000000000E+00  0.00000000000E+00  0.11144079461E+04  0.11144079461E+04  0.00000000000E+00 0.  1.
          2   -1    0    0  501    0  0.00000000000E+00 -0.00000000000E+00 -0.20077697635E+02  0.20077697635E+02  0.00000000000E+00 0. -1.
          5    1    1    2  502    0 -0.10868077821E+03  0.65750854371E+02  0.48977400223E+03  0.50599935737E+03  0.47000000000E+01 0. -1.
         -5    1    1    2    0  502  0.28546087404E+02 -0.47883613818E+01  0.20416911509E+03  0.20626421179E+03  0.47000000000E+01 0. -1.
        -11    1    1    2    0    0 -0.17098302731E+02 -0.71460823045E+01  0.10496406554E+03  0.10658739843E+03  0.00000000000E+00 0.  1.
         11    1    1    2    0    0  0.97232993537E+02 -0.53816410685E+02  0.29542306564E+03  0.31563467617E+03  0.00000000000E+00 0. -1.
<mgrwt>
<rscale>  0 0.15343086E+03</rscale>
<asrwt>0</asrwt>
<pdfrwt beam="2">  1        2 0.30888774E-02 0.16050652E+03</pdfrwt>
<pdfrwt beam="1">  1       -2 0.17144733E+00 0.16050652E+03</pdfrwt>
<totfact> 0.65716069E+02</totfact>
</mgrwt>
</event>
<event>
 6    1  0.5258538E-006  0.1670809E+03  0.7546771E-02  0.1188623E+00
          2   -1    0    0  501    0  0.00000000000E+00  0.00000000000E+00  0.16794980166E+04  0.16794980166E+04  0.00000000000E+00 0. -1.
         -2   -1    0    0    0  501 -0.00000000000E+00 -0.00000000000E+00 -0.21195457537E+02  0.21195457537E+02  0.00000000000E+00 0.  1.
          5    1    1    2  502    0 -0.68751873316E+02  0.48368849061E+01  0.11787143047E+04  0.11807369384E+04  0.47000000000E+01 0.  1.
         -5    1    1    2    0  502 -0.28834553055E+02  0.47774024609E+02  0.18830954392E+03  0.19645957144E+03  0.47000000000E+01 0.  1.
        -11    1    1    2    0    0  0.78542757482E+02 -0.58219578744E+02  0.28699080893E+03  0.30318675518E+03  0.00000000000E+00 0. -1.
         11    1    1    2    0    0  0.19043668889E+02  0.56086692298E+01  0.42879014756E+01  0.20310209117E+02  0.00000000000E+00 0.  1.
<mgrwt>
<rscale>  0 0.16006538E+03</rscale>
<asrwt>0</asrwt>
<pdfrwt beam="1">  1        2 0.25838421E+00 0.16708089E+03</pdfrwt>
<pdfrwt beam="2">  1       -2 0.32608409E-02 0.16708089E+03</pdfrwt>
<totfact> 0.40749177E+03</totfact>
</mgrwt>
</event>
<event>
 6    1  0.5258538E-006  0.1499623E+03  0.7546771E-02  0.1209984E+00
          3   -1    0    0  501    0  0.00000000000E+00  0.00000000000E+00  0.29844407249E+03  0.29844407249E+03  0.00000000000E+00 0. -1.
         -3   -1    0    0    0  501 -0.00000000000E+00 -0.00000000000E+00 -0.62178986268E+02  0.62178986268E+02  0.00000000000E+00 0.  1.
          5    1    1    2  502    0 -0.99427791022E+01  0.22876199558E+02  0.85882378460E+02  0.89554744667E+02  0.47000000000E+01 0.  1.
         -5    1    1    2    0  502 -0.25003119419E+02 -0.97993615566E+02  0.50451791164E+02  0.11311665617E+03  0.47000000000E+01 0.  1.
        -11    1    1    2    0    0 -0.84365524738E+01 -0.55147985818E+01  0.55080420250E+02  0.55995009741E+02  0.00000000000E+00 0. -1.
         11    1    1    2    0    0  0.43382450995E+02  0.80632214590E+02  0.44850496345E+02  0.10195664817E+03  0.00000000000E+00 0.  1.
<mgrwt>
<rscale>  0 0.14251554E+03</rscale>
<asrwt>0</asrwt>
<pdfrwt beam="1">  1        3 0.45914472E-01 0.14996230E+03</pdfrwt>
<pdfrwt beam="2">  1       -3 0.95659981E-02 0.14996230E+03</pdfrwt>
<totfact> 0.88238362E+02</totfact>
</mgrwt>
</event>
<event>
 6    1  0.5258538E-006  0.1337795E+03  0.7546771E-02  0.1235224E+00
         -2   -1    0    0    0  501 -0.00000000000E+00  0.00000000000E+00  0.60299384197E+02  0.60299384197E+02  0.00000000000E+00 0.  1.
          2   -1    0    0  501    0  0.00000000000E+00 -0.00000000000E+00 -0.32647241660E+03  0.32647241660E+03  0.00000000000E+00 0. -1.
          5    1    1    2  502    0  0.19812671276E+02  0.37886219184E+01  0.43883801268E+01  0.21171761365E+02  0.47000000000E+01 0.  1.
         -5    1    1    2    0  502 -0.47925012487E+02 -0.42277626987E+02 -0.25480522654E+03  0.26273941090E+03  0.47000000000E+01 0.  1.
        -11    1    1    2    0    0  0.12904198830E+02 -0.33227159771E+01 -0.46766806414E+02  0.48628108857E+02  0.00000000000E+00 0. -1.
         11    1    1    2    0    0  0.15208142381E+02  0.41811721046E+02  0.31010620425E+02  0.54232519678E+02  0.00000000000E+00 0.  1.
<mgrwt>
<rscale>  0 0.12490089E+03</rscale>
<asrwt>0</asrwt>
<pdfrwt beam="2">  1        2 0.50226524E-01 0.13377951E+03</pdfrwt>
<pdfrwt beam="1">  1       -2 0.92768286E-02 0.13377951E+03</pdfrwt>
<totfact> 0.71027767E+03</totfact>
</mgrwt>
</event>
<event>
 6    1  0.5258538E-006  0.1300932E+03  0.7546771E-02  0.1239663E+00
         -2   -1    0    0    0  501 -0.00000000000E+00  0.00000000000E+00  0.29890268874E+02  0.29890268874E+02  0.00000000000E+00 0.  1.
          2   -1    0    0  501    0  0.00000000000E+00 -0.00000000000E+00 -0.45439160919E+03  0.45439160919E+03  0.00000000000E+00 0. -1.
          5    1    1    2  502    0  0.49215004212E+00  0.54116374610E+02 -0.24081529496E+03  0.24686619959E+03  0.47000000000E+01 0.  1.
         -5    1    1    2    0  502 -0.29388657394E+02 -0.32544023403E+02 -0.29306952741E+02  0.52950865164E+02  0.47000000000E+01 0.  1.
        -11    1    1    2    0    0  0.57081346576E+02  0.10427505632E+02 -0.95922636611E+02  0.11210782852E+03  0.00000000000E+00 0. -1.
         11    1    1    2    0    0 -0.28184839224E+02 -0.31999856839E+02 -0.58456456003E+02  0.72356984792E+02  0.00000000000E+00 0.  1.
<mgrwt>
<rscale>  0 0.12210571E+03</rscale>
<asrwt>0</asrwt>
<pdfrwt beam="2">  1        2 0.69906400E-01 0.13009321E+03</pdfrwt>
<pdfrwt beam="1">  1       -2 0.45985030E-02 0.13009321E+03</pdfrwt>
<totfact> 0.14517366E+04</totfact>
</mgrwt>
</event>
<event>
 6    1  0.5258538E-006  0.3160249E+03  0.7546771E-02  0.1077493E+00
         -2   -1    0    0    0  501 -0.00000000000E+00  0.00000000000E+00  0.14218743006E+02  0.14218743006E+02  0.00000000000E+00 0.  1.
          2   -1    0    0  501    0  0.00000000000E+00 -0.00000000000E+00 -0.17559877110E+04  0.17559877110E+04  0.00000000000E+00 0. -1.
          5    1    1    2  502    0  0.64182004261E+01 -0.96620279021E+01 -0.66299836381E+03  0.66311648185E+03  0.47000000000E+01 0. -1.
         -5    1    1    2    0  502 -0.77811280018E+02  0.82758597565E+02 -0.66332802559E+03  0.67300055000E+03  0.47000000000E+01 0. -1.
        -11    1    1    2    0    0  0.80856831709E+02 -0.37705294546E+02 -0.29194457540E+03  0.30527225812E+03  0.00000000000E+00 0.  1.
         11    1    1    2    0    0 -0.94637521179E+01 -0.35391275117E+02 -0.12349800318E+03  0.12881716402E+03  0.00000000000E+00 0. -1.
<mgrwt>
<rscale>  0 0.31602492E+03</rscale>
<asrwt>0</asrwt>
<pdfrwt beam="2">  1        2 0.27015200E+00 0.31602492E+03</pdfrwt>
<pdfrwt beam="1">  1       -2 0.21874985E-02 0.31602492E+03</pdfrwt>
<totfact> 0.67698457E+03</totfact>
</mgrwt>
</event>
<event>
 6    1  0.5258538E-006  0.3139539E+03  0.7546771E-02  0.1079993E+00
         -2   -1    0    0    0  501 -0.00000000000E+00  0.00000000000E+00  0.32966185541E+02  0.32966185541E+02  0.00000000000E+00 0.  1.
          2   -1    0    0  501    0  0.00000000000E+00 -0.00000000000E+00 -0.28727567147E+04  0.28727567147E+04  0.00000000000E+00 0. -1.
          5    1    1    2  502    0 -0.27887764132E+02  0.28981684202E+02 -0.47416615923E+03  0.47589211169E+03  0.47000000000E+01 0.  1.
         -5    1    1    2    0  502 -0.56337743026E+02  0.24642421025E+03 -0.10156555192E+04  0.10466503983E+04  0.47000000000E+01 0.  1.
        -11    1    1    2    0    0  0.59763662601E+02 -0.99252808222E+02 -0.69050314049E+03  0.70015527016E+03  0.00000000000E+00 0. -1.
         11    1    1    2    0    0  0.24461844557E+02 -0.17615308623E+03 -0.65946571020E+03  0.68302512000E+03  0.00000000000E+00 0.  1.
<mgrwt>
<rscale>  0 0.31073736E+03</rscale>
<asrwt>0</asrwt>
<pdfrwt beam="2">  1        2 0.44196249E+00 0.31395392E+03</pdfrwt>
<pdfrwt beam="1">  1       -2 0.50717218E-02 0.31395392E+03</pdfrwt>
<totfact> 0.46960665E+02</totfact>
</mgrwt>
</event>
<event>
 6    1  0.5258538E-006  0.1515012E+03  0.7546771E-02  0.1219453E+00
          1   -1    0    0  501    0  0.00000000000E+00  0.00000000000E+00  0.49208084454E+03  0.49208084454E+03  0.00000000000E+00 0. -1.
         -1   -1    0    0    0  501 -0.00000000000E+00 -0.00000000000E+00 -0.32391456789E+02  0.32391456789E+02  0.00000000000E+00 0.  1.
          5    1    1    2  502    0 -0.81321359507E+02  0.18586125657E+02  0.24730654870E+03  0.26103874542E+03  0.47000000000E+01 0.  1.
         -5    1    1    2    0  502 -0.37352371802E+01 -0.88811827630E+01 -0.13698844749E+02  0.17394704698E+02  0.47000000000E+01 0.  1.
        -11    1    1    2    0    0  0.25823343522E+02 -0.17767175285E+02  0.41428958135E+02  0.51950708951E+02  0.00000000000E+00 0.  1.
         11    1    1    2    0    0  0.59233253165E+02  0.80622323912E+01  0.18465272566E+03  0.19408814226E+03  0.00000000000E+00 0. -1.
<mgrwt>
<rscale>  0 0.13554426E+03</rscale>
<asrwt>0</asrwt>
<pdfrwt beam="1">  1        1 0.75704740E-01 0.15150124E+03</pdfrwt>
<pdfrwt beam="2">  1       -1 0.49833014E-02 0.15150124E+03</pdfrwt>
<totfact> 0.78566102E+03</totfact>
</mgrwt>
</event>
<event>
 6    1  0.5258538E-006  0.2848845E+03  0.7546771E-02  0.1093051E+00
          3   -1    0    0  501    0  0.00000000000E+00  0.00000000000E+00  0.51358389806E+02  0.51358389806E+02  0.00000000000E+00 0. -1.
         -3   -1    0    0    0  501 -0.00000000000E+00 -0.00000000000E+00 -0.39506291081E+03  0.39506291081E+03  0.00000000000E+00 0.  1.
          5    1    1    2  502    0  0.31071830801E+01 -0.28162829742E+02 -0.88772462810E+02  0.93302945930E+02  0.47000000000E+01 0. -1.
         -5    1    1    2    0  502  0.25988999539E+02  0.91372327495E+02 -0.56701290176E+02  0.11073146182E+03  0.47000000000E+01 0. -1.
        -11    1    1    2    0    0 -0.51495852989E+02 -0.31586124642E+02 -0.19425359888E+03  0.20343049630E+03  0.00000000000E+00 0.  1.
         11    1    1    2    0    0  0.22399670370E+02 -0.31623373112E+02 -0.39771691387E+01  0.38956396574E+02  0.00000000000E+00 0. -1.
<mgrwt>
<rscale>  0 0.28488450E+03</rscale>
<asrwt>0</asrwt>
<pdfrwt beam="1">  1        3 0.79012907E-02 0.28488450E+03</pdfrwt>
<pdfrwt beam="2">  1       -3 0.60778909E-01 0.28488450E+03</pdfrwt>
<totfact> 0.74384390E+02</totfact>
</mgrwt>
</event>
<event>
 6    1  0.5258538E-006  0.1283884E+03  0.7546771E-02  0.1238459E+00
         -2   -1    0    0    0  501 -0.00000000000E+00  0.00000000000E+00  0.18274330853E+02  0.18274330853E+02  0.00000000000E+00 0.  1.
          2   -1    0    0  501    0  0.00000000000E+00 -0.00000000000E+00 -0.76373993121E+03  0.76373993121E+03  0.00000000000E+00 0. -1.
          5    1    1    2  502    0  0.64240483074E+02 -0.48266601673E+02 -0.38796864470E+03  0.39623006420E+03  0.47000000000E+01 0. -1.
         -5    1    1    2    0  502 -0.97280643040E+01  0.27517314344E+02 -0.35099647261E+02  0.45890228389E+02  0.47000000000E+01 0.  1.
        -11    1    1    2    0    0  0.23893256373E+02  0.65040287954E+01 -0.46043173785E+02  0.52279670455E+02  0.00000000000E+00 0.  1.
         11    1    1    2    0    0 -0.78405675143E+02  0.14245258534E+02 -0.27635413461E+03  0.28761429902E+03  0.00000000000E+00 0. -1.
<mgrwt>
<rscale>  0 0.12285555E+03</rscale>
<asrwt>0</asrwt>
<pdfrwt beam="2">  1        2 0.11749847E+00 0.12838837E+03</pdfrwt>
<pdfrwt beam="1">  1       -2 0.28114351E-02 0.12838837E+03</pdfrwt>
<totfact> 0.16626247E+04</totfact>
</mgrwt>
</event>
<event>
 6    1  0.5258538E-006  0.1300960E+03  0.7546771E-02  0.1243184E+00
          1   -1    0    0  501    0  0.00000000000E+00  0.00000000000E+00  0.36821501056E+02  0.36821501056E+02  0.00000000000E+00 0. -1.
         -1   -1    0    0    0  501 -0.00000000000E+00 -0.00000000000E+00 -0.43169067651E+03  0.43169067651E+03  0.00000000000E+00 0.  1.
          5    1    1    2  502    0  0.16420396646E+02 -0.26077175536E+02  0.20548513670E+02  0.37336040550E+02  0.47000000000E+01 0.  1.
         -5    1    1    2    0  502 -0.32471001907E+01 -0.75039501874E+01 -0.13682449211E+03  0.13714913259E+03  0.47000000000E+01 0.  1.
        -11    1    1    2    0    0  0.78422114689E+01  0.44729776598E+02 -0.25971989763E+03  0.26366015706E+03  0.00000000000E+00 0.  1.
         11    1    1    2    0    0 -0.21015507924E+02 -0.11148650875E+02 -0.18873299384E+02  0.30366847371E+02  0.00000000000E+00 0. -1.
<mgrwt>
<rscale>  0 0.11994729E+03</rscale>
<asrwt>0</asrwt>
<pdfrwt beam="1">  1        1 0.56648466E-02 0.13009601E+03</pdfrwt>
<pdfrwt beam="2">  1       -1 0.66413947E-01 0.13009601E+03</pdfrwt>
<totfact> 0.32001080E+03</totfact>
</mgrwt>
</event>
<event>
 6    1  0.5258538E-006  0.2610178E+03  0.7546771E-02  0.1132946E+00
         -1   -1    0    0    0  501 -0.00000000000E+00  0.00000000000E+00  0.22689198719E+02  0.22689198719E+02  0.00000000000E+00 0.  1.
          1   -1    0    0  501    0  0.00000000000E+00 -0.00000000000E+00 -0.19829551370E+04  0.19829551370E+04  0.00000000000E+00 0. -1.
          5    1    1    2  502    0 -0.92813464765E+02 -0.11312818565E+03 -0.52283827359E+03  0.54294960720E+03  0.47000000000E+01 0. -1.
         -5    1    1    2    0  502  0.25366562764E+02  0.40711588090E+02 -0.10739995345E+04  0.10750804556E+04  0.47000000000E+01 0.  1.
        -11    1    1    2    0    0  0.22871959244E+02  0.44461713185E+02 -0.53404206831E+02  0.73157226343E+02  0.00000000000E+00 0.  1.
         11    1    1    2    0    0  0.44574942757E+02  0.27954884379E+02 -0.31002392331E+03  0.31445704652E+03  0.00000000000E+00 0. -1.
<mgrwt>
<rscale>  0 0.22126183E+03</rscale>
<asrwt>0</asrwt>
<pdfrwt beam="2">  1        1 0.30507010E+00 0.26101781E+03</pdfrwt>
<pdfrwt beam="1">  1       -1 0.34906450E-02 0.26101781E+03</pdfrwt>
<totfact> 0.10430730E+03</totfact>
</mgrwt>
</event>
<event>
 6    1  0.5258538E-006  0.1287480E+03  0.7546771E-02  0.1243324E+00
         -1   -1    0    0    0  501 -0.00000000000E+00  0.00000000000E+00  0.11638408628E+03  0.11638408628E+03  0.00000000000E+00 0.  1.
          1   -1    0    0  501    0  0.00000000000E+00 -0.00000000000E+00 -0.11703109027E+03  0.11703109027E+03  0.00000000000E+00 0. -1.
          5    1    1    2  502    0 -0.16559209720E+02  0.60144380615E+02 -0.13232526866E+02  0.63943285131E+02  0.47000000000E+01 0. -1.
         -5    1    1    2    0  502 -0.13966217938E+02 -0.64494517354E+02 -0.17043401789E+02  0.68316656510E+02  0.47000000000E+01 0. -1.
        -11    1    1    2    0    0  0.19429608672E+02 -0.52721689195E+01 -0.31996856487E+02  0.37803495649E+02  0.00000000000E+00 0. -1.
         11    1    1    2    0    0  0.11095818986E+02  0.96223056584E+01  0.61625781154E+02  0.63351739266E+02  0.00000000000E+00 0.  1.
<mgrwt>
<rscale>  0 0.11986244E+03</rscale>
<asrwt>0</asrwt>
<pdfrwt beam="2">  1        1 0.18004783E-01 0.12874805E+03</pdfrwt>
<pdfrwt beam="1">  1       -1 0.17905244E-01 0.12874805E+03</pdfrwt>
<totfact> 0.66864575E+03</totfact>
</mgrwt>
</event>
<event>
 6    1  0.5258538E-006  0.2121569E+03  0.7546771E-02  0.1143203E+00
         -1   -1    0    0    0  501 -0.00000000000E+00  0.00000000000E+00  0.34284225739E+02  0.34284225739E+02  0.00000000000E+00 0.  1.
          1   -1    0    0  501    0  0.00000000000E+00 -0.00000000000E+00 -0.13566081855E+04  0.13566081855E+04  0.00000000000E+00 0. -1.
          5    1    1    2  502    0  0.98472609022E+02 -0.73380976253E+02 -0.37679678704E+03  0.39633260165E+03  0.47000000000E+01 0. -1.
         -5    1    1    2    0  502  0.66626088832E+02  0.27300074015E+02 -0.53366956738E+03  0.53852541899E+03  0.47000000000E+01 0. -1.
        -11    1    1    2    0    0 -0.84474597826E+02  0.20264489748E+01 -0.29790697178E+03  0.30965888977E+03  0.00000000000E+00 0. -1.
         11    1    1    2    0    0 -0.80624100028E+02  0.44054453263E+02 -0.11395063357E+03  0.14637550085E+03  0.00000000000E+00 0.  1.
<mgrwt>
<rscale>  0 0.20794587E+03</rscale>
<asrwt>0</asrwt>
<pdfrwt beam="2">  1        1 0.20870896E+00 0.21215687E+03</pdfrwt>
<pdfrwt beam="1">  1       -1 0.52744961E-02 0.21215687E+03</pdfrwt>
<totfact> 0.14524758E+03</totfact>
</mgrwt>
</event>
<event>
 6    1  0.5258538E-006  0.1282478E+03  0.7546771E-02  0.1244781E+00
          2   -1    0    0  501    0  0.00000000000E+00  0.00000000000E+00  0.72005501197E+03  0.72005501197E+03  0.00000000000E+00 0. -1.
         -2   -1    0    0    0  501 -0.00000000000E+00 -0.00000000000E+00 -0.17321788959E+02  0.17321788959E+02  0.00000000000E+00 0.  1.
          5    1    1    2  502    0 -0.71990253095E+02  0.25576387581E+02  0.29829774633E+03  0.30796165932E+03  0.47000000000E+01 0. -1.
         -5    1    1    2    0  502  0.43827061982E+02 -0.20219928561E+02  0.11590649226E+03  0.12564259557E+03  0.47000000000E+01 0. -1.
        -11    1    1    2    0    0  0.49410544755E+02  0.25214336984E+02  0.13855963815E+03  0.14925125811E+03  0.00000000000E+00 0.  1.
         11    1    1    2    0    0 -0.21247353641E+02 -0.30570796004E+02  0.14996934626E+03  0.15452128793E+03  0.00000000000E+00 0. -1.
<mgrwt>
<rscale>  0 0.11898470E+03</rscale>
<asrwt>0</asrwt>
<pdfrwt beam="1">  1        2 0.11077767E+00 0.12824780E+03</pdfrwt>
<pdfrwt beam="2">  1       -2 0.26648912E-02 0.12824780E+03</pdfrwt>
<totfact> 0.19303816E+04</totfact>
</mgrwt>
</event>
<event>
 6    1  0.5258538E-006  0.2400326E+03  0.7546771E-02  0.1119771E+00
         -2   -1    0    0    0  501 -0.00000000000E+00  0.00000000000E+00  0.74434759107E+02  0.74434759107E+02  0.00000000000E+00 0.  1.
          2   -1    0    0  501    0  0.00000000000E+00 -0.00000000000E+00 -0.19351058985E+03  0.19351058985E+03  0.00000000000E+00 0. -1.
          5    1    1    2  502    0 -0.46304387272E+01  0.34696314965E+01 -0.10448690901E+03  0.10475248665E+03  0.47000000000E+01 0.  1.
         -5    1    1    2    0  502 -0.58787975271E+01  0.39387199382E+02  0.27422105740E+02  0.48579559681E+02  0.47000000000E+01 0.  1.
        -11    1    1    2    0    0  0.46127862759E+02 -0.12213892370E+02  0.52071302052E+01  0.48000761395E+02  0.00000000000E+00 0.  1.
         11    1    1    2    0    0 -0.35618626504E+02 -0.30642938508E+02 -0.47218157680E+02  0.66612541230E+02  0.00000000000E+00 0. -1.
<mgrwt>
<rscale>  0 0.24003262E+03</rscale>
<asrwt>0</asrwt>
<pdfrwt beam="2">  1        2 0.29770860E-01 0.24003262E+03</pdfrwt>
<pdfrwt beam="1">  1       -2 0.11451501E-01 0.24003262E+03</pdfrwt>
<totfact> 0.92704608E+03</totfact>
</mgrwt>
</event>
<event>
 6    1  0.5258538E-006  0.2718326E+03  0.7546771E-02  0.1100235E+00
         -4   -1    0    0    0  501 -0.00000000000E+00  0.00000000000E+00  0.13306330990E+03  0.13306330990E+03  0.00000000000E+00 0.  1.
          4   -1    0    0  501    0  0.00000000000E+00 -0.00000000000E+00 -0.13883045849E+03  0.13883045849E+03  0.00000000000E+00 0. -1.
          5    1    1    2  502    0  0.58407819236E+02  0.89252850135E+02 -0.11288275167E+02  0.10736414560E+03  0.47000000000E+01 0.  1.
         -5    1    1    2    0  502 -0.22774752570E+02 -0.26412583850E+02  0.11452143107E+02  0.37007506293E+02  0.47000000000E+01 0.  1.
        -11    1    1    2    0    0 -0.70322779016E+02 -0.28463744654E+02  0.91361605468E+01  0.76413005685E+02  0.00000000000E+00 0.  1.
         11    1    1    2    0    0  0.34689712349E+02 -0.34376521630E+02 -0.15067177074E+02  0.51109110805E+02  0.00000000000E+00 0. -1.
<mgrwt>
<rscale>  0 0.27183260E+03</rscale>
<asrwt>0</asrwt>
<pdfrwt beam="2">  1        4 0.21358532E-01 0.27183260E+03</pdfrwt>
<pdfrwt beam="1">  1       -4 0.20471278E-01 0.27183260E+03</pdfrwt>
<totfact> 0.81086973E+02</totfact>
</mgrwt>
</event>
<event>
 6    1  0.5258538E-006  0.1271377E+03  0.7546771E-02  0.1244667E+00
          1   -1    0    0  501    0  0.00000000000E+00  0.00000000000E+00  0.28412453538E+02  0.28412453538E+02  0.00000000000E+00 0. -1.
         -1   -1    0    0    0  501 -0.00000000000E+00 -0.00000000000E+00 -0.50198620940E+03  0.50198620940E+03  0.00000000000E+00 0.  1.
          5    1    1    2  502    0 -0.65443092028E+02  0.35484693503E+02 -0.10584876316E+03  0.12949136045E+03  0.47000000000E+01 0. -1.
         -5    1    1    2    0  502  0.42948712103E+02 -0.29826789790E+02 -0.69710081301E+02  0.87268635233E+02  0.47000000000E+01 0. -1.
        -11    1    1    2    0    0 -0.16589362015E+02  0.35879915381E+02 -0.14667649237E+03  0.15190973857E+03  0.00000000000E+00 0.  1.
         11    1    1    2    0    0  0.39083741940E+02 -0.41537819095E+02 -0.15133841903E+03  0.16172892869E+03  0.00000000000E+00 0. -1.
<mgrwt>
<rscale>  0 0.11905347E+03</rscale>
<asrwt>0</asrwt>
<pdfrwt beam="1">  1        1 0.43711468E-02 0.12713767E+03</pdfrwt>
<pdfrwt beam="2">  1       -1 0.77228646E-01 0.12713767E+03</pdfrwt>
<totfact> 0.33753755E+03</totfact>
</mgrwt>
</event>
<event>
 6    1  0.5258538E-006  0.1828672E+03  0.7546771E-02  0.1170470E+00
         -2   -1    0    0    0  501 -0.00000000000E+00  0.00000000000E+00  0.11301744974E+03  0.11301744974E+03  0.00000000000E+00 0. -1.
          2   -1    0    0  501    0  0.00000000000E+00 -0.00000000000E+00 -0.27317944741E+03  0.27317944741E+03  0.00000000000E+00 0.  1.
          5    1    1    2  502    0 -0.13996869202E+02  0.85655188831E+02 -0.12874641478E+03  0.15533979863E+03  0.47000000000E+01 0.  1.
         -5    1    1    2    0  502  0.48166600164E+02  0.43372232868E+02  0.54432976922E+01  0.65214196653E+02  0.47000000000E+01 0.  1.
        -11    1    1    2    0    0  0.15888511194E+02 -0.98770220943E+02 -0.38331711660E+02  0.10713226149E+03  0.00000000000E+00 0.  1.
         11    1    1    2    0    0 -0.50058242156E+02 -0.30257200756E+02  0.14728310738E+01  0.58510640372E+02  0.00000000000E+00 0. -1.
<mgrwt>
<rscale>  0 0.17727120E+03</rscale>
<asrwt>0</asrwt>
<pdfrwt beam="2">  1        2 0.42027607E-01 0.18286718E+03</pdfrwt>
<pdfrwt beam="1">  1       -2 0.17387300E-01 0.18286718E+03</pdfrwt>
<totfact> 0.31693197E+03</totfact>
</mgrwt>
</event>
<event>
 6    1  0.5258538E-006  0.1415423E+03  0.7546771E-02  0.1223013E+00
         -2   -1    0    0    0  501 -0.00000000000E+00  0.00000000000E+00  0.17310299761E+02  0.17310299761E+02  0.00000000000E+00 0. -1.
          2   -1    0    0  501    0  0.00000000000E+00 -0.00000000000E+00 -0.94504731870E+03  0.94504731870E+03  0.00000000000E+00 0.  1.
          5    1    1    2  502    0 -0.19009407596E+01 -0.43632381812E+02 -0.17910584634E+03  0.18441364513E+03  0.47000000000E+01 0.  1.
         -5    1    1    2    0  502  0.58981602302E+02  0.77576991432E+02 -0.42212917530E+03  0.43325760196E+03  0.47000000000E+01 0.  1.
        -11    1    1    2    0    0 -0.69456817113E+02 -0.42857691615E+02 -0.31548757254E+03  0.32587334902E+03  0.00000000000E+00 0.  1.
         11    1    1    2    0    0  0.12376155571E+02  0.89130819938E+01 -0.11014424754E+02  0.18813022352E+02  0.00000000000E+00 0. -1.
<mgrwt>
<rscale>  0 0.13304008E+03</rscale>
<asrwt>0</asrwt>
<pdfrwt beam="2">  1        2 0.14539191E+00 0.14154228E+03</pdfrwt>
<pdfrwt beam="1">  1       -2 0.26631228E-02 0.14154228E+03</pdfrwt>
<totfact> 0.13810909E+04</totfact>
</mgrwt>
</event>
<event>
 6    1  0.5258538E-006  0.1253272E+03  0.7546771E-02  0.1249441E+00
          2   -1    0    0  501    0  0.00000000000E+00  0.00000000000E+00  0.51333718122E+03  0.51333718122E+03  0.00000000000E+00 0. -1.
         -2   -1    0    0    0  501 -0.00000000000E+00 -0.00000000000E+00 -0.24449296936E+02  0.24449296936E+02  0.00000000000E+00 0.  1.
          5    1    1    2  502    0 -0.50736588800E+02  0.58962898602E+01  0.65457206459E+02  0.83160709200E+02  0.47000000000E+01 0. -1.
         -5    1    1    2    0  502  0.48319062042E+02 -0.14742782047E+02  0.27477999315E+03  0.27942479491E+03  0.47000000000E+01 0. -1.
        -11    1    1    2    0    0  0.41741361561E+02  0.21034612593E+02  0.10637433591E+03  0.11619077215E+03  0.00000000000E+00 0.  1.
         11    1    1    2    0    0 -0.39323834803E+02 -0.12188120406E+02  0.42276348767E+02  0.59010201895E+02  0.00000000000E+00 0. -1.
<mgrwt>
<rscale>  0 0.11623470E+03</rscale>
<asrwt>0</asrwt>
<pdfrwt beam="1">  1        2 0.78974943E-01 0.12532716E+03</pdfrwt>
<pdfrwt beam="2">  1       -2 0.37614307E-02 0.12532716E+03</pdfrwt>
<totfact> 0.17080363E+04</totfact>
</mgrwt>
</event>
<event>
 6    1  0.5258538E-006  0.3540540E+03  0.7546771E-02  0.1061851E+00
          1   -1    0    0  501    0  0.00000000000E+00  0.00000000000E+00  0.61938480605E+03  0.61938480605E+03  0.00000000000E+00 0. -1.
         -1   -1    0    0    0  501 -0.00000000000E+00 -0.00000000000E+00 -0.20372976590E+03  0.20372976590E+03  0.00000000000E+00 0.  1.
          5    1    1    2  502    0 -0.94968369683E+02 -0.29404384064E+03  0.20494403674E+03  0.37081655795E+03  0.47000000000E+01 0. -1.
         -5    1    1    2    0  502  0.76071596225E+01 -0.25490613047E+02  0.77568484653E+02  0.82137689537E+02  0.47000000000E+01 0. -1.
        -11    1    1    2    0    0 -0.10227245601E+02  0.69692810949E+02  0.58981827213E+02  0.91872413661E+02  0.00000000000E+00 0. -1.
         11    1    1    2    0    0  0.97588455661E+02  0.24984164274E+03  0.74160691552E+02  0.27828791080E+03  0.00000000000E+00 0.  1.
<mgrwt>
<rscale>  0 0.35186690E+03</rscale>
<asrwt>0</asrwt>
<pdfrwt beam="1">  1        1 0.95289969E-01 0.35405399E+03</pdfrwt>
<pdfrwt beam="2">  1       -1 0.31343041E-01 0.35405399E+03</pdfrwt>
<totfact> 0.31889674E+02</totfact>
</mgrwt>
</event>
<event>
 6    1  0.5258538E-006  0.1223939E+03  0.7546771E-02  0.1253793E+00
          2   -1    0    0  501    0  0.00000000000E+00  0.00000000000E+00  0.67364315693E+03  0.67364315693E+03  0.00000000000E+00 0. -1.
         -2   -1    0    0    0  501 -0.00000000000E+00 -0.00000000000E+00 -0.20489149162E+02  0.20489149162E+02  0.00000000000E+00 0.  1.
          5    1    1    2  502    0 -0.28286714295E+02 -0.15964679917E+02  0.45458321065E+03  0.45576638162E+03  0.47000000000E+01 0. -1.
         -5    1    1    2    0  502  0.38066498729E+02  0.12492106740E+02  0.54389656766E+02  0.67715846147E+02  0.47000000000E+01 0.  1.
        -11    1    1    2    0    0 -0.48356237786E+02  0.73819075049E+01  0.10335087968E+03  0.11434256697E+03  0.00000000000E+00 0.  1.
         11    1    1    2    0    0  0.38576453352E+02 -0.39093343282E+01  0.40830260670E+02  0.56307511350E+02  0.00000000000E+00 0. -1.
<mgrwt>
<rscale>  0 0.11374219E+03</rscale>
<asrwt>0</asrwt>
<pdfrwt beam="1">  1        2 0.10363739E+00 0.12239388E+03</pdfrwt>
<pdfrwt beam="2">  1       -2 0.31521773E-02 0.12239388E+03</pdfrwt>
<totfact> 0.16268573E+04</totfact>
</mgrwt>
</event>
<event>
 6    1  0.5258538E-006  0.1538406E+03  0.7546771E-02  0.1216503E+00
          2   -1    0    0  501    0  0.00000000000E+00  0.00000000000E+00  0.37323132578E+03  0.37323132578E+03  0.00000000000E+00 0. -1.
         -2   -1    0    0    0  501 -0.00000000000E+00 -0.00000000000E+00 -0.86160226256E+02  0.86160226256E+02  0.00000000000E+00 0.  1.
          5    1    1    2  502    0 -0.51160791521E+02 -0.69740066278E+02  0.15393342973E+03  0.17663152103E+03  0.47000000000E+01 0. -1.
         -5    1    1    2    0  502  0.69030985367E+01  0.64696881113E+02  0.16633745977E+03  0.17867170934E+03  0.47000000000E+01 0.  1.
        -11    1    1    2    0    0  0.10417143446E+02  0.98535388057E+01 -0.59346222721E+02  0.61053937267E+02  0.00000000000E+00 0. -1.
         11    1    1    2    0    0  0.33840549537E+02 -0.48103536404E+01  0.26146432739E+02  0.43034384394E+02  0.00000000000E+00 0.  1.
<mgrwt>
<rscale>  0 0.13766687E+03</rscale>
<asrwt>0</asrwt>
<pdfrwt beam="1">  1        2 0.57420203E-01 0.15384064E+03</pdfrwt>
<pdfrwt beam="2">  1       -2 0.13255420E-01 0.15384064E+03</pdfrwt>
<totfact> 0.35215522E+03</totfact>
</mgrwt>
</event>
<event>
 6    1  0.5258538E-006  0.1307113E+03  0.7546771E-02  0.1239914E+00
         -1   -1    0    0    0  501 -0.00000000000E+00  0.00000000000E+00  0.19438573532E+03  0.19438573532E+03  0.00000000000E+00 0.  1.
          1   -1    0    0  501    0  0.00000000000E+00 -0.00000000000E+00 -0.78186262325E+02  0.78186262325E+02  0.00000000000E+00 0. -1.
          5    1    1    2  502    0  0.43178604247E+02  0.31072772309E+02 -0.37166027714E+02  0.65063912114E+02  0.47000000000E+01 0. -1.
         -5    1    1    2    0  502 -0.58732652914E+01 -0.39443429690E+02  0.53161928912E+02  0.66622519290E+02  0.47000000000E+01 0. -1.
        -11    1    1    2    0    0 -0.52536594085E+02  0.18739145244E+02  0.10746700033E+03  0.12108016123E+03  0.00000000000E+00 0.  1.
         11    1    1    2    0    0  0.15231255130E+02 -0.10368487863E+02 -0.72634285403E+01  0.19805405008E+02  0.00000000000E+00 0. -1.
<mgrwt>
<rscale>  0 0.12195016E+03</rscale>
<asrwt>0</asrwt>
<pdfrwt beam="2">  1        1 0.12028656E-01 0.13071131E+03</pdfrwt>
<pdfrwt beam="1">  1       -1 0.29905498E-01 0.13071131E+03</pdfrwt>
<totfact> 0.48920131E+03</totfact>
</mgrwt>
</event>
<event>
 6    1  0.5258538E-006  0.2337528E+03  0.7546771E-02  0.1124026E+00
         -1   -1    0    0    0  501 -0.00000000000E+00  0.00000000000E+00  0.15042556589E+03  0.15042556589E+03  0.00000000000E+00 0.  1.
          1   -1    0    0  501    0  0.00000000000E+00 -0.00000000000E+00 -0.90809645878E+02  0.90809645878E+02  0.00000000000E+00 0. -1.
          5    1    1    2  502    0 -0.41641304765E+02 -0.19660949841E+02 -0.49080367015E+02  0.67464980823E+02  0.47000000000E+01 0.  1.
         -5    1    1    2    0  502 -0.38318119870E+00  0.10976363629E+02  0.64493838199E+02  0.65590948705E+02  0.47000000000E+01 0.  1.
        -11    1    1    2    0    0  0.27718165927E+02  0.83301986703E+01  0.71622512211E+02  0.77249421924E+02  0.00000000000E+00 0.  1.
         11    1    1    2    0    0  0.14306320037E+02  0.35438754108E+00 -0.27420063380E+02  0.30929860318E+02  0.00000000000E+00 0. -1.
<mgrwt>
<rscale>  0 0.23375280E+03</rscale>
<asrwt>0</asrwt>
<pdfrwt beam="2">  1        1 0.13970715E-01 0.23375280E+03</pdfrwt>
<pdfrwt beam="1">  1       -1 0.23142395E-01 0.23375280E+03</pdfrwt>
<totfact> 0.63778360E+03</totfact>
</mgrwt>
</event>
<event>
 6    1  0.5258538E-006  0.1281678E+03  0.7546771E-02  0.1248533E+00
         -2   -1    0    0    0  501 -0.00000000000E+00  0.00000000000E+00  0.25016433808E+02  0.25016433808E+02  0.00000000000E+00 0.  1.
          2   -1    0    0  501    0  0.00000000000E+00 -0.00000000000E+00 -0.46822145396E+03  0.46822145396E+03  0.00000000000E+00 0. -1.
          5    1    1    2  502    0  0.62772845186E+02  0.27270899023E+02 -0.82140155543E+02  0.10701975135E+03  0.47000000000E+01 0.  1.
         -5    1    1    2    0  502 -0.34980505120E+02 -0.21836641969E+02 -0.18069162240E+03  0.18539694462E+03  0.47000000000E+01 0.  1.
        -11    1    1    2    0    0 -0.45319888794E+02  0.21098771151E+02 -0.70406088280E+02  0.86348524777E+02  0.00000000000E+00 0.  1.
         11    1    1    2    0    0  0.17527548728E+02 -0.26533028204E+02 -0.10996715393E+03  0.11447266702E+03  0.00000000000E+00 0. -1.
<mgrwt>
<rscale>  0 0.11676393E+03</rscale>
<asrwt>0</asrwt>
<pdfrwt beam="2">  1        2 0.72034064E-01 0.12816778E+03</pdfrwt>
<pdfrwt beam="1">  1       -2 0.38486824E-02 0.12816778E+03</pdfrwt>
<totfact> 0.18290340E+04</totfact>
</mgrwt>
</event>
<event>
 6    1  0.5258538E-006  0.1270606E+03  0.7546771E-02  0.1246860E+00
          2   -1    0    0  501    0  0.00000000000E+00  0.00000000000E+00  0.90560106420E+03  0.90560106420E+03  0.00000000000E+00 0. -1.
         -2   -1    0    0    0  501 -0.00000000000E+00 -0.00000000000E+00 -0.14144664608E+02  0.14144664608E+02  0.00000000000E+00 0.  1.
          5    1    1    2  502    0 -0.15428657602E+02 -0.56418348185E+02  0.14123913433E+03  0.15294331157E+03  0.47000000000E+01 0.  1.
         -5    1    1    2    0  502  0.10516901064E+02  0.34158792184E+02  0.46900147756E+03  0.47038484695E+03  0.47000000000E+01 0.  1.
        -11    1    1    2    0    0  0.80948523860E+01 -0.27667197400E+02  0.35844392243E+02  0.45998053246E+02  0.00000000000E+00 0. -1.
         11    1    1    2    0    0 -0.31830958486E+01  0.49926753401E+02  0.24537139546E+03  0.25041951704E+03  0.00000000000E+00 0.  1.
<mgrwt>
<rscale>  0 0.11774743E+03</rscale>
<asrwt>0</asrwt>
<pdfrwt beam="1">  1        2 0.13932320E+00 0.12706057E+03</pdfrwt>
<pdfrwt beam="2">  1       -2 0.21761030E-02 0.12706057E+03</pdfrwt>
<totfact> 0.19471520E+04</totfact>
</mgrwt>
</event>
<event>
 6    1  0.5258538E-006  0.4256675E+03  0.7546771E-02  0.1035237E+00
         -1   -1    0    0    0  501 -0.00000000000E+00  0.00000000000E+00  0.17112910325E+02  0.17112910325E+02  0.00000000000E+00 0.  1.
          1   -1    0    0  501    0  0.00000000000E+00 -0.00000000000E+00 -0.26470188441E+04  0.26470188441E+04  0.00000000000E+00 0. -1.
          5    1    1    2  502    0  0.55467463768E+02  0.67707349570E+02 -0.66693005467E+03  0.67266537933E+03  0.47000000000E+01 0. -1.
         -5    1    1    2    0  502  0.31757377408E+01  0.20056602560E+02 -0.16265249013E+04  0.16266584452E+04  0.47000000000E+01 0. -1.
        -11    1    1    2    0    0  0.11219318896E+02 -0.56014252109E+02 -0.89225647355E+02  0.10594661723E+03  0.00000000000E+00 0.  1.
         11    1    1    2    0    0 -0.69862520404E+02 -0.31749700021E+02 -0.24722533042E+03  0.25886131269E+03  0.00000000000E+00 0. -1.
<mgrwt>
<rscale>  0 0.42566746E+03</rscale>
<asrwt>0</asrwt>
<pdfrwt beam="2">  1        1 0.40723334E+00 0.42566746E+03</pdfrwt>
<pdfrwt beam="1">  1       -1 0.26327576E-02 0.42566746E+03</pdfrwt>
<totfact> 0.56657809E+02</totfact>
</mgrwt>
</event>
<event>
 6    1  0.5258538E-006  0.1287301E+03  0.7546771E-02  0.1244063E+00
         -2   -1    0    0    0  501 -0.00000000000E+00  0.00000000000E+00  0.10856374920E+03  0.10856374920E+03  0.00000000000E+00 0.  1.
          2   -1    0    0  501    0  0.00000000000E+00 -0.00000000000E+00 -0.12809700141E+03  0.12809700141E+03  0.00000000000E+00 0. -1.
          5    1    1    2  502    0 -0.45308195878E+02  0.16346098944E+02 -0.83364165233E+02  0.96393472857E+02  0.47000000000E+01 0.  1.
         -5    1    1    2    0  502  0.14795712229E+02 -0.12465922495E+02  0.35700724478E+02  0.40877182538E+02  0.47000000000E+01 0.  1.
        -11    1    1    2    0    0  0.53943674668E+02  0.14555457805E+02  0.38467453037E+02  0.67834551165E+02  0.00000000000E+00 0.  1.
         11    1    1    2    0    0 -0.23431191020E+02 -0.18435634255E+02 -0.10337264495E+02  0.31555544049E+02  0.00000000000E+00 0. -1.
<mgrwt>
<rscale>  0 0.11941615E+03</rscale>
<asrwt>0</asrwt>
<pdfrwt beam="2">  1        2 0.19707231E-01 0.12873006E+03</pdfrwt>
<pdfrwt beam="1">  1       -2 0.16702115E-01 0.12873006E+03</pdfrwt>
<totfact> 0.76062238E+03</totfact>
</mgrwt>
</event>
<event>
 6    1  0.5258538E-006  0.2926433E+03  0.7546771E-02  0.1088977E+00
          3   -1    0    0  501    0  0.00000000000E+00  0.00000000000E+00  0.10771235854E+04  0.10771235854E+04  0.00000000000E+00 0. -1.
         -3   -1    0    0    0  501 -0.00000000000E+00 -0.00000000000E+00 -0.19877038328E+02  0.19877038328E+02  0.00000000000E+00 0.  1.
          5    1    1    2  502    0 -0.71709017794E+02 -0.50655650459E+02  0.77254265936E+03  0.77752969634E+03  0.47000000000E+01 0. -1.
         -5    1    1    2    0  502  0.12121870537E+02  0.30384692211E+02  0.82176557205E+02  0.88573392281E+02  0.47000000000E+01 0.  1.
        -11    1    1    2    0    0  0.35099289580E+02 -0.35518935369E+02  0.88747588300E+02  0.10183167154E+03  0.00000000000E+00 0. -1.
         11    1    1    2    0    0  0.24487857677E+02  0.55789893617E+02  0.11377974221E+03  0.12906586357E+03  0.00000000000E+00 0.  1.
<mgrwt>
<rscale>  0 0.29264331E+03</rscale>
<asrwt>0</asrwt>
<pdfrwt beam="1">  1        3 0.16571128E+00 0.29264331E+03</pdfrwt>
<pdfrwt beam="2">  1       -3 0.30580067E-02 0.29264331E+03</pdfrwt>
<totfact> 0.33496788E+02</totfact>
</mgrwt>
</event>
<event>
 6    1  0.5258538E-006  0.2397072E+03  0.7546771E-02  0.1144463E+00
         -2   -1    0    0    0  501 -0.00000000000E+00  0.00000000000E+00  0.92769434338E+02  0.92769434338E+02  0.00000000000E+00 0.  1.
          2   -1    0    0  501    0  0.00000000000E+00 -0.00000000000E+00 -0.37457929932E+03  0.37457929932E+03  0.00000000000E+00 0. -1.
          5    1    1    2  502    0 -0.13639382294E+02 -0.73518778872E+02 -0.23481073396E+03  0.24647355716E+03  0.47000000000E+01 0. -1.
         -5    1    1    2    0  502  0.55740271921E+02 -0.10772145532E+02  0.33905348762E+02  0.66292380466E+02  0.47000000000E+01 0.  1.
        -11    1    1    2    0    0 -0.55228380192E+02  0.81717080167E+02 -0.93720800963E+02  0.13605676647E+03  0.00000000000E+00 0. -1.
         11    1    1    2    0    0  0.13127490565E+02  0.25738442365E+01  0.12816321179E+02  0.18526029560E+02  0.00000000000E+00 0.  1.
<mgrwt>
<rscale>  0 0.20638316E+03</rscale>
<asrwt>0</asrwt>
<pdfrwt beam="2">  1        2 0.57627586E-01 0.23970723E+03</pdfrwt>
<pdfrwt beam="1">  1       -2 0.14272220E-01 0.23970723E+03</pdfrwt>
<totfact> 0.31635100E+03</totfact>
</mgrwt>
</event>
<event>
 6    1  0.5258538E-006  0.1745052E+03  0.7546771E-02  0.1184294E+00
         -2   -1    0    0    0  501 -0.00000000000E+00  0.00000000000E+00  0.59037577907E+03  0.59037577907E+03  0.00000000000E+00 0.  1.
          2   -1    0    0  501    0  0.00000000000E+00 -0.00000000000E+00 -0.48798503034E+02  0.48798503034E+02  0.00000000000E+00 0. -1.
          5    1    1    2  502    0 -0.11684935828E+03  0.39626659099E+02  0.72849742717E+02  0.14336394127E+03  0.47000000000E+01 0. -1.
         -5    1    1    2    0  502  0.23685318562E+02 -0.40657129331E+00  0.97707914516E+02  0.10064832922E+03  0.47000000000E+01 0.  1.
        -11    1    1    2    0    0  0.87531000020E+01  0.21808738590E+02  0.27375593717E+02  0.36078538910E+02  0.00000000000E+00 0. -1.
         11    1    1    2    0    0  0.84410939715E+02 -0.61028826395E+02  0.34364402509E+03  0.35908347271E+03  0.00000000000E+00 0.  1.
<mgrwt>
<rscale>  0 0.16396280E+03</rscale>
<asrwt>0</asrwt>
<pdfrwt beam="2">  1        2 0.75074624E-02 0.17450523E+03</pdfrwt>
<pdfrwt beam="1">  1       -2 0.90827038E-01 0.17450523E+03</pdfrwt>
<totfact> 0.97224199E+02</totfact>
</mgrwt>
</event>
<event>
 6    1  0.5258538E-006  0.1198267E+03  0.7546771E-02  0.1252044E+00
          2   -1    0    0  501    0  0.00000000000E+00  0.00000000000E+00  0.56676079937E+03  0.56676079937E+03  0.00000000000E+00 0. -1.
         -2   -1    0    0    0  501 -0.00000000000E+00 -0.00000000000E+00 -0.29445565440E+02  0.29445565440E+02  0.00000000000E+00 0.  1.
          5    1    1    2  502    0  0.55894819885E+02  0.27983560236E+02  0.31550755033E+03  0.32167439259E+03  0.47000000000E+01 0. -1.
         -5    1    1    2    0  502 -0.50315273581E+02 -0.16416962215E+01  0.12496073011E+03  0.13480206227E+03  0.47000000000E+01 0.  1.
        -11    1    1    2    0    0 -0.30690074121E+02 -0.42968255271E+02  0.18759608016E+02  0.56036367686E+02  0.00000000000E+00 0.  1.
         11    1    1    2    0    0  0.25110527818E+02  0.16626391256E+02  0.78087345475E+02  0.83693542265E+02  0.00000000000E+00 0. -1.
<mgrwt>
<rscale>  0 0.11473540E+03</rscale>
<asrwt>0</asrwt>
<pdfrwt beam="1">  1        2 0.87193961E-01 0.11982674E+03</pdfrwt>
<pdfrwt beam="2">  1       -2 0.45300874E-02 0.11982674E+03</pdfrwt>
<totfact> 0.11573053E+04</totfact>
</mgrwt>
</event>
<event>
 6    1  0.5258538E-006  0.1318867E+03  0.7546771E-02  0.1237495E+00
          1   -1    0    0  501    0  0.00000000000E+00  0.00000000000E+00  0.34177415091E+03  0.34177415091E+03  0.00000000000E+00 0. -1.
         -1   -1    0    0    0  501 -0.00000000000E+00 -0.00000000000E+00 -0.41164882285E+02  0.41164882285E+02  0.00000000000E+00 0.  1.
          5    1    1    2  502    0 -0.55924221222E+01 -0.32985433368E+02  0.12612571191E+03  0.13057219920E+03  0.47000000000E+01 0. -1.
         -5    1    1    2    0  502  0.47610479495E+02  0.31202784613E+02  0.82477909204E+01  0.57710376714E+02  0.47000000000E+01 0. -1.
        -11    1    1    2    0    0 -0.42942458105E+02  0.39780575483E+02  0.70391566812E+02  0.91550650310E+02  0.00000000000E+00 0. -1.
         11    1    1    2    0    0  0.92440073211E+00 -0.37997926729E+02  0.95844198979E+02  0.10310580697E+03  0.00000000000E+00 0.  1.
<mgrwt>
<rscale>  0 0.12346025E+03</rscale>
<asrwt>0</asrwt>
<pdfrwt beam="1">  1        1 0.52580637E-01 0.13188666E+03</pdfrwt>
<pdfrwt beam="2">  1       -1 0.63330590E-02 0.13188666E+03</pdfrwt>
<totfact> 0.86561965E+03</totfact>
</mgrwt>
</event>
<event>
 6    1  0.5258538E-006  0.1705336E+03  0.7546771E-02  0.1193170E+00
         -1   -1    0    0    0  501 -0.00000000000E+00  0.00000000000E+00  0.16206905244E+02  0.16206905244E+02  0.00000000000E+00 0.  1.
          1   -1    0    0  501    0  0.00000000000E+00 -0.00000000000E+00 -0.13089036181E+04  0.13089036181E+04  0.00000000000E+00 0. -1.
          5    1    1    2  502    0  0.60351919742E+02 -0.81282250711E+02 -0.51993458074E+03  0.52971994181E+03  0.47000000000E+01 0.  1.
         -5    1    1    2    0  502 -0.52837866842E+02 -0.34477066473E+02 -0.18385444857E+03  0.19443522455E+03  0.47000000000E+01 0.  1.
        -11    1    1    2    0    0 -0.18499002346E+02  0.60226936721E+02 -0.29691555307E+03  0.30352651062E+03  0.00000000000E+00 0. -1.
         11    1    1    2    0    0  0.10984949447E+02  0.55532380463E+02 -0.29199213047E+03  0.29742884637E+03  0.00000000000E+00 0.  1.
<mgrwt>
<rscale>  0 0.15610165E+03</rscale>
<asrwt>0</asrwt>
<pdfrwt beam="2">  1        1 0.20136978E+00 0.17053360E+03</pdfrwt>
<pdfrwt beam="1">  1       -1 0.24933701E-02 0.17053360E+03</pdfrwt>
<totfact> 0.47177116E+03</totfact>
</mgrwt>
</event>
<event>
 6    1  0.5258538E-006  0.2482618E+03  0.7546771E-02  0.1114408E+00
          2   -1    0    0  501    0  0.00000000000E+00  0.00000000000E+00  0.50084408518E+02  0.50084408518E+02  0.00000000000E+00 0. -1.
         -2   -1    0    0    0  501 -0.00000000000E+00 -0.00000000000E+00 -0.30765024365E+03  0.30765024365E+03  0.00000000000E+00 0.  1.
          5    1    1    2  502    0 -0.80778524992E+01  0.37940688221E+02 -0.13185373244E+03  0.13752179566E+03  0.47000000000E+01 0.  1.
         -5    1    1    2    0  502 -0.48861689420E+01  0.11068608889E+02  0.29220378237E+02  0.31973571179E+02  0.47000000000E+01 0.  1.
        -11    1    1    2    0    0  0.42609071152E+02 -0.22679804294E+01 -0.31727509155E+02  0.53172469539E+02  0.00000000000E+00 0. -1.
         11    1    1    2    0    0 -0.29645049711E+02 -0.46741316680E+02 -0.12320497178E+03  0.13506681579E+03  0.00000000000E+00 0.  1.
<mgrwt>
<rscale>  0 0.24826180E+03</rscale>
<asrwt>0</asrwt>
<pdfrwt beam="1">  1        2 0.77052936E-02 0.24826180E+03</pdfrwt>
<pdfrwt beam="2">  1       -2 0.47330807E-01 0.24826180E+03</pdfrwt>
<totfact> 0.37877719E+03</totfact>
</mgrwt>
</event>
<event>
 6    1  0.5258538E-006  0.1266761E+03  0.7546771E-02  0.1247656E+00
         -1   -1    0    0    0  501 -0.00000000000E+00  0.00000000000E+00  0.14382145341E+02  0.14382145341E+02  0.00000000000E+00 0.  1.
          1   -1    0    0  501    0  0.00000000000E+00 -0.00000000000E+00 -0.85424649534E+03  0.85424649534E+03  0.00000000000E+00 0. -1.
          5    1    1    2  502    0 -0.41229835208E+02 -0.13094965068E+02 -0.44948869038E+03  0.45159002447E+03  0.47000000000E+01 0. -1.
         -5    1    1    2    0  502  0.36241038721E+02  0.33021776212E+02 -0.90256180974E+02  0.10282080916E+03  0.47000000000E+01 0. -1.
        -11    1    1    2    0    0  0.40573351512E+02  0.28579797760E+01 -0.76494474392E+02  0.86635844278E+02  0.00000000000E+00 0.  1.
         11    1    1    2    0    0 -0.35584555025E+02 -0.22784790921E+02 -0.22362500426E+03  0.22758196278E+03  0.00000000000E+00 0. -1.
<mgrwt>
<rscale>  0 0.11727838E+03</rscale>
<asrwt>0</asrwt>
<pdfrwt beam="2">  1        1 0.13142256E+00 0.12667615E+03</pdfrwt>
<pdfrwt beam="1">  1       -1 0.22126374E-02 0.12667615E+03</pdfrwt>
<totfact> 0.11724667E+04</totfact>
</mgrwt>
</event>
<event>
 6    1  0.5258538E-006  0.4100408E+03  0.7546771E-02  0.1041283E+00
          1   -1    0    0  501    0  0.00000000000E+00  0.00000000000E+00  0.29576313508E+03  0.29576313508E+03  0.00000000000E+00 0.  1.
         -1   -1    0    0    0  501 -0.00000000000E+00 -0.00000000000E+00 -0.58402922973E+03  0.58402922973E+03  0.00000000000E+00 0. -1.
          5    1    1    2  502    0  0.78565302982E+02 -0.22993515991E+03  0.32588759374E+02  0.24520767083E+03  0.47000000000E+01 0. -1.
         -5    1    1    2    0  502  0.61425438088E+02 -0.13463563686E+03 -0.77972832614E+02  0.16733706040E+03  0.47000000000E+01 0. -1.
        -11    1    1    2    0    0 -0.13267084753E+03  0.26776897530E+03 -0.15666135739E+03  0.33740859327E+03  0.00000000000E+00 0. -1.
         11    1    1    2    0    0 -0.73198935446E+01  0.96801821474E+02 -0.86220664018E+02  0.12983904030E+03  0.00000000000E+00 0.  1.
<mgrwt>
<rscale>  0 0.40729308E+03</rscale>
<asrwt>0</asrwt>
<pdfrwt beam="1">  1        1 0.45502021E-01 0.41004078E+03</pdfrwt>
<pdfrwt beam="2">  1       -1 0.89850650E-01 0.41004078E+03</pdfrwt>
<totfact> 0.11292071E+02</totfact>
</mgrwt>
</event>
<event>
 6    1  0.5258538E-006  0.1384199E+03  0.7546771E-02  0.1227629E+00
         -1   -1    0    0    0  501 -0.00000000000E+00  0.00000000000E+00  0.13072866842E+03  0.13072866842E+03  0.00000000000E+00 0.  1.
          1   -1    0    0  501    0  0.00000000000E+00 -0.00000000000E+00 -0.12531002307E+03  0.12531002307E+03  0.00000000000E+00 0. -1.
          5    1    1    2  502    0  0.33361782025E+01 -0.67934515725E+02  0.29755180877E+02  0.74388771336E+02  0.47000000000E+01 0.  1.
         -5    1    1    2    0  502 -0.23370799511E+02  0.12015149120E+02 -0.62339080293E+02  0.67814519167E+02  0.47000000000E+01 0.  1.
        -11    1    1    2    0    0  0.14730283004E+02 -0.15752227878E+02  0.35968985677E+02  0.41939025396E+02  0.00000000000E+00 0.  1.
         11    1    1    2    0    0  0.53043383048E+01  0.71671594483E+02  0.20335590930E+01  0.71896375591E+02  0.00000000000E+00 0. -1.
<mgrwt>
<rscale>  0 0.12988338E+03</rscale>
<asrwt>0</asrwt>
<pdfrwt beam="2">  1        1 0.19278465E-01 0.13841989E+03</pdfrwt>
<pdfrwt beam="1">  1       -1 0.20112103E-01 0.13841989E+03</pdfrwt>
<totfact> 0.51145033E+03</totfact>
</mgrwt>
</event>
<event>
 6    1  0.5258538E-006  0.1400067E+03  0.7546771E-02  0.1257884E+00
         -2   -1    0    0    0  501 -0.00000000000E+00  0.00000000000E+00  0.25110053031E+02  0.25110053031E+02  0.00000000000E+00 0. -1.
          2   -1    0    0  501    0  0.00000000000E+00 -0.00000000000E+00 -0.25727824761E+04  0.25727824761E+04  0.00000000000E+00 0.  1.
          5    1    1    2  502    0 -0.35749240345E+02  0.65343139057E+02 -0.12757096722E+04  0.12778908372E+04  0.47000000000E+01 0.  1.
         -5    1    1    2    0  502  0.26480329069E+02 -0.59290066757E+02 -0.12610241577E+04  0.12627036613E+04  0.47000000000E+01 0. -1.
        -11    1    1    2    0    0 -0.19856373016E+02 -0.15717160357E+02 -0.23542219682E+01  0.25433187769E+02  0.00000000000E+00 0.  1.
         11    1    1    2    0    0  0.29125284292E+02  0.96640880556E+01 -0.85843711416E+01  0.31864842867E+02  0.00000000000E+00 0. -1.
<mgrwt>
<rscale>  0 0.11146310E+03</rscale>
<asrwt>0</asrwt>
<pdfrwt beam="2">  1        2 0.39581288E+00 0.14000672E+03</pdfrwt>
<pdfrwt beam="1">  1       -2 0.38630832E-02 0.14000672E+03</pdfrwt>
<totfact> 0.10870138E+03</totfact>
</mgrwt>
</event>
<event>
 6    1  0.5258538E-006  0.1549086E+03  0.7546771E-02  0.1200910E+00
          1   -1    0    0  501    0  0.00000000000E+00  0.00000000000E+00  0.94325533745E+02  0.94325533745E+02  0.00000000000E+00 0. -1.
         -1   -1    0    0    0  501 -0.00000000000E+00 -0.00000000000E+00 -0.34972888519E+03  0.34972888519E+03  0.00000000000E+00 0.  1.
          5    1    1    2  502    0  0.52914236185E+01 -0.34185916668E+02  0.61686278444E+02  0.70879919657E+02  0.47000000000E+01 0.  1.
         -5    1    1    2    0  502  0.18499963000E+02 -0.54162084750E+02 -0.61343394377E+02  0.84029055030E+02  0.47000000000E+01 0.  1.
        -11    1    1    2    0    0 -0.87368774435E+01  0.13889079325E+02  0.53216058628E+01  0.17249899736E+02  0.00000000000E+00 0. -1.
         11    1    1    2    0    0 -0.15054509175E+02  0.74458922093E+02 -0.26106784137E+03  0.27189554451E+03  0.00000000000E+00 0.  1.
<mgrwt>
<rscale>  0 0.14964508E+03</rscale>
<asrwt>0</asrwt>
<pdfrwt beam="1">  1        1 0.14511621E-01 0.15490860E+03</pdfrwt>
<pdfrwt beam="2">  1       -1 0.53804443E-01 0.15490860E+03</pdfrwt>
<totfact> 0.13728812E+03</totfact>
</mgrwt>
</event>
<event>
 6    1  0.5258538E-006  0.1564493E+03  0.7546771E-02  0.1201437E+00
          1   -1    0    0  501    0  0.00000000000E+00  0.00000000000E+00  0.80278986025E+03  0.80278986025E+03  0.00000000000E+00 0. -1.
         -1   -1    0    0    0  501 -0.00000000000E+00 -0.00000000000E+00 -0.41449525768E+02  0.41449525768E+02  0.00000000000E+00 0.  1.
          5    1    1    2  502    0 -0.20279059107E+02  0.32653688575E+02  0.22294190070E+03  0.22628010232E+03  0.47000000000E+01 0. -1.
         -5    1    1    2    0  502  0.11352398793E+03 -0.20142162648E+02  0.44126867900E+03  0.45610693879E+03  0.47000000000E+01 0. -1.
        -11    1    1    2    0    0 -0.10455922562E+03  0.80643757790E+01  0.70582260188E+02  0.12641013120E+03  0.00000000000E+00 0. -1.
         11    1    1    2    0    0  0.11314296795E+02 -0.20575901705E+02  0.26547494597E+02  0.35442213705E+02  0.00000000000E+00 0.  1.
<mgrwt>
<rscale>  0 0.14921789E+03</rscale>
<asrwt>0</asrwt>
<pdfrwt beam="1">  1        1 0.12350612E+00 0.15644929E+03</pdfrwt>
<pdfrwt beam="2">  1       -1 0.63768507E-02 0.15644929E+03</pdfrwt>
<totfact> 0.27530813E+03</totfact>
</mgrwt>
</event>
<event>
 6    1  0.5258538E-006  0.1313253E+03  0.7546771E-02  0.1239550E+00
          2   -1    0    0  501    0  0.00000000000E+00  0.00000000000E+00  0.86177517137E+03  0.86177517137E+03  0.00000000000E+00 0.  1.
         -2   -1    0    0    0  501 -0.00000000000E+00 -0.00000000000E+00 -0.17913123424E+02  0.17913123424E+02  0.00000000000E+00 0. -1.
          5    1    1    2  502    0  0.74269612071E+01 -0.42124851702E+02  0.31606168756E+03  0.31897765318E+03  0.47000000000E+01 0.  1.
         -5    1    1    2    0  502 -0.70308997041E+01  0.82381350298E+02  0.32387617208E+03  0.33429625375E+03  0.47000000000E+01 0.  1.
        -11    1    1    2    0    0  0.39780838001E+02 -0.18022141019E+02  0.53087138732E+02  0.68742686431E+02  0.00000000000E+00 0. -1.
         11    1    1    2    0    0 -0.40176899504E+02 -0.22234357578E+02  0.15083704957E+03  0.15767170144E+03  0.00000000000E+00 0.  1.
<mgrwt>
<rscale>  0 0.12217624E+03</rscale>
<asrwt>0</asrwt>
<pdfrwt beam="1">  1        2 0.13258076E+00 0.13132530E+03</pdfrwt>
<pdfrwt beam="2">  1       -2 0.27558658E-02 0.13132530E+03</pdfrwt>
<totfact> 0.14747656E+04</totfact>
</mgrwt>
</event>
<event>
 6    1  0.5258538E-006  0.3763615E+03  0.7546771E-02  0.1052886E+00
         -1   -1    0    0    0  501 -0.00000000000E+00  0.00000000000E+00  0.10466347367E+04  0.10466347367E+04  0.00000000000E+00 0.  1.
          1   -1    0    0  501    0  0.00000000000E+00 -0.00000000000E+00 -0.21423965256E+03  0.21423965256E+03  0.00000000000E+00 0. -1.
          5    1    1    2  502    0  0.77892795786E+01 -0.10126030897E+03 -0.28263249605E+02  0.10552357237E+03  0.47000000000E+01 0. -1.
         -5    1    1    2    0  502  0.16204914505E+03 -0.21047485774E+03  0.58603468566E+02  0.27205890480E+03  0.47000000000E+01 0. -1.
        -11    1    1    2    0    0 -0.10048382673E+03  0.11243835115E+03  0.24596491556E+03  0.28851017647E+03  0.00000000000E+00 0. -1.
         11    1    1    2    0    0 -0.69354597896E+02  0.19929681556E+03  0.55608994960E+03  0.59478173558E+03  0.00000000000E+00 0.  1.
<mgrwt>
<rscale>  0 0.37476527E+03</rscale>
<asrwt>0</asrwt>
<pdfrwt beam="2">  1        1 0.32959947E-01 0.37636153E+03</pdfrwt>
<pdfrwt beam="1">  1       -1 0.16102073E+00 0.37636153E+03</pdfrwt>
<totfact> 0.41568740E+01</totfact>
</mgrwt>
</event>
<event>
 6    1  0.5258538E-006  0.1252981E+03  0.7546771E-02  0.1252134E+00
          1   -1    0    0  501    0  0.00000000000E+00  0.00000000000E+00  0.13800784343E+04  0.13800784343E+04  0.00000000000E+00 0. -1.
         -1   -1    0    0    0  501 -0.00000000000E+00 -0.00000000000E+00 -0.97990299111E+01  0.97990299111E+01  0.00000000000E+00 0.  1.
          5    1    1    2  502    0  0.42752060876E+02  0.11218979226E+02  0.15021273854E+03  0.15665108050E+03  0.47000000000E+01 0. -1.
         -5    1    1    2    0  502 -0.37021060741E+02 -0.17950104964E+02  0.90969894177E+03  0.91064099396E+03  0.47000000000E+01 0. -1.
        -11    1    1    2    0    0  0.28547524459E+02  0.29515653993E+02  0.97820912963E+02  0.10608989583E+03  0.00000000000E+00 0.  1.
         11    1    1    2    0    0 -0.34278524594E+02 -0.22784528255E+02  0.21254681116E+03  0.21649549398E+03  0.00000000000E+00 0. -1.
<mgrwt>
<rscale>  0 0.11468410E+03</rscale>
<asrwt>0</asrwt>
<pdfrwt beam="1">  1        1 0.21231961E+00 0.12529805E+03</pdfrwt>
<pdfrwt beam="2">  1       -1 0.15075442E-02 0.12529805E+03</pdfrwt>
<totfact> 0.86502981E+03</totfact>
</mgrwt>
</event>
<event>
 6    1  0.5315058E-006  0.2642838E+03  0.7546771E-02  0.1106727E+00
         -2   -1    0    0    0  501 -0.00000000000E+00  0.00000000000E+00  0.17035317246E+03  0.17035317246E+03  0.00000000000E+00 0. -1.
          2   -1    0    0  501    0  0.00000000000E+00 -0.00000000000E+00 -0.39598452088E+03  0.39598452088E+03  0.00000000000E+00 0.  1.
          5    1    1    2  502    0 -0.10885839586E+02 -0.44114750565E+01 -0.30218793515E+02  0.32760160213E+02  0.47000000000E+01 0.  1.
         -5    1    1    2    0  502  0.24317029564E+03 -0.11875344324E+02 -0.12461508971E+03  0.27353944334E+03  0.47000000000E+01 0.  1.
        -11    1    1    2    0    0 -0.51057782764E+02  0.42885242559E+02 -0.12703140634E+02  0.67877912403E+02  0.00000000000E+00 0.  1.
         11    1    1    2    0    0 -0.18122667328E+03 -0.26598423179E+02 -0.58094324554E+02  0.19216017738E+03  0.00000000000E+00 0. -1.
<mgrwt>
<rscale>  0 0.26069410E+03</rscale>
<asrwt>0</asrwt>
<pdfrwt beam="2">  1        2 0.60920695E-01 0.26428378E+03</pdfrwt>
<pdfrwt beam="1">  1       -2 0.26208181E-01 0.26428378E+03</pdfrwt>
<totfact> 0.10556902E+03</totfact>
</mgrwt>
</event>
<event>
 6    1  0.5258538E-006  0.1301893E+03  0.7546771E-02  0.1240871E+00
          2   -1    0    0  501    0  0.00000000000E+00  0.00000000000E+00  0.48943440660E+03  0.48943440660E+03  0.00000000000E+00 0. -1.
         -2   -1    0    0    0  501 -0.00000000000E+00 -0.00000000000E+00 -0.34363222371E+02  0.34363222371E+02  0.00000000000E+00 0.  1.
          5    1    1    2  502    0 -0.33436760786E+01 -0.46555850337E+02  0.12755413017E+03  0.13590722385E+03  0.47000000000E+01 0. -1.
         -5    1    1    2    0  502  0.73272463571E+01  0.82710674258E+02  0.24761930689E+03  0.26121285443E+03  0.47000000000E+01 0. -1.
        -11    1    1    2    0    0  0.32574333823E+02 -0.33540784464E+02  0.76777692779E+02  0.89893745917E+02  0.00000000000E+00 0.  1.
         11    1    1    2    0    0 -0.36557904102E+02 -0.26140394568E+01  0.31200543937E+01  0.36783804779E+02  0.00000000000E+00 0. -1.
<mgrwt>
<rscale>  0 0.12135943E+03</rscale>
<asrwt>0</asrwt>
<pdfrwt beam="1">  1        2 0.75297596E-01 0.13018928E+03</pdfrwt>
<pdfrwt beam="2">  1       -2 0.52866499E-02 0.13018928E+03</pdfrwt>
<totfact> 0.10865978E+04</totfact>
</mgrwt>
</event>
<event>
 6    1  0.5258538E-006  0.1302705E+03  0.7546771E-02  0.1241638E+00
          1   -1    0    0  501    0  0.00000000000E+00  0.00000000000E+00  0.15473713135E+03  0.15473713135E+03  0.00000000000E+00 0. -1.
         -1   -1    0    0    0  501 -0.00000000000E+00 -0.00000000000E+00 -0.89186190947E+02  0.89186190947E+02  0.00000000000E+00 0.  1.
          5    1    1    2  502    0 -0.34670884745E+02  0.68731352364E+00  0.68875244891E+02  0.77255627677E+02  0.47000000000E+01 0. -1.
         -5    1    1    2    0  502  0.67979036107E+02 -0.16066577507E+02 -0.19628064560E+00  0.70010090622E+02  0.47000000000E+01 0. -1.
        -11    1    1    2    0    0 -0.43518622344E+02  0.13523475972E+02 -0.38585519844E+02  0.59712622072E+02  0.00000000000E+00 0.  1.
         11    1    1    2    0    0  0.10210470982E+02  0.18557880105E+01  0.35457495997E+02  0.36944981921E+02  0.00000000000E+00 0. -1.
<mgrwt>
<rscale>  0 0.12088894E+03</rscale>
<asrwt>0</asrwt>
<pdfrwt beam="1">  1        1 0.23805713E-01 0.13027046E+03</pdfrwt>
<pdfrwt beam="2">  1       -1 0.13720952E-01 0.13027046E+03</pdfrwt>
<totfact> 0.71363419E+03</totfact>
</mgrwt>
</event>
<event>
 6    1  0.5258538E-006  0.4146335E+03  0.7546771E-02  0.1038827E+00
         -1   -1    0    0    0  501 -0.00000000000E+00  0.00000000000E+00  0.58510203918E+02  0.58510203918E+02  0.00000000000E+00 0.  1.
          1   -1    0    0  501    0  0.00000000000E+00 -0.00000000000E+00 -0.73457661283E+03  0.73457661283E+03  0.00000000000E+00 0. -1.
          5    1    1    2  502    0  0.98858826672E+02 -0.15050314170E+03 -0.26404325558E+03  0.31963290521E+03  0.47000000000E+01 0. -1.
         -5    1    1    2    0  502  0.11607653064E+02  0.13719299790E+02 -0.11509981681E+03  0.11658908450E+03  0.47000000000E+01 0. -1.
        -11    1    1    2    0    0 -0.51065892437E+02  0.65942425518E+02 -0.60578827163E+02  0.10308211850E+03  0.00000000000E+00 0.  1.
         11    1    1    2    0    0 -0.59400587299E+02  0.70841416395E+02 -0.23634450936E+03  0.25378270853E+03  0.00000000000E+00 0. -1.
<mgrwt>
<rscale>  0 0.41463346E+03</rscale>
<asrwt>0</asrwt>
<pdfrwt beam="2">  1        1 0.11301179E+00 0.41463346E+03</pdfrwt>
<pdfrwt beam="1">  1       -1 0.90015692E-02 0.41463346E+03</pdfrwt>
<totfact> 0.18882785E+03</totfact>
</mgrwt>
</event>
<event>
 6    1  0.5258538E-006  0.1663361E+03  0.7546771E-02  0.1188461E+00
         -1   -1    0    0    0  501 -0.00000000000E+00  0.00000000000E+00  0.12209425475E+03  0.12209425475E+03  0.00000000000E+00 0. -1.
          1   -1    0    0  501    0  0.00000000000E+00 -0.00000000000E+00 -0.20053518582E+03  0.20053518582E+03  0.00000000000E+00 0.  1.
          5    1    1    2  502    0 -0.56184198078E+02 -0.28546985183E+01 -0.66097508709E+02  0.86924013223E+02  0.47000000000E+01 0.  1.
         -5    1    1    2    0  502 -0.39272911050E+02 -0.51083944245E+02  0.47868720536E+02  0.80407930627E+02  0.47000000000E+01 0.  1.
        -11    1    1    2    0    0  0.71138820834E+02  0.39735920856E+02 -0.85023156428E+02  0.11776507277E+03  0.00000000000E+00 0.  1.
         11    1    1    2    0    0  0.24318288295E+02  0.14202721907E+02  0.24811013527E+02  0.37532423948E+02  0.00000000000E+00 0. -1.
<mgrwt>
<rscale>  0 0.16020917E+03</rscale>
<asrwt>0</asrwt>
<pdfrwt beam="2">  1        1 0.30851567E-01 0.16633608E+03</pdfrwt>
<pdfrwt beam="1">  1       -1 0.18783731E-01 0.16633608E+03</pdfrwt>
<totfact> 0.31855513E+03</totfact>
</mgrwt>
</event>
<event>
 6    1  0.5258538E-006  0.1382088E+03  0.7546771E-02  0.1226678E+00
         -1   -1    0    0    0  501 -0.00000000000E+00  0.00000000000E+00  0.16706971837E+02  0.16706971837E+02  0.00000000000E+00 0.  1.
          1   -1    0    0  501    0  0.00000000000E+00 -0.00000000000E+00 -0.92205004336E+03  0.92205004336E+03  0.00000000000E+00 0. -1.
          5    1    1    2  502    0 -0.40267967634E+02  0.46777391383E+01 -0.17763850653E+03  0.18226606778E+03  0.47000000000E+01 0.  1.
         -5    1    1    2    0  502  0.87498044167E+02 -0.39947753319E+02 -0.31487990751E+03  0.32927674816E+03  0.47000000000E+01 0.  1.
        -11    1    1    2    0    0 -0.26213484878E+02 -0.27513508769E+02 -0.22202838908E+03  0.22525706540E+03  0.00000000000E+00 0. -1.
         11    1    1    2    0    0 -0.21016591655E+02  0.62783522950E+02 -0.19079626840E+03  0.20195713385E+03  0.00000000000E+00 0.  1.
<mgrwt>
<rscale>  0 0.13052539E+03</rscale>
<asrwt>0</asrwt>
<pdfrwt beam="2">  1        1 0.14185393E+00 0.13820877E+03</pdfrwt>
<pdfrwt beam="1">  1       -1 0.25703020E-02 0.13820877E+03</pdfrwt>
<totfact> 0.84106045E+03</totfact>
</mgrwt>
</event>
<event>
 6    1  0.5258538E-006  0.1343981E+03  0.7546771E-02  0.1234735E+00
          2   -1    0    0  501    0  0.00000000000E+00  0.00000000000E+00  0.61639429808E+03  0.61639429808E+03  0.00000000000E+00 0. -1.
         -2   -1    0    0    0  501 -0.00000000000E+00 -0.00000000000E+00 -0.22647165753E+02  0.22647165753E+02  0.00000000000E+00 0.  1.
          5    1    1    2  502    0  0.29949499043E+01 -0.76984043301E+02  0.13343155075E+03  0.15414792047E+03  0.47000000000E+01 0. -1.
         -5    1    1    2    0  502 -0.23245958338E+02  0.31958974012E+02  0.22832466083E+03  0.23176710583E+03  0.47000000000E+01 0. -1.
        -11    1    1    2    0    0 -0.13715295613E+02  0.40251561915E+02  0.40966578738E+02  0.59047084126E+02  0.00000000000E+00 0.  1.
         11    1    1    2    0    0  0.33966304048E+02  0.47735073734E+01  0.19102434200E+03  0.19407935341E+03  0.00000000000E+00 0. -1.
<mgrwt>
<rscale>  0 0.12521384E+03</rscale>
<asrwt>0</asrwt>
<pdfrwt beam="1">  1        2 0.94829879E-01 0.13439811E+03</pdfrwt>
<pdfrwt beam="2">  1       -2 0.34841798E-02 0.13439811E+03</pdfrwt>
<totfact> 0.15671028E+04</totfact>
</mgrwt>
</event>
<event>
 6    1  0.5258538E-006  0.1387900E+03  0.7546771E-02  0.1226832E+00
          2   -1    0    0  501    0  0.00000000000E+00  0.00000000000E+00  0.83592252176E+03  0.83592252176E+03  0.00000000000E+00 0. -1.
         -2   -1    0    0    0  501 -0.00000000000E+00 -0.00000000000E+00 -0.22082687746E+02  0.22082687746E+02  0.00000000000E+00 0.  1.
          5    1    1    2  502    0  0.34037129860E+02  0.12847767782E+02  0.45121090040E+02  0.58151475583E+02  0.47000000000E+01 0.  1.
         -5    1    1    2    0  502 -0.20024028031E+02  0.45817754455E+02  0.58105298423E+03  0.58321941738E+03  0.47000000000E+01 0.  1.
        -11    1    1    2    0    0  0.35795480425E+02 -0.18924580368E+02  0.10297586338E+03  0.11065028061E+03  0.00000000000E+00 0.  1.
         11    1    1    2    0    0 -0.49808582254E+02 -0.39740941869E+02  0.84689896367E+02  0.10598403594E+03  0.00000000000E+00 0. -1.
<mgrwt>
<rscale>  0 0.13042095E+03</rscale>
<asrwt>0</asrwt>
<pdfrwt beam="1">  1        2 0.12860344E+00 0.13878995E+03</pdfrwt>
<pdfrwt beam="2">  1       -2 0.33973372E-02 0.13878995E+03</pdfrwt>
<totfact> 0.11310623E+04</totfact>
</mgrwt>
</event>
<event>
 6    1  0.5258538E-006  0.1319881E+03  0.7546771E-02  0.1238080E+00
         -1   -1    0    0    0  501 -0.00000000000E+00  0.00000000000E+00  0.90052194023E+02  0.90052194023E+02  0.00000000000E+00 0.  1.
          1   -1    0    0  501    0  0.00000000000E+00 -0.00000000000E+00 -0.17311455827E+03  0.17311455827E+03  0.00000000000E+00 0. -1.
          5    1    1    2  502    0  0.32404021220E+02 -0.48677209920E+02 -0.10202105264E+03  0.11768549842E+03  0.47000000000E+01 0. -1.
         -5    1    1    2    0  502  0.86117550931E+01  0.43273406249E+02  0.70381623072E+01  0.44926336851E+02  0.47000000000E+01 0. -1.
        -11    1    1    2    0    0 -0.10308004429E+02 -0.41927423455E+02  0.16479859972E+01  0.43207402731E+02  0.00000000000E+00 0.  1.
         11    1    1    2    0    0 -0.30707771884E+02  0.47331227127E+02  0.10272540089E+02  0.57347514290E+02  0.00000000000E+00 0. -1.
<mgrwt>
<rscale>  0 0.12309307E+03</rscale>
<asrwt>0</asrwt>
<pdfrwt beam="2">  1        1 0.26633008E-01 0.13198810E+03</pdfrwt>
<pdfrwt beam="1">  1       -1 0.13854184E-01 0.13198810E+03</pdfrwt>
<totfact> 0.61130532E+03</totfact>
</mgrwt>
</event>
<event>
 6    1  0.5258538E-006  0.1260662E+03  0.7546771E-02  0.1246788E+00
         -1   -1    0    0    0  501 -0.00000000000E+00  0.00000000000E+00  0.76923143806E+03  0.76923143806E+03  0.00000000000E+00 0.  1.
          1   -1    0    0  501    0  0.00000000000E+00 -0.00000000000E+00 -0.16591850906E+02  0.16591850906E+02  0.00000000000E+00 0. -1.
          5    1    1    2  502    0  0.29193943180E+02 -0.52859585168E+02  0.20242455485E+03  0.21129177094E+03  0.47000000000E+01 0. -1.
         -5    1    1    2    0  502 -0.44022252760E+02  0.46069624655E+02  0.15187724646E+03  0.16477001258E+03  0.47000000000E+01 0. -1.
        -11    1    1    2    0    0  0.43765256351E+01  0.48267969867E+02  0.14627747777E+03  0.15409753857E+03  0.00000000000E+00 0. -1.
         11    1    1    2    0    0  0.10451783945E+02 -0.41478009353E+02  0.25206030808E+03  0.25566396688E+03  0.00000000000E+00 0.  1.
<mgrwt>
<rscale>  0 0.11778993E+03</rscale>
<asrwt>0</asrwt>
<pdfrwt beam="2">  1        1 0.25525930E-02 0.12606625E+03</pdfrwt>
<pdfrwt beam="1">  1       -1 0.11834327E+00 0.12606625E+03</pdfrwt>
<totfact> 0.28101045E+03</totfact>
</mgrwt>
</event>
<event>
 6    1  0.5258538E-006  0.1671974E+03  0.7546771E-02  0.1186937E+00
         -1   -1    0    0    0  501 -0.00000000000E+00  0.00000000000E+00  0.27058424187E+02  0.27058424187E+02  0.00000000000E+00 0.  1.
          1   -1    0    0  501    0  0.00000000000E+00 -0.00000000000E+00 -0.12903420068E+04  0.12903420068E+04  0.00000000000E+00 0. -1.
          5    1    1    2  502    0  0.22733124921E+02  0.34741029997E+02 -0.29272074414E+03  0.29568777145E+03  0.47000000000E+01 0.  1.
         -5    1    1    2    0  502  0.58907096259E+02 -0.11003677815E+03 -0.72854189184E+03  0.73917083052E+03  0.47000000000E+01 0.  1.
        -11    1    1    2    0    0 -0.15368930551E+02  0.10514472681E+02  0.45166166672E+01  0.19161367075E+02  0.00000000000E+00 0.  1.
         11    1    1    2    0    0 -0.66271290629E+02  0.64781275474E+02 -0.24653756333E+03  0.26338046197E+03  0.00000000000E+00 0. -1.
<mgrwt>
<rscale>  0 0.16156846E+03</rscale>
<asrwt>0</asrwt>
<pdfrwt beam="2">  1        1 0.19851415E+00 0.16719735E+03</pdfrwt>
<pdfrwt beam="1">  1       -1 0.41628345E-02 0.16719735E+03</pdfrwt>
<totfact> 0.22879550E+03</totfact>
</mgrwt>
</event>
<event>
 6    1  0.5258538E-006  0.1408175E+03  0.7546771E-02  0.1218812E+00
         -2   -1    0    0    0  501 -0.00000000000E+00  0.00000000000E+00  0.25334881560E+02  0.25334881560E+02  0.00000000000E+00 0.  1.
          2   -1    0    0  501    0  0.00000000000E+00 -0.00000000000E+00 -0.68436501899E+03  0.68436501899E+03  0.00000000000E+00 0. -1.
          5    1    1    2  502    0  0.52812898855E+02  0.17203228182E+02 -0.27458510213E+03  0.28018604829E+03  0.47000000000E+01 0.  1.
         -5    1    1    2    0  502 -0.58730197045E+01 -0.61950032313E+02 -0.80888259279E+02  0.10216310172E+03  0.47000000000E+01 0.  1.
        -11    1    1    2    0    0  0.56456111203E+01  0.29135210748E+02 -0.14307295132E+02  0.32945896926E+02  0.00000000000E+00 0.  1.
         11    1    1    2    0    0 -0.52585490271E+02  0.15611593383E+02 -0.28924948088E+03  0.29440485361E+03  0.00000000000E+00 0. -1.
<mgrwt>
<rscale>  0 0.13600238E+03</rscale>
<asrwt>0</asrwt>
<pdfrwt beam="2">  1        2 0.10528693E+00 0.14081748E+03</pdfrwt>
<pdfrwt beam="1">  1       -2 0.38976740E-02 0.14081748E+03</pdfrwt>
<totfact> 0.11791829E+04</totfact>
</mgrwt>
</event>
<event>
 6    1  0.5258538E-006  0.1561847E+03  0.7546771E-02  0.1201232E+00
          4   -1    0    0  501    0  0.00000000000E+00  0.00000000000E+00  0.15171732482E+03  0.15171732482E+03  0.00000000000E+00 0. -1.
         -4   -1    0    0    0  501 -0.00000000000E+00 -0.00000000000E+00 -0.15327611722E+03  0.15327611722E+03  0.00000000000E+00 0.  1.
          5    1    1    2  502    0 -0.11542568935E+02  0.26641349374E+02 -0.26235386319E+02  0.39412915262E+02  0.47000000000E+01 0.  1.
         -5    1    1    2    0  502 -0.74255055859E+02 -0.64161205409E+02  0.76962700636E+02  0.12480312852E+03  0.47000000000E+01 0.  1.
        -11    1    1    2    0    0  0.69335268315E+02  0.64780057219E+02 -0.53457108768E+02  0.10891050327E+03  0.00000000000E+00 0.  1.
         11    1    1    2    0    0  0.16462356480E+02 -0.27260201185E+02  0.11710020492E+01  0.31866894974E+02  0.00000000000E+00 0. -1.
<mgrwt>
<rscale>  0 0.14938393E+03</rscale>
<asrwt>0</asrwt>
<pdfrwt beam="1">  1        4 0.23341127E-01 0.15618466E+03</pdfrwt>
<pdfrwt beam="2">  1       -4 0.23580941E-01 0.15618466E+03</pdfrwt>
<totfact> 0.48393889E+02</totfact>
</mgrwt>
</event>
<event>
 6    1  0.5258538E-006  0.2669212E+03  0.7546771E-02  0.1105351E+00
         -1   -1    0    0    0  501 -0.00000000000E+00  0.00000000000E+00  0.68420649152E+03  0.68420649152E+03  0.00000000000E+00 0.  1.
          1   -1    0    0  501    0  0.00000000000E+00 -0.00000000000E+00 -0.98241757194E+02  0.98241757194E+02  0.00000000000E+00 0. -1.
          5    1    1    2  502    0 -0.72821808651E+02  0.92048785418E+02  0.83473446829E+02  0.14410378565E+03  0.47000000000E+01 0.  1.
         -5    1    1    2    0  502 -0.13791589312E+03  0.13838408841E+02  0.21986688207E+03  0.25995351693E+03  0.47000000000E+01 0.  1.
        -11    1    1    2    0    0  0.11950688143E+02 -0.40349992331E+01  0.66151320672E+02  0.67343131740E+02  0.00000000000E+00 0.  1.
         11    1    1    2    0    0  0.19878701362E+03 -0.10185219503E+03  0.21647308475E+03  0.31104781440E+03  0.00000000000E+00 0. -1.
<mgrwt>
<rscale>  0 0.26300592E+03</rscale>
<asrwt>0</asrwt>
<pdfrwt beam="2">  1        1 0.15114117E-01 0.26692124E+03</pdfrwt>
<pdfrwt beam="1">  1       -1 0.10526253E+00 0.26692124E+03</pdfrwt>
<totfact> 0.33204366E+02</totfact>
</mgrwt>
</event>
<event>
 6    1  0.5258538E-006  0.1312425E+03  0.7546771E-02  0.1239959E+00
         -2   -1    0    0    0  501 -0.00000000000E+00  0.00000000000E+00  0.28355477903E+02  0.28355477903E+02  0.00000000000E+00 0.  1.
          2   -1    0    0  501    0  0.00000000000E+00 -0.00000000000E+00 -0.76962298915E+03  0.76962298915E+03  0.00000000000E+00 0. -1.
          5    1    1    2  502    0  0.82323782658E+01  0.70056424465E+02 -0.24404415497E+03  0.25407737844E+03  0.47000000000E+01 0.  1.
         -5    1    1    2    0  502 -0.31970702250E+02 -0.37843639854E+02 -0.40964827813E+03  0.41265974925E+03  0.47000000000E+01 0.  1.
        -11    1    1    2    0    0  0.25172252635E+02  0.29298142629E+01 -0.92334372886E+02  0.95748955767E+02  0.00000000000E+00 0. -1.
         11    1    1    2    0    0 -0.14339286508E+01 -0.35142598874E+02  0.47592947321E+01  0.35492383596E+02  0.00000000000E+00 0.  1.
<mgrwt>
<rscale>  0 0.12192259E+03</rscale>
<asrwt>0</asrwt>
<pdfrwt beam="2">  1        2 0.11840352E+00 0.13124252E+03</pdfrwt>
<pdfrwt beam="1">  1       -2 0.43623819E-02 0.13124252E+03</pdfrwt>
<totfact> 0.86223323E+03</totfact>
</mgrwt>
</event>
<event>
 6    1  0.5258538E-006  0.1265943E+03  0.7546771E-02  0.1246124E+00
         -2   -1    0    0    0  501 -0.00000000000E+00  0.00000000000E+00  0.41597921963E+02  0.41597921963E+02  0.00000000000E+00 0.  1.
          2   -1    0    0  501    0  0.00000000000E+00 -0.00000000000E+00 -0.30125963459E+03  0.30125963459E+03  0.00000000000E+00 0. -1.
          5    1    1    2  502    0 -0.14844962417E+02 -0.30035819816E+02  0.36740780254E+01  0.34031048038E+02  0.47000000000E+01 0.  1.
         -5    1    1    2    0  502  0.34296374122E+02  0.25224193038E+02 -0.16816659464E+03  0.17353557199E+03  0.47000000000E+01 0.  1.
        -11    1    1    2    0    0  0.15920282365E+02  0.54289053715E+01  0.13143835379E+02  0.21346868918E+02  0.00000000000E+00 0.  1.
         11    1    1    2    0    0 -0.35371694070E+02 -0.61727859280E+00 -0.10831303139E+03  0.11394406761E+03  0.00000000000E+00 0. -1.
<mgrwt>
<rscale>  0 0.11818369E+03</rscale>
<asrwt>0</asrwt>
<pdfrwt beam="2">  1        2 0.46347636E-01 0.12659429E+03</pdfrwt>
<pdfrwt beam="1">  1       -2 0.63996803E-02 0.12659429E+03</pdfrwt>
<totfact> 0.13637132E+04</totfact>
</mgrwt>
</event>
<event>
 6    1  0.5258538E-006  0.1496707E+03  0.7546771E-02  0.1209210E+00
          3   -1    0    0  501    0  0.00000000000E+00  0.00000000000E+00  0.17820351946E+03  0.17820351946E+03  0.00000000000E+00 0. -1.
         -3   -1    0    0    0  501 -0.00000000000E+00 -0.00000000000E+00 -0.11623580519E+03  0.11623580519E+03  0.00000000000E+00 0.  1.
          5    1    1    2  502    0 -0.72313612675E+02  0.86800499713E+02  0.76026386618E+02  0.13625596057E+03  0.47000000000E+01 0.  1.
         -5    1    1    2    0  502  0.25349281924E+02 -0.19196922821E+02  0.12046508776E+01  0.32165962190E+02  0.47000000000E+01 0.  1.
        -11    1    1    2    0    0  0.58101485103E+02 -0.82550979356E+02  0.14842091976E+01  0.10095865313E+03  0.00000000000E+00 0. -1.
         11    1    1    2    0    0 -0.11137154353E+02  0.14947402464E+02 -0.16747532417E+02  0.25058748763E+02  0.00000000000E+00 0.  1.
<mgrwt>
<rscale>  0 0.14310601E+03</rscale>
<asrwt>0</asrwt>
<pdfrwt beam="1">  1        3 0.27415926E-01 0.14967067E+03</pdfrwt>
<pdfrwt beam="2">  1       -3 0.17882432E-01 0.14967067E+03</pdfrwt>
<totfact> 0.81326627E+02</totfact>
</mgrwt>
</event>
<event>
 6    1  0.5258538E-006  0.1258444E+03  0.7546771E-02  0.1248864E+00
         -3   -1    0    0    0  501 -0.00000000000E+00  0.00000000000E+00  0.33978599756E+03  0.33978599756E+03  0.00000000000E+00 0.  1.
          3   -1    0    0  501    0  0.00000000000E+00 -0.00000000000E+00 -0.40500110671E+02  0.40500110671E+02  0.00000000000E+00 0. -1.
          5    1    1    2  502    0 -0.60015404707E+02 -0.27576069907E+02  0.27980856987E+02  0.71883981466E+02  0.47000000000E+01 0.  1.
         -5    1    1    2    0  502  0.46325724376E+02  0.22663153833E+02  0.72807186224E+02  0.89345775762E+02  0.47000000000E+01 0.  1.
        -11    1    1    2    0    0  0.20287566163E+02  0.38529634021E+02  0.16677646690E+03  0.17236736336E+03  0.00000000000E+00 0. -1.
         11    1    1    2    0    0 -0.65978858324E+01 -0.33616717946E+02  0.31721376781E+02  0.46688987651E+02  0.00000000000E+00 0.  1.
<mgrwt>
<rscale>  0 0.11657043E+03</rscale>
<asrwt>0</asrwt>
<pdfrwt beam="2">  1        3 0.62307865E-02 0.12584437E+03</pdfrwt>
<pdfrwt beam="1">  1       -3 0.52274767E-01 0.12584437E+03</pdfrwt>
<totfact> 0.13290045E+03</totfact>
</mgrwt>
</event>
<event>
 6    1  0.5258538E-006  0.1294068E+03  0.7546771E-02  0.1242247E+00
         -2   -1    0    0    0  501 -0.00000000000E+00  0.00000000000E+00  0.29376460782E+02  0.29376460782E+02  0.00000000000E+00 0.  1.
          2   -1    0    0  501    0  0.00000000000E+00 -0.00000000000E+00 -0.44565141367E+03  0.44565141367E+03  0.00000000000E+00 0. -1.
          5    1    1    2  502    0  0.32239386881E+02  0.14765709721E+02 -0.85669395985E+01  0.36781608232E+02  0.47000000000E+01 0.  1.
         -5    1    1    2    0  502 -0.19946305631E+02  0.16442756861E+02 -0.26012974374E+03  0.26145323280E+03  0.47000000000E+01 0.  1.
        -11    1    1    2    0    0  0.13100603277E+02 -0.38755421074E+02 -0.14443369636E+03  0.15011562582E+03  0.00000000000E+00 0. -1.
         11    1    1    2    0    0 -0.25393684528E+02  0.75469544919E+01 -0.31445731827E+01  0.26677407605E+02  0.00000000000E+00 0.  1.
<mgrwt>
<rscale>  0 0.12051701E+03</rscale>
<asrwt>0</asrwt>
<pdfrwt beam="2">  1        2 0.68561760E-01 0.12940677E+03</pdfrwt>
<pdfrwt beam="1">  1       -2 0.45194553E-02 0.12940677E+03</pdfrwt>
<totfact> 0.15207248E+04</totfact>
</mgrwt>
</event>
<event>
 6    1  0.5258538E-006  0.4084725E+03  0.7546771E-02  0.1040885E+00
          2   -1    0    0  501    0  0.00000000000E+00  0.00000000000E+00  0.77711439831E+03  0.77711439831E+03  0.00000000000E+00 0. -1.
         -2   -1    0    0    0  501 -0.00000000000E+00 -0.00000000000E+00 -0.53676058539E+02  0.53676058539E+02  0.00000000000E+00 0.  1.
          5    1    1    2  502    0 -0.63331458990E+02 -0.85075285830E+02  0.60671314360E+03  0.61593149504E+03  0.47000000000E+01 0.  1.
         -5    1    1    2    0  502  0.25126649711E+02 -0.20628311662E+02  0.37492264050E+02  0.49846119521E+02  0.47000000000E+01 0.  1.
        -11    1    1    2    0    0 -0.26811841089E+02  0.58651859490E+02  0.35447575628E+02  0.73589714377E+02  0.00000000000E+00 0.  1.
         11    1    1    2    0    0  0.65016650369E+02  0.47051738003E+02  0.43785356484E+02  0.91423127909E+02  0.00000000000E+00 0. -1.
<mgrwt>
<rscale>  0 0.40847246E+03</rscale>
<asrwt>0</asrwt>
<pdfrwt beam="1">  1        2 0.11955605E+00 0.40847246E+03</pdfrwt>
<pdfrwt beam="2">  1       -2 0.82578557E-02 0.40847246E+03</pdfrwt>
<totfact> 0.33284760E+03</totfact>
</mgrwt>
</event>
<event>
 6    1  0.5258538E-006  0.1266916E+03  0.7546771E-02  0.1249966E+00
         -2   -1    0    0    0  501 -0.00000000000E+00  0.00000000000E+00  0.87354403118E+02  0.87354403118E+02  0.00000000000E+00 0.  1.
          2   -1    0    0  501    0  0.00000000000E+00 -0.00000000000E+00 -0.19820703143E+03  0.19820703143E+03  0.00000000000E+00 0. -1.
          5    1    1    2  502    0 -0.41955589264E+02  0.31231394752E+02 -0.85649396966E+02  0.10046681387E+03  0.47000000000E+01 0.  1.
         -5    1    1    2    0  502  0.62594975814E+02 -0.31253060602E+02 -0.57394433706E+02  0.90615097057E+02  0.47000000000E+01 0.  1.
        -11    1    1    2    0    0 -0.10825016696E+02 -0.36377323426E+02  0.40890412351E+02  0.55789931604E+02  0.00000000000E+00 0.  1.
         11    1    1    2    0    0 -0.98143698542E+01  0.36398989277E+02 -0.86992099916E+01  0.38689592017E+02  0.00000000000E+00 0. -1.
<mgrwt>
<rscale>  0 0.11593010E+03</rscale>
<asrwt>0</asrwt>
<pdfrwt beam="2">  1        2 0.30493390E-01 0.12669159E+03</pdfrwt>
<pdfrwt beam="1">  1       -2 0.13439139E-01 0.12669159E+03</pdfrwt>
<totfact> 0.66900533E+03</totfact>
</mgrwt>
</event>
<event>
 6    1  0.5258538E-006  0.1365051E+03  0.7546771E-02  0.1229425E+00
          1   -1    0    0  501    0  0.00000000000E+00  0.00000000000E+00  0.16292601457E+04  0.16292601457E+04  0.00000000000E+00 0. -1.
         -1   -1    0    0    0  501 -0.00000000000E+00 -0.00000000000E+00 -0.14031449448E+02  0.14031449448E+02  0.00000000000E+00 0.  1.
          5    1    1    2  502    0 -0.17875689564E+02 -0.36765500418E+02  0.10945285859E+04  0.10953018568E+04  0.47000000000E+01 0. -1.
         -5    1    1    2    0  502 -0.36664000289E+02  0.42522276773E+02  0.25704274807E+03  0.26314531589E+03  0.47000000000E+01 0. -1.
        -11    1    1    2    0    0  0.63026078425E+02  0.29509350288E+02  0.14628628490E+03  0.16199618967E+03  0.00000000000E+00 0.  1.
         11    1    1    2    0    0 -0.84863885718E+01 -0.35266126643E+02  0.11737107740E+03  0.12284823275E+03  0.00000000000E+00 0. -1.
<mgrwt>
<rscale>  0 0.12868201E+03</rscale>
<asrwt>0</asrwt>
<pdfrwt beam="1">  1        1 0.25065526E+00 0.13650513E+03</pdfrwt>
<pdfrwt beam="2">  1       -1 0.21586858E-02 0.13650513E+03</pdfrwt>
<totfact> 0.35698858E+03</totfact>
</mgrwt>
</event>
<event>
 6    1  0.5258538E-006  0.3489657E+03  0.7546771E-02  0.1063040E+00
         -2   -1    0    0    0  501 -0.00000000000E+00  0.00000000000E+00  0.10851926755E+03  0.10851926755E+03  0.00000000000E+00 0.  1.
          2   -1    0    0  501    0  0.00000000000E+00 -0.00000000000E+00 -0.28054245705E+03  0.28054245705E+03  0.00000000000E+00 0. -1.
          5    1    1    2  502    0 -0.24348377012E+02  0.18559148342E+02 -0.58236096691E+02  0.65960733835E+02  0.47000000000E+01 0. -1.
         -5    1    1    2    0  502  0.12729813420E+03  0.72992000256E+01 -0.10251521229E+03  0.16367514180E+03  0.47000000000E+01 0. -1.
        -11    1    1    2    0    0 -0.45093177140E+02  0.34943387014E+02  0.31563005561E+02  0.65197072332E+02  0.00000000000E+00 0.  1.
         11    1    1    2    0    0 -0.57856580046E+02 -0.60801735381E+02 -0.42834886085E+02  0.94228776634E+02  0.00000000000E+00 0. -1.
<mgrwt>
<rscale>  0 0.34896568E+03</rscale>
<asrwt>0</asrwt>
<pdfrwt beam="2">  1        2 0.43160378E-01 0.34896568E+03</pdfrwt>
<pdfrwt beam="1">  1       -2 0.16695272E-01 0.34896568E+03</pdfrwt>
<totfact> 0.33762606E+03</totfact>
</mgrwt>
</event>
<event>
 6    1  0.5258538E-006  0.2932016E+03  0.7546771E-02  0.1090332E+00
         -2   -1    0    0    0  501 -0.00000000000E+00  0.00000000000E+00  0.49315682511E+02  0.49315682511E+02  0.00000000000E+00 0.  1.
          2   -1    0    0  501    0  0.00000000000E+00 -0.00000000000E+00 -0.16964794181E+04  0.16964794181E+04  0.00000000000E+00 0. -1.
          5    1    1    2  502    0  0.12000099836E+03  0.13442937254E+03 -0.65282967741E+03  0.67725931039E+03  0.47000000000E+01 0.  1.
         -5    1    1    2    0  502  0.11013355297E+03 -0.26002089407E+01 -0.29773107712E+03  0.31749337766E+03  0.47000000000E+01 0.  1.
        -11    1    1    2    0    0 -0.61053024082E+02 -0.82065685179E+02 -0.30242395123E+03  0.31925302616E+03  0.00000000000E+00 0.  1.
         11    1    1    2    0    0 -0.16908152725E+03 -0.49763478421E+02 -0.39417902980E+03  0.43178938636E+03  0.00000000000E+00 0. -1.
<mgrwt>
<rscale>  0 0.29003252E+03</rscale>
<asrwt>0</asrwt>
<pdfrwt beam="2">  1        2 0.26099677E+00 0.29320157E+03</pdfrwt>
<pdfrwt beam="1">  1       -2 0.75870299E-02 0.29320157E+03</pdfrwt>
<totfact> 0.11012539E+03</totfact>
</mgrwt>
</event>
<event>
 6    1  0.5258538E-006  0.1250733E+03  0.7546771E-02  0.1243922E+00
          3   -1    0    0  501    0  0.00000000000E+00  0.00000000000E+00  0.10369326790E+04  0.10369326790E+04  0.00000000000E+00 0. -1.
         -3   -1    0    0    0  501 -0.00000000000E+00 -0.00000000000E+00 -0.14297725943E+02  0.14297725943E+02  0.00000000000E+00 0.  1.
          5    1    1    2  502    0  0.51710188726E+02  0.32389280528E+02  0.34797529455E+03  0.35331558800E+03  0.47000000000E+01 0.  1.
         -5    1    1    2    0  502 -0.55820840329E+02 -0.30620797079E+02  0.38086566028E+03  0.38617915610E+03  0.47000000000E+01 0.  1.
        -11    1    1    2    0    0  0.43551152858E+02  0.25634311187E+02  0.20093683560E+03  0.20719419086E+03  0.00000000000E+00 0.  1.
         11    1    1    2    0    0 -0.39440501254E+02 -0.27402794636E+02  0.92857162643E+02  0.10454146999E+03  0.00000000000E+00 0. -1.
<mgrwt>
<rscale>  0 0.11950149E+03</rscale>
<asrwt>0</asrwt>
<pdfrwt beam="1">  1        3 0.15952805E+00 0.12507334E+03</pdfrwt>
<pdfrwt beam="2">  1       -3 0.21996509E-02 0.12507334E+03</pdfrwt>
<totfact> 0.55679816E+02</totfact>
</mgrwt>
</event>
<event>
 6    1  0.5258538E-006  0.3651364E+03  0.7546771E-02  0.1056568E+00
          1   -1    0    0  501    0  0.00000000000E+00  0.00000000000E+00  0.27224410339E+03  0.27224410339E+03  0.00000000000E+00 0. -1.
         -1   -1    0    0    0  501 -0.00000000000E+00 -0.00000000000E+00 -0.12243112372E+03  0.12243112372E+03  0.00000000000E+00 0.  1.
          5    1    1    2  502    0  0.15958174449E+02  0.66923010260E+01  0.81046141033E+02  0.83006127491E+02  0.47000000000E+01 0.  1.
         -5    1    1    2    0  502  0.12830423116E+03  0.15878102139E+02  0.10211080755E+02  0.12977074412E+03  0.47000000000E+01 0.  1.
        -11    1    1    2    0    0 -0.11081341201E+03 -0.56337841964E+02  0.47662373372E+02  0.13313627061E+03  0.00000000000E+00 0. -1.
         11    1    1    2    0    0 -0.33448993598E+02  0.33767438799E+02  0.10893384506E+02  0.48762084879E+02  0.00000000000E+00 0.  1.
<mgrwt>
<rscale>  0 0.36513642E+03</rscale>
<asrwt>0</asrwt>
<pdfrwt beam="1">  1        1 0.41883708E-01 0.36513642E+03</pdfrwt>
<pdfrwt beam="2">  1       -1 0.18835558E-01 0.36513642E+03</pdfrwt>
<totfact> 0.22134865E+03</totfact>
</mgrwt>
</event>
<event>
 6    1  0.5258538E-006  0.1534987E+03  0.7546771E-02  0.1204138E+00
          1   -1    0    0  501    0  0.00000000000E+00  0.00000000000E+00  0.11449306329E+04  0.11449306329E+04  0.00000000000E+00 0. -1.
         -1   -1    0    0    0  501 -0.00000000000E+00 -0.00000000000E+00 -0.50619617932E+02  0.50619617932E+02  0.00000000000E+00 0.  1.
          5    1    1    2  502    0  0.46023129584E+02 -0.93778639643E+02  0.61788778564E+03  0.62667373278E+03  0.47000000000E+01 0.  1.
         -5    1    1    2    0  502  0.23839210690E+02  0.38506463214E+02  0.42859982139E+03  0.43101154575E+03  0.47000000000E+01 0.  1.
        -11    1    1    2    0    0  0.14021167258E+02  0.12551581864E+02 -0.15527628935E+02  0.24397594121E+02  0.00000000000E+00 0.  1.
         11    1    1    2    0    0 -0.83883507531E+02  0.42720594564E+02  0.63351036845E+02  0.11346737815E+03  0.00000000000E+00 0. -1.
<mgrwt>
<rscale>  0 0.14705571E+03</rscale>
<asrwt>0</asrwt>
<pdfrwt beam="1">  1        1 0.17614315E+00 0.15349865E+03</pdfrwt>
<pdfrwt beam="2">  1       -1 0.77876344E-02 0.15349865E+03</pdfrwt>
<totfact> 0.11292142E+03</totfact>
</mgrwt>
</event>
<event>
 6    1  0.5258538E-006  0.1451461E+03  0.7546771E-02  0.1213646E+00
         -2   -1    0    0    0  501 -0.00000000000E+00  0.00000000000E+00  0.32640391392E+02  0.32640391392E+02  0.00000000000E+00 0.  1.
          2   -1    0    0  501    0  0.00000000000E+00 -0.00000000000E+00 -0.56664836589E+03  0.56664836589E+03  0.00000000000E+00 0. -1.
          5    1    1    2  502    0  0.18918867076E+02  0.30355709102E+02 -0.73743366256E+02  0.82094863867E+02  0.47000000000E+01 0. -1.
         -5    1    1    2    0  502 -0.71947904310E+02 -0.81641737440E+02 -0.24982600622E+03  0.27253806635E+03  0.47000000000E+01 0. -1.
        -11    1    1    2    0    0 -0.12944765427E+02  0.11409025380E+02  0.31868030944E+01  0.17546752578E+02  0.00000000000E+00 0.  1.
         11    1    1    2    0    0  0.65973802661E+02  0.39877002958E+02 -0.21362540512E+03  0.22710907449E+03  0.00000000000E+00 0. -1.
<mgrwt>
<rscale>  0 0.13976461E+03</rscale>
<asrwt>0</asrwt>
<pdfrwt beam="2">  1        2 0.87176675E-01 0.14514605E+03</pdfrwt>
<pdfrwt beam="1">  1       -2 0.50215985E-02 0.14514605E+03</pdfrwt>
<totfact> 0.10054883E+04</totfact>
</mgrwt>
</event>
<event>
 6    1  0.5258538E-006  0.1536973E+03  0.7546771E-02  0.1204728E+00
          2   -1    0    0  501    0  0.00000000000E+00  0.00000000000E+00  0.54081628886E+03  0.54081628886E+03  0.00000000000E+00 0. -1.
         -2   -1    0    0    0  501 -0.00000000000E+00 -0.00000000000E+00 -0.37184480316E+02  0.37184480316E+02  0.00000000000E+00 0.  1.
          5    1    1    2  502    0  0.53886044701E+02 -0.60165558265E+02  0.17170237066E+03  0.18980883622E+03  0.47000000000E+01 0.  1.
         -5    1    1    2    0  502  0.35469853861E+02  0.63295511079E+02  0.14337780399E+03  0.16075981131E+03  0.47000000000E+01 0.  1.
        -11    1    1    2    0    0 -0.63183970860E+02 -0.38729043423E+02  0.74330179219E+02  0.10496251007E+03  0.00000000000E+00 0.  1.
         11    1    1    2    0    0 -0.26171927703E+02  0.35599090609E+02  0.11422145467E+03  0.12246961158E+03  0.00000000000E+00 0. -1.
<mgrwt>
<rscale>  0 0.14658877E+03</rscale>
<asrwt>0</asrwt>
<pdfrwt beam="1">  1        2 0.83202500E-01 0.15369730E+03</pdfrwt>
<pdfrwt beam="2">  1       -2 0.57206897E-02 0.15369730E+03</pdfrwt>
<totfact> 0.87336248E+03</totfact>
</mgrwt>
</event>
<event>
 6    1  0.5258538E-006  0.1297353E+03  0.7546771E-02  0.1239940E+00
          1   -1    0    0  501    0  0.00000000000E+00  0.00000000000E+00  0.98642941108E+03  0.98642941108E+03  0.00000000000E+00 0. -1.
         -1   -1    0    0    0  501 -0.00000000000E+00 -0.00000000000E+00 -0.14464880048E+02  0.14464880048E+02  0.00000000000E+00 0.  1.
          5    1    1    2  502    0  0.46901194601E+02 -0.84726781893E+01  0.15550710915E+03  0.16271465615E+03  0.47000000000E+01 0. -1.
         -5    1    1    2    0  502 -0.71800146332E+02 -0.15741637258E+02  0.51350152391E+03  0.51875713510E+03  0.47000000000E+01 0. -1.
        -11    1    1    2    0    0 -0.33325042446E+02  0.11719396076E+02  0.63413087215E+02  0.72588720395E+02  0.00000000000E+00 0.  1.
         11    1    1    2    0    0  0.58223994177E+02  0.12494919371E+02  0.23954281076E+03  0.24683377948E+03  0.00000000000E+00 0. -1.
<mgrwt>
<rscale>  0 0.12193432E+03</rscale>
<asrwt>0</asrwt>
<pdfrwt beam="1">  1        1 0.15175832E+00 0.12973531E+03</pdfrwt>
<pdfrwt beam="2">  1       -1 0.22253669E-02 0.12973531E+03</pdfrwt>
<totfact> 0.92426712E+03</totfact>
</mgrwt>
</event>
<event>
 6    1  0.5258538E-006  0.1338987E+03  0.7546771E-02  0.1235135E+00
         -2   -1    0    0    0  501 -0.00000000000E+00  0.00000000000E+00  0.21944983243E+02  0.21944983243E+02  0.00000000000E+00 0.  1.
          2   -1    0    0  501    0  0.00000000000E+00 -0.00000000000E+00 -0.63656492393E+03  0.63656492393E+03  0.00000000000E+00 0. -1.
          5    1    1    2  502    0 -0.51938028883E+02  0.45153986355E+02 -0.16176524694E+03  0.17585939396E+03  0.47000000000E+01 0. -1.
         -5    1    1    2    0  502  0.64712478004E+02  0.10971420290E+01 -0.15860843743E+03  0.17136987761E+03  0.47000000000E+01 0. -1.
        -11    1    1    2    0    0  0.19720198247E+02  0.64140788179E+01 -0.15880609621E+02  0.26119348919E+02  0.00000000000E+00 0.  1.
         11    1    1    2    0    0 -0.32494647369E+02 -0.52665207202E+02 -0.27836564670E+03  0.28516128668E+03  0.00000000000E+00 0. -1.
<mgrwt>
<rscale>  0 0.12495821E+03</rscale>
<asrwt>0</asrwt>
<pdfrwt beam="2">  1        2 0.97933053E-01 0.13389873E+03</pdfrwt>
<pdfrwt beam="1">  1       -2 0.33761517E-02 0.13389873E+03</pdfrwt>
<totfact> 0.15815866E+04</totfact>
</mgrwt>
</event>
<event>
 6    1  0.5258538E-006  0.2782379E+03  0.7546771E-02  0.1096655E+00
          1   -1    0    0  501    0  0.00000000000E+00  0.00000000000E+00  0.39889756203E+03  0.39889756203E+03  0.00000000000E+00 0. -1.
         -1   -1    0    0    0  501 -0.00000000000E+00 -0.00000000000E+00 -0.48518919095E+02  0.48518919095E+02  0.00000000000E+00 0.  1.
          5    1    1    2  502    0 -0.17572791433E+02 -0.37909035388E+01  0.22385286118E+03  0.22462272238E+03  0.47000000000E+01 0.  1.
         -5    1    1    2    0  502 -0.54097620811E+02 -0.29743025648E+02  0.29095746584E+02  0.68409448334E+02  0.47000000000E+01 0.  1.
        -11    1    1    2    0    0  0.25442605517E+02  0.33926144057E+02 -0.43186599955E+01  0.42625816710E+02  0.00000000000E+00 0.  1.
         11    1    1    2    0    0  0.46227806727E+02 -0.39221487021E+00  0.10174869516E+03  0.11175849370E+03  0.00000000000E+00 0. -1.
<mgrwt>
<rscale>  0 0.27823787E+03</rscale>
<asrwt>0</asrwt>
<pdfrwt beam="1">  1        1 0.61368853E-01 0.27823787E+03</pdfrwt>
<pdfrwt beam="2">  1       -1 0.74644494E-02 0.27823787E+03</pdfrwt>
<totfact> 0.57930635E+03</totfact>
</mgrwt>
</event>
<event>
 6    1  0.5258538E-006  0.1297908E+03  0.7546771E-02  0.1241537E+00
         -2   -1    0    0    0  501 -0.00000000000E+00  0.00000000000E+00  0.15362532037E+02  0.15362532037E+02  0.00000000000E+00 0.  1.
          2   -1    0    0  501    0  0.00000000000E+00 -0.00000000000E+00 -0.87461790089E+03  0.87461790089E+03  0.00000000000E+00 0. -1.
          5    1    1    2  502    0 -0.34818988582E+02  0.55442728303E+02 -0.19339424676E+03  0.20422948555E+03  0.47000000000E+01 0.  1.
         -5    1    1    2    0  502 -0.85297372060E-02 -0.53018522692E+02 -0.37741409631E+03  0.38114886057E+03  0.47000000000E+01 0.  1.
        -11    1    1    2    0    0  0.60511918011E+02  0.77081404320E+01 -0.12794931695E+03  0.14174672962E+03  0.00000000000E+00 0.  1.
         11    1    1    2    0    0 -0.25684399691E+02 -0.10132346043E+02 -0.16049770884E+03  0.16285535720E+03  0.00000000000E+00 0. -1.
<mgrwt>
<rscale>  0 0.12095053E+03</rscale>
<asrwt>0</asrwt>
<pdfrwt beam="2">  1        2 0.13455663E+00 0.12979077E+03</pdfrwt>
<pdfrwt beam="1">  1       -2 0.23634660E-02 0.12979077E+03</pdfrwt>
<totfact> 0.18093749E+04</totfact>
</mgrwt>
</event>
<event>
 6    1  0.5258538E-006  0.1127352E+03  0.7546771E-02  0.1262564E+00
          1   -1    0    0  501    0  0.00000000000E+00  0.00000000000E+00  0.39501038700E+03  0.39501038700E+03  0.00000000000E+00 0. -1.
         -1   -1    0    0    0  501 -0.00000000000E+00 -0.00000000000E+00 -0.28180405541E+02  0.28180405541E+02  0.00000000000E+00 0.  1.
          5    1    1    2  502    0  0.17766553212E+02  0.15456808416E+02  0.18932240349E+03  0.19083926693E+03  0.47000000000E+01 0. -1.
         -5    1    1    2    0  502 -0.23237708038E+02 -0.26980629762E+02  0.85909979699E+01  0.36930213963E+02  0.47000000000E+01 0.  1.
        -11    1    1    2    0    0  0.77705934262E+01 -0.39439223179E+02  0.39692287803E+02  0.56491699905E+02  0.00000000000E+00 0.  1.
         11    1    1    2    0    0 -0.22994386004E+01  0.50963044525E+02  0.12922429220E+03  0.13892961175E+03  0.00000000000E+00 0. -1.
<mgrwt>
<rscale>  0 0.10893014E+03</rscale>
<asrwt>0</asrwt>
<pdfrwt beam="1">  1        1 0.60770825E-01 0.11273519E+03</pdfrwt>
<pdfrwt beam="2">  1       -1 0.43354473E-02 0.11273519E+03</pdfrwt>
<totfact> 0.12498414E+04</totfact>
</mgrwt>
</event>
<event>
 6    1  0.5258538E-006  0.1757104E+03  0.7546771E-02  0.1177891E+00
         -2   -1    0    0    0  501 -0.00000000000E+00  0.00000000000E+00  0.79629690221E+02  0.79629690221E+02  0.00000000000E+00 0. -1.
          2   -1    0    0  501    0  0.00000000000E+00 -0.00000000000E+00 -0.59226199216E+03  0.59226199216E+03  0.00000000000E+00 0.  1.
          5    1    1    2  502    0  0.18314852954E+02  0.34582003149E+02 -0.60664529118E+02  0.72343789461E+02  0.47000000000E+01 0. -1.
         -5    1    1    2    0  502 -0.12648202202E+03  0.24898822511E+02 -0.42403930875E+03  0.44322576484E+03  0.47000000000E+01 0. -1.
        -11    1    1    2    0    0  0.12107893176E+03 -0.36064155301E+02 -0.28762764414E+02  0.12956862132E+03  0.00000000000E+00 0.  1.
         11    1    1    2    0    0 -0.12911762693E+02 -0.23416670359E+02  0.83430034414E+00  0.26753506753E+02  0.00000000000E+00 0. -1.
<mgrwt>
<rscale>  0 0.16995824E+03</rscale>
<asrwt>0</asrwt>
<pdfrwt beam="2">  1        2 0.91117233E-01 0.17571043E+03</pdfrwt>
<pdfrwt beam="1">  1       -2 0.12250721E-01 0.17571043E+03</pdfrwt>
<totfact> 0.24185286E+03</totfact>
</mgrwt>
</event>
<event>
 6    1  0.5258538E-006  0.1441019E+03  0.7546771E-02  0.1219223E+00
          1   -1    0    0  501    0  0.00000000000E+00  0.00000000000E+00  0.27480852189E+03  0.27480852189E+03  0.00000000000E+00 0. -1.
         -1   -1    0    0    0  501 -0.00000000000E+00 -0.00000000000E+00 -0.80027279650E+02  0.80027279650E+02  0.00000000000E+00 0.  1.
          5    1    1    2  502    0  0.79417245659E+01 -0.45697087501E+02  0.87306515055E+02  0.98973796361E+02  0.47000000000E+01 0. -1.
         -5    1    1    2    0  502  0.57408666794E+02  0.75203176398E+02  0.10646735644E+03  0.14250845853E+03  0.47000000000E+01 0. -1.
        -11    1    1    2    0    0 -0.75667780228E+02 -0.16359993252E+02  0.27394165743E+02  0.82120050296E+02  0.00000000000E+00 0. -1.
         11    1    1    2    0    0  0.10317388868E+02 -0.13146095644E+02 -0.26386795005E+02  0.31233496352E+02  0.00000000000E+00 0.  1.
<mgrwt>
<rscale>  0 0.13570843E+03</rscale>
<asrwt>0</asrwt>
<pdfrwt beam="1">  1        1 0.42278233E-01 0.14410193E+03</pdfrwt>
<pdfrwt beam="2">  1       -1 0.12311889E-01 0.14410193E+03</pdfrwt>
<totfact> 0.41585004E+03</totfact>
</mgrwt>
</event>
<event>
 6    1  0.5258538E-006  0.2698942E+03  0.7546771E-02  0.1101340E+00
         -2   -1    0    0    0  501 -0.00000000000E+00  0.00000000000E+00  0.24266148692E+02  0.24266148692E+02  0.00000000000E+00 0.  1.
          2   -1    0    0  501    0  0.00000000000E+00 -0.00000000000E+00 -0.75045754775E+03  0.75045754775E+03  0.00000000000E+00 0. -1.
          5    1    1    2  502    0  0.62316058498E+02 -0.64544717293E+01 -0.10886424950E+03  0.12569194951E+03  0.47000000000E+01 0. -1.
         -5    1    1    2    0  502 -0.44526682569E+01 -0.25778303660E+01 -0.44701413366E+03  0.44706844795E+03  0.47000000000E+01 0. -1.
        -11    1    1    2    0    0 -0.37597310706E+02  0.47134890746E+02 -0.12816821908E+03  0.14164161846E+03  0.00000000000E+00 0.  1.
         11    1    1    2    0    0 -0.20266079536E+02 -0.38102588651E+02 -0.42144796811E+02  0.60321680513E+02  0.00000000000E+00 0. -1.
<mgrwt>
<rscale>  0 0.26989416E+03</rscale>
<asrwt>0</asrwt>
<pdfrwt beam="2">  1        2 0.11545501E+00 0.26989416E+03</pdfrwt>
<pdfrwt beam="1">  1       -2 0.37332537E-02 0.26989416E+03</pdfrwt>
<totfact> 0.11680618E+04</totfact>
</mgrwt>
</event>
<event>
 6    1  0.5258538E-006  0.1255867E+03  0.7546771E-02  0.1249093E+00
          1   -1    0    0  501    0  0.00000000000E+00  0.00000000000E+00  0.22426179813E+02  0.22426179813E+02  0.00000000000E+00 0. -1.
         -1   -1    0    0    0  501 -0.00000000000E+00 -0.00000000000E+00 -0.55020218343E+03  0.55020218343E+03  0.00000000000E+00 0.  1.
          5    1    1    2  502    0  0.23067669228E+02  0.60249298621E+02 -0.96596114079E+02  0.11625400898E+03  0.47000000000E+01 0.  1.
         -5    1    1    2    0  502 -0.27760131957E+02 -0.49090269139E+02 -0.15358209034E+03  0.16367659553E+03  0.47000000000E+01 0.  1.
        -11    1    1    2    0    0 -0.18211137921E+02  0.35649591565E+02 -0.13806145016E+03  0.14374805370E+03  0.00000000000E+00 0.  1.
         11    1    1    2    0    0  0.22903600650E+02 -0.46808621047E+02 -0.13953634904E+03  0.14894970504E+03  0.00000000000E+00 0. -1.
<mgrwt>
<rscale>  0 0.11643729E+03</rscale>
<asrwt>0</asrwt>
<pdfrwt beam="1">  1        1 0.34501816E-02 0.12558666E+03</pdfrwt>
<pdfrwt beam="2">  1       -1 0.84646488E-01 0.12558666E+03</pdfrwt>
<totfact> 0.38685338E+03</totfact>
</mgrwt>
</event>
<event>
 6    1  0.5258538E-006  0.1290420E+03  0.7546771E-02  0.1243974E+00
         -1   -1    0    0    0  501 -0.00000000000E+00  0.00000000000E+00  0.22014985417E+03  0.22014985417E+03  0.00000000000E+00 0.  1.
          1   -1    0    0  501    0  0.00000000000E+00 -0.00000000000E+00 -0.89237190520E+02  0.89237190520E+02  0.00000000000E+00 0. -1.
          5    1    1    2  502    0  0.53644142897E+02 -0.16880754921E+02 -0.37604041736E+02  0.67814511049E+02  0.47000000000E+01 0. -1.
         -5    1    1    2    0  502 -0.39485655260E+02  0.45609074721E+02  0.17023192548E+02  0.62858442175E+02  0.47000000000E+01 0. -1.
        -11    1    1    2    0    0 -0.37969423904E+02 -0.13871165683E+02  0.21619223477E+02  0.45841871828E+02  0.00000000000E+00 0. -1.
         11    1    1    2    0    0  0.23810936266E+02 -0.14857154117E+02  0.12987428937E+03  0.13287221964E+03  0.00000000000E+00 0.  1.
<mgrwt>
<rscale>  0 0.11947003E+03</rscale>
<asrwt>0</asrwt>
<pdfrwt beam="2">  1        1 0.13728799E-01 0.12904204E+03</pdfrwt>
<pdfrwt beam="1">  1       -1 0.33869208E-01 0.12904204E+03</pdfrwt>
<totfact> 0.33326772E+03</totfact>
</mgrwt>
</event>
<event>
 6    1  0.5258538E-006  0.2364456E+03  0.7546771E-02  0.1125051E+00
          2   -1    0    0  501    0  0.00000000000E+00  0.00000000000E+00  0.38604187463E+03  0.38604187463E+03  0.00000000000E+00 0. -1.
         -2   -1    0    0    0  501 -0.00000000000E+00 -0.00000000000E+00 -0.13628858152E+03  0.13628858152E+03  0.00000000000E+00 0.  1.
          5    1    1    2  502    0  0.12438309515E+03 -0.15047106852E+02  0.87738096521E+02  0.15302821101E+03  0.47000000000E+01 0.  1.
         -5    1    1    2    0  502  0.65179012826E+02  0.81001376715E+02  0.16500513120E+02  0.10537496703E+03  0.47000000000E+01 0.  1.
        -11    1    1    2    0    0 -0.14140466878E+03 -0.84792032562E+02  0.12992464400E+03  0.20991756062E+03  0.00000000000E+00 0. -1.
         11    1    1    2    0    0 -0.48157439192E+02  0.18837762699E+02  0.15590039472E+02  0.54009717494E+02  0.00000000000E+00 0.  1.
<mgrwt>
<rscale>  0 0.23227218E+03</rscale>
<asrwt>0</asrwt>
<pdfrwt beam="1">  1        2 0.59391057E-01 0.23644559E+03</pdfrwt>
<pdfrwt beam="2">  1       -2 0.20967474E-01 0.23644559E+03</pdfrwt>
<totfact> 0.16021367E+03</totfact>
</mgrwt>
</event>
<event>
 6    1  0.5258538E-006  0.3013716E+03  0.7546771E-02  0.1086115E+00
          1   -1    0    0  501    0  0.00000000000E+00  0.00000000000E+00  0.19727749184E+03  0.19727749184E+03  0.00000000000E+00 0. -1.
         -1   -1    0    0    0  501 -0.00000000000E+00 -0.00000000000E+00 -0.80476479693E+03  0.80476479693E+03  0.00000000000E+00 0.  1.
          5    1    1    2  502    0  0.26007803580E+03 -0.56580451841E+02 -0.44372624365E+01  0.26623995105E+03  0.47000000000E+01 0.  1.
         -5    1    1    2    0  502  0.99924536030E+01  0.90262525788E+01  0.33645686528E+02  0.36543735257E+02  0.47000000000E+01 0.  1.
        -11    1    1    2    0    0 -0.19392926501E+03 -0.18481860980E+01 -0.48700691118E+03  0.52420197173E+03  0.00000000000E+00 0.  1.
         11    1    1    2    0    0 -0.76141224393E+02  0.49402385360E+02 -0.14968881800E+03  0.17505663074E+03  0.00000000000E+00 0. -1.
<mgrwt>
<rscale>  0 0.29825673E+03</rscale>
<asrwt>0</asrwt>
<pdfrwt beam="1">  1        1 0.30350384E-01 0.30137158E+03</pdfrwt>
<pdfrwt beam="2">  1       -1 0.12380997E+00 0.30137158E+03</pdfrwt>
<totfact> 0.91854286E+01</totfact>
</mgrwt>
</event>
<event>
 6    1  0.5258538E-006  0.2541932E+03  0.7546771E-02  0.1110683E+00
          1   -1    0    0  501    0  0.00000000000E+00  0.00000000000E+00  0.43897747686E+02  0.43897747686E+02  0.00000000000E+00 0. -1.
         -1   -1    0    0    0  501 -0.00000000000E+00 -0.00000000000E+00 -0.36798109098E+03  0.36798109098E+03  0.00000000000E+00 0.  1.
          5    1    1    2  502    0  0.60235779560E+02  0.72032341293E+02 -0.10496688908E+03  0.14091538289E+03  0.47000000000E+01 0. -1.
         -5    1    1    2    0  502 -0.37046745684E+02 -0.20300754469E+02 -0.34269762243E+02  0.54599346168E+02  0.47000000000E+01 0. -1.
        -11    1    1    2    0    0  0.35557373182E+02 -0.33536964964E+02 -0.61694390659E+02  0.78709927235E+02  0.00000000000E+00 0.  1.
         11    1    1    2    0    0 -0.58746407057E+02 -0.18194621860E+02 -0.12315230132E+03  0.13765418238E+03  0.00000000000E+00 0. -1.
<mgrwt>
<rscale>  0 0.25419316E+03</rscale>
<asrwt>0</asrwt>
<pdfrwt beam="1">  1        1 0.67534996E-02 0.25419316E+03</pdfrwt>
<pdfrwt beam="2">  1       -1 0.56612476E-01 0.25419316E+03</pdfrwt>
<totfact> 0.35412085E+03</totfact>
</mgrwt>
</event>
<event>
 6    1  0.5258538E-006  0.1714153E+03  0.7546771E-02  0.1203214E+00
          2   -1    0    0  501    0  0.00000000000E+00  0.00000000000E+00  0.21967972102E+04  0.21967972102E+04  0.00000000000E+00 0. -1.
         -2   -1    0    0    0  501 -0.00000000000E+00 -0.00000000000E+00 -0.19865075561E+02  0.19865075561E+02  0.00000000000E+00 0.  1.
          5    1    1    2  502    0 -0.19940537067E+02  0.72887002245E+02  0.18029194753E+04  0.18045084828E+04  0.47000000000E+01 0. -1.
         -5    1    1    2    0  502  0.21924834157E+02 -0.48276369466E+02  0.25268560414E+03  0.25823131248E+03  0.47000000000E+01 0.  1.
        -11    1    1    2    0    0 -0.34005999601E+02 -0.45139525106E+02  0.67989962611E+02  0.88411649411E+02  0.00000000000E+00 0.  1.
         11    1    1    2    0    0  0.32021702511E+02  0.20528892327E+02  0.53337092588E+02  0.65510841069E+02  0.00000000000E+00 0. -1.
<mgrwt>
<rscale>  0 0.14779090E+03</rscale>
<asrwt>0</asrwt>
<pdfrwt beam="1">  1        2 0.33796861E+00 0.17141534E+03</pdfrwt>
<pdfrwt beam="2">  1       -2 0.30561672E-02 0.17141534E+03</pdfrwt>
<totfact> 0.24223372E+03</totfact>
</mgrwt>
</event>
<event>
 6    1  0.5258538E-006  0.1280645E+03  0.7546771E-02  0.1244782E+00
          2   -1    0    0  501    0  0.00000000000E+00  0.00000000000E+00  0.19090760192E+03  0.19090760192E+03  0.00000000000E+00 0. -1.
         -2   -1    0    0    0  501 -0.00000000000E+00 -0.00000000000E+00 -0.82828101695E+02  0.82828101695E+02  0.00000000000E+00 0.  1.
          5    1    1    2  502    0  0.58760454981E+02 -0.37186019913E+02  0.30569304118E+02  0.76106264531E+02  0.47000000000E+01 0.  1.
         -5    1    1    2    0  502 -0.34179992320E+02  0.24123697524E+02  0.91937996857E+02  0.10111829668E+03  0.47000000000E+01 0.  1.
        -11    1    1    2    0    0  0.84966633166E+01  0.47015171936E+02 -0.37623332598E+01  0.47924678729E+02  0.00000000000E+00 0.  1.
         11    1    1    2    0    0 -0.33077125978E+02 -0.33952849547E+02 -0.10665467494E+02  0.48586463672E+02  0.00000000000E+00 0. -1.
<mgrwt>
<rscale>  0 0.11898408E+03</rscale>
<asrwt>0</asrwt>
<pdfrwt beam="1">  1        2 0.29370400E-01 0.12806446E+03</pdfrwt>
<pdfrwt beam="2">  1       -2 0.12742785E-01 0.12806446E+03</pdfrwt>
<totfact> 0.75953064E+03</totfact>
</mgrwt>
</event>
<event>
 6    1  0.5258538E-006  0.3088529E+03  0.7546771E-02  0.1082345E+00
         -2   -1    0    0    0  501 -0.00000000000E+00  0.00000000000E+00  0.79628719895E+02  0.79628719895E+02  0.00000000000E+00 0.  1.
          2   -1    0    0  501    0  0.00000000000E+00 -0.00000000000E+00 -0.11930051331E+04  0.11930051331E+04  0.00000000000E+00 0. -1.
          5    1    1    2  502    0 -0.15304634841E+03  0.10116696116E+03 -0.32162436647E+03  0.37030023210E+03  0.47000000000E+01 0.  1.
         -5    1    1    2    0  502 -0.11444428918E+03 -0.10513783614E+02 -0.36248678998E+03  0.38029830118E+03  0.47000000000E+01 0.  1.
        -11    1    1    2    0    0  0.44788266482E+02 -0.55109130507E+02 -0.89798511495E+02  0.11448483632E+03  0.00000000000E+00 0.  1.
         11    1    1    2    0    0  0.22270237110E+03 -0.35544047040E+02 -0.33946674526E+03  0.40755048339E+03  0.00000000000E+00 0. -1.
<mgrwt>
<rscale>  0 0.30586474E+03</rscale>
<asrwt>0</asrwt>
<pdfrwt beam="2">  1        2 0.18353925E+00 0.30885285E+03</pdfrwt>
<pdfrwt beam="1">  1       -2 0.12250572E-01 0.30885285E+03</pdfrwt>
<totfact> 0.96391075E+02</totfact>
</mgrwt>
</event>
<event>
 6    1  0.5258538E-006  0.1299776E+03  0.7546771E-02  0.1244903E+00
          1   -1    0    0  501    0  0.00000000000E+00  0.00000000000E+00  0.56097148276E+03  0.56097148276E+03  0.00000000000E+00 0. -1.
         -1   -1    0    0    0  501 -0.00000000000E+00 -0.00000000000E+00 -0.27951633181E+02  0.27951633181E+02  0.00000000000E+00 0.  1.
          5    1    1    2  502    0  0.49470227292E+02  0.29371389137E+02  0.14361180039E+03  0.15477861965E+03  0.47000000000E+01 0. -1.
         -5    1    1    2    0  502 -0.66602498896E+02  0.11156848400E+02  0.29622409233E+03  0.30386044659E+03  0.47000000000E+01 0.  1.
        -11    1    1    2    0    0 -0.13987691079E+02 -0.38452966422E+02  0.10985055219E+02  0.42366939547E+02  0.00000000000E+00 0.  1.
         11    1    1    2    0    0  0.31119962684E+02 -0.20752711156E+01  0.82198901628E+02  0.87917110147E+02  0.00000000000E+00 0. -1.
<mgrwt>
<rscale>  0 0.11891187E+03</rscale>
<asrwt>0</asrwt>
<pdfrwt beam="1">  1        1 0.86303297E-01 0.12997762E+03</pdfrwt>
<pdfrwt beam="2">  1       -1 0.43002517E-02 0.12997762E+03</pdfrwt>
<totfact> 0.81382975E+03</totfact>
</mgrwt>
</event>
<event>
 6    1  0.5258538E-006  0.3205951E+03  0.7546771E-02  0.1075376E+00
         -4   -1    0    0    0  501 -0.00000000000E+00  0.00000000000E+00  0.30506683128E+02  0.30506683128E+02  0.00000000000E+00 0.  1.
          4   -1    0    0  501    0  0.00000000000E+00 -0.00000000000E+00 -0.84228444652E+03  0.84228444652E+03  0.00000000000E+00 0. -1.
          5    1    1    2  502    0  0.13242239453E+03 -0.35226905098E+02 -0.45288006009E+03  0.47317973778E+03  0.47000000000E+01 0. -1.
         -5    1    1    2    0  502 -0.28562742149E+02 -0.88322645178E+01 -0.73878463412E+02  0.79837062143E+02  0.47000000000E+01 0. -1.
        -11    1    1    2    0    0 -0.47508959487E+02  0.68659697296E+02 -0.16474309367E+03  0.18469310267E+03  0.00000000000E+00 0. -1.
         11    1    1    2    0    0 -0.56350692896E+02 -0.24600527681E+02 -0.12027614622E+03  0.13508122705E+03  0.00000000000E+00 0.  1.
<mgrwt>
<rscale>  0 0.32059510E+03</rscale>
<asrwt>0</asrwt>
<pdfrwt beam="2">  1        4 0.12958221E+00 0.32059510E+03</pdfrwt>
<pdfrwt beam="1">  1       -4 0.46933363E-02 0.32059510E+03</pdfrwt>
<totfact> 0.23016249E+02</totfact>
</mgrwt>
</event>
<event>
 6    1  0.5258538E-006  0.2604451E+03  0.7546771E-02  0.1106876E+00
          2   -1    0    0  501    0  0.00000000000E+00  0.00000000000E+00  0.61347639419E+02  0.61347639419E+02  0.00000000000E+00 0. -1.
         -2   -1    0    0    0  501 -0.00000000000E+00 -0.00000000000E+00 -0.27642326981E+03  0.27642326981E+03  0.00000000000E+00 0.  1.
          5    1    1    2  502    0 -0.10371370197E+03 -0.71237868450E+00 -0.51772998936E+02  0.11601539932E+03  0.47000000000E+01 0.  1.
         -5    1    1    2    0  502  0.34841588614E+02  0.97626744298E+01 -0.38933953489E+02  0.53359055871E+02  0.47000000000E+01 0.  1.
        -11    1    1    2    0    0  0.27143193386E+02  0.37158243793E+02 -0.78757936288E+02  0.91215681532E+02  0.00000000000E+00 0.  1.
         11    1    1    2    0    0  0.41728919972E+02 -0.46208539539E+02 -0.45610741675E+02  0.77180772506E+02  0.00000000000E+00 0. -1.
<mgrwt>
<rscale>  0 0.26044512E+03</rscale>
<asrwt>0</asrwt>
<pdfrwt beam="1">  1        2 0.94380984E-02 0.26044512E+03</pdfrwt>
<pdfrwt beam="2">  1       -2 0.42526657E-01 0.26044512E+03</pdfrwt>
<totfact> 0.36198614E+03</totfact>
</mgrwt>
</event>
<event>
 6    1  0.5258538E-006  0.1292101E+03  0.7546771E-02  0.1243174E+00
          1   -1    0    0  501    0  0.00000000000E+00  0.00000000000E+00  0.35378858696E+03  0.35378858696E+03  0.00000000000E+00 0. -1.
         -1   -1    0    0    0  501 -0.00000000000E+00 -0.00000000000E+00 -0.36962200768E+02  0.36962200768E+02  0.00000000000E+00 0.  1.
          5    1    1    2  502    0  0.14181406728E+02  0.34796298247E+02  0.17526187474E+02  0.41727112479E+02  0.47000000000E+01 0.  1.
         -5    1    1    2    0  502 -0.38289423743E+02 -0.56993778454E+02  0.19734896250E+03  0.20900496107E+03  0.47000000000E+01 0.  1.
        -11    1    1    2    0    0  0.67077299972E+00 -0.13867526570E+02 -0.11917669254E+02  0.18297242143E+02  0.00000000000E+00 0.  1.
         11    1    1    2    0    0  0.23437244015E+02  0.36065006777E+02  0.11386890547E+03  0.12172147204E+03  0.00000000000E+00 0. -1.
<mgrwt>
<rscale>  0 0.11995317E+03</rscale>
<asrwt>0</asrwt>
<pdfrwt beam="1">  1        1 0.54429011E-01 0.12921007E+03</pdfrwt>
<pdfrwt beam="2">  1       -1 0.56864927E-02 0.12921007E+03</pdfrwt>
<totfact> 0.97179760E+03</totfact>
</mgrwt>
</event>
<event>
 6    1  0.5258538E-006  0.1335696E+03  0.7546771E-02  0.1235340E+00
          2   -1    0    0  501    0  0.00000000000E+00  0.00000000000E+00  0.52014234303E+03  0.52014234303E+03  0.00000000000E+00 0. -1.
         -2   -1    0    0    0  501 -0.00000000000E+00 -0.00000000000E+00 -0.27045894084E+02  0.27045894084E+02  0.00000000000E+00 0.  1.
          5    1    1    2  502    0 -0.52211882881E+00 -0.33953235373E+02  0.27752867184E+02  0.44106761810E+02  0.47000000000E+01 0. -1.
         -5    1    1    2    0  502  0.16965520211E+02  0.77973904050E+02  0.28445349842E+03  0.29547189605E+03  0.47000000000E+01 0. -1.
        -11    1    1    2    0    0 -0.12856538980E+02  0.27150623248E+02  0.43925720611E+02  0.53215748313E+02  0.00000000000E+00 0.  1.
         11    1    1    2    0    0 -0.35868624015E+01 -0.71171291924E+02  0.13696436273E+03  0.15439383095E+03  0.00000000000E+00 0. -1.
<mgrwt>
<rscale>  0 0.12482690E+03</rscale>
<asrwt>0</asrwt>
<pdfrwt beam="1">  1        2 0.80021891E-01 0.13356965E+03</pdfrwt>
<pdfrwt beam="2">  1       -2 0.41609072E-02 0.13356965E+03</pdfrwt>
<totfact> 0.14569244E+04</totfact>
</mgrwt>
</event>
<event>
 6    1  0.5258538E-006  0.3062113E+03  0.7546771E-02  0.1115273E+00
          3   -1    0    0  501    0  0.00000000000E+00  0.00000000000E+00  0.15691986548E+03  0.15691986548E+03  0.00000000000E+00 0. -1.
         -3   -1    0    0    0  501 -0.00000000000E+00 -0.00000000000E+00 -0.47694224108E+03  0.47694224108E+03  0.00000000000E+00 0.  1.
          5    1    1    2  502    0  0.12976278537E+03 -0.66906210470E+02  0.94815545760E+02  0.17414620060E+03  0.47000000000E+01 0. -1.
         -5    1    1    2    0  502 -0.66544594179E+02  0.63958377017E+01 -0.11453350587E+03  0.13269929812E+03  0.47000000000E+01 0.  1.
        -11    1    1    2    0    0 -0.27234193113E+02  0.74183107351E+02 -0.25794844280E+03  0.26978182636E+03  0.00000000000E+00 0.  1.
         11    1    1    2    0    0 -0.35983998082E+02 -0.13672734583E+02 -0.42355972686E+02  0.57234781480E+02  0.00000000000E+00 0. -1.
<mgrwt>
<rscale>  0 0.24691123E+03</rscale>
<asrwt>0</asrwt>
<pdfrwt beam="1">  1        3 0.24141518E-01 0.30621130E+03</pdfrwt>
<pdfrwt beam="2">  1       -3 0.73375728E-01 0.30621130E+03</pdfrwt>
<totfact> 0.72574885E+01</totfact>
</mgrwt>
</event>
<event>
 6    1  0.5258538E-006  0.1253397E+03  0.7546771E-02  0.1249963E+00
          2   -1    0    0  501    0  0.00000000000E+00  0.00000000000E+00  0.74441032955E+03  0.74441032955E+03  0.00000000000E+00 0. -1.
         -2   -1    0    0    0  501 -0.00000000000E+00 -0.00000000000E+00 -0.24567693722E+02  0.24567693722E+02  0.00000000000E+00 0.  1.
          5    1    1    2  502    0 -0.40263250233E+02 -0.13150109503E+02  0.52249599151E+03  0.52423106151E+03  0.47000000000E+01 0. -1.
         -5    1    1    2    0  502  0.36712182507E+02  0.30212898019E+02  0.10089478045E+03  0.11163534509E+03  0.47000000000E+01 0.  1.
        -11    1    1    2    0    0  0.45448386424E+02  0.17727680777E+01  0.42452544663E+02  0.62216694572E+02  0.00000000000E+00 0.  1.
         11    1    1    2    0    0 -0.41897318697E+02 -0.18835556594E+02  0.53999319207E+02  0.70894922110E+02  0.00000000000E+00 0. -1.
<mgrwt>
<rscale>  0 0.11593190E+03</rscale>
<asrwt>0</asrwt>
<pdfrwt beam="1">  1        2 0.11452465E+00 0.12533967E+03</pdfrwt>
<pdfrwt beam="2">  1       -2 0.37796458E-02 0.12533967E+03</pdfrwt>
<totfact> 0.11076624E+04</totfact>
</mgrwt>
</event>
<event>
 6    1  0.5258538E-006  0.2534066E+03  0.7546771E-02  0.1112877E+00
         -2   -1    0    0    0  501 -0.00000000000E+00  0.00000000000E+00  0.96348378121E+02  0.96348378121E+02  0.00000000000E+00 0.  1.
          2   -1    0    0  501    0  0.00000000000E+00 -0.00000000000E+00 -0.76202776445E+03  0.76202776445E+03  0.00000000000E+00 0. -1.
          5    1    1    2  502    0 -0.11058950995E+03 -0.12011102469E+03 -0.23511872485E+03  0.28628587590E+03  0.47000000000E+01 0. -1.
         -5    1    1    2    0  502 -0.63129531855E+02 -0.23807414050E+02 -0.27649007960E+03  0.28464185369E+03  0.47000000000E+01 0.  1.
        -11    1    1    2    0    0  0.10972181835E+03  0.61532797375E+02 -0.12894340604E+03  0.18014317788E+03  0.00000000000E+00 0.  1.
         11    1    1    2    0    0  0.63997223458E+02  0.82385641368E+02 -0.25127175837E+02  0.10730523510E+03  0.00000000000E+00 0. -1.
<mgrwt>
<rscale>  0 0.25067878E+03</rscale>
<asrwt>0</asrwt>
<pdfrwt beam="2">  1        2 0.11723504E+00 0.25340660E+03</pdfrwt>
<pdfrwt beam="1">  1       -2 0.14822828E-01 0.25340660E+03</pdfrwt>
<totfact> 0.13183348E+03</totfact>
</mgrwt>
</event>
<event>
 6    1  0.5258538E-006  0.1997297E+03  0.7546771E-02  0.1177384E+00
         -1   -1    0    0    0  501 -0.00000000000E+00  0.00000000000E+00  0.98980318706E+02  0.98980318706E+02  0.00000000000E+00 0.  1.
          1   -1    0    0  501    0  0.00000000000E+00 -0.00000000000E+00 -0.26077776326E+03  0.26077776326E+03  0.00000000000E+00 0. -1.
          5    1    1    2  502    0 -0.36901164872E+02 -0.56214814269E+02 -0.14891532534E+03  0.16346151055E+03  0.47000000000E+01 0. -1.
         -5    1    1    2    0  502  0.84895687651E+02  0.29254498266E+02 -0.75060993297E+01  0.90230454823E+02  0.47000000000E+01 0.  1.
        -11    1    1    2    0    0  0.27000495371E+02  0.33944515256E+01 -0.34620712993E+01  0.27432371191E+02  0.00000000000E+00 0.  1.
         11    1    1    2    0    0 -0.74995018151E+02  0.23565864478E+02 -0.19139485859E+01  0.78633745397E+02  0.00000000000E+00 0. -1.
<mgrwt>
<rscale>  0 0.17044588E+03</rscale>
<asrwt>0</asrwt>
<pdfrwt beam="2">  1        1 0.40119656E-01 0.19972970E+03</pdfrwt>
<pdfrwt beam="1">  1       -1 0.15227741E-01 0.19972970E+03</pdfrwt>
<totfact> 0.32302526E+03</totfact>
</mgrwt>
</event>
<event>
 6    1  0.5258538E-006  0.1550908E+03  0.7546771E-02  0.1202851E+00
          2   -1    0    0  501    0  0.00000000000E+00  0.00000000000E+00  0.23022794820E+03  0.23022794820E+03  0.00000000000E+00 0. -1.
         -2   -1    0    0    0  501 -0.00000000000E+00 -0.00000000000E+00 -0.87882330869E+02  0.87882330869E+02  0.00000000000E+00 0.  1.
          5    1    1    2  502    0  0.49723855156E+02  0.21845833969E+02  0.10342080239E+03  0.11690874475E+03  0.47000000000E+01 0. -1.
         -5    1    1    2    0  502  0.38808741574E+02  0.24251094220E+01 -0.35071875208E+02  0.52574956099E+02  0.47000000000E+01 0. -1.
        -11    1    1    2    0    0 -0.40808605113E+02 -0.13264523178E+02  0.87814633531E+02  0.97737913261E+02  0.00000000000E+00 0. -1.
         11    1    1    2    0    0 -0.47723991617E+02 -0.11006420213E+02 -0.13817943378E+02  0.50888664956E+02  0.00000000000E+00 0.  1.
<mgrwt>
<rscale>  0 0.14808119E+03</rscale>
<asrwt>0</asrwt>
<pdfrwt beam="1">  1        2 0.35419684E-01 0.15509078E+03</pdfrwt>
<pdfrwt beam="2">  1       -2 0.13520359E-01 0.15509078E+03</pdfrwt>
<totfact> 0.57130597E+03</totfact>
</mgrwt>
</event>
<event>
 6    1  0.5258538E-006  0.2070060E+03  0.7546771E-02  0.1147921E+00
         -1   -1    0    0    0  501 -0.00000000000E+00  0.00000000000E+00  0.39033798313E+02  0.39033798313E+02  0.00000000000E+00 0.  1.
          1   -1    0    0  501    0  0.00000000000E+00 -0.00000000000E+00 -0.10273813683E+04  0.10273813683E+04  0.00000000000E+00 0. -1.
          5    1    1    2  502    0 -0.55456587616E+02  0.59896004360E+02 -0.32928881989E+03  0.33928775597E+03  0.47000000000E+01 0.  1.
         -5    1    1    2    0  502  0.54381654549E+02  0.10510201696E+03 -0.27298399169E+03  0.29756704798E+03  0.47000000000E+01 0.  1.
        -11    1    1    2    0    0 -0.23403302413E+02 -0.56437854964E+02 -0.62583189067E+02  0.87462000838E+02  0.00000000000E+00 0.  1.
         11    1    1    2    0    0  0.24478235480E+02 -0.10856016636E+03 -0.32349156934E+03  0.34209836183E+03  0.00000000000E+00 0. -1.
<mgrwt>
<rscale>  0 0.20217034E+03</rscale>
<asrwt>0</asrwt>
<pdfrwt beam="2">  1        1 0.15805868E+00 0.20700604E+03</pdfrwt>
<pdfrwt beam="1">  1       -1 0.60051994E-02 0.20700604E+03</pdfrwt>
<totfact> 0.20302596E+03</totfact>
</mgrwt>
</event>
<event>
 6    1  0.5258538E-006  0.1676989E+03  0.7546771E-02  0.1187117E+00
         -2   -1    0    0    0  501 -0.00000000000E+00  0.00000000000E+00  0.32246946840E+02  0.32246946840E+02  0.00000000000E+00 0.  1.
          2   -1    0    0  501    0  0.00000000000E+00 -0.00000000000E+00 -0.84817610019E+03  0.84817610019E+03  0.00000000000E+00 0. -1.
          5    1    1    2  502    0 -0.18252628251E+02 -0.20428487682E+02 -0.53715920021E+02  0.60481167406E+02  0.47000000000E+01 0.  1.
         -5    1    1    2    0  502  0.26930767678E+02  0.13191565139E+03 -0.52912275323E+03  0.54600364772E+03  0.47000000000E+01 0.  1.
        -11    1    1    2    0    0 -0.24535879333E+02  0.49085194129E+01 -0.57126205072E+02  0.62365906098E+02  0.00000000000E+00 0. -1.
         11    1    1    2    0    0  0.15857739907E+02 -0.11639568312E+03 -0.17596427503E+03  0.21157232581E+03  0.00000000000E+00 0.  1.
<mgrwt>
<rscale>  0 0.16140712E+03</rscale>
<asrwt>0</asrwt>
<pdfrwt beam="2">  1        2 0.13048863E+00 0.16769887E+03</pdfrwt>
<pdfrwt beam="1">  1       -2 0.49610688E-02 0.16769887E+03</pdfrwt>
<totfact> 0.63729958E+03</totfact>
</mgrwt>
</event>
<event>
 6    1  0.5758226E-006  0.3185753E+03  0.7546771E-02  0.1077700E+00
         -2   -1    0    0    0  501 -0.00000000000E+00  0.00000000000E+00  0.17259225459E+03  0.17259225459E+03  0.00000000000E+00 0.  1.
          2   -1    0    0  501    0  0.00000000000E+00 -0.00000000000E+00 -0.58343724885E+03  0.58343724885E+03  0.00000000000E+00 0. -1.
          5    1    1    2  502    0 -0.66286784078E+02 -0.21024683277E+03 -0.13819052401E+03  0.26022371022E+03  0.47000000000E+01 0.  1.
         -5    1    1    2    0  502  0.26956210581E+02 -0.80129537879E+02 -0.13546024458E+03  0.15974651167E+03  0.47000000000E+01 0.  1.
        -11    1    1    2    0    0 -0.18250597886E+02  0.14079342113E+03 -0.35860883711E+02  0.14643044334E+03  0.00000000000E+00 0.  1.
         11    1    1    2    0    0  0.57581171382E+02  0.14958294952E+03 -0.10133334196E+03  0.18962883821E+03  0.00000000000E+00 0. -1.
<mgrwt>
<rscale>  0 0.31558449E+03</rscale>
<asrwt>0</asrwt>
<pdfrwt beam="2">  1        2 0.89759575E-01 0.31857534E+03</pdfrwt>
<pdfrwt beam="1">  1       -2 0.26552655E-01 0.31857534E+03</pdfrwt>
<totfact> 0.66735398E+02</totfact>
</mgrwt>
</event>
<event>
 6    1  0.5258538E-006  0.1751559E+03  0.7546771E-02  0.1178251E+00
          1   -1    0    0  501    0  0.00000000000E+00  0.00000000000E+00  0.87685192137E+02  0.87685192137E+02  0.00000000000E+00 0. -1.
         -1   -1    0    0    0  501 -0.00000000000E+00 -0.00000000000E+00 -0.31029962806E+03  0.31029962806E+03  0.00000000000E+00 0.  1.
          5    1    1    2  502    0 -0.36780188120E+02  0.26982443094E+02 -0.11739480405E+03  0.12603358478E+03  0.47000000000E+01 0. -1.
         -5    1    1    2    0  502 -0.57525900888E+02  0.51506795304E+02  0.12154443247E+02  0.78307086054E+02  0.47000000000E+01 0. -1.
        -11    1    1    2    0    0  0.10595778635E+03 -0.72194970144E+02 -0.12440543308E+03  0.17865015528E+03  0.00000000000E+00 0.  1.
         11    1    1    2    0    0 -0.11651697337E+02 -0.62942682548E+01  0.70313579662E+01  0.14993994083E+02  0.00000000000E+00 0. -1.
<mgrwt>
<rscale>  0 0.16961373E+03</rscale>
<asrwt>0</asrwt>
<pdfrwt beam="1">  1        1 0.13490030E-01 0.17515586E+03</pdfrwt>
<pdfrwt beam="2">  1       -1 0.47738404E-01 0.17515586E+03</pdfrwt>
<totfact> 0.18893428E+03</totfact>
</mgrwt>
</event>
<event>
 6    1  0.5258538E-006  0.1176739E+03  0.7546771E-02  0.1253752E+00
         -2   -1    0    0    0  501 -0.00000000000E+00  0.00000000000E+00  0.17741059770E+03  0.17741059770E+03  0.00000000000E+00 0.  1.
          2   -1    0    0  501    0  0.00000000000E+00 -0.00000000000E+00 -0.83055662415E+02  0.83055662415E+02  0.00000000000E+00 0. -1.
          5    1    1    2  502    0 -0.34900009644E+02 -0.26404615269E+02  0.93305764271E+01  0.44992933191E+02  0.47000000000E+01 0. -1.
         -5    1    1    2    0  502  0.64949556017E+02  0.29335551628E+02 -0.13949926841E+02  0.72771628228E+02  0.47000000000E+01 0.  1.
        -11    1    1    2    0    0  0.27720030505E+02  0.26130013216E+02  0.38585485084E+02  0.54221926755E+02  0.00000000000E+00 0.  1.
         11    1    1    2    0    0 -0.57769576878E+02 -0.29060949575E+02  0.60388800610E+02  0.88479771937E+02  0.00000000000E+00 0. -1.
<mgrwt>
<rscale>  0 0.11376498E+03</rscale>
<asrwt>0</asrwt>
<pdfrwt beam="2">  1        2 0.12777794E-01 0.11767393E+03</pdfrwt>
<pdfrwt beam="1">  1       -2 0.27293938E-01 0.11767393E+03</pdfrwt>
<totfact> 0.54048740E+03</totfact>
</mgrwt>
</event>
<event>
 6    1  0.5258538E-006  0.1908705E+03  0.7546771E-02  0.1181935E+00
          2   -1    0    0  501    0  0.00000000000E+00  0.00000000000E+00  0.55582134917E+03  0.55582134917E+03  0.00000000000E+00 0. -1.
         -2   -1    0    0    0  501 -0.00000000000E+00 -0.00000000000E+00 -0.55418668198E+02  0.55418668198E+02  0.00000000000E+00 0.  1.
          5    1    1    2  502    0 -0.57788854634E+02  0.16006349359E+02  0.84872615208E+02  0.10402502464E+03  0.47000000000E+01 0. -1.
         -5    1    1    2    0  502  0.11336592029E+03 -0.42271275504E+02  0.36868008080E+03  0.38805384239E+03  0.47000000000E+01 0.  1.
        -11    1    1    2    0    0 -0.26802622981E+02 -0.22196086032E+02  0.51995778627E+02  0.62566826904E+02  0.00000000000E+00 0.  1.
         11    1    1    2    0    0 -0.28774442674E+02  0.48461012177E+02 -0.51457936594E+01  0.56594323433E+02  0.00000000000E+00 0. -1.
<mgrwt>
<rscale>  0 0.16613916E+03</rscale>
<asrwt>0</asrwt>
<pdfrwt beam="1">  1        2 0.85510973E-01 0.19087054E+03</pdfrwt>
<pdfrwt beam="2">  1       -2 0.85259493E-02 0.19087054E+03</pdfrwt>
<totfact> 0.46329179E+03</totfact>
</mgrwt>
</event>
<event>
 6    1  0.5258538E-006  0.1205196E+03  0.7546771E-02  0.1296071E+00
         -2   -1    0    0    0  501 -0.00000000000E+00  0.00000000000E+00  0.16942067328E+02  0.16942067328E+02  0.00000000000E+00 0.  1.
          2   -1    0    0  501    0  0.00000000000E+00 -0.00000000000E+00 -0.43354119163E+03  0.43354119163E+03  0.00000000000E+00 0. -1.
          5    1    1    2  502    0 -0.15605549766E+02  0.49070448309E+01 -0.31394519655E+03  0.31440624788E+03  0.47000000000E+01 0. -1.
         -5    1    1    2    0  502  0.44792691559E+02 -0.11075936863E+02 -0.46594155095E+02  0.65743188876E+02  0.47000000000E+01 0.  1.
        -11    1    1    2    0    0 -0.14155634352E+02  0.18305448801E+02 -0.31497510679E+02  0.39084071163E+02  0.00000000000E+00 0.  1.
         11    1    1    2    0    0 -0.15031507442E+02 -0.12136556769E+02 -0.24562261975E+02  0.31249751031E+02  0.00000000000E+00 0. -1.
<mgrwt>
<rscale>  0 0.92859695E+02</rscale>
<asrwt>0</asrwt>
<pdfrwt beam="2">  1        2 0.66698649E-01 0.12051958E+03</pdfrwt>
<pdfrwt beam="1">  1       -2 0.26064717E-02 0.12051958E+03</pdfrwt>
<totfact> 0.35025300E+04</totfact>
</mgrwt>
</event>
<event>
 6    1  0.5258538E-006  0.2772489E+03  0.7546771E-02  0.1097201E+00
         -2   -1    0    0    0  501 -0.00000000000E+00  0.00000000000E+00  0.11846230299E+02  0.11846230299E+02  0.00000000000E+00 0.  1.
          2   -1    0    0  501    0  0.00000000000E+00 -0.00000000000E+00 -0.16221815155E+04  0.16221815155E+04  0.00000000000E+00 0. -1.
          5    1    1    2  502    0  0.42224179354E+02  0.70285121875E+02 -0.11467438675E+04  0.11496810285E+04  0.47000000000E+01 0.  1.
         -5    1    1    2    0  502 -0.20507109034E+02 -0.28102790396E+02 -0.15576292210E+03  0.15966992908E+03  0.47000000000E+01 0.  1.
        -11    1    1    2    0    0  0.24540736052E+02 -0.34762684682E+02 -0.22946311164E+03  0.23337525914E+03  0.00000000000E+00 0. -1.
         11    1    1    2    0    0 -0.46257806372E+02 -0.74196467966E+01 -0.78365383975E+02  0.91301529092E+02  0.00000000000E+00 0.  1.
<mgrwt>
<rscale>  0 0.27724888E+03</rscale>
<asrwt>0</asrwt>
<pdfrwt beam="2">  1        2 0.24956637E+00 0.27724888E+03</pdfrwt>
<pdfrwt beam="1">  1       -2 0.18224971E-02 0.27724888E+03</pdfrwt>
<totfact> 0.10413066E+04</totfact>
</mgrwt>
</event>
<event>
 6    1  0.5258538E-006  0.3008444E+03  0.7546771E-02  0.1084819E+00
          2   -1    0    0  501    0  0.00000000000E+00  0.00000000000E+00  0.35764162348E+03  0.35764162348E+03  0.00000000000E+00 0. -1.
         -2   -1    0    0    0  501 -0.00000000000E+00 -0.00000000000E+00 -0.63266798434E+02  0.63266798434E+02  0.00000000000E+00 0.  1.
          5    1    1    2  502    0 -0.24419074399E+02  0.12797665655E+03  0.16622599389E+03  0.21125218783E+03  0.47000000000E+01 0. -1.
         -5    1    1    2    0  502  0.55892935824E+01 -0.26987385444E+02  0.15193277704E+02  0.31819567301E+02  0.47000000000E+01 0. -1.
        -11    1    1    2    0    0  0.15397123105E+02 -0.68828434059E+02  0.12483437109E+03  0.14338076907E+03  0.00000000000E+00 0. -1.
         11    1    1    2    0    0  0.34326577116E+01 -0.32160837044E+02 -0.11878817645E+02  0.34455897710E+02  0.00000000000E+00 0.  1.
<mgrwt>
<rscale>  0 0.30084441E+03</rscale>
<asrwt>0</asrwt>
<pdfrwt beam="1">  1        2 0.55021787E-01 0.30084441E+03</pdfrwt>
<pdfrwt beam="2">  1       -2 0.97333539E-02 0.30084441E+03</pdfrwt>
<totfact> 0.62395903E+03</totfact>
</mgrwt>
</event>
<event>
 6    1  0.5258538E-006  0.1354429E+03  0.7546771E-02  0.1228711E+00
          1   -1    0    0  501    0  0.00000000000E+00  0.00000000000E+00  0.48210101613E+03  0.48210101613E+03  0.00000000000E+00 0. -1.
         -1   -1    0    0    0  501 -0.00000000000E+00 -0.00000000000E+00 -0.33937710964E+02  0.33937710964E+02  0.00000000000E+00 0.  1.
          5    1    1    2  502    0 -0.48095830419E+02 -0.38507599617E+02  0.16224708313E+03  0.17361523584E+03  0.47000000000E+01 0. -1.
         -5    1    1    2    0  502  0.72120750824E+02 -0.77678555290E+01  0.14692338428E+03  0.16392166765E+03  0.47000000000E+01 0. -1.
        -11    1    1    2    0    0 -0.52684742573E+02  0.32299070951E+02  0.13215628472E+03  0.14589104042E+03  0.00000000000E+00 0. -1.
         11    1    1    2    0    0  0.28659822168E+02  0.13976384195E+02  0.68365530368E+01  0.32610783175E+02  0.00000000000E+00 0.  1.
<mgrwt>
<rscale>  0 0.12915798E+03</rscale>
<asrwt>0</asrwt>
<pdfrwt beam="1">  1        1 0.74169382E-01 0.13544292E+03</pdfrwt>
<pdfrwt beam="2">  1       -1 0.52211867E-02 0.13544292E+03</pdfrwt>
<totfact> 0.74777553E+03</totfact>
</mgrwt>
</event>
<event>
 6    1  0.5258538E-006  0.1387098E+03  0.7546771E-02  0.1226324E+00
         -2   -1    0    0    0  501 -0.00000000000E+00  0.00000000000E+00  0.10924117772E+03  0.10924117772E+03  0.00000000000E+00 0.  1.
          2   -1    0    0  501    0  0.00000000000E+00 -0.00000000000E+00 -0.14190139184E+03  0.14190139184E+03  0.00000000000E+00 0. -1.
          5    1    1    2  502    0  0.62879945645E+02  0.70626874775E+02 -0.42411607748E+02  0.10374428889E+03  0.47000000000E+01 0.  1.
         -5    1    1    2    0  502 -0.24108975111E+02 -0.24663715078E+02  0.14565277982E+02  0.37732994117E+02  0.47000000000E+01 0.  1.
        -11    1    1    2    0    0 -0.13267240576E+02  0.28809220917E+01  0.37699449929E+02  0.40069538424E+02  0.00000000000E+00 0.  1.
         11    1    1    2    0    0 -0.25503729958E+02 -0.48844081788E+02 -0.42513334282E+02  0.69595748141E+02  0.00000000000E+00 0. -1.
<mgrwt>
<rscale>  0 0.13076542E+03</rscale>
<asrwt>0</asrwt>
<pdfrwt beam="2">  1        2 0.21830983E-01 0.13870978E+03</pdfrwt>
<pdfrwt beam="1">  1       -2 0.16806335E-01 0.13870978E+03</pdfrwt>
<totfact> 0.67458346E+03</totfact>
</mgrwt>
</event>
<event>
 6    1  0.5258538E-006  0.5119884E+03  0.7546771E-02  0.1010696E+00
         -2   -1    0    0    0  501 -0.00000000000E+00  0.00000000000E+00  0.45100014980E+02  0.45100014980E+02  0.00000000000E+00 0.  1.
          2   -1    0    0  501    0  0.00000000000E+00 -0.00000000000E+00 -0.14530598037E+04  0.14530598037E+04  0.00000000000E+00 0. -1.
          5    1    1    2  502    0  0.79003574691E+02  0.14303174737E+03 -0.11148000073E+04  0.11267212574E+04  0.47000000000E+01 0. -1.
         -5    1    1    2    0  502 -0.27164465502E+02  0.13112528485E+02 -0.76530338779E+02  0.82394352616E+02  0.47000000000E+01 0. -1.
        -11    1    1    2    0    0 -0.10077032666E+02 -0.76736826045E+02 -0.17248318950E+03  0.18905168002E+03  0.00000000000E+00 0. -1.
         11    1    1    2    0    0 -0.41762076522E+02 -0.79407449811E+02 -0.44146253142E+02  0.99992528658E+02  0.00000000000E+00 0.  1.
<mgrwt>
<rscale>  0 0.51198836E+03</rscale>
<asrwt>0</asrwt>
<pdfrwt beam="2">  1        2 0.22354769E+00 0.51198836E+03</pdfrwt>
<pdfrwt beam="1">  1       -2 0.69384631E-02 0.51198836E+03</pdfrwt>
<totfact> 0.16962240E+03</totfact>
</mgrwt>
</event>
<event>
 6    1  0.5258538E-006  0.1357632E+03  0.7546771E-02  0.1232826E+00
          1   -1    0    0  501    0  0.00000000000E+00  0.00000000000E+00  0.12186666471E+03  0.12186666471E+03  0.00000000000E+00 0. -1.
         -1   -1    0    0    0  501 -0.00000000000E+00 -0.00000000000E+00 -0.11836363493E+03  0.11836363493E+03  0.00000000000E+00 0.  1.
          5    1    1    2  502    0 -0.73819664561E+02  0.48561936948E+02  0.59098887599E+01  0.88682700574E+02  0.47000000000E+01 0.  1.
         -5    1    1    2    0  502  0.21347412376E+02 -0.41253213180E+02  0.12436107802E+02  0.48314453222E+02  0.47000000000E+01 0.  1.
        -11    1    1    2    0    0  0.41188863748E+01 -0.14908904755E+02  0.31962904252E+02  0.35508701951E+02  0.00000000000E+00 0. -1.
         11    1    1    2    0    0  0.48353365810E+02  0.76001809882E+01 -0.46805871035E+02  0.67724443885E+02  0.00000000000E+00 0.  1.
<mgrwt>
<rscale>  0 0.12644664E+03</rscale>
<asrwt>0</asrwt>
<pdfrwt beam="1">  1        1 0.18748718E-01 0.13576319E+03</pdfrwt>
<pdfrwt beam="2">  1       -1 0.18209790E-01 0.13576319E+03</pdfrwt>
<totfact> 0.62046263E+03</totfact>
</mgrwt>
</event>
<event>
 6    1  0.5258538E-006  0.2289062E+03  0.7546771E-02  0.1130762E+00
         -1   -1    0    0    0  501 -0.00000000000E+00  0.00000000000E+00  0.59789544047E+02  0.59789544047E+02  0.00000000000E+00 0.  1.
          1   -1    0    0  501    0  0.00000000000E+00 -0.00000000000E+00 -0.81043699736E+03  0.81043699736E+03  0.00000000000E+00 0. -1.
          5    1    1    2  502    0  0.13716877350E+03 -0.88830067350E+01 -0.18800628014E+03  0.23294340858E+03  0.47000000000E+01 0. -1.
         -5    1    1    2    0  502  0.45428901611E+02  0.67463062495E+02 -0.22440384161E+03  0.23873463098E+03  0.47000000000E+01 0. -1.
        -11    1    1    2    0    0 -0.65302538734E+02 -0.56673772891E+02 -0.94737300959E+02  0.12826337861E+03  0.00000000000E+00 0.  1.
         11    1    1    2    0    0 -0.11729513638E+03 -0.19062828688E+01 -0.24350003061E+03  0.27028512323E+03  0.00000000000E+00 0. -1.
<mgrwt>
<rscale>  0 0.22423871E+03</rscale>
<asrwt>0</asrwt>
<pdfrwt beam="2">  1        1 0.12468262E+00 0.22890624E+03</pdfrwt>
<pdfrwt beam="1">  1       -1 0.91983912E-02 0.22890624E+03</pdfrwt>
<totfact> 0.15655767E+03</totfact>
</mgrwt>
</event>
<event>
 6    1  0.5258538E-006  0.3274453E+03  0.7546771E-02  0.1072273E+00
          3   -1    0    0  501    0  0.00000000000E+00  0.00000000000E+00  0.60528162319E+03  0.60528162319E+03  0.00000000000E+00 0. -1.
         -3   -1    0    0    0  501 -0.00000000000E+00 -0.00000000000E+00 -0.44285342478E+02  0.44285342478E+02  0.00000000000E+00 0.  1.
          5    1    1    2  502    0  0.54422707390E+02  0.10843973063E+03  0.32179062623E+03  0.34393648162E+03  0.47000000000E+01 0.  1.
         -5    1    1    2    0  502  0.18871935901E+02 -0.35737363668E+02  0.11153905129E+03  0.11872808888E+03  0.47000000000E+01 0.  1.
        -11    1    1    2    0    0 -0.16251266933E+02 -0.67168937282E+02  0.33817081939E+02  0.76937408608E+02  0.00000000000E+00 0. -1.
         11    1    1    2    0    0 -0.57043376358E+02 -0.55334296758E+01  0.93849521254E+02  0.10996498656E+03  0.00000000000E+00 0.  1.
<mgrwt>
<rscale>  0 0.32744529E+03</rscale>
<asrwt>0</asrwt>
<pdfrwt beam="1">  1        3 0.93120244E-01 0.32744529E+03</pdfrwt>
<pdfrwt beam="2">  1       -3 0.68131301E-02 0.32744529E+03</pdfrwt>
<totfact> 0.38011189E+02</totfact>
</mgrwt>
</event>
<event>
 6    1  0.5258538E-006  0.3973050E+03  0.7546771E-02  0.1044717E+00
         -2   -1    0    0    0  501 -0.00000000000E+00  0.00000000000E+00  0.30804725795E+03  0.30804725795E+03  0.00000000000E+00 0.  1.
          2   -1    0    0  501    0  0.00000000000E+00 -0.00000000000E+00 -0.12810637620E+03  0.12810637620E+03  0.00000000000E+00 0. -1.
          5    1    1    2  502    0  0.33548243312E+02  0.57657670587E+01  0.74588692866E+01  0.35163239756E+02  0.47000000000E+01 0.  1.
         -5    1    1    2    0  502 -0.84605287603E+02  0.14571631567E+03  0.36667954000E+02  0.17250486426E+03  0.47000000000E+01 0.  1.
        -11    1    1    2    0    0  0.42816922845E+02 -0.39413276606E+02  0.89908585909E+02  0.10709924871E+03  0.00000000000E+00 0.  1.
         11    1    1    2    0    0  0.82401214455E+01 -0.11206880612E+03  0.45905472553E+02  0.12138628142E+03  0.00000000000E+00 0. -1.
<mgrwt>
<rscale>  0 0.39730501E+03</rscale>
<asrwt>0</asrwt>
<pdfrwt beam="2">  1        2 0.19708673E-01 0.39730501E+03</pdfrwt>
<pdfrwt beam="1">  1       -2 0.47391886E-01 0.39730501E+03</pdfrwt>
<totfact> 0.12161088E+03</totfact>
</mgrwt>
</event>
<event>
 6    1  0.5258538E-006  0.1568433E+03  0.7546771E-02  0.1211796E+00
         -1   -1    0    0    0  501 -0.00000000000E+00  0.00000000000E+00  0.29244452342E+02  0.29244452342E+02  0.00000000000E+00 0.  1.
          1   -1    0    0  501    0  0.00000000000E+00 -0.00000000000E+00 -0.76740292806E+03  0.76740292806E+03  0.00000000000E+00 0. -1.
          5    1    1    2  502    0  0.69509370298E+02  0.27062612089E+02 -0.53651328984E+03  0.54169413668E+03  0.47000000000E+01 0. -1.
         -5    1    1    2    0  502 -0.48657016771E+02  0.16111968958E+02 -0.85572651317E+02  0.99859248336E+02  0.47000000000E+01 0.  1.
        -11    1    1    2    0    0 -0.14626321680E+02  0.27199613280E+02 -0.47370133336E+02  0.56548013058E+02  0.00000000000E+00 0. -1.
         11    1    1    2    0    0 -0.62260318468E+01 -0.70374194328E+02 -0.68702401221E+02  0.98545982331E+02  0.00000000000E+00 0.  1.
<mgrwt>
<rscale>  0 0.14114548E+03</rscale>
<asrwt>0</asrwt>
<pdfrwt beam="2">  1        1 0.11806196E+00 0.15684332E+03</pdfrwt>
<pdfrwt beam="1">  1       -1 0.44991474E-02 0.15684332E+03</pdfrwt>
<totfact> 0.49519787E+03</totfact>
</mgrwt>
</event>
<event>
 6    1  0.5258538E-006  0.1371608E+03  0.7546771E-02  0.1227513E+00
         -1   -1    0    0    0  501 -0.00000000000E+00  0.00000000000E+00  0.22651571977E+02  0.22651571977E+02  0.00000000000E+00 0.  1.
          1   -1    0    0  501    0  0.00000000000E+00 -0.00000000000E+00 -0.90573303148E+03  0.90573303148E+03  0.00000000000E+00 0. -1.
          5    1    1    2  502    0  0.18772926411E+02  0.34839057606E+02 -0.12944466536E+03  0.13544074014E+03  0.47000000000E+01 0.  1.
         -5    1    1    2    0  502 -0.10069332987E+02 -0.90628646009E+02 -0.57970036879E+03  0.58684712705E+03  0.47000000000E+01 0.  1.
        -11    1    1    2    0    0  0.36672273567E+02 -0.74626391262E+00 -0.43791007767E+02  0.57123243252E+02  0.00000000000E+00 0.  1.
         11    1    1    2    0    0 -0.45375866991E+02  0.56535852316E+02 -0.13014541758E+03  0.14897349301E+03  0.00000000000E+00 0. -1.
<mgrwt>
<rscale>  0 0.12996165E+03</rscale>
<asrwt>0</asrwt>
<pdfrwt beam="2">  1        1 0.13934351E+00 0.13716079E+03</pdfrwt>
<pdfrwt beam="1">  1       -1 0.34848582E-02 0.13716079E+03</pdfrwt>
<totfact> 0.55531839E+03</totfact>
</mgrwt>
</event>
<event>
 6    1  0.5258538E-006  0.1367798E+03  0.7546771E-02  0.1232277E+00
          1   -1    0    0  501    0  0.00000000000E+00  0.00000000000E+00  0.15366368079E+03  0.15366368079E+03  0.00000000000E+00 0. -1.
         -1   -1    0    0    0  501 -0.00000000000E+00 -0.00000000000E+00 -0.92543960040E+02  0.92543960040E+02  0.00000000000E+00 0.  1.
          5    1    1    2  502    0  0.11462007102E+02 -0.29386845116E+02  0.49189395865E+02  0.58622955728E+02  0.47000000000E+01 0.  1.
         -5    1    1    2    0  502 -0.61489834280E+01  0.84680336571E+02 -0.48295207093E+01  0.85170321529E+02  0.47000000000E+01 0.  1.
        -11    1    1    2    0    0  0.23998533496E+02 -0.65306326962E+02  0.16187733204E+02  0.71434506070E+02  0.00000000000E+00 0.  1.
         11    1    1    2    0    0 -0.29311557170E+02  0.10012835507E+02  0.57211239462E+00  0.30979857508E+02  0.00000000000E+00 0. -1.
<mgrwt>
<rscale>  0 0.12680401E+03</rscale>
<asrwt>0</asrwt>
<pdfrwt beam="1">  1        1 0.23640566E-01 0.13677978E+03</pdfrwt>
<pdfrwt beam="2">  1       -1 0.14237532E-01 0.13677978E+03</pdfrwt>
<totfact> 0.68195300E+03</totfact>
</mgrwt>
</event>
<event>
 6    1  0.5258538E-006  0.1306549E+03  0.7546771E-02  0.1244136E+00
          4   -1    0    0  501    0  0.00000000000E+00  0.00000000000E+00  0.59298119011E+03  0.59298119011E+03  0.00000000000E+00 0.  1.
         -4   -1    0    0    0  501 -0.00000000000E+00 -0.00000000000E+00 -0.21502312009E+02  0.21502312009E+02  0.00000000000E+00 0. -1.
          5    1    1    2  502    0 -0.11507692605E+01 -0.57947042058E+02  0.76613210899E+02  0.96181380929E+02  0.47000000000E+01 0. -1.
         -5    1    1    2    0  502  0.19636606238E+02  0.24641202590E+02  0.31598273714E+03  0.31758457982E+03  0.47000000000E+01 0. -1.
        -11    1    1    2    0    0  0.20669790665E+01  0.56345156349E+02  0.14094442340E+03  0.15180375336E+03  0.00000000000E+00 0. -1.
         11    1    1    2    0    0 -0.20552816044E+02 -0.23039316881E+02  0.37938506662E+02  0.48913788009E+02  0.00000000000E+00 0.  1.
<mgrwt>
<rscale>  0 0.11937220E+03</rscale>
<asrwt>0</asrwt>
<pdfrwt beam="1">  1        4 0.91227863E-01 0.13065486E+03</pdfrwt>
<pdfrwt beam="2">  1       -4 0.33080485E-02 0.13065486E+03</pdfrwt>
<totfact> 0.80362807E+02</totfact>
</mgrwt>
</event>
<event>
 6    1  0.5258538E-006  0.2726088E+03  0.7546771E-02  0.1101866E+00
         -2   -1    0    0    0  501 -0.00000000000E+00  0.00000000000E+00  0.11757577057E+03  0.11757577057E+03  0.00000000000E+00 0.  1.
          2   -1    0    0  501    0  0.00000000000E+00 -0.00000000000E+00 -0.60983453453E+03  0.60983453453E+03  0.00000000000E+00 0. -1.
          5    1    1    2  502    0  0.22102784035E+03  0.92996225785E+01 -0.20526807430E+03  0.30182256629E+03  0.47000000000E+01 0.  1.
         -5    1    1    2    0  502  0.20008873710E+02 -0.33629187851E+02  0.21849397187E-01  0.39412787012E+02  0.47000000000E+01 0.  1.
        -11    1    1    2    0    0 -0.15966645476E+03 -0.31186597034E+01 -0.23999252808E+03  0.28826986722E+03  0.00000000000E+00 0.  1.
         11    1    1    2    0    0 -0.81370259305E+02  0.27448224976E+02 -0.47020010977E+02  0.97905084576E+02  0.00000000000E+00 0. -1.
<mgrwt>
<rscale>  0 0.26897709E+03</rscale>
<asrwt>0</asrwt>
<pdfrwt beam="2">  1        2 0.93820695E-01 0.27260879E+03</pdfrwt>
<pdfrwt beam="1">  1       -2 0.18088581E-01 0.27260879E+03</pdfrwt>
<totfact> 0.12371756E+03</totfact>
</mgrwt>
</event>
<event>
 6    1  0.5258538E-006  0.1370267E+03  0.7546771E-02  0.1228534E+00
          2   -1    0    0  501    0  0.00000000000E+00  0.00000000000E+00  0.45488390624E+03  0.45488390624E+03  0.00000000000E+00 0. -1.
         -2   -1    0    0    0  501 -0.00000000000E+00 -0.00000000000E+00 -0.33737361734E+02  0.33737361734E+02  0.00000000000E+00 0.  1.
          5    1    1    2  502    0 -0.39678719580E+02  0.15811993383E+02  0.23694964526E+03  0.24081454340E+03  0.47000000000E+01 0.  1.
         -5    1    1    2    0  502  0.31593404317E+02  0.39724169460E+02  0.29730296290E+02  0.59009603906E+02  0.47000000000E+01 0.  1.
        -11    1    1    2    0    0 -0.20473941957E+02 -0.50281514164E+02  0.32181625564E+02  0.63111567797E+02  0.00000000000E+00 0.  1.
         11    1    1    2    0    0  0.28559257220E+02 -0.52546486794E+01  0.12228497739E+03  0.12568555287E+03  0.00000000000E+00 0. -1.
<mgrwt>
<rscale>  0 0.12927589E+03</rscale>
<asrwt>0</asrwt>
<pdfrwt beam="1">  1        2 0.69982135E-01 0.13702674E+03</pdfrwt>
<pdfrwt beam="2">  1       -2 0.51903637E-02 0.13702674E+03</pdfrwt>
<totfact> 0.12142156E+04</totfact>
</mgrwt>
</event>
<event>
 6    1  0.5258538E-006  0.2219772E+03  0.7546771E-02  0.1135712E+00
         -2   -1    0    0    0  501 -0.00000000000E+00  0.00000000000E+00  0.34077680475E+02  0.34077680475E+02  0.00000000000E+00 0.  1.
          2   -1    0    0  501    0  0.00000000000E+00 -0.00000000000E+00 -0.13636616045E+04  0.13636616045E+04  0.00000000000E+00 0. -1.
          5    1    1    2  502    0  0.79940632465E+02  0.15672529373E+03 -0.68707757559E+03  0.70926088804E+03  0.47000000000E+01 0.  1.
         -5    1    1    2    0  502  0.38654818796E+02 -0.16786501953E+02 -0.10246866832E+03  0.11089589556E+03  0.47000000000E+01 0.  1.
        -11    1    1    2    0    0 -0.82945348094E+02 -0.40564943096E+02 -0.32750772882E+03  0.34027453301E+03  0.00000000000E+00 0. -1.
         11    1    1    2    0    0 -0.35650103168E+02 -0.99373848682E+02 -0.21252995130E+03  0.23730796838E+03  0.00000000000E+00 0.  1.
<mgrwt>
<rscale>  0 0.21756389E+03</rscale>
<asrwt>0</asrwt>
<pdfrwt beam="2">  1        2 0.20979408E+00 0.22197720E+03</pdfrwt>
<pdfrwt beam="1">  1       -2 0.52427205E-02 0.22197720E+03</pdfrwt>
<totfact> 0.29416413E+03</totfact>
</mgrwt>
</event>
<event>
 6    1  0.5258538E-006  0.1478511E+03  0.7546771E-02  0.1211894E+00
          1   -1    0    0  501    0  0.00000000000E+00  0.00000000000E+00  0.80303900962E+02  0.80303900962E+02  0.00000000000E+00 0. -1.
         -1   -1    0    0    0  501 -0.00000000000E+00 -0.00000000000E+00 -0.23699036508E+03  0.23699036508E+03  0.00000000000E+00 0.  1.
          5    1    1    2  502    0 -0.69195281524E+02  0.76336208504E+02 -0.48423536289E+02  0.11393916175E+03  0.47000000000E+01 0.  1.
         -5    1    1    2    0  502 -0.22759446920E+01 -0.42779071660E+02 -0.55360761143E+01  0.43450742629E+02  0.47000000000E+01 0.  1.
        -11    1    1    2    0    0  0.68909541623E+02 -0.14413018040E+02 -0.11654338391E+03  0.13615660230E+03  0.00000000000E+00 0.  1.
         11    1    1    2    0    0  0.25616845926E+01 -0.19144118805E+02  0.13816532198E+02  0.23747759363E+02  0.00000000000E+00 0. -1.
<mgrwt>
<rscale>  0 0.14107168E+03</rscale>
<asrwt>0</asrwt>
<pdfrwt beam="1">  1        1 0.12354446E-01 0.14785108E+03</pdfrwt>
<pdfrwt beam="2">  1       -1 0.36460056E-01 0.14785108E+03</pdfrwt>
<totfact> 0.33948553E+03</totfact>
</mgrwt>
</event>
<event>
 6    1  0.5258538E-006  0.1384307E+03  0.7546771E-02  0.1226192E+00
         -1   -1    0    0    0  501 -0.00000000000E+00  0.00000000000E+00  0.15706928674E+02  0.15706928674E+02  0.00000000000E+00 0.  1.
          1   -1    0    0  501    0  0.00000000000E+00 -0.00000000000E+00 -0.99175346719E+03  0.99175346719E+03  0.00000000000E+00 0. -1.
          5    1    1    2  502    0  0.32109364015E+01  0.38223667431E+02 -0.76879607322E+02  0.86046050964E+02  0.47000000000E+01 0.  1.
         -5    1    1    2    0  502 -0.57559557186E+02 -0.62453394363E+02 -0.50196379489E+03  0.50912009435E+03  0.47000000000E+01 0.  1.
        -11    1    1    2    0    0 -0.14957087045E+02  0.31235003403E+02 -0.74464246076E+02  0.82123467012E+02  0.00000000000E+00 0.  1.
         11    1    1    2    0    0  0.69305707829E+02 -0.70052764703E+01 -0.32273889023E+03  0.33017078354E+03  0.00000000000E+00 0. -1.
<mgrwt>
<rscale>  0 0.13085532E+03</rscale>
<asrwt>0</asrwt>
<pdfrwt beam="2">  1        1 0.15257743E+00 0.13843069E+03</pdfrwt>
<pdfrwt beam="1">  1       -1 0.24164510E-02 0.13843069E+03</pdfrwt>
<totfact> 0.81595269E+03</totfact>
</mgrwt>
</event>
<event>
 6    1  0.5258538E-006  0.1345763E+03  0.7546771E-02  0.1231104E+00
         -1   -1    0    0    0  501 -0.00000000000E+00  0.00000000000E+00  0.36046171274E+03  0.36046171274E+03  0.00000000000E+00 0.  1.
          1   -1    0    0  501    0  0.00000000000E+00 -0.00000000000E+00 -0.53247464227E+02  0.53247464227E+02  0.00000000000E+00 0. -1.
          5    1    1    2  502    0  0.56858644627E+02 -0.55222144224E+02  0.14629923809E+02  0.80737323166E+02  0.47000000000E+01 0. -1.
         -5    1    1    2    0  502 -0.81519799360E+01  0.44573796656E+02  0.52962614234E+02  0.69859907183E+02  0.47000000000E+01 0. -1.
        -11    1    1    2    0    0 -0.77768073260E+02  0.48688369757E+00  0.16611249879E+03  0.18341611850E+03  0.00000000000E+00 0. -1.
         11    1    1    2    0    0  0.29061408569E+02  0.10161463871E+02  0.73509211680E+02  0.79695828108E+02  0.00000000000E+00 0.  1.
<mgrwt>
<rscale>  0 0.12757176E+03</rscale>
<asrwt>0</asrwt>
<pdfrwt beam="2">  1        1 0.81919178E-02 0.13457628E+03</pdfrwt>
<pdfrwt beam="1">  1       -1 0.55455646E-01 0.13457628E+03</pdfrwt>
<totfact> 0.27470981E+03</totfact>
</mgrwt>
</event>
<event>
 6    1  0.5258538E-006  0.1341070E+03  0.7546771E-02  0.1233906E+00
         -2   -1    0    0    0  501 -0.00000000000E+00  0.00000000000E+00  0.14177873047E+03  0.14177873047E+03  0.00000000000E+00 0.  1.
          2   -1    0    0  501    0  0.00000000000E+00 -0.00000000000E+00 -0.22988827606E+03  0.22988827606E+03  0.00000000000E+00 0. -1.
          5    1    1    2  502    0  0.40662037968E+02 -0.59155527508E+02 -0.18423317354E+03  0.19777949843E+03  0.47000000000E+01 0. -1.
         -5    1    1    2    0  502 -0.28545272838E+02  0.12118024402E+02 -0.16209061387E+01  0.31406949128E+02  0.47000000000E+01 0. -1.
        -11    1    1    2    0    0 -0.48325291102E+01 -0.26708020539E+02  0.40892659630E+02  0.49080355647E+02  0.00000000000E+00 0.  1.
         11    1    1    2    0    0 -0.72842360197E+01  0.73745523645E+02  0.56851874458E+02  0.93400203327E+02  0.00000000000E+00 0. -1.
<mgrwt>
<rscale>  0 0.12574713E+03</rscale>
<asrwt>0</asrwt>
<pdfrwt beam="2">  1        2 0.35367427E-01 0.13410701E+03</pdfrwt>
<pdfrwt beam="1">  1       -2 0.21812112E-01 0.13410701E+03</pdfrwt>
<totfact> 0.25630602E+03</totfact>
</mgrwt>
</event>
<event>
 6    1  0.5258538E-006  0.1253371E+03  0.7546771E-02  0.1249801E+00
          1   -1    0    0  501    0  0.00000000000E+00  0.00000000000E+00  0.13268855117E+03  0.13268855117E+03  0.00000000000E+00 0. -1.
         -1   -1    0    0    0  501 -0.00000000000E+00 -0.00000000000E+00 -0.98709057872E+02  0.98709057872E+02  0.00000000000E+00 0.  1.
          5    1    1    2  502    0  0.35697416197E+02  0.45214249457E+02  0.40755646301E+02  0.70723027243E+02  0.47000000000E+01 0. -1.
         -5    1    1    2    0  502 -0.44741820980E+02 -0.46406322124E+02  0.14426084653E+02  0.66223705696E+02  0.47000000000E+01 0. -1.
        -11    1    1    2    0    0  0.15008973115E+02 -0.37355715430E+02  0.13276055749E+02  0.42390711311E+02  0.00000000000E+00 0. -1.
         11    1    1    2    0    0 -0.59645683310E+01  0.38547788097E+02 -0.34478293401E+02  0.52060164794E+02  0.00000000000E+00 0.  1.
<mgrwt>
<rscale>  0 0.11602573E+03</rscale>
<asrwt>0</asrwt>
<pdfrwt beam="1">  1        1 0.20413623E-01 0.12533708E+03</pdfrwt>
<pdfrwt beam="2">  1       -1 0.15186009E-01 0.12533708E+03</pdfrwt>
<totfact> 0.73740709E+03</totfact>
</mgrwt>
</event>
<event>
 6    1  0.5258538E-006  0.1748337E+03  0.7546771E-02  0.1179139E+00
          1   -1    0    0  501    0  0.00000000000E+00  0.00000000000E+00  0.37936996091E+03  0.37936996091E+03  0.00000000000E+00 0. -1.
         -1   -1    0    0    0  501 -0.00000000000E+00 -0.00000000000E+00 -0.71078083939E+02  0.71078083939E+02  0.00000000000E+00 0.  1.
          5    1    1    2  502    0  0.38912924551E+02 -0.30554467364E+02  0.31869828934E+02  0.59038692137E+02  0.47000000000E+01 0.  1.
         -5    1    1    2    0  502 -0.90892572077E+02 -0.80098576809E+02  0.15640668282E+03  0.19789487638E+03  0.47000000000E+01 0.  1.
        -11    1    1    2    0    0  0.46246447736E+02  0.98530359027E+02  0.13499531439E+03  0.17340905538E+03  0.00000000000E+00 0. -1.
         11    1    1    2    0    0  0.57331997902E+01  0.12122685146E+02 -0.14979949171E+02  0.20105420964E+02  0.00000000000E+00 0.  1.
<mgrwt>
<rscale>  0 0.16876755E+03</rscale>
<asrwt>0</asrwt>
<pdfrwt beam="1">  1        1 0.58364608E-01 0.17483367E+03</pdfrwt>
<pdfrwt beam="2">  1       -1 0.10935090E-01 0.17483367E+03</pdfrwt>
<totfact> 0.33690560E+03</totfact>
</mgrwt>
</event>
<event>
 6    1  0.5258538E-006  0.1888798E+03  0.7546771E-02  0.1164550E+00
         -2   -1    0    0    0  501 -0.00000000000E+00  0.00000000000E+00  0.30333448677E+02  0.30333448677E+02  0.00000000000E+00 0.  1.
          2   -1    0    0  501    0  0.00000000000E+00 -0.00000000000E+00 -0.10662439715E+04  0.10662439715E+04  0.00000000000E+00 0. -1.
          5    1    1    2  502    0 -0.28065152316E+02 -0.21799611162E+02 -0.37772234518E+03  0.37941947218E+03  0.47000000000E+01 0. -1.
         -5    1    1    2    0  502 -0.61079393598E+01 -0.11561581920E+03 -0.23952361072E+03  0.26607888805E+03  0.47000000000E+01 0. -1.
        -11    1    1    2    0    0  0.46127709906E+02  0.27577685169E+02 -0.95961226041E+02  0.10998568654E+03  0.00000000000E+00 0. -1.
         11    1    1    2    0    0 -0.11954618230E+02  0.10983774520E+03 -0.32270334091E+03  0.34109337344E+03  0.00000000000E+00 0.  1.
<mgrwt>
<rscale>  0 0.18340255E+03</rscale>
<asrwt>0</asrwt>
<pdfrwt beam="2">  1        2 0.16403754E+00 0.18887976E+03</pdfrwt>
<pdfrwt beam="1">  1       -2 0.46666843E-02 0.18887976E+03</pdfrwt>
<totfact> 0.51434092E+03</totfact>
</mgrwt>
</event>
<event>
 6    1  0.5258538E-006  0.2180390E+03  0.7546771E-02  0.1138759E+00
         -2   -1    0    0    0  501 -0.00000000000E+00  0.00000000000E+00  0.52992197560E+03  0.52992197560E+03  0.00000000000E+00 0. -1.
          2   -1    0    0  501    0  0.00000000000E+00 -0.00000000000E+00 -0.95111729889E+02  0.95111729889E+02  0.00000000000E+00 0.  1.
          5    1    1    2  502    0  0.10656160086E+03  0.25624219950E+02  0.51086178744E+02  0.12101183035E+03  0.47000000000E+01 0.  1.
         -5    1    1    2    0  502  0.12867274772E+02  0.10723868085E+03  0.61510829910E+02  0.12438397657E+03  0.47000000000E+01 0.  1.
        -11    1    1    2    0    0 -0.61158385591E+02 -0.11009393332E+03  0.27083051423E+03  0.29868074882E+03  0.00000000000E+00 0. -1.
         11    1    1    2    0    0 -0.58270490040E+02 -0.22768967484E+02  0.51382722825E+02  0.80957149744E+02  0.00000000000E+00 0.  1.
<mgrwt>
<rscale>  0 0.21358394E+03</rscale>
<asrwt>0</asrwt>
<pdfrwt beam="2">  1        2 0.14632574E-01 0.21803902E+03</pdfrwt>
<pdfrwt beam="1">  1       -2 0.81526456E-01 0.21803902E+03</pdfrwt>
<totfact> 0.54717551E+02</totfact>
</mgrwt>
</event>
<event>
 6    1  0.5258538E-006  0.2562288E+03  0.7546771E-02  0.1109430E+00
          2   -1    0    0  501    0  0.00000000000E+00  0.00000000000E+00  0.10703490503E+04  0.10703490503E+04  0.00000000000E+00 0. -1.
         -2   -1    0    0    0  501 -0.00000000000E+00 -0.00000000000E+00 -0.15334533811E+02  0.15334533811E+02  0.00000000000E+00 0.  1.
          5    1    1    2  502    0  0.19714200857E+02 -0.33583266358E+02  0.17576793704E+03  0.18009148560E+03  0.47000000000E+01 0. -1.
         -5    1    1    2    0  502 -0.67234660994E+02  0.74242598174E+02  0.51997710588E+03  0.52955712030E+03  0.47000000000E+01 0. -1.
        -11    1    1    2    0    0  0.51664211054E+02  0.67898049004E+00  0.29510969505E+03  0.29959870466E+03  0.00000000000E+00 0.  1.
         11    1    1    2    0    0 -0.41437509163E+01 -0.41338312306E+02  0.64159778555E+02  0.76436273589E+02  0.00000000000E+00 0. -1.
<mgrwt>
<rscale>  0 0.25622883E+03</rscale>
<asrwt>0</asrwt>
<pdfrwt beam="1">  1        2 0.16466903E+00 0.25622883E+03</pdfrwt>
<pdfrwt beam="2">  1       -2 0.23591599E-02 0.25622883E+03</pdfrwt>
<totfact> 0.14334072E+04</totfact>
</mgrwt>
</event>
<event>
 6    1  0.5258538E-006  0.1387715E+03  0.7546771E-02  0.1226202E+00
         -1   -1    0    0    0  501 -0.00000000000E+00  0.00000000000E+00  0.26902584817E+03  0.26902584817E+03  0.00000000000E+00 0.  1.
          1   -1    0    0  501    0  0.00000000000E+00 -0.00000000000E+00 -0.59726826854E+02  0.59726826854E+02  0.00000000000E+00 0. -1.
          5    1    1    2  502    0 -0.53563062146E+02  0.61124725709E+02  0.79060614926E+02  0.11348085544E+03  0.47000000000E+01 0.  1.
         -5    1    1    2    0  502  0.48227609208E+02 -0.10797639452E+01  0.49047100526E+01  0.48715648007E+02  0.47000000000E+01 0.  1.
        -11    1    1    2    0    0  0.25053446259E+02 -0.59758046955E+01 -0.29785459762E+01  0.25927922156E+02  0.00000000000E+00 0. -1.
         11    1    1    2    0    0 -0.19717993321E+02 -0.54069157068E+02  0.12831224231E+03  0.14062824942E+03  0.00000000000E+00 0.  1.
<mgrwt>
<rscale>  0 0.13084868E+03</rscale>
<asrwt>0</asrwt>
<pdfrwt beam="2">  1        1 0.91887427E-02 0.13877150E+03</pdfrwt>
<pdfrwt beam="1">  1       -1 0.41388591E-01 0.13877150E+03</pdfrwt>
<totfact> 0.40105250E+03</totfact>
</mgrwt>
</event>
<event>
 6    1  0.5258538E-006  0.1299826E+03  0.7546771E-02  0.1241347E+00
         -2   -1    0    0    0  501 -0.00000000000E+00  0.00000000000E+00  0.76015636506E+03  0.76015636506E+03  0.00000000000E+00 0.  1.
          2   -1    0    0  501    0  0.00000000000E+00 -0.00000000000E+00 -0.17260457670E+02  0.17260457670E+02  0.00000000000E+00 0. -1.
          5    1    1    2  502    0 -0.37033290422E+02  0.75334124691E+01  0.34163069504E+03  0.34374676536E+03  0.47000000000E+01 0. -1.
         -5    1    1    2    0  502  0.20394072321E+02 -0.39036479939E+02  0.40987850332E+02  0.60347815426E+02  0.47000000000E+01 0. -1.
        -11    1    1    2    0    0  0.50890055896E+02  0.19929905068E+02  0.14358784266E+03  0.15363745463E+03  0.00000000000E+00 0. -1.
         11    1    1    2    0    0 -0.34250837795E+02  0.11573162402E+02  0.21668951936E+03  0.21968478732E+03  0.00000000000E+00 0.  1.
<mgrwt>
<rscale>  0 0.12106716E+03</rscale>
<asrwt>0</asrwt>
<pdfrwt beam="2">  1        2 0.26554556E-02 0.12998261E+03</pdfrwt>
<pdfrwt beam="1">  1       -2 0.11694711E+00 0.12998261E+03</pdfrwt>
<totfact> 0.20894796E+03</totfact>
</mgrwt>
</event>
<event>
 6    1  0.5258538E-006  0.1392141E+03  0.7546771E-02  0.1228002E+00
         -2   -1    0    0    0  501 -0.00000000000E+00  0.00000000000E+00  0.94230730290E+02  0.94230730290E+02  0.00000000000E+00 0.  1.
          2   -1    0    0  501    0  0.00000000000E+00 -0.00000000000E+00 -0.16972497029E+03  0.16972497029E+03  0.00000000000E+00 0. -1.
          5    1    1    2  502    0  0.31459724295E+02 -0.24277570792E+02 -0.57523502228E+02  0.70072519612E+02  0.47000000000E+01 0. -1.
         -5    1    1    2    0  502 -0.20050953288E+02  0.84489200692E+02 -0.19854913957E+02  0.89200747584E+02  0.47000000000E+01 0. -1.
        -11    1    1    2    0    0  0.62147099371E+01 -0.53286721535E+02  0.36735117116E+02  0.65019736550E+02  0.00000000000E+00 0.  1.
         11    1    1    2    0    0 -0.17623480943E+02 -0.69249083646E+01 -0.34850940935E+02  0.39662696838E+02  0.00000000000E+00 0. -1.
<mgrwt>
<rscale>  0 0.12963229E+03</rscale>
<asrwt>0</asrwt>
<pdfrwt beam="2">  1        2 0.26111533E-01 0.13921406E+03</pdfrwt>
<pdfrwt beam="1">  1       -2 0.14497036E-01 0.13921406E+03</pdfrwt>
<totfact> 0.70517570E+03</totfact>
</mgrwt>
</event>
<event>
 6    1  0.5258538E-006  0.1781707E+03  0.7546771E-02  0.1173592E+00
         -1   -1    0    0    0  501 -0.00000000000E+00  0.00000000000E+00  0.44449551476E+03  0.44449551476E+03  0.00000000000E+00 0.  1.
          1   -1    0    0  501    0  0.00000000000E+00 -0.00000000000E+00 -0.93878644661E+02  0.93878644661E+02  0.00000000000E+00 0. -1.
          5    1    1    2  502    0  0.64570912636E+02 -0.65071168781E+02 -0.34792227892E+02  0.98164397247E+02  0.47000000000E+01 0. -1.
         -5    1    1    2    0  502 -0.64783293698E+01 -0.47825202232E+02  0.67297197785E+02  0.82947100912E+02  0.47000000000E+01 0. -1.
        -11    1    1    2    0    0 -0.75931974684E+02  0.51949833266E+02  0.23712171886E+03  0.25434456847E+03  0.00000000000E+00 0.  1.
         11    1    1    2    0    0  0.17839391418E+02  0.60946537746E+02  0.80990181348E+02  0.10291809279E+03  0.00000000000E+00 0. -1.
<mgrwt>
<rscale>  0 0.17414574E+03</rscale>
<asrwt>0</asrwt>
<pdfrwt beam="2">  1        1 0.14442869E-01 0.17817071E+03</pdfrwt>
<pdfrwt beam="1">  1       -1 0.68383924E-01 0.17817071E+03</pdfrwt>
<totfact> 0.87558903E+02</totfact>
</mgrwt>
</event>
<event>
 6    1  0.5258538E-006  0.1337706E+03  0.7546771E-02  0.1229636E+00
          4   -1    0    0  501    0  0.00000000000E+00  0.00000000000E+00  0.82006544610E+02  0.82006544610E+02  0.00000000000E+00 0. -1.
         -4   -1    0    0    0  501 -0.00000000000E+00 -0.00000000000E+00 -0.25213609338E+03  0.25213609338E+03  0.00000000000E+00 0.  1.
          5    1    1    2  502    0 -0.36348709016E+02  0.16674283245E+02 -0.58602699284E+02  0.71102930546E+02  0.47000000000E+01 0.  1.
         -5    1    1    2    0  502 -0.87519888670E+01 -0.32017275206E+02  0.53082236976E+02  0.62781502874E+02  0.47000000000E+01 0.  1.
        -11    1    1    2    0    0 -0.27289302883E+02  0.16717699268E+02 -0.93297321756E+02  0.98633552950E+02  0.00000000000E+00 0.  1.
         11    1    1    2    0    0  0.72390000767E+02 -0.13747073071E+01 -0.71311764704E+02  0.10162465162E+03  0.00000000000E+00 0. -1.
<mgrwt>
<rscale>  0 0.12854151E+03</rscale>
<asrwt>0</asrwt>
<pdfrwt beam="1">  1        4 0.12616392E-01 0.13377057E+03</pdfrwt>
<pdfrwt beam="2">  1       -4 0.38790168E-01 0.13377057E+03</pdfrwt>
<totfact> 0.54466714E+02</totfact>
</mgrwt>
</event>
<event>
 6    1  0.5258538E-006  0.1720595E+03  0.7546771E-02  0.1182234E+00
          4   -1    0    0  501    0  0.00000000000E+00  0.00000000000E+00  0.14161793990E+03  0.14161793990E+03  0.00000000000E+00 0. -1.
         -4   -1    0    0    0  501 -0.00000000000E+00 -0.00000000000E+00 -0.28913621247E+03  0.28913621247E+03  0.00000000000E+00 0.  1.
          5    1    1    2  502    0 -0.94515754403E+02 -0.39165746313E+01  0.21539272994E+01  0.94738042993E+02  0.47000000000E+01 0. -1.
         -5    1    1    2    0  502  0.57361512396E+00 -0.67925250311E+02  0.51892860414E+02  0.85610324296E+02  0.47000000000E+01 0. -1.
        -11    1    1    2    0    0  0.85143010350E+02  0.61879069779E+02 -0.20983341507E+03  0.23475181270E+03  0.00000000000E+00 0.  1.
         11    1    1    2    0    0  0.87991289297E+01  0.99627551633E+01  0.82683547813E+01  0.15653972376E+02  0.00000000000E+00 0. -1.
<mgrwt>
<rscale>  0 0.16586150E+03</rscale>
<asrwt>0</asrwt>
<pdfrwt beam="1">  1        4 0.21787376E-01 0.17205952E+03</pdfrwt>
<pdfrwt beam="2">  1       -4 0.44482494E-01 0.17205952E+03</pdfrwt>
<totfact> 0.16505624E+02</totfact>
</mgrwt>
</event>
<event>
 6    1  0.5258538E-006  0.1312466E+03  0.7546771E-02  0.1239940E+00
         -1   -1    0    0    0  501 -0.00000000000E+00  0.00000000000E+00  0.25641376032E+03  0.25641376032E+03  0.00000000000E+00 0.  1.
          1   -1    0    0  501    0  0.00000000000E+00 -0.00000000000E+00 -0.55563177535E+02  0.55563177535E+02  0.00000000000E+00 0. -1.
          5    1    1    2  502    0  0.58850537613E+02 -0.12061384464E+02  0.51545946226E+02  0.79296515339E+02  0.47000000000E+01 0.  1.
         -5    1    1    2    0  502 -0.44890090582E+02  0.49554671994E+02  0.18809330694E+02  0.69618005358E+02  0.47000000000E+01 0.  1.
        -11    1    1    2    0    0  0.19202095504E+02  0.98735027131E+00  0.10401292389E+03  0.10577515620E+03  0.00000000000E+00 0.  1.
         11    1    1    2    0    0 -0.33162542534E+02 -0.38480637802E+02  0.26482381967E+02  0.57287260954E+02  0.00000000000E+00 0. -1.
<mgrwt>
<rscale>  0 0.12193409E+03</rscale>
<asrwt>0</asrwt>
<pdfrwt beam="2">  1        1 0.85481813E-02 0.13124660E+03</pdfrwt>
<pdfrwt beam="1">  1       -1 0.39448270E-01 0.13124660E+03</pdfrwt>
<totfact> 0.47881843E+03</totfact>
</mgrwt>
</event>
<event>
 6    1  0.5258538E-006  0.1370122E+03  0.7546771E-02  0.1229589E+00
          1   -1    0    0  501    0  0.00000000000E+00  0.00000000000E+00  0.14440677772E+04  0.14440677772E+04  0.00000000000E+00 0. -1.
         -1   -1    0    0    0  501 -0.00000000000E+00 -0.00000000000E+00 -0.10335437145E+02  0.10335437145E+02  0.00000000000E+00 0.  1.
          5    1    1    2  502    0  0.27913366839E+02  0.54112663652E+02  0.20996589421E+03  0.21866664846E+03  0.47000000000E+01 0. -1.
         -5    1    1    2    0  502  0.27141373780E+02 -0.43142272020E+02  0.66442122886E+03  0.66638995278E+03  0.47000000000E+01 0. -1.
        -11    1    1    2    0    0 -0.54606635576E+02 -0.45871703897E+02  0.38144203607E+03  0.38805170371E+03  0.00000000000E+00 0. -1.
         11    1    1    2    0    0 -0.44810504207E+00  0.34901312264E+02  0.17790318090E+03  0.18129490939E+03  0.00000000000E+00 0.  1.
<mgrwt>
<rscale>  0 0.12857276E+03</rscale>
<asrwt>0</asrwt>
<pdfrwt beam="1">  1        1 0.22216411E+00 0.13701221E+03</pdfrwt>
<pdfrwt beam="2">  1       -1 0.15900684E-02 0.13701221E+03</pdfrwt>
<totfact> 0.73056652E+03</totfact>
</mgrwt>
</event>
<event>
 6    1  0.5258538E-006  0.1256171E+03  0.7546771E-02  0.1250338E+00
         -2   -1    0    0    0  501 -0.00000000000E+00  0.00000000000E+00  0.10437805987E+02  0.10437805987E+02  0.00000000000E+00 0.  1.
          2   -1    0    0  501    0  0.00000000000E+00 -0.00000000000E+00 -0.11948841600E+04  0.11948841600E+04  0.00000000000E+00 0. -1.
          5    1    1    2  502    0 -0.54054819785E+02 -0.10891530802E+02 -0.47706336681E+03  0.48026252710E+03  0.47000000000E+01 0.  1.
         -5    1    1    2    0  502  0.64112592784E+02  0.18285530115E+02 -0.35615246018E+03  0.36236921787E+03  0.47000000000E+01 0.  1.
        -11    1    1    2    0    0 -0.10097175909E+02  0.40740438042E+02 -0.17944185789E+03  0.18428542161E+03  0.00000000000E+00 0.  1.
         11    1    1    2    0    0  0.39402910544E-01 -0.48134437355E+02 -0.17178866918E+03  0.17840479946E+03  0.00000000000E+00 0. -1.
<mgrwt>
<rscale>  0 0.11571491E+03</rscale>
<asrwt>0</asrwt>
<pdfrwt beam="2">  1        2 0.18382823E+00 0.12561705E+03</pdfrwt>
<pdfrwt beam="1">  1       -2 0.16058172E-02 0.12561705E+03</pdfrwt>
<totfact> 0.20459913E+04</totfact>
</mgrwt>
</event>
<event>
 6    1  0.5258538E-006  0.2687295E+03  0.7546771E-02  0.1102009E+00
          1   -1    0    0  501    0  0.00000000000E+00  0.00000000000E+00  0.15806289846E+03  0.15806289846E+03  0.00000000000E+00 0. -1.
         -1   -1    0    0    0  501 -0.00000000000E+00 -0.00000000000E+00 -0.11421961108E+03  0.11421961108E+03  0.00000000000E+00 0.  1.
          5    1    1    2  502    0 -0.29051009078E+02 -0.23140419870E+00  0.72674345686E+02  0.78407048135E+02  0.47000000000E+01 0. -1.
         -5    1    1    2    0  502  0.73013014810E+02 -0.10840195022E+02  0.17714541784E+01  0.73984040236E+02  0.47000000000E+01 0. -1.
        -11    1    1    2    0    0 -0.45553936712E+02 -0.41010034941E+02 -0.40959801656E+01  0.61430946349E+02  0.00000000000E+00 0.  1.
         11    1    1    2    0    0  0.15919309802E+01  0.52081634162E+02 -0.26506532310E+02  0.58460474822E+02  0.00000000000E+00 0. -1.
<mgrwt>
<rscale>  0 0.26872948E+03</rscale>
<asrwt>0</asrwt>
<pdfrwt beam="1">  1        1 0.24317369E-01 0.26872948E+03</pdfrwt>
<pdfrwt beam="2">  1       -1 0.17572248E-01 0.26872948E+03</pdfrwt>
<totfact> 0.48980376E+03</totfact>
</mgrwt>
</event>
<event>
 6    1  0.5258538E-006  0.1255232E+03  0.7546771E-02  0.1249803E+00
         -2   -1    0    0    0  501 -0.00000000000E+00  0.00000000000E+00  0.27070513541E+02  0.27070513541E+02  0.00000000000E+00 0. -1.
          2   -1    0    0  501    0  0.00000000000E+00 -0.00000000000E+00 -0.56209226815E+03  0.56209226815E+03  0.00000000000E+00 0.  1.
          5    1    1    2  502    0  0.28311865453E+02 -0.73764122205E+00 -0.15762805210E+02  0.32751517034E+02  0.47000000000E+01 0. -1.
         -5    1    1    2    0  502 -0.21093953994E+02 -0.80782691718E+01 -0.42258474647E+03  0.42321409626E+03  0.47000000000E+01 0. -1.
        -11    1    1    2    0    0 -0.96417384064E+01 -0.40119139603E+02 -0.32881971767E+02  0.52761089349E+02  0.00000000000E+00 0.  1.
         11    1    1    2    0    0  0.24238269478E+01  0.48935049997E+02 -0.63792231169E+02  0.80436079049E+02  0.00000000000E+00 0. -1.
<mgrwt>
<rscale>  0 0.11602438E+03</rscale>
<asrwt>0</asrwt>
<pdfrwt beam="2">  1        2 0.86475732E-01 0.12552316E+03</pdfrwt>
<pdfrwt beam="1">  1       -2 0.41646945E-02 0.12552316E+03</pdfrwt>
<totfact> 0.13283675E+04</totfact>
</mgrwt>
</event>
<event>
 6    1  0.5258538E-006  0.1415920E+03  0.7546771E-02  0.1222098E+00
         -2   -1    0    0    0  501 -0.00000000000E+00  0.00000000000E+00  0.21514322502E+02  0.21514322502E+02  0.00000000000E+00 0.  1.
          2   -1    0    0  501    0  0.00000000000E+00 -0.00000000000E+00 -0.92308842310E+03  0.92308842310E+03  0.00000000000E+00 0. -1.
          5    1    1    2  502    0  0.46750541960E+02  0.87928417104E+02 -0.53215340793E+03  0.54141145100E+03  0.47000000000E+01 0. -1.
         -5    1    1    2    0  502 -0.16634291802E+00 -0.40509507228E+02 -0.16390772323E+03  0.16890494244E+03  0.47000000000E+01 0. -1.
        -11    1    1    2    0    0 -0.49145452287E+02 -0.12384164967E+02 -0.38573848425E+02  0.63691324407E+02  0.00000000000E+00 0.  1.
         11    1    1    2    0    0  0.25612532451E+01 -0.35034744908E+02 -0.16693912102E+03  0.17059502775E+03  0.00000000000E+00 0. -1.
<mgrwt>
<rscale>  0 0.13367790E+03</rscale>
<asrwt>0</asrwt>
<pdfrwt beam="2">  1        2 0.14201361E+00 0.14159195E+03</pdfrwt>
<pdfrwt beam="1">  1       -2 0.33098957E-02 0.14159195E+03</pdfrwt>
<totfact> 0.10350224E+04</totfact>
</mgrwt>
</event>
<event>
 6    1  0.5258538E-006  0.1317944E+03  0.7546771E-02  0.1238142E+00
          3   -1    0    0  501    0  0.00000000000E+00  0.00000000000E+00  0.86405480109E+02  0.86405480109E+02  0.00000000000E+00 0. -1.
         -3   -1    0    0    0  501 -0.00000000000E+00 -0.00000000000E+00 -0.15585250230E+03  0.15585250230E+03  0.00000000000E+00 0.  1.
          5    1    1    2  502    0 -0.45782542509E+02  0.22608537483E+02 -0.38645970129E+02  0.64208941534E+02  0.47000000000E+01 0. -1.
         -5    1    1    2    0  502  0.73818045372E+02  0.83499870634E+01 -0.49212510184E+01  0.74599831220E+02  0.47000000000E+01 0. -1.
        -11    1    1    2    0    0  0.20294693545E+02 -0.45382581968E+02 -0.12140648984E+02  0.51174687981E+02  0.00000000000E+00 0.  1.
         11    1    1    2    0    0 -0.48330196409E+02  0.14424057421E+02 -0.13739152064E+02  0.52274521679E+02  0.00000000000E+00 0. -1.
<mgrwt>
<rscale>  0 0.12305410E+03</rscale>
<asrwt>0</asrwt>
<pdfrwt beam="1">  1        3 0.13293151E-01 0.13179443E+03</pdfrwt>
<pdfrwt beam="2">  1       -3 0.23977308E-01 0.13179443E+03</pdfrwt>
<totfact> 0.16906967E+03</totfact>
</mgrwt>
</event>
<event>
 6    1  0.5258538E-006  0.1298142E+03  0.7546771E-02  0.1241556E+00
         -2   -1    0    0    0  501 -0.00000000000E+00  0.00000000000E+00  0.37707356060E+02  0.37707356060E+02  0.00000000000E+00 0. -1.
          2   -1    0    0  501    0  0.00000000000E+00 -0.00000000000E+00 -0.36749301506E+03  0.36749301506E+03  0.00000000000E+00 0.  1.
          5    1    1    2  502    0 -0.13780984626E+02 -0.22618156785E+02  0.13486405193E+01  0.26933350791E+02  0.47000000000E+01 0. -1.
         -5    1    1    2    0  502  0.46823407303E+02  0.10971662834E+02 -0.23925175358E+03  0.24408256892E+03  0.47000000000E+01 0. -1.
        -11    1    1    2    0    0 -0.49194207351E+02  0.81623068760E+01 -0.10266498729E+02  0.50912614218E+02  0.00000000000E+00 0. -1.
         11    1    1    2    0    0  0.16151784673E+02  0.34841870745E+01 -0.81616047202E+02  0.83271837188E+02  0.00000000000E+00 0.  1.
<mgrwt>
<rscale>  0 0.12093901E+03</rscale>
<asrwt>0</asrwt>
<pdfrwt beam="2">  1        2 0.56537386E-01 0.12981424E+03</pdfrwt>
<pdfrwt beam="1">  1       -2 0.58011318E-02 0.12981424E+03</pdfrwt>
<totfact> 0.12848389E+04</totfact>
</mgrwt>
</event>
<event>
 6    1  0.5258538E-006  0.2327138E+03  0.7546771E-02  0.1124744E+00
         -1   -1    0    0    0  501 -0.00000000000E+00  0.00000000000E+00  0.23313074999E+02  0.23313074999E+02  0.00000000000E+00 0.  1.
          1   -1    0    0  501    0  0.00000000000E+00 -0.00000000000E+00 -0.58074407739E+03  0.58074407739E+03  0.00000000000E+00 0. -1.
          5    1    1    2  502    0  0.85050844806E+01 -0.14669698424E+02 -0.28025500208E+03  0.28080686015E+03  0.47000000000E+01 0. -1.
         -5    1    1    2    0  502 -0.48578231480E+02  0.46227728358E+01 -0.33309657682E+02  0.59269198555E+02  0.47000000000E+01 0. -1.
        -11    1    1    2    0    0  0.27755707872E+02 -0.40463307697E+02 -0.12044802598E+03  0.13005916174E+03  0.00000000000E+00 0.  1.
         11    1    1    2    0    0  0.12317439128E+02  0.50510233285E+02 -0.12341831665E+03  0.13392193195E+03  0.00000000000E+00 0. -1.
<mgrwt>
<rscale>  0 0.23271382E+03</rscale>
<asrwt>0</asrwt>
<pdfrwt beam="2">  1        1 0.89345245E-01 0.23271382E+03</pdfrwt>
<pdfrwt beam="1">  1       -1 0.35866268E-02 0.23271382E+03</pdfrwt>
<totfact> 0.10513060E+04</totfact>
</mgrwt>
</event>
<event>
 6    1  0.5258538E-006  0.1405749E+03  0.7546771E-02  0.1223034E+00
          2   -1    0    0  501    0  0.00000000000E+00  0.00000000000E+00  0.18184856540E+03  0.18184856540E+03  0.00000000000E+00 0. -1.
         -2   -1    0    0    0  501 -0.00000000000E+00 -0.00000000000E+00 -0.15442215263E+03  0.15442215263E+03  0.00000000000E+00 0.  1.
          5    1    1    2  502    0 -0.81594401081E+02 -0.21170536219E+01  0.29539529493E+02  0.86929868322E+02  0.47000000000E+01 0. -1.
         -5    1    1    2    0  502  0.23100126464E+02 -0.24683651729E+02  0.94753564590E+02  0.10071358651E+03  0.47000000000E+01 0. -1.
        -11    1    1    2    0    0  0.47343318017E+02  0.13146906316E+01 -0.10856717826E+03  0.11844809144E+03  0.00000000000E+00 0.  1.
         11    1    1    2    0    0  0.11150956600E+02  0.25486014719E+02  0.11700496946E+02  0.30179171760E+02  0.00000000000E+00 0. -1.
<mgrwt>
<rscale>  0 0.13302576E+03</rscale>
<asrwt>0</asrwt>
<pdfrwt beam="1">  1        2 0.27976703E-01 0.14057487E+03</pdfrwt>
<pdfrwt beam="2">  1       -2 0.23757254E-01 0.14057487E+03</pdfrwt>
<totfact> 0.28555306E+03</totfact>
</mgrwt>
</event>
<event>
 6    1  0.5258538E-006  0.3942346E+03  0.7546771E-02  0.1045795E+00
          1   -1    0    0  501    0  0.00000000000E+00  0.00000000000E+00  0.74045514570E+02  0.74045514570E+02  0.00000000000E+00 0. -1.
         -1   -1    0    0    0  501 -0.00000000000E+00 -0.00000000000E+00 -0.52474784448E+03  0.52474784448E+03  0.00000000000E+00 0.  1.
          5    1    1    2  502    0  0.72775697331E+02  0.14924088664E+03 -0.93214113500E+02  0.19047337169E+03  0.47000000000E+01 0.  1.
         -5    1    1    2    0  502 -0.11909512958E+02 -0.19914059157E+02 -0.16062241909E+02  0.28609296848E+02  0.47000000000E+01 0.  1.
        -11    1    1    2    0    0 -0.66943416211E+02 -0.53072152846E+02 -0.22217530134E+03  0.23803348274E+03  0.00000000000E+00 0.  1.
         11    1    1    2    0    0  0.60772318391E+01 -0.76254674639E+02 -0.11925067316E+03  0.14167720776E+03  0.00000000000E+00 0. -1.
<mgrwt>
<rscale>  0 0.39423457E+03</rscale>
<asrwt>0</asrwt>
<pdfrwt beam="1">  1        1 0.11391618E-01 0.39423457E+03</pdfrwt>
<pdfrwt beam="2">  1       -1 0.80730435E-01 0.39423457E+03</pdfrwt>
<totfact> 0.86385376E+02</totfact>
</mgrwt>
</event>
<event>
 6    1  0.5258538E-006  0.1887617E+03  0.7546771E-02  0.1172400E+00
         -2   -1    0    0    0  501 -0.00000000000E+00  0.00000000000E+00  0.25817146382E+03  0.25817146382E+03  0.00000000000E+00 0.  1.
          2   -1    0    0  501    0  0.00000000000E+00 -0.00000000000E+00 -0.13986226853E+03  0.13986226853E+03  0.00000000000E+00 0. -1.
          5    1    1    2  502    0 -0.39095153156E+02 -0.83002952207E+02 -0.72470872511E+02  0.11701298406E+03  0.47000000000E+01 0. -1.
         -5    1    1    2    0  502  0.59780491950E+02 -0.20106857955E+02  0.39555547305E+02  0.74597079549E+02  0.47000000000E+01 0.  1.
        -11    1    1    2    0    0  0.28391932532E+02  0.29509270601E+01  0.24617126357E+02  0.37693669409E+02  0.00000000000E+00 0. -1.
         11    1    1    2    0    0 -0.49077271327E+02  0.10015888310E+03  0.12660739414E+03  0.16872999934E+03  0.00000000000E+00 0.  1.
<mgrwt>
<rscale>  0 0.17533114E+03</rscale>
<asrwt>0</asrwt>
<pdfrwt beam="2">  1        2 0.21517272E-01 0.18876175E+03</pdfrwt>
<pdfrwt beam="1">  1       -2 0.39718687E-01 0.18876175E+03</pdfrwt>
<totfact> 0.15227383E+03</totfact>
</mgrwt>
</event>
<event>
 6    1  0.5258538E-006  0.3017288E+03  0.7546771E-02  0.1122451E+00
         -2   -1    0    0    0  501 -0.00000000000E+00  0.00000000000E+00  0.34973488922E+02  0.34973488922E+02  0.00000000000E+00 0.  1.
          2   -1    0    0  501    0  0.00000000000E+00 -0.00000000000E+00 -0.17376348379E+04  0.17376348379E+04  0.00000000000E+00 0. -1.
          5    1    1    2  502    0  0.10451262290E+03  0.13801794869E+03 -0.10189708424E+04  0.10335838187E+04  0.47000000000E+01 0. -1.
         -5    1    1    2    0  502 -0.41012955962E+02 -0.11848682673E+03 -0.54918016200E+03  0.56333127998E+03  0.47000000000E+01 0.  1.
        -11    1    1    2    0    0 -0.81099118486E+02 -0.19797053473E+02 -0.70374339445E+02  0.10918579577E+03  0.00000000000E+00 0.  1.
         11    1    1    2    0    0  0.17599451545E+02  0.26593151084E+00 -0.64136005118E+02  0.66507432417E+02  0.00000000000E+00 0. -1.
<mgrwt>
<rscale>  0 0.23605217E+03</rscale>
<asrwt>0</asrwt>
<pdfrwt beam="2">  1        2 0.26732835E+00 0.30172878E+03</pdfrwt>
<pdfrwt beam="1">  1       -2 0.53805384E-02 0.30172878E+03</pdfrwt>
<totfact> 0.17833255E+03</totfact>
</mgrwt>
</event>
<event>
 6    1  0.5258538E-006  0.1401265E+03  0.7546771E-02  0.1224760E+00
         -4   -1    0    0    0  501 -0.00000000000E+00  0.00000000000E+00  0.54302956164E+03  0.54302956164E+03  0.00000000000E+00 0.  1.
          4   -1    0    0  501    0  0.00000000000E+00 -0.00000000000E+00 -0.59005648394E+02  0.59005648394E+02  0.00000000000E+00 0. -1.
          5    1    1    2  502    0 -0.38922332744E+02 -0.32206839625E+02 -0.21748969954E+02  0.55202682896E+02  0.47000000000E+01 0.  1.
         -5    1    1    2    0  502  0.58855834374E+02 -0.27901392236E+02  0.63316690175E+02  0.90959277610E+02  0.47000000000E+01 0.  1.
        -11    1    1    2    0    0 -0.17321072235E+01  0.79333660740E+02  0.37709697169E+03  0.38535562274E+03  0.00000000000E+00 0.  1.
         11    1    1    2    0    0 -0.18201394407E+02 -0.19225428879E+02  0.65359221334E+02  0.70517626785E+02  0.00000000000E+00 0. -1.
<mgrwt>
<rscale>  0 0.13183383E+03</rscale>
<asrwt>0</asrwt>
<pdfrwt beam="2">  1        4 0.90777924E-02 0.14012653E+03</pdfrwt>
<pdfrwt beam="1">  1       -4 0.83543006E-01 0.14012653E+03</pdfrwt>
<totfact> 0.19368447E+02</totfact>
</mgrwt>
</event>
<event>
 6    1  0.5258538E-006  0.2489983E+03  0.7546771E-02  0.1113940E+00
         -2   -1    0    0    0  501 -0.00000000000E+00  0.00000000000E+00  0.29186755853E+02  0.29186755853E+02  0.00000000000E+00 0.  1.
          2   -1    0    0  501    0  0.00000000000E+00 -0.00000000000E+00 -0.53106397319E+03  0.53106397319E+03  0.00000000000E+00 0. -1.
          5    1    1    2  502    0  0.12974552076E+02 -0.64223266757E+02 -0.29216534821E+03  0.29945892488E+03  0.47000000000E+01 0. -1.
         -5    1    1    2    0  502 -0.85258027719E+01 -0.25287907314E+01  0.99247071683E+01  0.14130601822E+02  0.47000000000E+01 0.  1.
        -11    1    1    2    0    0  0.37892261506E+02  0.12311133140E+02 -0.52912520091E+02  0.66235355088E+02  0.00000000000E+00 0. -1.
         11    1    1    2    0    0 -0.42341010810E+02  0.54440924349E+02 -0.16672405620E+03  0.18042584725E+03  0.00000000000E+00 0.  1.
<mgrwt>
<rscale>  0 0.24899827E+03</rscale>
<asrwt>0</asrwt>
<pdfrwt beam="2">  1        2 0.81702149E-01 0.24899827E+03</pdfrwt>
<pdfrwt beam="1">  1       -2 0.44902702E-02 0.24899827E+03</pdfrwt>
<totfact> 0.13252476E+04</totfact>
</mgrwt>
</event>
<event>
 6    1  0.5258538E-006  0.1294490E+03  0.7546771E-02  0.1242207E+00
          2   -1    0    0  501    0  0.00000000000E+00  0.00000000000E+00  0.25594501040E+03  0.25594501040E+03  0.00000000000E+00 0. -1.
         -2   -1    0    0    0  501 -0.00000000000E+00 -0.00000000000E+00 -0.54041185280E+02  0.54041185280E+02  0.00000000000E+00 0.  1.
          5    1    1    2  502    0  0.34749646505E+02 -0.42623470597E+01 -0.28465857502E+02  0.45366293413E+02  0.47000000000E+01 0.  1.
         -5    1    1    2    0  502 -0.34286561100E+01  0.16764907550E+02  0.10195594720E+03  0.10348875773E+03  0.47000000000E+01 0.  1.
        -11    1    1    2    0    0  0.21316204250E+02 -0.32629912168E+02  0.36988726106E+02  0.53733207523E+02  0.00000000000E+00 0.  1.
         11    1    1    2    0    0 -0.52637194645E+02  0.20127351678E+02  0.91425009319E+02  0.10739793701E+03  0.00000000000E+00 0. -1.
<mgrwt>
<rscale>  0 0.12054127E+03</rscale>
<asrwt>0</asrwt>
<pdfrwt beam="1">  1        2 0.39376155E-01 0.12944896E+03</pdfrwt>
<pdfrwt beam="2">  1       -2 0.83140286E-02 0.12944896E+03</pdfrwt>
<totfact> 0.10871192E+04</totfact>
</mgrwt>
</event>
<event>
 6    1  0.5481774E-006  0.4210393E+03  0.7546771E-02  0.1037427E+00
         -2   -1    0    0    0  501 -0.00000000000E+00  0.00000000000E+00  0.31956857944E+03  0.31956857944E+03  0.00000000000E+00 0. -1.
          2   -1    0    0  501    0  0.00000000000E+00 -0.00000000000E+00 -0.59783698061E+03  0.59783698061E+03  0.00000000000E+00 0.  1.
          5    1    1    2  502    0 -0.24355747974E+03 -0.15524333132E+02 -0.16699113031E+03  0.29575222477E+03  0.47000000000E+01 0.  1.
         -5    1    1    2    0  502 -0.15125404386E+03  0.91505883186E+02 -0.11163179907E+03  0.20912881438E+03  0.47000000000E+01 0.  1.
        -11    1    1    2    0    0  0.16403864599E+03  0.56737105728E+01 -0.26501993170E+02  0.16626251535E+03  0.00000000000E+00 0. -1.
         11    1    1    2    0    0  0.23077287762E+03 -0.81655260627E+02  0.26856521378E+02  0.24626200554E+03  0.00000000000E+00 0.  1.
<mgrwt>
<rscale>  0 0.41889426E+03</rscale>
<asrwt>0</asrwt>
<pdfrwt beam="2">  1        2 0.91974919E-01 0.42103934E+03</pdfrwt>
<pdfrwt beam="1">  1       -2 0.49164397E-01 0.42103934E+03</pdfrwt>
<totfact> 0.20063806E+02</totfact>
</mgrwt>
</event>
<event>
 6    1  0.5258538E-006  0.1569297E+03  0.7546771E-02  0.1200413E+00
          4   -1    0    0  501    0  0.00000000000E+00  0.00000000000E+00  0.34941639544E+03  0.34941639544E+03  0.00000000000E+00 0.  1.
         -4   -1    0    0    0  501 -0.00000000000E+00 -0.00000000000E+00 -0.67426268241E+02  0.67426268241E+02  0.00000000000E+00 0. -1.
          5    1    1    2  502    0 -0.40113642658E+01 -0.36897234478E+02  0.58315625434E+02  0.69284191019E+02  0.47000000000E+01 0.  1.
         -5    1    1    2    0  502 -0.69356559607E+02  0.97058367560E+02  0.16551487829E+03  0.20407823012E+03  0.47000000000E+01 0.  1.
        -11    1    1    2    0    0  0.69495696888E+02 -0.42599458762E+02  0.80660666670E+02  0.11467566839E+03  0.00000000000E+00 0. -1.
         11    1    1    2    0    0  0.38722269849E+01 -0.17561674320E+02 -0.22501043200E+02  0.28804574148E+02  0.00000000000E+00 0.  1.
<mgrwt>
<rscale>  0 0.15004882E+03</rscale>
<asrwt>0</asrwt>
<pdfrwt beam="1">  1        4 0.53756367E-01 0.15692966E+03</pdfrwt>
<pdfrwt beam="2">  1       -4 0.10373272E-01 0.15692966E+03</pdfrwt>
<totfact> 0.40661887E+02</totfact>
</mgrwt>
</event>
<event>
 6    1  0.5258538E-006  0.2877886E+03  0.7546771E-02  0.1091509E+00
         -2   -1    0    0    0  501 -0.00000000000E+00  0.00000000000E+00  0.11661862272E+02  0.11661862272E+02  0.00000000000E+00 0.  1.
          2   -1    0    0  501    0  0.00000000000E+00 -0.00000000000E+00 -0.17754945361E+04  0.17754945361E+04  0.00000000000E+00 0. -1.
          5    1    1    2  502    0  0.14919738061E+02 -0.14242694844E+02 -0.39688353341E+02  0.44974529805E+02  0.47000000000E+01 0. -1.
         -5    1    1    2    0  502  0.24796693255E+02  0.42601200393E+02 -0.14218230997E+04  0.14226850513E+04  0.47000000000E+01 0. -1.
        -11    1    1    2    0    0 -0.54277294301E+01 -0.43971788297E+02 -0.25591554698E+03  0.25972243953E+03  0.00000000000E+00 0. -1.
         11    1    1    2    0    0 -0.34288701886E+02  0.15613282747E+02 -0.46405673809E+02  0.59774377763E+02  0.00000000000E+00 0.  1.
<mgrwt>
<rscale>  0 0.28778862E+03</rscale>
<asrwt>0</asrwt>
<pdfrwt beam="2">  1        2 0.27315280E+00 0.28778862E+03</pdfrwt>
<pdfrwt beam="1">  1       -2 0.17941340E-02 0.28778862E+03</pdfrwt>
<totfact> 0.88504358E+03</totfact>
</mgrwt>
</event>
<event>
 6    1  0.5258538E-006  0.1303094E+03  0.7546771E-02  0.1243158E+00
         -2   -1    0    0    0  501 -0.00000000000E+00  0.00000000000E+00  0.58957301763E+02  0.58957301763E+02  0.00000000000E+00 0.  1.
          2   -1    0    0  501    0  0.00000000000E+00 -0.00000000000E+00 -0.13394430005E+04  0.13394430005E+04  0.00000000000E+00 0. -1.
          5    1    1    2  502    0 -0.49314811691E+02 -0.27985925616E+01 -0.12224743164E+04  0.12234808241E+04  0.47000000000E+01 0. -1.
         -5    1    1    2    0  502  0.23155280513E+02  0.17145621907E+02 -0.74378654769E+02  0.79902525939E+02  0.47000000000E+01 0.  1.
        -11    1    1    2    0    0  0.39599488292E+02 -0.31555585598E+02 -0.18473574865E+02  0.53899419512E+02  0.00000000000E+00 0. -1.
         11    1    1    2    0    0 -0.13439957115E+02  0.17208556252E+02  0.34840847280E+02  0.41117532693E+02  0.00000000000E+00 0.  1.
<mgrwt>
<rscale>  0 0.11996285E+03</rscale>
<asrwt>0</asrwt>
<pdfrwt beam="2">  1        2 0.20606814E+00 0.13030936E+03</pdfrwt>
<pdfrwt beam="1">  1       -2 0.90703547E-02 0.13030936E+03</pdfrwt>
<totfact> 0.13032405E+03</totfact>
</mgrwt>
</event>
<event>
 6    1  0.5258538E-006  0.1355169E+03  0.7546771E-02  0.1228950E+00
          2   -1    0    0  501    0  0.00000000000E+00  0.00000000000E+00  0.68739963035E+03  0.68739963035E+03  0.00000000000E+00 0. -1.
         -2   -1    0    0    0  501 -0.00000000000E+00 -0.00000000000E+00 -0.30460938940E+02  0.30460938940E+02  0.00000000000E+00 0.  1.
          5    1    1    2  502    0  0.73348013622E+02 -0.11010233713E+02  0.35696057160E+03  0.36461499699E+03  0.47000000000E+01 0.  1.
         -5    1    1    2    0  502 -0.46993074269E+02 -0.34232353231E+02  0.18181747259E+03  0.19094472074E+03  0.47000000000E+01 0.  1.
        -11    1    1    2    0    0  0.36035041934E+02  0.29159491066E+02  0.42102172765E+02  0.62621027762E+02  0.00000000000E+00 0. -1.
         11    1    1    2    0    0 -0.62389981288E+02  0.16083095877E+02  0.76058474449E+02  0.99679823805E+02  0.00000000000E+00 0.  1.
<mgrwt>
<rscale>  0 0.12899814E+03</rscale>
<asrwt>0</asrwt>
<pdfrwt beam="1">  1        2 0.10575378E+00 0.13551686E+03</pdfrwt>
<pdfrwt beam="2">  1       -2 0.46862988E-02 0.13551686E+03</pdfrwt>
<totfact> 0.88907436E+03</totfact>
</mgrwt>
</event>
<event>
 6    1  0.5258538E-006  0.1331749E+03  0.7546771E-02  0.1235987E+00
          1   -1    0    0  501    0  0.00000000000E+00  0.00000000000E+00  0.59404627172E+02  0.59404627172E+02  0.00000000000E+00 0. -1.
         -1   -1    0    0    0  501 -0.00000000000E+00 -0.00000000000E+00 -0.24049757849E+03  0.24049757849E+03  0.00000000000E+00 0.  1.
          5    1    1    2  502    0 -0.72322898655E+02 -0.40316989581E+01 -0.34230603813E+02  0.80253850399E+02  0.47000000000E+01 0. -1.
         -5    1    1    2    0  502  0.44290602694E+02  0.40429068049E+02 -0.39608239947E+02  0.72021314220E+02  0.47000000000E+01 0. -1.
        -11    1    1    2    0    0  0.27656641702E+02 -0.33460312028E+01 -0.11092554861E+03  0.11437028937E+03  0.00000000000E+00 0.  1.
         11    1    1    2    0    0  0.37565426022E+00 -0.33051337888E+02  0.36714410595E+01  0.33256751671E+02  0.00000000000E+00 0. -1.
<mgrwt>
<rscale>  0 0.12441429E+03</rscale>
<asrwt>0</asrwt>
<pdfrwt beam="1">  1        1 0.91391733E-02 0.13317489E+03</pdfrwt>
<pdfrwt beam="2">  1       -1 0.36999628E-01 0.13317489E+03</pdfrwt>
<totfact> 0.49006113E+03</totfact>
</mgrwt>
</event>
<event>
 6    1  0.5258538E-006  0.1760445E+03  0.7546771E-02  0.1177406E+00
         -2   -1    0    0    0  501 -0.00000000000E+00  0.00000000000E+00  0.76492604796E+03  0.76492604796E+03  0.00000000000E+00 0.  1.
          2   -1    0    0  501    0  0.00000000000E+00 -0.00000000000E+00 -0.62558017177E+02  0.62558017177E+02  0.00000000000E+00 0. -1.
          5    1    1    2  502    0  0.45667775519E+02  0.81471430899E+02  0.11092141761E+03  0.14508201356E+03  0.47000000000E+01 0.  1.
         -5    1    1    2    0  502  0.51080738053E+02 -0.39782928646E+01 -0.17334821445E+02  0.54292307454E+02  0.47000000000E+01 0.  1.
        -11    1    1    2    0    0 -0.44013481659E+02 -0.84964852944E+02  0.30382374173E+03  0.31853583604E+03  0.00000000000E+00 0. -1.
         11    1    1    2    0    0 -0.52735031913E+02  0.74717149100E+01  0.30495769289E+03  0.30957390809E+03  0.00000000000E+00 0.  1.
<mgrwt>
<rscale>  0 0.17042470E+03</rscale>
<asrwt>0</asrwt>
<pdfrwt beam="2">  1        2 0.96243108E-02 0.17604451E+03</pdfrwt>
<pdfrwt beam="1">  1       -2 0.11768092E+00 0.17604451E+03</pdfrwt>
<totfact> 0.38922334E+02</totfact>
</mgrwt>
</event>
<event>
 6    1  0.5258538E-006  0.1442443E+03  0.7546771E-02  0.1218163E+00
          1   -1    0    0  501    0  0.00000000000E+00  0.00000000000E+00  0.44766672787E+03  0.44766672787E+03  0.00000000000E+00 0. -1.
         -1   -1    0    0    0  501 -0.00000000000E+00 -0.00000000000E+00 -0.37806647241E+02  0.37806647241E+02  0.00000000000E+00 0.  1.
          5    1    1    2  502    0 -0.62453650587E+02 -0.18117314305E+02  0.95039479239E+02  0.11525314817E+03  0.47000000000E+01 0. -1.
         -5    1    1    2    0  502  0.20063945289E+02  0.76296902727E+02  0.11935533202E+03  0.14314874972E+03  0.47000000000E+01 0. -1.
        -11    1    1    2    0    0  0.34974210333E+02 -0.45271285291E+02  0.20262975119E+03  0.21055047074E+03  0.00000000000E+00 0. -1.
         11    1    1    2    0    0  0.74154949650E+01 -0.12908303130E+02 -0.71644818192E+01  0.16521006477E+02  0.00000000000E+00 0.  1.
<mgrwt>
<rscale>  0 0.13646727E+03</rscale>
<asrwt>0</asrwt>
<pdfrwt beam="1">  1        1 0.68871801E-01 0.14424426E+03</pdfrwt>
<pdfrwt beam="2">  1       -1 0.58164076E-02 0.14424426E+03</pdfrwt>
<totfact> 0.70347660E+03</totfact>
</mgrwt>
</event>
<event>
 6    1  0.5258538E-006  0.1844697E+03  0.7546771E-02  0.1168625E+00
         -4   -1    0    0    0  501 -0.00000000000E+00  0.00000000000E+00  0.18516921622E+03  0.18516921622E+03  0.00000000000E+00 0.  1.
          4   -1    0    0  501    0  0.00000000000E+00 -0.00000000000E+00 -0.16407775600E+03  0.16407775600E+03  0.00000000000E+00 0. -1.
          5    1    1    2  502    0 -0.62341178268E+02 -0.13988946149E+02 -0.51592340431E+02  0.82255533026E+02  0.47000000000E+01 0.  1.
         -5    1    1    2    0  502 -0.71927616628E+02  0.33365121189E+02  0.65117612644E+02  0.10270933172E+03  0.47000000000E+01 0.  1.
        -11    1    1    2    0    0  0.12904123662E+03  0.39735425418E+01  0.28817660322E+02  0.13227958019E+03  0.00000000000E+00 0.  1.
         11    1    1    2    0    0  0.52275582756E+01 -0.23349717581E+02 -0.21251472318E+02  0.32002527280E+02  0.00000000000E+00 0. -1.
<mgrwt>
<rscale>  0 0.17915382E+03</rscale>
<asrwt>0</asrwt>
<pdfrwt beam="2">  1        4 0.25242732E-01 0.18446969E+03</pdfrwt>
<pdfrwt beam="1">  1       -4 0.28487572E-01 0.18446969E+03</pdfrwt>
<totfact> 0.30298486E+02</totfact>
</mgrwt>
</event>
<event>
 6    1  0.5258538E-006  0.1815762E+03  0.7546771E-02  0.1172422E+00
          1   -1    0    0  501    0  0.00000000000E+00  0.00000000000E+00  0.67821932423E+03  0.67821932423E+03  0.00000000000E+00 0. -1.
         -1   -1    0    0    0  501 -0.00000000000E+00 -0.00000000000E+00 -0.57707265187E+02  0.57707265187E+02  0.00000000000E+00 0.  1.
          5    1    1    2  502    0  0.10901970003E+03 -0.76766237022E+01  0.18713648846E+03  0.21676342140E+03  0.47000000000E+01 0.  1.
         -5    1    1    2    0  502  0.22008049788E+02  0.20953687652E+02  0.32798843842E+03  0.32942664892E+03  0.47000000000E+01 0.  1.
        -11    1    1    2    0    0 -0.39276157549E+02  0.29538892318E+02  0.63176333155E+02  0.80040063606E+02  0.00000000000E+00 0. -1.
         11    1    1    2    0    0 -0.91751592266E+02 -0.42815956268E+02  0.42210799018E+02  0.10969645550E+03  0.00000000000E+00 0.  1.
<mgrwt>
<rscale>  0 0.17530926E+03</rscale>
<asrwt>0</asrwt>
<pdfrwt beam="1">  1        1 0.10434143E+00 0.18157616E+03</pdfrwt>
<pdfrwt beam="2">  1       -1 0.88780413E-02 0.18157616E+03</pdfrwt>
<totfact> 0.21460713E+03</totfact>
</mgrwt>
</event>
<event>
 6    1  0.5258538E-006  0.2149986E+03  0.7546771E-02  0.1141486E+00
          1   -1    0    0  501    0  0.00000000000E+00  0.00000000000E+00  0.12415903616E+04  0.12415903616E+04  0.00000000000E+00 0. -1.
         -1   -1    0    0    0  501 -0.00000000000E+00 -0.00000000000E+00 -0.36769836461E+02  0.36769836461E+02  0.00000000000E+00 0.  1.
          5    1    1    2  502    0 -0.89764994648E+01  0.14418097794E+03  0.74585617402E+03  0.75973169887E+03  0.47000000000E+01 0. -1.
         -5    1    1    2    0  502  0.30984918865E+02  0.29357975863E+02  0.56714457050E+02  0.71137722639E+02  0.47000000000E+01 0. -1.
        -11    1    1    2    0    0 -0.22488731823E+02 -0.55451621549E+02  0.57146570364E+02  0.82742709019E+02  0.00000000000E+00 0.  1.
         11    1    1    2    0    0  0.48031242276E+00 -0.11808733225E+03  0.34510332373E+03  0.36474806756E+03  0.00000000000E+00 0. -1.
<mgrwt>
<rscale>  0 0.21010135E+03</rscale>
<asrwt>0</asrwt>
<pdfrwt beam="1">  1        1 0.19101387E+00 0.21499855E+03</pdfrwt>
<pdfrwt beam="2">  1       -1 0.56568989E-02 0.21499855E+03</pdfrwt>
<totfact> 0.15655513E+03</totfact>
</mgrwt>
</event>
<event>
 6    1  0.5258538E-006  0.1676120E+03  0.7546771E-02  0.1187010E+00
         -1   -1    0    0    0  501 -0.00000000000E+00  0.00000000000E+00  0.66910980588E+02  0.66910980588E+02  0.00000000000E+00 0.  1.
          1   -1    0    0  501    0  0.00000000000E+00 -0.00000000000E+00 -0.41964918301E+03  0.41964918301E+03  0.00000000000E+00 0. -1.
          5    1    1    2  502    0 -0.35121490000E+02 -0.94374439078E+02 -0.12943657796E+03  0.16406087750E+03  0.47000000000E+01 0. -1.
         -5    1    1    2    0  502 -0.54421578066E+02  0.27652193935E+02 -0.14671291045E+03  0.15897521845E+03  0.47000000000E+01 0. -1.
        -11    1    1    2    0    0  0.22128475039E+02 -0.23214444938E+02 -0.16214361373E+02  0.35937242188E+02  0.00000000000E+00 0. -1.
         11    1    1    2    0    0  0.67414593027E+02  0.89936690081E+02 -0.60374352645E+02  0.12758682547E+03  0.00000000000E+00 0.  1.
<mgrwt>
<rscale>  0 0.16150288E+03</rscale>
<asrwt>0</asrwt>
<pdfrwt beam="2">  1        1 0.64561415E-01 0.16761199E+03</pdfrwt>
<pdfrwt beam="1">  1       -1 0.10293997E-01 0.16761199E+03</pdfrwt>
<totfact> 0.32473671E+03</totfact>
</mgrwt>
</event>
<event>
 6    1  0.5258538E-006  0.1518699E+03  0.7546771E-02  0.1206849E+00
         -4   -1    0    0    0  501 -0.00000000000E+00  0.00000000000E+00  0.42133511295E+02  0.42133511295E+02  0.00000000000E+00 0.  1.
          4   -1    0    0  501    0  0.00000000000E+00 -0.00000000000E+00 -0.45828078099E+03  0.45828078099E+03  0.00000000000E+00 0. -1.
          5    1    1    2  502    0  0.28925099920E+02  0.40334663811E+02 -0.17017039917E+02  0.52680320402E+02  0.47000000000E+01 0. -1.
         -5    1    1    2    0  502  0.57319653401E+02 -0.39003579830E+02 -0.20379476386E+03  0.21531655227E+03  0.47000000000E+01 0. -1.
        -11    1    1    2    0    0  0.66461945034E+01 -0.17507507324E+02 -0.40554820322E+01  0.19160679753E+02  0.00000000000E+00 0.  1.
         11    1    1    2    0    0 -0.92890947824E+02  0.16176423342E+02 -0.19127998389E+03  0.21325673986E+03  0.00000000000E+00 0. -1.
<mgrwt>
<rscale>  0 0.14492665E+03</rscale>
<asrwt>0</asrwt>
<pdfrwt beam="2">  1        4 0.70504736E-01 0.15186991E+03</pdfrwt>
<pdfrwt beam="1">  1       -4 0.64820786E-02 0.15186991E+03</pdfrwt>
<totfact> 0.49809075E+02</totfact>
</mgrwt>
</event>
<event>
 6    1  0.5258538E-006  0.2139039E+03  0.7546771E-02  0.1165550E+00
          1   -1    0    0  501    0  0.00000000000E+00  0.00000000000E+00  0.57773754151E+03  0.57773754151E+03  0.00000000000E+00 0. -1.
         -1   -1    0    0    0  501 -0.00000000000E+00 -0.00000000000E+00 -0.66890325929E+02  0.66890325929E+02  0.00000000000E+00 0.  1.
          5    1    1    2  502    0  0.37296208258E+02 -0.81872458391E+02  0.46866768267E+03  0.47724793700E+03  0.47000000000E+01 0. -1.
         -5    1    1    2    0  502  0.17850889219E+02  0.45364038116E+02  0.14382590576E+02  0.51044089881E+02  0.47000000000E+01 0.  1.
        -11    1    1    2    0    0 -0.46377729406E+02 -0.90181392159E+01  0.46547669240E+02  0.66324249950E+02  0.00000000000E+00 0.  1.
         11    1    1    2    0    0 -0.87693680706E+01  0.45526559491E+02 -0.18750726905E+02  0.50011590606E+02  0.00000000000E+00 0. -1.
<mgrwt>
<rscale>  0 0.18234809E+03</rscale>
<asrwt>0</asrwt>
<pdfrwt beam="1">  1        1 0.88882695E-01 0.21390395E+03</pdfrwt>
<pdfrwt beam="2">  1       -1 0.10290820E-01 0.21390395E+03</pdfrwt>
<totfact> 0.21473856E+03</totfact>
</mgrwt>
</event>
<event>
 6    1  0.5258538E-006  0.1312100E+03  0.7546771E-02  0.1240749E+00
         -3   -1    0    0    0  501 -0.00000000000E+00  0.00000000000E+00  0.62183921525E+03  0.62183921525E+03  0.00000000000E+00 0.  1.
          3   -1    0    0  501    0  0.00000000000E+00 -0.00000000000E+00 -0.24675222308E+02  0.24675222308E+02  0.00000000000E+00 0. -1.
          5    1    1    2  502    0 -0.22860574884E+02  0.46231470250E+02  0.72230226985E+02  0.88877727332E+02  0.47000000000E+01 0.  1.
         -5    1    1    2    0  502 -0.45068044921E+00 -0.78699020174E+02  0.13824843375E+03  0.15914917003E+03  0.47000000000E+01 0.  1.
        -11    1    1    2    0    0  0.42180389002E+02 -0.14797501266E+02  0.20443014447E+03  0.20926020937E+03  0.00000000000E+00 0.  1.
         11    1    1    2    0    0 -0.18869133669E+02  0.47265051191E+02  0.18225518775E+03  0.18922733082E+03  0.00000000000E+00 0. -1.
<mgrwt>
<rscale>  0 0.12143430E+03</rscale>
<asrwt>0</asrwt>
<pdfrwt beam="2">  1        3 0.37961885E-02 0.13121004E+03</pdfrwt>
<pdfrwt beam="1">  1       -3 0.95667560E-01 0.13121004E+03</pdfrwt>
<totfact> 0.81175507E+02</totfact>
</mgrwt>
</event>
<event>
 6    1  0.5258538E-006  0.1481394E+03  0.7546771E-02  0.1211562E+00
          1   -1    0    0  501    0  0.00000000000E+00  0.00000000000E+00  0.55680828931E+02  0.55680828931E+02  0.00000000000E+00 0. -1.
         -1   -1    0    0    0  501 -0.00000000000E+00 -0.00000000000E+00 -0.33105979534E+03  0.33105979534E+03  0.00000000000E+00 0.  1.
          5    1    1    2  502    0 -0.26109393544E+01  0.80957851874E+02 -0.13502100259E+03  0.15752381383E+03  0.47000000000E+01 0. -1.
         -5    1    1    2    0  502 -0.41211277261E+02 -0.14643354440E+02 -0.16304964076E+01  0.44017561510E+02  0.47000000000E+01 0. -1.
        -11    1    1    2    0    0  0.35880023408E+02 -0.78311867618E+02 -0.59538250227E+02  0.10471355180E+03  0.00000000000E+00 0. -1.
         11    1    1    2    0    0  0.79421932077E+01  0.11997370184E+02 -0.79189217188E+02  0.80485697134E+02  0.00000000000E+00 0.  1.
<mgrwt>
<rscale>  0 0.14132127E+03</rscale>
<asrwt>0</asrwt>
<pdfrwt beam="1">  1        1 0.85662815E-02 0.14813944E+03</pdfrwt>
<pdfrwt beam="2">  1       -1 0.50932276E-01 0.14813944E+03</pdfrwt>
<totfact> 0.30435599E+03</totfact>
</mgrwt>
</event>
<event>
 6    1  0.5258538E-006  0.1884288E+03  0.7546771E-02  0.1164898E+00
          1   -1    0    0  501    0  0.00000000000E+00  0.00000000000E+00  0.36159282857E+03  0.36159282857E+03  0.00000000000E+00 0. -1.
         -1   -1    0    0    0  501 -0.00000000000E+00 -0.00000000000E+00 -0.97339819543E+02  0.97339819543E+02  0.00000000000E+00 0.  1.
          5    1    1    2  502    0 -0.31751764710E+02  0.69615184361E+02  0.37606490853E+02  0.85386103144E+02  0.47000000000E+01 0.  1.
         -5    1    1    2    0  502 -0.94217458426E+02 -0.62580538398E+01  0.17347148986E+03  0.19756148538E+03  0.47000000000E+01 0.  1.
        -11    1    1    2    0    0  0.11407068690E+03 -0.19428665876E+02  0.15192661705E+02  0.11670651926E+03  0.00000000000E+00 0.  1.
         11    1    1    2    0    0  0.11898536231E+02 -0.43928464645E+02  0.37982366606E+02  0.59278540329E+02  0.00000000000E+00 0. -1.
<mgrwt>
<rscale>  0 0.18303415E+03</rscale>
<asrwt>0</asrwt>
<pdfrwt beam="1">  1        1 0.55629665E-01 0.18842883E+03</pdfrwt>
<pdfrwt beam="2">  1       -1 0.14975357E-01 0.18842883E+03</pdfrwt>
<totfact> 0.21970069E+03</totfact>
</mgrwt>
</event>
<event>
 6    1  0.5258538E-006  0.1509476E+03  0.7546771E-02  0.1208367E+00
          2   -1    0    0  501    0  0.00000000000E+00  0.00000000000E+00  0.34593831693E+03  0.34593831693E+03  0.00000000000E+00 0. -1.
         -2   -1    0    0    0  501 -0.00000000000E+00 -0.00000000000E+00 -0.63562774566E+02  0.63562774566E+02  0.00000000000E+00 0.  1.
          5    1    1    2  502    0  0.94364046922E+02 -0.33721229521E+02  0.10798596829E+03  0.14739319530E+03  0.47000000000E+01 0. -1.
         -5    1    1    2    0  502 -0.98176143532E+01  0.36475336547E+02  0.12119287253E+03  0.12703006762E+03  0.47000000000E+01 0. -1.
        -11    1    1    2    0    0 -0.22731607395E+02  0.11815170269E+01 -0.25986903066E+02  0.34546216699E+02  0.00000000000E+00 0.  1.
         11    1    1    2    0    0 -0.61814825174E+02 -0.39356240525E+01  0.79183604609E+02  0.10053161188E+03  0.00000000000E+00 0. -1.
<mgrwt>
<rscale>  0 0.14375291E+03</rscale>
<asrwt>0</asrwt>
<pdfrwt beam="1">  1        2 0.53221278E-01 0.15094763E+03</pdfrwt>
<pdfrwt beam="2">  1       -2 0.97788886E-02 0.15094763E+03</pdfrwt>
<totfact> 0.61954657E+03</totfact>
</mgrwt>
</event>
<event>
 6    1  0.5258538E-006  0.2790767E+03  0.7546771E-02  0.1096194E+00
          2   -1    0    0  501    0  0.00000000000E+00  0.00000000000E+00  0.45943973402E+03  0.45943973402E+03  0.00000000000E+00 0. -1.
         -2   -1    0    0    0  501 -0.00000000000E+00 -0.00000000000E+00 -0.42379784494E+02  0.42379784494E+02  0.00000000000E+00 0.  1.
          5    1    1    2  502    0 -0.88031571452E+02 -0.76237790095E+02  0.16337880500E+03  0.20069001503E+03  0.47000000000E+01 0.  1.
         -5    1    1    2    0  502  0.21606487984E+02  0.18062320026E+02  0.99238868981E+02  0.10326437355E+03  0.47000000000E+01 0.  1.
        -11    1    1    2    0    0  0.29361472553E+02  0.57029277446E+02  0.14652214701E+03  0.15994741049E+03  0.00000000000E+00 0.  1.
         11    1    1    2    0    0  0.37063610916E+02  0.11461926237E+01  0.79201285267E+01  0.37917719440E+02  0.00000000000E+00 0. -1.
<mgrwt>
<rscale>  0 0.27907674E+03</rscale>
<asrwt>0</asrwt>
<pdfrwt beam="1">  1        2 0.70683032E-01 0.27907674E+03</pdfrwt>
<pdfrwt beam="2">  1       -2 0.65199672E-02 0.27907674E+03</pdfrwt>
<totfact> 0.88632731E+03</totfact>
</mgrwt>
</event>
<event>
 6    1  0.5258538E-006  0.2790543E+03  0.7546771E-02  0.1096207E+00
         -1   -1    0    0    0  501 -0.00000000000E+00  0.00000000000E+00  0.24928136525E+02  0.24928136525E+02  0.00000000000E+00 0.  1.
          1   -1    0    0  501    0  0.00000000000E+00 -0.00000000000E+00 -0.78095778564E+03  0.78095778564E+03  0.00000000000E+00 0. -1.
          5    1    1    2  502    0  0.33415375701E+02 -0.23791751761E+01 -0.64769832637E+03  0.64858111273E+03  0.47000000000E+01 0. -1.
         -5    1    1    2    0  502 -0.24607233594E+01 -0.90423220585E+01  0.13410529494E+01  0.10569161304E+02  0.47000000000E+01 0. -1.
        -11    1    1    2    0    0 -0.18985931812E+02 -0.37545554296E+02 -0.73505882363E+02  0.84695035251E+02  0.00000000000E+00 0. -1.
         11    1    1    2    0    0 -0.11968720530E+02  0.48967051531E+02 -0.36166493334E+02  0.62040612882E+02  0.00000000000E+00 0.  1.
<mgrwt>
<rscale>  0 0.27905428E+03</rscale>
<asrwt>0</asrwt>
<pdfrwt beam="2">  1        1 0.12014734E+00 0.27905428E+03</pdfrwt>
<pdfrwt beam="1">  1       -1 0.38350984E-02 0.27905428E+03</pdfrwt>
<totfact> 0.62531208E+03</totfact>
</mgrwt>
</event>
<event>
 6    1  0.5258538E-006  0.1402211E+03  0.7546771E-02  0.1224264E+00
          1   -1    0    0  501    0  0.00000000000E+00  0.00000000000E+00  0.12871400425E+03  0.12871400425E+03  0.00000000000E+00 0. -1.
         -1   -1    0    0    0  501 -0.00000000000E+00 -0.00000000000E+00 -0.13401843300E+03  0.13401843300E+03  0.00000000000E+00 0.  1.
          5    1    1    2  502    0  0.33949439084E+01 -0.45996452827E+02 -0.36713604459E+02  0.59136943353E+02  0.47000000000E+01 0. -1.
         -5    1    1    2    0  502  0.45082870018E+02  0.49186748247E+01  0.72390053548E+02  0.85551553953E+02  0.47000000000E+01 0. -1.
        -11    1    1    2    0    0 -0.16701948777E+02  0.12999289302E+02 -0.65656085884E+02  0.68983028557E+02  0.00000000000E+00 0.  1.
         11    1    1    2    0    0 -0.31775865149E+02  0.28078488700E+02  0.24675208045E+02  0.49060911383E+02  0.00000000000E+00 0. -1.
<mgrwt>
<rscale>  0 0.13217487E+03</rscale>
<asrwt>0</asrwt>
<pdfrwt beam="1">  1        1 0.19802155E-01 0.14022108E+03</pdfrwt>
<pdfrwt beam="2">  1       -1 0.20618220E-01 0.14022108E+03</pdfrwt>
<totfact> 0.47527634E+03</totfact>
</mgrwt>
</event>
<event>
 6    1  0.5258538E-006  0.1410242E+03  0.7546771E-02  0.1223081E+00
         -2   -1    0    0    0  501 -0.00000000000E+00  0.00000000000E+00  0.36908862143E+02  0.36908862143E+02  0.00000000000E+00 0.  1.
          2   -1    0    0  501    0  0.00000000000E+00 -0.00000000000E+00 -0.48099442192E+03  0.48099442192E+03  0.00000000000E+00 0. -1.
          5    1    1    2  502    0  0.33619767860E+02  0.20512632447E+02 -0.48245680329E+02  0.62456325150E+02  0.47000000000E+01 0. -1.
         -5    1    1    2    0  502 -0.33728381444E+02 -0.85810622701E+02 -0.27916080924E+03  0.29403046457E+03  0.47000000000E+01 0. -1.
        -11    1    1    2    0    0 -0.30627551962E+02  0.16446329226E+02 -0.42299625783E+01  0.35020297937E+02  0.00000000000E+00 0.  1.
         11    1    1    2    0    0  0.30736165547E+02  0.48851661028E+02 -0.11244910763E+03  0.12639619640E+03  0.00000000000E+00 0. -1.
<mgrwt>
<rscale>  0 0.13299286E+03</rscale>
<asrwt>0</asrwt>
<pdfrwt beam="2">  1        2 0.73999132E-01 0.14102419E+03</pdfrwt>
<pdfrwt beam="1">  1       -2 0.56782872E-02 0.14102419E+03</pdfrwt>
<totfact> 0.99984351E+03</totfact>
</mgrwt>
</event>
<event>
 6    1  0.5258538E-006  0.3729904E+03  0.7546771E-02  0.1053555E+00
          1   -1    0    0  501    0  0.00000000000E+00  0.00000000000E+00  0.23401496229E+03  0.23401496229E+03  0.00000000000E+00 0. -1.
         -1   -1    0    0    0  501 -0.00000000000E+00 -0.00000000000E+00 -0.14862493594E+03  0.14862493594E+03  0.00000000000E+00 0.  1.
          5    1    1    2  502    0  0.13944621372E+03  0.65309834656E+02  0.11126644027E+03  0.19003402789E+03  0.47000000000E+01 0.  1.
         -5    1    1    2    0  502 -0.94971851373E+01 -0.23078213911E+02 -0.11502461436E+01  0.25420730695E+02  0.47000000000E+01 0.  1.
        -11    1    1    2    0    0 -0.52304742685E+02 -0.34549219957E+02  0.32324597929E+02  0.70528819204E+02  0.00000000000E+00 0. -1.
         11    1    1    2    0    0 -0.77644285898E+02 -0.76824007876E+01 -0.57050765710E+02  0.96656320448E+02  0.00000000000E+00 0.  1.
<mgrwt>
<rscale>  0 0.37299040E+03</rscale>
<asrwt>0</asrwt>
<pdfrwt beam="1">  1        1 0.36002302E-01 0.37299040E+03</pdfrwt>
<pdfrwt beam="2">  1       -1 0.22865375E-01 0.37299040E+03</pdfrwt>
<totfact> 0.19497417E+03</totfact>
</mgrwt>
</event>
<event>
 6    1  0.5258538E-006  0.2484572E+03  0.7546771E-02  0.1114284E+00
          1   -1    0    0  501    0  0.00000000000E+00  0.00000000000E+00  0.43347487045E+02  0.43347487045E+02  0.00000000000E+00 0. -1.
         -1   -1    0    0    0  501 -0.00000000000E+00 -0.00000000000E+00 -0.35602394796E+03  0.35602394796E+03  0.00000000000E+00 0.  1.
          5    1    1    2  502    0  0.31009894263E+01  0.54587154229E+01  0.28858442363E+02  0.29905073234E+02  0.47000000000E+01 0. -1.
         -5    1    1    2    0  502 -0.21646931881E+02 -0.37785564736E+02 -0.12410841633E+03  0.13161051465E+03  0.47000000000E+01 0. -1.
        -11    1    1    2    0    0 -0.18840031983E+02  0.44532413004E+02 -0.16727265539E+03  0.17412129064E+03  0.00000000000E+00 0.  1.
         11    1    1    2    0    0  0.37385974438E+02 -0.12205563690E+02 -0.50153831549E+02  0.63734556472E+02  0.00000000000E+00 0. -1.
<mgrwt>
<rscale>  0 0.24845719E+03</rscale>
<asrwt>0</asrwt>
<pdfrwt beam="1">  1        1 0.66688444E-02 0.24845719E+03</pdfrwt>
<pdfrwt beam="2">  1       -1 0.54772913E-01 0.24845719E+03</pdfrwt>
<totfact> 0.38317123E+03</totfact>
</mgrwt>
</event>
<event>
 6    1  0.5258538E-006  0.1592272E+03  0.7546771E-02  0.1197340E+00
          1   -1    0    0  501    0  0.00000000000E+00  0.00000000000E+00  0.43559858419E+03  0.43559858419E+03  0.00000000000E+00 0. -1.
         -1   -1    0    0    0  501 -0.00000000000E+00 -0.00000000000E+00 -0.67087363809E+02  0.67087363809E+02  0.00000000000E+00 0.  1.
          5    1    1    2  502    0  0.13795852329E+02 -0.32656212082E+02  0.22346781864E+03  0.22631109053E+03  0.47000000000E+01 0.  1.
         -5    1    1    2    0  502 -0.79943985158E+02 -0.40507460853E+02  0.10093789944E+03  0.13506459452E+03  0.47000000000E+01 0.  1.
        -11    1    1    2    0    0  0.31641374196E+02  0.67353469966E+02  0.66471673995E+02  0.99780508724E+02  0.00000000000E+00 0. -1.
         11    1    1    2    0    0  0.34506758633E+02  0.58102029698E+01 -0.22366171698E+02  0.41529754229E+02  0.00000000000E+00 0.  1.
<mgrwt>
<rscale>  0 0.15257814E+03</rscale>
<asrwt>0</asrwt>
<pdfrwt beam="1">  1        1 0.67015165E-01 0.15922725E+03</pdfrwt>
<pdfrwt beam="2">  1       -1 0.10321133E-01 0.15922725E+03</pdfrwt>
<totfact> 0.30775949E+03</totfact>
</mgrwt>
</event>
<event>
 6    1  0.5258538E-006  0.1406282E+03  0.7546771E-02  0.1233291E+00
          2   -1    0    0  501    0  0.00000000000E+00  0.00000000000E+00  0.57052572686E+03  0.57052572686E+03  0.00000000000E+00 0. -1.
         -2   -1    0    0    0  501 -0.00000000000E+00 -0.00000000000E+00 -0.24824047320E+02  0.24824047320E+02  0.00000000000E+00 0.  1.
          5    1    1    2  502    0 -0.17691281500E+02  0.57915434645E+02  0.34174578626E+03  0.34710150019E+03  0.47000000000E+01 0. -1.
         -5    1    1    2    0  502  0.32536511067E+01 -0.48373589610E+02  0.53186390107E+02  0.72121234805E+02  0.47000000000E+01 0.  1.
        -11    1    1    2    0    0  0.57796070092E+01 -0.49054238838E+02  0.96886629332E+02  0.10875082137E+03  0.00000000000E+00 0.  1.
         11    1    1    2    0    0  0.86580233845E+01  0.39512393803E+02  0.53882873844E+02  0.67376217812E+02  0.00000000000E+00 0. -1.
<mgrwt>
<rscale>  0 0.12614466E+03</rscale>
<asrwt>0</asrwt>
<pdfrwt beam="1">  1        2 0.87773179E-01 0.14062815E+03</pdfrwt>
<pdfrwt beam="2">  1       -2 0.38190846E-02 0.14062815E+03</pdfrwt>
<totfact> 0.14986343E+04</totfact>
</mgrwt>
</event>
<event>
 6    1  0.5258538E-006  0.1477922E+03  0.7546771E-02  0.1212919E+00
         -2   -1    0    0    0  501 -0.00000000000E+00  0.00000000000E+00  0.24286156918E+02  0.24286156918E+02  0.00000000000E+00 0.  1.
          2   -1    0    0  501    0  0.00000000000E+00 -0.00000000000E+00 -0.89920939872E+03  0.89920939872E+03  0.00000000000E+00 0. -1.
          5    1    1    2  502    0 -0.13067857949E+02  0.10424327175E+03 -0.55888050148E+03  0.56868878445E+03  0.47000000000E+01 0. -1.
         -5    1    1    2    0  502  0.26538565698E+02 -0.26577965267E+02 -0.11018253742E+03  0.11650306974E+03  0.47000000000E+01 0. -1.
        -11    1    1    2    0    0  0.29184911240E+02 -0.23995736222E+02 -0.26118902987E+02  0.45932031244E+02  0.00000000000E+00 0. -1.
         11    1    1    2    0    0 -0.42655618989E+02 -0.53669570265E+02 -0.17974129991E+03  0.19237167021E+03  0.00000000000E+00 0.  1.
<mgrwt>
<rscale>  0 0.14030477E+03</rscale>
<asrwt>0</asrwt>
<pdfrwt beam="2">  1        2 0.13833989E+00 0.14779218E+03</pdfrwt>
<pdfrwt beam="1">  1       -2 0.37363322E-02 0.14779218E+03</pdfrwt>
<totfact> 0.89751148E+03</totfact>
</mgrwt>
</event>
<event>
 6    1  0.5258538E-006  0.1267875E+03  0.7546771E-02  0.1247540E+00
          1   -1    0    0  501    0  0.00000000000E+00  0.00000000000E+00  0.99142022672E+03  0.99142022672E+03  0.00000000000E+00 0. -1.
         -1   -1    0    0    0  501 -0.00000000000E+00 -0.00000000000E+00 -0.13383053684E+02  0.13383053684E+02  0.00000000000E+00 0.  1.
          5    1    1    2  502    0 -0.61922938343E+02  0.77094900359E+01  0.22324172040E+03  0.23184659207E+03  0.47000000000E+01 0. -1.
         -5    1    1    2    0  502  0.45952728406E+02 -0.21665862866E+02  0.48283316449E+03  0.48552138737E+03  0.47000000000E+01 0. -1.
        -11    1    1    2    0    0  0.40540757634E+02 -0.23285771063E+02  0.11197851596E+03  0.12134647997E+03  0.00000000000E+00 0.  1.
         11    1    1    2    0    0 -0.24570547697E+02  0.37242143893E+02  0.15998377219E+03  0.16608882099E+03  0.00000000000E+00 0. -1.
<mgrwt>
<rscale>  0 0.11734628E+03</rscale>
<asrwt>0</asrwt>
<pdfrwt beam="1">  1        1 0.15252613E+00 0.12678752E+03</pdfrwt>
<pdfrwt beam="2">  1       -1 0.20589321E-02 0.12678752E+03</pdfrwt>
<totfact> 0.10238690E+04</totfact>
</mgrwt>
</event>
<event>
 6    1  0.5258538E-006  0.1298986E+03  0.7546771E-02  0.1242992E+00
          2   -1    0    0  501    0  0.00000000000E+00  0.00000000000E+00  0.45939944140E+03  0.45939944140E+03  0.00000000000E+00 0. -1.
         -2   -1    0    0    0  501 -0.00000000000E+00 -0.00000000000E+00 -0.28380918556E+02  0.28380918556E+02  0.00000000000E+00 0.  1.
          5    1    1    2  502    0 -0.61258342152E+02 -0.22919915381E+02  0.71456116454E+02  0.96984398657E+02  0.47000000000E+01 0.  1.
         -5    1    1    2    0  502  0.29426550162E+02  0.75197730460E+01  0.21963954435E+03  0.22177936848E+03  0.47000000000E+01 0.  1.
        -11    1    1    2    0    0  0.53377446581E+02 -0.82078584018E+01  0.11936714246E+03  0.13101540154E+03  0.00000000000E+00 0. -1.
         11    1    1    2    0    0 -0.21545654591E+02  0.23608000737E+02  0.20555719578E+02  0.38001191270E+02  0.00000000000E+00 0.  1.
<mgrwt>
<rscale>  0 0.12006393E+03</rscale>
<asrwt>0</asrwt>
<pdfrwt beam="1">  1        2 0.70676832E-01 0.12989864E+03</pdfrwt>
<pdfrwt beam="2">  1       -2 0.43662955E-02 0.12989864E+03</pdfrwt>
<totfact> 0.15497390E+04</totfact>
</mgrwt>
</event>
<event>
 6    1  0.5258538E-006  0.1472615E+03  0.7546771E-02  0.1212975E+00
          2   -1    0    0  501    0  0.00000000000E+00  0.00000000000E+00  0.82661086305E+02  0.82661086305E+02  0.00000000000E+00 0. -1.
         -2   -1    0    0    0  501 -0.00000000000E+00 -0.00000000000E+00 -0.39421516749E+03  0.39421516749E+03  0.00000000000E+00 0.  1.
          5    1    1    2  502    0 -0.57821222564E+01  0.27487552337E+02  0.24146183767E+02  0.37338005595E+02  0.47000000000E+01 0. -1.
         -5    1    1    2    0  502  0.19963515928E+02 -0.10404420069E+03 -0.29274156935E+02  0.11001274440E+03  0.47000000000E+01 0. -1.
        -11    1    1    2    0    0  0.22226825695E+02 -0.79371848684E+01 -0.29881959514E+02  0.38078369037E+02  0.00000000000E+00 0.  1.
         11    1    1    2    0    0 -0.36408219366E+02  0.84493833225E+02 -0.27654414851E+03  0.29144713477E+03  0.00000000000E+00 0. -1.
<mgrwt>
<rscale>  0 0.14026360E+03</rscale>
<asrwt>0</asrwt>
<pdfrwt beam="1">  1        2 0.12717090E-01 0.14726149E+03</pdfrwt>
<pdfrwt beam="2">  1       -2 0.60648487E-01 0.14726149E+03</pdfrwt>
<totfact> 0.12046135E+03</totfact>
</mgrwt>
</event>
<event>
 6    1  0.5663570E-006  0.1323267E+03  0.7546771E-02  0.1238186E+00
         -1   -1    0    0    0  501 -0.00000000000E+00  0.00000000000E+00  0.24894438704E+03  0.24894438704E+03  0.00000000000E+00 0.  1.
          1   -1    0    0  501    0  0.00000000000E+00 -0.00000000000E+00 -0.59311208745E+02  0.59311208745E+02  0.00000000000E+00 0. -1.
          5    1    1    2  502    0 -0.46100614621E+02  0.47191366887E+02  0.70138532273E+02  0.96404333339E+02  0.47000000000E+01 0. -1.
         -5    1    1    2    0  502  0.26818649072E+01 -0.47637912526E+02 -0.99528625505E+01  0.48966443430E+02  0.47000000000E+01 0. -1.
        -11    1    1    2    0    0 -0.14266541026E+02 -0.30120474008E+02  0.38317920112E+02  0.50784250994E+02  0.00000000000E+00 0. -1.
         11    1    1    2    0    0  0.57685290739E+02  0.30567019647E+02  0.91129588458E+02  0.11210056802E+03  0.00000000000E+00 0.  1.
<mgrwt>
<rscale>  0 0.12302661E+03</rscale>
<asrwt>0</asrwt>
<pdfrwt beam="2">  1        1 0.91248015E-02 0.13232667E+03</pdfrwt>
<pdfrwt beam="1">  1       -1 0.38299136E-01 0.13232667E+03</pdfrwt>
<totfact> 0.46236429E+03</totfact>
</mgrwt>
</event>
<event>
 6    1  0.5258538E-006  0.1982993E+03  0.7546771E-02  0.1179764E+00
          2   -1    0    0  501    0  0.00000000000E+00  0.00000000000E+00  0.55021414498E+03  0.55021414498E+03  0.00000000000E+00 0. -1.
         -2   -1    0    0    0  501 -0.00000000000E+00 -0.00000000000E+00 -0.43259176809E+02  0.43259176809E+02  0.00000000000E+00 0.  1.
          5    1    1    2  502    0  0.21910642326E+02  0.35954283891E+02  0.32814687526E+03  0.33087044069E+03  0.47000000000E+01 0. -1.
         -5    1    1    2    0  502 -0.21328093177E+02 -0.85129358019E+02  0.64518436088E+02  0.10902574811E+03  0.47000000000E+01 0.  1.
        -11    1    1    2    0    0 -0.18114556979E+02 -0.22375687117E+01  0.93739784442E+02  0.95500215055E+02  0.00000000000E+00 0.  1.
         11    1    1    2    0    0  0.17532007830E+02  0.51412642839E+02  0.20549872377E+02  0.58076917936E+02  0.00000000000E+00 0. -1.
<mgrwt>
<rscale>  0 0.16817541E+03</rscale>
<asrwt>0</asrwt>
<pdfrwt beam="1">  1        2 0.84648325E-01 0.19829929E+03</pdfrwt>
<pdfrwt beam="2">  1       -2 0.66552584E-02 0.19829929E+03</pdfrwt>
<totfact> 0.68943964E+03</totfact>
</mgrwt>
</event>
<event>
 6    1  0.5258538E-006  0.2569404E+03  0.7546771E-02  0.1108996E+00
          1   -1    0    0  501    0  0.00000000000E+00  0.00000000000E+00  0.28934359891E+03  0.28934359891E+03  0.00000000000E+00 0. -1.
         -1   -1    0    0    0  501 -0.00000000000E+00 -0.00000000000E+00 -0.57041504444E+02  0.57041504444E+02  0.00000000000E+00 0.  1.
          5    1    1    2  502    0  0.95942776806E+02 -0.32216865888E+02  0.10658774641E+03  0.14705774564E+03  0.47000000000E+01 0.  1.
         -5    1    1    2    0  502 -0.38248578907E+02  0.11464048417E+01  0.25264061993E+02  0.46093718237E+02  0.47000000000E+01 0.  1.
        -11    1    1    2    0    0 -0.50911269575E+02 -0.19794291344E+02  0.82350861143E+02  0.98820218936E+02  0.00000000000E+00 0.  1.
         11    1    1    2    0    0 -0.67829283242E+01  0.50864752390E+02  0.18099424923E+02  0.54413420541E+02  0.00000000000E+00 0. -1.
<mgrwt>
<rscale>  0 0.25694041E+03</rscale>
<asrwt>0</asrwt>
<pdfrwt beam="1">  1        1 0.44514399E-01 0.25694041E+03</pdfrwt>
<pdfrwt beam="2">  1       -1 0.87756162E-02 0.25694041E+03</pdfrwt>
<totfact> 0.67744219E+03</totfact>
</mgrwt>
</event>
<event>
 6    1  0.5258538E-006  0.1522860E+03  0.7546771E-02  0.1206556E+00
          3   -1    0    0  501    0  0.00000000000E+00  0.00000000000E+00  0.10217504864E+03  0.10217504864E+03  0.00000000000E+00 0. -1.
         -3   -1    0    0    0  501 -0.00000000000E+00 -0.00000000000E+00 -0.21479622700E+03  0.21479622700E+03  0.00000000000E+00 0.  1.
          5    1    1    2  502    0  0.21738408548E+02  0.27279244319E+02 -0.10412152091E+02  0.36704475040E+02  0.47000000000E+01 0. -1.
         -5    1    1    2    0  502 -0.10738057368E+03 -0.42685614449E+02  0.39756889666E+01  0.11571752412E+03  0.47000000000E+01 0. -1.
        -11    1    1    2    0    0  0.22850345304E+02 -0.25206486254E+02 -0.77169476596E+02  0.84336429542E+02  0.00000000000E+00 0. -1.
         11    1    1    2    0    0  0.62791819832E+02  0.40612856385E+02 -0.29015238634E+02  0.80212846942E+02  0.00000000000E+00 0.  1.
<mgrwt>
<rscale>  0 0.14515486E+03</rscale>
<asrwt>0</asrwt>
<pdfrwt beam="1">  1        3 0.15719238E-01 0.15228604E+03</pdfrwt>
<pdfrwt beam="2">  1       -3 0.33045574E-01 0.15228604E+03</pdfrwt>
<totfact> 0.72090901E+02</totfact>
</mgrwt>
</event>
<event>
 6    1  0.5258538E-006  0.1266659E+03  0.7546771E-02  0.1247929E+00
          1   -1    0    0  501    0  0.00000000000E+00  0.00000000000E+00  0.56306301601E+02  0.56306301601E+02  0.00000000000E+00 0. -1.
         -1   -1    0    0    0  501 -0.00000000000E+00 -0.00000000000E+00 -0.23022638429E+03  0.23022638429E+03  0.00000000000E+00 0.  1.
          5    1    1    2  502    0 -0.21442305408E+02 -0.17320629334E+02  0.29636365555E+02  0.40745316603E+02  0.47000000000E+01 0.  1.
         -5    1    1    2    0  502  0.17595762394E+02  0.37428407218E+02 -0.90860476998E+02  0.99941046630E+02  0.47000000000E+01 0.  1.
        -11    1    1    2    0    0  0.22756841288E+02  0.77355959385E+01 -0.10942068423E+03  0.11202945776E+03  0.00000000000E+00 0.  1.
         11    1    1    2    0    0 -0.18910298274E+02 -0.27843373823E+02 -0.32752870252E+01  0.33816864901E+02  0.00000000000E+00 0. -1.
<mgrwt>
<rscale>  0 0.11711765E+03</rscale>
<asrwt>0</asrwt>
<pdfrwt beam="1">  1        1 0.86625078E-02 0.12666594E+03</pdfrwt>
<pdfrwt beam="2">  1       -1 0.35419444E-01 0.12666594E+03</pdfrwt>
<totfact> 0.56542453E+03</totfact>
</mgrwt>
</event>
<event>
 6    1  0.5258538E-006  0.1399273E+03  0.7546771E-02  0.1225063E+00
          1   -1    0    0  501    0  0.00000000000E+00  0.00000000000E+00  0.89841728954E+03  0.89841728954E+03  0.00000000000E+00 0. -1.
         -1   -1    0    0    0  501 -0.00000000000E+00 -0.00000000000E+00 -0.17400581318E+02  0.17400581318E+02  0.00000000000E+00 0.  1.
          5    1    1    2  502    0 -0.40579827181E+02 -0.55954146541E+02  0.32314442926E+03  0.33048752027E+03  0.47000000000E+01 0. -1.
         -5    1    1    2    0  502  0.67302326106E+02 -0.99383201986E+00  0.20153269042E+03  0.21252789489E+03  0.47000000000E+01 0. -1.
        -11    1    1    2    0    0  0.18727048601E+02  0.44776564986E+02  0.27136485541E+03  0.27567105012E+03  0.00000000000E+00 0. -1.
         11    1    1    2    0    0 -0.45449547526E+02  0.12171413574E+02  0.84974733133E+02  0.97131405579E+02  0.00000000000E+00 0.  1.
<mgrwt>
<rscale>  0 0.13162599E+03</rscale>
<asrwt>0</asrwt>
<pdfrwt beam="1">  1        1 0.13821801E+00 0.13992734E+03</pdfrwt>
<pdfrwt beam="2">  1       -1 0.26770132E-02 0.13992734E+03</pdfrwt>
<totfact> 0.82707240E+03</totfact>
</mgrwt>
</event>
<event>
 6    1  0.5258538E-006  0.1296651E+03  0.7546771E-02  0.1241719E+00
         -1   -1    0    0    0  501 -0.00000000000E+00  0.00000000000E+00  0.66709268320E+02  0.66709268320E+02  0.00000000000E+00 0.  1.
          1   -1    0    0  501    0  0.00000000000E+00 -0.00000000000E+00 -0.20633357808E+03  0.20633357808E+03  0.00000000000E+00 0. -1.
          5    1    1    2  502    0  0.58987230546E+02 -0.53140219290E+01 -0.61108888455E+02  0.85229797869E+02  0.47000000000E+01 0. -1.
         -5    1    1    2    0  502 -0.62996828763E+02 -0.28917529783E+02 -0.51080526568E+02  0.86233022430E+02  0.47000000000E+01 0. -1.
        -11    1    1    2    0    0  0.16215826375E+02 -0.15078531557E+02  0.21630738337E+02  0.30954870052E+02  0.00000000000E+00 0.  1.
         11    1    1    2    0    0 -0.12206228158E+02  0.49310083269E+02 -0.49065633071E+02  0.70625156046E+02  0.00000000000E+00 0. -1.
<mgrwt>
<rscale>  0 0.12083913E+03</rscale>
<asrwt>0</asrwt>
<pdfrwt beam="2">  1        1 0.31743627E-01 0.12966508E+03</pdfrwt>
<pdfrwt beam="1">  1       -1 0.10262965E-01 0.12966508E+03</pdfrwt>
<totfact> 0.77924250E+03</totfact>
</mgrwt>
</event>
<event>
 6    1  0.5258538E-006  0.6295227E+03  0.7546771E-02  0.9845981E-01
          2   -1    0    0  501    0  0.00000000000E+00  0.00000000000E+00  0.22761764253E+03  0.22761764253E+03  0.00000000000E+00 0. -1.
         -2   -1    0    0    0  501 -0.00000000000E+00 -0.00000000000E+00 -0.43526815387E+03  0.43526815387E+03  0.00000000000E+00 0.  1.
          5    1    1    2  502    0 -0.15247609201E+03  0.19857782290E+02 -0.43021239277E+01  0.15389570632E+03  0.47000000000E+01 0. -1.
         -5    1    1    2    0  502 -0.56231151282E+02  0.69955308040E+02  0.69189680059E+02  0.11342393629E+03  0.47000000000E+01 0. -1.
        -11    1    1    2    0    0  0.10484291827E+03 -0.85209623020E+02 -0.40087197069E+02  0.14092445045E+03  0.00000000000E+00 0. -1.
         11    1    1    2    0    0  0.10386432502E+03 -0.46034673099E+01 -0.23245087041E+03  0.25464170333E+03  0.00000000000E+00 0.  1.
<mgrwt>
<rscale>  0 0.62952271E+03</rscale>
<asrwt>0</asrwt>
<pdfrwt beam="1">  1        2 0.35018099E-01 0.62952271E+03</pdfrwt>
<pdfrwt beam="2">  1       -2 0.66964331E-01 0.62952271E+03</pdfrwt>
<totfact> 0.30918803E+02</totfact>
</mgrwt>
</event>
<event>
 6    1  0.5258538E-006  0.1263063E+03  0.7546771E-02  0.1247440E+00
          1   -1    0    0  501    0  0.00000000000E+00  0.00000000000E+00  0.16694644077E+03  0.16694644077E+03  0.00000000000E+00 0. -1.
         -1   -1    0    0    0  501 -0.00000000000E+00 -0.00000000000E+00 -0.77570752728E+02  0.77570752728E+02  0.00000000000E+00 0.  1.
          5    1    1    2  502    0  0.76893992505E+01 -0.36102598150E+02  0.94149992257E+02  0.10123653242E+03  0.47000000000E+01 0.  1.
         -5    1    1    2    0  502  0.76257774156E+01  0.45772512890E+02 -0.13582147754E+02  0.48578186000E+02  0.47000000000E+01 0.  1.
        -11    1    1    2    0    0 -0.35782905266E+02  0.18037626465E+02  0.33572468517E+02  0.52276982699E+02  0.00000000000E+00 0. -1.
         11    1    1    2    0    0  0.20467728600E+02 -0.27707541204E+02 -0.24764624977E+02  0.42425492382E+02  0.00000000000E+00 0.  1.
<mgrwt>
<rscale>  0 0.11740521E+03</rscale>
<asrwt>0</asrwt>
<pdfrwt beam="1">  1        1 0.25684068E-01 0.12630626E+03</pdfrwt>
<pdfrwt beam="2">  1       -1 0.11933962E-01 0.12630626E+03</pdfrwt>
<totfact> 0.80329892E+03</totfact>
</mgrwt>
</event>
<event>
 6    1  0.5258538E-006  0.1654990E+03  0.7546771E-02  0.1190747E+00
         -1   -1    0    0    0  501 -0.00000000000E+00  0.00000000000E+00  0.15945524828E+03  0.15945524828E+03  0.00000000000E+00 0.  1.
          1   -1    0    0  501    0  0.00000000000E+00 -0.00000000000E+00 -0.18150022507E+03  0.18150022507E+03  0.00000000000E+00 0. -1.
          5    1    1    2  502    0  0.18860363084E+01 -0.61228608905E+02  0.10332858500E+02  0.62300542905E+02  0.47000000000E+01 0. -1.
         -5    1    1    2    0  502  0.75613294910E+02 -0.14662719367E+02 -0.98789221507E+02  0.12535456111E+03  0.47000000000E+01 0. -1.
        -11    1    1    2    0    0 -0.32761661236E+02 -0.60625060823E+01 -0.75780636880E+01  0.34168808528E+02  0.00000000000E+00 0. -1.
         11    1    1    2    0    0 -0.44737669983E+02  0.81953834354E+02  0.73989449914E+02  0.11913156080E+03  0.00000000000E+00 0.  1.
<mgrwt>
<rscale>  0 0.15819718E+03</rscale>
<asrwt>0</asrwt>
<pdfrwt beam="2">  1        1 0.27923111E-01 0.16549897E+03</pdfrwt>
<pdfrwt beam="1">  1       -1 0.24531577E-01 0.16549897E+03</pdfrwt>
<totfact> 0.23383637E+03</totfact>
</mgrwt>
</event>
<event>
 6    1  0.5258538E-006  0.1329802E+03  0.7546771E-02  0.1235816E+00
         -2   -1    0    0    0  501 -0.00000000000E+00  0.00000000000E+00  0.25867968297E+02  0.25867968297E+02  0.00000000000E+00 0.  1.
          2   -1    0    0  501    0  0.00000000000E+00 -0.00000000000E+00 -0.64382886171E+03  0.64382886171E+03  0.00000000000E+00 0. -1.
          5    1    1    2  502    0  0.84164271825E+02  0.64822120130E+01 -0.39762099324E+03  0.40650976371E+03  0.47000000000E+01 0.  1.
         -5    1    1    2    0  502 -0.39570611365E+02  0.18475980673E+01 -0.81743824589E+02  0.90958175888E+02  0.47000000000E+01 0.  1.
        -11    1    1    2    0    0  0.17981391612E+02  0.20688275168E+02 -0.16491748374E+02  0.31989262857E+02  0.00000000000E+00 0.  1.
         11    1    1    2    0    0 -0.62575052072E+02 -0.29018085248E+02 -0.12210432721E+03  0.14023962755E+03  0.00000000000E+00 0. -1.
<mgrwt>
<rscale>  0 0.12452313E+03</rscale>
<asrwt>0</asrwt>
<pdfrwt beam="2">  1        2 0.99050587E-01 0.13298016E+03</pdfrwt>
<pdfrwt beam="1">  1       -2 0.39796877E-02 0.13298016E+03</pdfrwt>
<totfact> 0.12231004E+04</totfact>
</mgrwt>
</event>
<event>
 6    1  0.5258538E-006  0.1305449E+03  0.7546771E-02  0.1240322E+00
         -2   -1    0    0    0  501 -0.00000000000E+00  0.00000000000E+00  0.50099190986E+02  0.50099190986E+02  0.00000000000E+00 0.  1.
          2   -1    0    0  501    0  0.00000000000E+00 -0.00000000000E+00 -0.28913509860E+03  0.28913509860E+03  0.00000000000E+00 0. -1.
          5    1    1    2  502    0  0.71589758490E+02  0.12016307459E+02 -0.60398814004E+02  0.94549415115E+02  0.47000000000E+01 0. -1.
         -5    1    1    2    0  502 -0.41235823585E+02  0.10227841619E+02 -0.12571945243E+03  0.13278732097E+03  0.47000000000E+01 0. -1.
        -11    1    1    2    0    0 -0.27810923510E+02  0.28353602324E+02 -0.15442930851E+01  0.39746183117E+02  0.00000000000E+00 0.  1.
         11    1    1    2    0    0 -0.25430113956E+01 -0.50597751402E+02 -0.51373348095E+02  0.72151370384E+02  0.00000000000E+00 0. -1.
<mgrwt>
<rscale>  0 0.12169780E+03</rscale>
<asrwt>0</asrwt>
<pdfrwt beam="2">  1        2 0.44482323E-01 0.13054494E+03</pdfrwt>
<pdfrwt beam="1">  1       -2 0.77075679E-02 0.13054494E+03</pdfrwt>
<totfact> 0.10745194E+04</totfact>
</mgrwt>
</event>
<event>
 6    1  0.5258538E-006  0.2275455E+03  0.7546771E-02  0.1160822E+00
          2   -1    0    0  501    0  0.00000000000E+00  0.00000000000E+00  0.11844606413E+04  0.11844606413E+04  0.00000000000E+00 0. -1.
         -2   -1    0    0    0  501 -0.00000000000E+00 -0.00000000000E+00 -0.96795655517E+02  0.96795655517E+02  0.00000000000E+00 0.  1.
          5    1    1    2  502    0 -0.10859565283E+03  0.59162614644E+01  0.32885221634E+03  0.34640133971E+03  0.47000000000E+01 0. -1.
         -5    1    1    2    0  502  0.81754043416E+02  0.36108473746E+02  0.81234980599E+03  0.81726485474E+03  0.47000000000E+01 0.  1.
        -11    1    1    2    0    0  0.12906340880E+02  0.73432142604E+01 -0.63604193859E+02  0.65314545907E+02  0.00000000000E+00 0.  1.
         11    1    1    2    0    0  0.13935268533E+02 -0.49367949471E+02  0.10067157274E+02  0.52275556426E+02  0.00000000000E+00 0. -1.
<mgrwt>
<rscale>  0 0.18740602E+03</rscale>
<asrwt>0</asrwt>
<pdfrwt beam="1">  1        2 0.18222470E+00 0.22754550E+03</pdfrwt>
<pdfrwt beam="2">  1       -2 0.14891640E-01 0.22754550E+03</pdfrwt>
<totfact> 0.71164901E+02</totfact>
</mgrwt>
</event>
<event>
 6    1  0.5258538E-006  0.1256783E+03  0.7546771E-02  0.1257622E+00
          1   -1    0    0  501    0  0.00000000000E+00  0.00000000000E+00  0.58914362472E+03  0.58914362472E+03  0.00000000000E+00 0. -1.
         -1   -1    0    0    0  501 -0.00000000000E+00 -0.00000000000E+00 -0.17872254139E+02  0.17872254139E+02  0.00000000000E+00 0.  1.
          5    1    1    2  502    0  0.24393524359E+02 -0.61303718172E+02  0.20078183459E+03  0.21139684244E+03  0.47000000000E+01 0.  1.
         -5    1    1    2    0  502 -0.11760477704E+02  0.58162334686E+02  0.18479214433E+03  0.19414271199E+03  0.47000000000E+01 0.  1.
        -11    1    1    2    0    0  0.23634068869E+02 -0.76798634937E+01  0.21149714236E+02  0.32632191573E+02  0.00000000000E+00 0.  1.
         11    1    1    2    0    0 -0.36267115524E+02  0.10821246980E+02  0.16454767742E+03  0.16884413286E+03  0.00000000000E+00 0. -1.
<mgrwt>
<rscale>  0 0.11160745E+03</rscale>
<asrwt>0</asrwt>
<pdfrwt beam="1">  1        1 0.90637466E-01 0.12567831E+03</pdfrwt>
<pdfrwt beam="2">  1       -1 0.27495780E-02 0.12567831E+03</pdfrwt>
<totfact> 0.14600734E+04</totfact>
</mgrwt>
</event>
<event>
 6    1  0.5258538E-006  0.1807684E+03  0.7546771E-02  0.1174563E+00
         -1   -1    0    0    0  501 -0.00000000000E+00  0.00000000000E+00  0.45929922575E+02  0.45929922575E+02  0.00000000000E+00 0.  1.
          1   -1    0    0  501    0  0.00000000000E+00 -0.00000000000E+00 -0.65801880095E+03  0.65801880095E+03  0.00000000000E+00 0. -1.
          5    1    1    2  502    0 -0.35760698136E+02 -0.54711301306E+02 -0.23243486331E+03  0.24149577574E+03  0.47000000000E+01 0. -1.
         -5    1    1    2    0  502 -0.86179061397E+02  0.64328463823E+02 -0.19827417726E+03  0.22560966568E+03  0.47000000000E+01 0.  1.
        -11    1    1    2    0    0 -0.73726322638E+01  0.18546313104E+02 -0.24039408059E+02  0.31244432721E+02  0.00000000000E+00 0. -1.
         11    1    1    2    0    0  0.12931239180E+03 -0.28163475621E+02 -0.15734042975E+03  0.20559884938E+03  0.00000000000E+00 0.  1.
<mgrwt>
<rscale>  0 0.17318838E+03</rscale>
<asrwt>0</asrwt>
<pdfrwt beam="2">  1        1 0.10123367E+00 0.18076840E+03</pdfrwt>
<pdfrwt beam="1">  1       -1 0.70661415E-02 0.18076840E+03</pdfrwt>
<totfact> 0.31683692E+03</totfact>
</mgrwt>
</event>
<event>
 6    1  0.5258538E-006  0.3254629E+03  0.7546771E-02  0.1073162E+00
          1   -1    0    0  501    0  0.00000000000E+00  0.00000000000E+00  0.32097243240E+03  0.32097243240E+03  0.00000000000E+00 0. -1.
         -1   -1    0    0    0  501 -0.00000000000E+00 -0.00000000000E+00 -0.82504032622E+02  0.82504032622E+02  0.00000000000E+00 0.  1.
          5    1    1    2  502    0  0.20320018344E+02 -0.20374366809E+02  0.32958707554E+02  0.44004367647E+02  0.47000000000E+01 0.  1.
         -5    1    1    2    0  502 -0.46248763951E+02  0.13260026772E+03  0.12650065253E+03  0.18906687774E+03  0.47000000000E+01 0.  1.
        -11    1    1    2    0    0 -0.32221296284E+02 -0.41873630926E+02  0.53289119089E+01  0.53103768259E+02  0.00000000000E+00 0. -1.
         11    1    1    2    0    0  0.58150041891E+02 -0.70352269989E+02  0.73680127784E+02  0.11730145138E+03  0.00000000000E+00 0.  1.
<mgrwt>
<rscale>  0 0.32546287E+03</rscale>
<asrwt>0</asrwt>
<pdfrwt beam="1">  1        1 0.49380373E-01 0.32546287E+03</pdfrwt>
<pdfrwt beam="2">  1       -1 0.12692928E-01 0.32546287E+03</pdfrwt>
<totfact> 0.33736025E+03</totfact>
</mgrwt>
</event>
<event>
 6    1  0.5258538E-006  0.1256371E+03  0.7546771E-02  0.1249308E+00
          3   -1    0    0  501    0  0.00000000000E+00  0.00000000000E+00  0.84052895499E+02  0.84052895499E+02  0.00000000000E+00 0. -1.
         -3   -1    0    0    0  501 -0.00000000000E+00 -0.00000000000E+00 -0.14734751396E+03  0.14734751396E+03  0.00000000000E+00 0.  1.
          5    1    1    2  502    0 -0.99994224964E+01 -0.34733648478E+02  0.44123979421E+02  0.57231375545E+02  0.47000000000E+01 0. -1.
         -5    1    1    2    0  502 -0.21514730145E+01  0.38456813359E+02 -0.57151663908E+02  0.69079360284E+02  0.47000000000E+01 0. -1.
        -11    1    1    2    0    0  0.25653718808E+02  0.39407456952E+02 -0.27693924309E+02  0.54571186497E+02  0.00000000000E+00 0. -1.
         11    1    1    2    0    0 -0.13502823297E+02 -0.43130621833E+02 -0.22573009664E+02  0.50518487131E+02  0.00000000000E+00 0.  1.
<mgrwt>
<rscale>  0 0.11631206E+03</rscale>
<asrwt>0</asrwt>
<pdfrwt beam="1">  1        3 0.12931215E-01 0.12563710E+03</pdfrwt>
<pdfrwt beam="2">  1       -3 0.22668848E-01 0.12563710E+03</pdfrwt>
<totfact> 0.19418679E+03</totfact>
</mgrwt>
</event>
<event>
 6    1  0.5258538E-006  0.1319647E+03  0.7546771E-02  0.1237808E+00
         -2   -1    0    0    0  501 -0.00000000000E+00  0.00000000000E+00  0.38196531541E+02  0.38196531541E+02  0.00000000000E+00 0.  1.
          2   -1    0    0  501    0  0.00000000000E+00 -0.00000000000E+00 -0.35958832317E+03  0.35958832317E+03  0.00000000000E+00 0. -1.
          5    1    1    2  502    0  0.52266342027E+01  0.64555548837E+02 -0.45587802686E+02  0.79341504552E+02  0.47000000000E+01 0. -1.
         -5    1    1    2    0  502  0.33514300758E+02 -0.47624419835E+02 -0.11100573677E+03  0.12544184835E+03  0.47000000000E+01 0. -1.
        -11    1    1    2    0    0  0.37500227794E+01 -0.17913646652E+02  0.41689211936E+01  0.18770756808E+02  0.00000000000E+00 0.  1.
         11    1    1    2    0    0 -0.42490957740E+02  0.98251764978E+00 -0.16896717336E+03  0.17423074500E+03  0.00000000000E+00 0. -1.
<mgrwt>
<rscale>  0 0.12326386E+03</rscale>
<asrwt>0</asrwt>
<pdfrwt beam="2">  1        2 0.55321280E-01 0.13196471E+03</pdfrwt>
<pdfrwt beam="1">  1       -2 0.58763895E-02 0.13196471E+03</pdfrwt>
<totfact> 0.12912282E+04</totfact>
</mgrwt>
</event>
<event>
 6    1  0.5258538E-006  0.1963119E+03  0.7546771E-02  0.1157401E+00
         -2   -1    0    0    0  501 -0.00000000000E+00  0.00000000000E+00  0.37418726340E+03  0.37418726340E+03  0.00000000000E+00 0.  1.
          2   -1    0    0  501    0  0.00000000000E+00 -0.00000000000E+00 -0.93070192908E+02  0.93070192908E+02  0.00000000000E+00 0. -1.
          5    1    1    2  502    0 -0.53877923790E+02  0.51183782439E+02  0.19619340711E+02  0.77004017990E+02  0.47000000000E+01 0. -1.
         -5    1    1    2    0  502  0.49907914542E+02  0.10015420685E+03  0.11833963754E+03  0.16293564649E+03  0.47000000000E+01 0. -1.
        -11    1    1    2    0    0  0.12264163432E+02 -0.11237707856E+03  0.14902999798E+03  0.18705335546E+03  0.00000000000E+00 0.  1.
         11    1    1    2    0    0 -0.82941541836E+01 -0.38960910734E+02 -0.58719057400E+01  0.40264436366E+02  0.00000000000E+00 0. -1.
<mgrwt>
<rscale>  0 0.19118023E+03</rscale>
<asrwt>0</asrwt>
<pdfrwt beam="2">  1        2 0.14318491E-01 0.19631190E+03</pdfrwt>
<pdfrwt beam="1">  1       -2 0.57567271E-01 0.19631190E+03</pdfrwt>
<totfact> 0.11755577E+03</totfact>
</mgrwt>
</event>
<event>
 6    1  0.5258538E-006  0.1844883E+03  0.7546771E-02  0.1167945E+00
          1   -1    0    0  501    0  0.00000000000E+00  0.00000000000E+00  0.17386980301E+03  0.17386980301E+03  0.00000000000E+00 0. -1.
         -1   -1    0    0    0  501 -0.00000000000E+00 -0.00000000000E+00 -0.18763745184E+03  0.18763745184E+03  0.00000000000E+00 0.  1.
          5    1    1    2  502    0  0.96090161475E+02 -0.11468705351E+03  0.19160475685E+02  0.15091604687E+03  0.47000000000E+01 0. -1.
         -5    1    1    2    0  502 -0.32484020778E+02 -0.51685276867E+01  0.16058631229E+02  0.36903860520E+02  0.47000000000E+01 0. -1.
        -11    1    1    2    0    0 -0.68453565648E+02  0.10585127285E+03 -0.37802187956E+01  0.12611372910E+03  0.00000000000E+00 0. -1.
         11    1    1    2    0    0  0.48474249507E+01  0.14004308343E+02 -0.45206536942E+02  0.47573618352E+02  0.00000000000E+00 0.  1.
<mgrwt>
<rscale>  0 0.17985350E+03</rscale>
<asrwt>0</asrwt>
<pdfrwt beam="1">  1        1 0.26749200E-01 0.18448830E+03</pdfrwt>
<pdfrwt beam="2">  1       -1 0.28867300E-01 0.18448830E+03</pdfrwt>
<totfact> 0.18892279E+03</totfact>
</mgrwt>
</event>
<event>
 6    1  0.5258538E-006  0.1272384E+03  0.7546771E-02  0.1247194E+00
         -2   -1    0    0    0  501 -0.00000000000E+00  0.00000000000E+00  0.23898732459E+02  0.23898732459E+02  0.00000000000E+00 0.  1.
          2   -1    0    0  501    0  0.00000000000E+00 -0.00000000000E+00 -0.50821388515E+03  0.50821388515E+03  0.00000000000E+00 0. -1.
          5    1    1    2  502    0 -0.31132883609E+02  0.41391249386E+01 -0.13932560953E+02  0.34678452269E+02  0.47000000000E+01 0.  1.
         -5    1    1    2    0  502  0.54055194519E+02 -0.10212473298E+02 -0.28351142208E+03  0.28883745448E+03  0.47000000000E+01 0.  1.
        -11    1    1    2    0    0 -0.51824518443E+02 -0.13638259226E+02 -0.81237562735E+02  0.97320729682E+02  0.00000000000E+00 0.  1.
         11    1    1    2    0    0  0.28902207533E+02  0.19711607585E+02 -0.10563360692E+03  0.11127598117E+03  0.00000000000E+00 0. -1.
<mgrwt>
<rscale>  0 0.11755036E+03</rscale>
<asrwt>0</asrwt>
<pdfrwt beam="2">  1        2 0.78186752E-01 0.12723843E+03</pdfrwt>
<pdfrwt beam="1">  1       -2 0.36767281E-02 0.12723843E+03</pdfrwt>
<totfact> 0.17884379E+04</totfact>
</mgrwt>
</event>
<event>
 6    1  0.5258538E-006  0.5095453E+03  0.7546771E-02  0.1011317E+00
          2   -1    0    0  501    0  0.00000000000E+00  0.00000000000E+00  0.95191643660E+03  0.95191643660E+03  0.00000000000E+00 0. -1.
         -2   -1    0    0    0  501 -0.00000000000E+00 -0.00000000000E+00 -0.68187825089E+02  0.68187825089E+02  0.00000000000E+00 0.  1.
          5    1    1    2  502    0 -0.92766582787E+01 -0.30369645081E+02  0.48694709021E+02  0.58323549428E+02  0.47000000000E+01 0.  1.
         -5    1    1    2    0  502 -0.18996119884E+03  0.56290166509E+02  0.63023757493E+03  0.66066279656E+03  0.47000000000E+01 0.  1.
        -11    1    1    2    0    0  0.54910000261E+02 -0.58021300151E+00  0.11962833406E+03  0.13162971961E+03  0.00000000000E+00 0. -1.
         11    1    1    2    0    0  0.14432785685E+03 -0.25340308426E+02  0.85167993502E+02  0.16948819609E+03  0.00000000000E+00 0.  1.
<mgrwt>
<rscale>  0 0.50954533E+03</rscale>
<asrwt>0</asrwt>
<pdfrwt beam="1">  1        2 0.14644867E+00 0.50954533E+03</pdfrwt>
<pdfrwt beam="2">  1       -2 0.10490435E-01 0.50954533E+03</pdfrwt>
<totfact> 0.17282379E+03</totfact>
</mgrwt>
</event>
<event>
 6    1  0.5258538E-006  0.1464175E+03  0.7546771E-02  0.1214372E+00
         -1   -1    0    0    0  501 -0.00000000000E+00  0.00000000000E+00  0.51599248957E+03  0.51599248957E+03  0.00000000000E+00 0.  1.
          1   -1    0    0  501    0  0.00000000000E+00 -0.00000000000E+00 -0.53456977184E+02  0.53456977184E+02  0.00000000000E+00 0. -1.
          5    1    1    2  502    0  0.11828213391E+02 -0.17190132564E+02 -0.31399030049E+02  0.37992056770E+02  0.47000000000E+01 0.  1.
         -5    1    1    2    0  502 -0.41484044503E+02 -0.53031757676E+02  0.10773285907E+03  0.12712888025E+03  0.47000000000E+01 0.  1.
        -11    1    1    2    0    0  0.18936052931E+02 -0.17624561796E+02  0.45694739331E+02  0.52509127603E+02  0.00000000000E+00 0. -1.
         11    1    1    2    0    0  0.10719778181E+02  0.87846452036E+02  0.34050694404E+03  0.35181940213E+03  0.00000000000E+00 0.  1.
<mgrwt>
<rscale>  0 0.13922740E+03</rscale>
<asrwt>0</asrwt>
<pdfrwt beam="2">  1        1 0.82241507E-02 0.14641745E+03</pdfrwt>
<pdfrwt beam="1">  1       -1 0.79383457E-01 0.14641745E+03</pdfrwt>
<totfact> 0.13623506E+03</totfact>
</mgrwt>
</event>
<event>
 6    1  0.5258538E-006  0.4341039E+03  0.7546771E-02  0.1032571E+00
         -2   -1    0    0    0  501 -0.00000000000E+00  0.00000000000E+00  0.24215544935E+02  0.24215544935E+02  0.00000000000E+00 0.  1.
          2   -1    0    0  501    0  0.00000000000E+00 -0.00000000000E+00 -0.19455084098E+04  0.19455084098E+04  0.00000000000E+00 0. -1.
          5    1    1    2  502    0 -0.43286257383E+02  0.14588090617E+02 -0.22563918088E+03  0.23026428819E+03  0.47000000000E+01 0. -1.
         -5    1    1    2    0  502 -0.77951377119E+01 -0.70035395172E+01 -0.15881956296E+04  0.15882371554E+04  0.47000000000E+01 0.  1.
        -11    1    1    2    0    0  0.84839533372E+00  0.27522234126E+02 -0.21180968453E-01  0.27535315407E+02  0.00000000000E+00 0.  1.
         11    1    1    2    0    0  0.50232999761E+02 -0.35106785226E+02 -0.10743687339E+03  0.12368719577E+03  0.00000000000E+00 0. -1.
<mgrwt>
<rscale>  0 0.43410389E+03</rscale>
<asrwt>0</asrwt>
<pdfrwt beam="2">  1        2 0.29930899E+00 0.43410389E+03</pdfrwt>
<pdfrwt beam="1">  1       -2 0.37254684E-02 0.43410389E+03</pdfrwt>
<totfact> 0.24106203E+03</totfact>
</mgrwt>
</event>
<event>
 6    1  0.5258538E-006  0.1259085E+03  0.7546771E-02  0.1248763E+00
          2   -1    0    0  501    0  0.00000000000E+00  0.00000000000E+00  0.13928636920E+03  0.13928636920E+03  0.00000000000E+00 0. -1.
         -2   -1    0    0    0  501 -0.00000000000E+00 -0.00000000000E+00 -0.85820463322E+02  0.85820463322E+02  0.00000000000E+00 0.  1.
          5    1    1    2  502    0  0.23326995160E+02 -0.14077769448E+02  0.74366341067E+02  0.79339617969E+02  0.47000000000E+01 0.  1.
         -5    1    1    2    0  502 -0.14310767881E+02  0.26184394949E+02 -0.40989134222E+02  0.50917774308E+02  0.47000000000E+01 0.  1.
        -11    1    1    2    0    0 -0.26514635158E+02  0.75911326125E+01 -0.28448065139E+02  0.39622513576E+02  0.00000000000E+00 0.  1.
         11    1    1    2    0    0  0.17498407880E+02 -0.19697758114E+02  0.48536764174E+02  0.55226926671E+02  0.00000000000E+00 0. -1.
<mgrwt>
<rscale>  0 0.11662953E+03</rscale>
<asrwt>0</asrwt>
<pdfrwt beam="1">  1        2 0.21428672E-01 0.12590850E+03</pdfrwt>
<pdfrwt beam="2">  1       -2 0.13203148E-01 0.12590850E+03</pdfrwt>
<totfact> 0.10136575E+04</totfact>
</mgrwt>
</event>
<event>
 6    1  0.5258538E-006  0.1272723E+03  0.7546771E-02  0.1250403E+00
          1   -1    0    0  501    0  0.00000000000E+00  0.00000000000E+00  0.48304782893E+03  0.48304782893E+03  0.00000000000E+00 0. -1.
         -1   -1    0    0    0  501 -0.00000000000E+00 -0.00000000000E+00 -0.24172287987E+02  0.24172287987E+02  0.00000000000E+00 0.  1.
          5    1    1    2  502    0 -0.18004787870E+01  0.26915463365E+02  0.67685073400E+01  0.28206144430E+02  0.47000000000E+01 0. -1.
         -5    1    1    2    0  502 -0.99629719144E+01 -0.47813950094E+02  0.29889631781E+03  0.30289690232E+03  0.47000000000E+01 0. -1.
        -11    1    1    2    0    0  0.44820081368E+02 -0.39493157810E+01  0.89286676758E+02  0.99982735687E+02  0.00000000000E+00 0. -1.
         11    1    1    2    0    0 -0.33056630667E+02  0.24847802510E+02  0.63924039035E+02  0.76134334483E+02  0.00000000000E+00 0.  1.
<mgrwt>
<rscale>  0 0.11567740E+03</rscale>
<asrwt>0</asrwt>
<pdfrwt beam="1">  1        1 0.74315044E-01 0.12727232E+03</pdfrwt>
<pdfrwt beam="2">  1       -1 0.37188139E-02 0.12727232E+03</pdfrwt>
<totfact> 0.12236119E+04</totfact>
</mgrwt>
</event>
<event>
 6    1  0.5258538E-006  0.1263730E+03  0.7546771E-02  0.1247213E+00
         -1   -1    0    0    0  501 -0.00000000000E+00  0.00000000000E+00  0.50463751526E+02  0.50463751526E+02  0.00000000000E+00 0.  1.
          1   -1    0    0  501    0  0.00000000000E+00 -0.00000000000E+00 -0.25970598643E+03  0.25970598643E+03  0.00000000000E+00 0. -1.
          5    1    1    2  502    0  0.53763831044E+02 -0.19278616071E+02 -0.13864083303E+03  0.15001861601E+03  0.47000000000E+01 0.  1.
         -5    1    1    2    0  502 -0.38537224675E+02  0.29886018998E+02 -0.20284729533E+02  0.53026899490E+02  0.47000000000E+01 0.  1.
        -11    1    1    2    0    0 -0.24903464311E+02 -0.46841537333E+02 -0.13882318228E+02  0.54836401357E+02  0.00000000000E+00 0.  1.
         11    1    1    2    0    0  0.96768579431E+01  0.36234134406E+02 -0.36434354111E+02  0.52287821099E+02  0.00000000000E+00 0. -1.
<mgrwt>
<rscale>  0 0.11753881E+03</rscale>
<asrwt>0</asrwt>
<pdfrwt beam="2">  1        1 0.39954767E-01 0.12637305E+03</pdfrwt>
<pdfrwt beam="1">  1       -1 0.77636540E-02 0.12637305E+03</pdfrwt>
<totfact> 0.89317671E+03</totfact>
</mgrwt>
</event>
<event>
 6    1  0.5258538E-006  0.1905526E+03  0.7546771E-02  0.1162962E+00
          1   -1    0    0  501    0  0.00000000000E+00  0.00000000000E+00  0.55281840631E+02  0.55281840631E+02  0.00000000000E+00 0. -1.
         -1   -1    0    0    0  501 -0.00000000000E+00 -0.00000000000E+00 -0.58674855859E+03  0.58674855859E+03  0.00000000000E+00 0.  1.
          5    1    1    2  502    0 -0.32691960051E+02 -0.10456367077E+03 -0.17195815206E+03  0.20394612415E+03  0.47000000000E+01 0. -1.
         -5    1    1    2    0  502  0.73007190648E+02 -0.33489770479E+02 -0.10675827788E+03  0.13368258866E+03  0.47000000000E+01 0. -1.
        -11    1    1    2    0    0 -0.23871043095E+02  0.24762519954E+02 -0.96932905794E+01  0.35734702673E+02  0.00000000000E+00 0. -1.
         11    1    1    2    0    0 -0.16444187503E+02  0.11329092129E+03 -0.24305699744E+03  0.26866698375E+03  0.00000000000E+00 0.  1.
<mgrwt>
<rscale>  0 0.18509435E+03</rscale>
<asrwt>0</asrwt>
<pdfrwt beam="1">  1        1 0.85048987E-02 0.19055262E+03</pdfrwt>
<pdfrwt beam="2">  1       -1 0.90269008E-01 0.19055262E+03</pdfrwt>
<totfact> 0.10022714E+03</totfact>
</mgrwt>
</event>
<event>
 6    1  0.5258538E-006  0.1529573E+03  0.7546771E-02  0.1226659E+00
          2   -1    0    0  501    0  0.00000000000E+00  0.00000000000E+00  0.91234672497E+02  0.91234672497E+02  0.00000000000E+00 0. -1.
         -2   -1    0    0    0  501 -0.00000000000E+00 -0.00000000000E+00 -0.16296170063E+03  0.16296170063E+03  0.00000000000E+00 0.  1.
          5    1    1    2  502    0 -0.63312445832E+02 -0.56519244109E+02 -0.38757049778E+01  0.85088200362E+02  0.47000000000E+01 0. -1.
         -5    1    1    2    0  502  0.28733445001E+02  0.61291843483E+02 -0.80938284878E+01  0.68336673893E+02  0.47000000000E+01 0.  1.
        -11    1    1    2    0    0 -0.20776282285E+02 -0.95570847189E+01 -0.64222773100E+01  0.23753682236E+02  0.00000000000E+00 0. -1.
         11    1    1    2    0    0  0.55355283115E+02  0.47844853448E+01 -0.53335217360E+02  0.77017816637E+02  0.00000000000E+00 0.  1.
<mgrwt>
<rscale>  0 0.13053840E+03</rscale>
<asrwt>0</asrwt>
<pdfrwt beam="1">  1        2 0.14036103E-01 0.15295726E+03</pdfrwt>
<pdfrwt beam="2">  1       -2 0.25071031E-01 0.15295726E+03</pdfrwt>
<totfact> 0.57182430E+03</totfact>
</mgrwt>
</event>
<event>
 6    1  0.5258538E-006  0.1811803E+03  0.7546771E-02  0.1172252E+00
          1   -1    0    0  501    0  0.00000000000E+00  0.00000000000E+00  0.44777402316E+02  0.44777402316E+02  0.00000000000E+00 0. -1.
         -1   -1    0    0    0  501 -0.00000000000E+00 -0.00000000000E+00 -0.64882493506E+03  0.64882493506E+03  0.00000000000E+00 0.  1.
          5    1    1    2  502    0  0.22139772340E+02  0.11190245863E+03 -0.25526179332E+03  0.27963011801E+03  0.47000000000E+01 0. -1.
         -5    1    1    2    0  502  0.56235641672E+02 -0.67622043385E+01 -0.51799944771E+02  0.76899278800E+02  0.47000000000E+01 0. -1.
        -11    1    1    2    0    0 -0.97377860376E+02 -0.89391732476E+02 -0.26923809490E+03  0.29993746227E+03  0.00000000000E+00 0.  1.
         11    1    1    2    0    0  0.19002446365E+02 -0.15748521815E+02 -0.27747699759E+02  0.37135478308E+02  0.00000000000E+00 0. -1.
<mgrwt>
<rscale>  0 0.17547896E+03</rscale>
<asrwt>0</asrwt>
<pdfrwt beam="1">  1        1 0.68888316E-02 0.18118030E+03</pdfrwt>
<pdfrwt beam="2">  1       -1 0.99819214E-01 0.18118030E+03</pdfrwt>
<totfact> 0.10704160E+03</totfact>
</mgrwt>
</event>
<event>
 6    1  0.5258538E-006  0.1300774E+03  0.7546771E-02  0.1241231E+00
         -2   -1    0    0    0  501 -0.00000000000E+00  0.00000000000E+00  0.84252272673E+02  0.84252272673E+02  0.00000000000E+00 0.  1.
          2   -1    0    0  501    0  0.00000000000E+00 -0.00000000000E+00 -0.15971705729E+03  0.15971705729E+03  0.00000000000E+00 0. -1.
          5    1    1    2  502    0 -0.48909146172E+02 -0.16666750647E+02  0.19992721914E+02  0.55602914366E+02  0.47000000000E+01 0. -1.
         -5    1    1    2    0  502  0.25707965188E+02 -0.10868068457E+02 -0.85450300061E+02  0.90015877303E+02  0.47000000000E+01 0. -1.
        -11    1    1    2    0    0 -0.18165455379E+02  0.33868618137E+02  0.23230914115E+02  0.44908155543E+02  0.00000000000E+00 0.  1.
         11    1    1    2    0    0  0.41366636363E+02 -0.63337990335E+01 -0.33238120587E+02  0.53442382753E+02  0.00000000000E+00 0. -1.
<mgrwt>
<rscale>  0 0.12113808E+03</rscale>
<asrwt>0</asrwt>
<pdfrwt beam="2">  1        2 0.24571855E-01 0.13007743E+03</pdfrwt>
<pdfrwt beam="1">  1       -2 0.12961888E-01 0.13007743E+03</pdfrwt>
<totfact> 0.89922299E+03</totfact>
</mgrwt>
</event>
<event>
 6    1  0.5258538E-006  0.3543471E+03  0.7546771E-02  0.1060845E+00
          2   -1    0    0  501    0  0.00000000000E+00  0.00000000000E+00  0.39512085355E+02  0.39512085355E+02  0.00000000000E+00 0. -1.
         -2   -1    0    0    0  501 -0.00000000000E+00 -0.00000000000E+00 -0.79445213938E+03  0.79445213938E+03  0.00000000000E+00 0.  1.
          5    1    1    2  502    0  0.13478626680E+03  0.52006412532E+02 -0.32207841394E+03  0.35302776009E+03  0.47000000000E+01 0.  1.
         -5    1    1    2    0  502 -0.37256303061E+01 -0.16663781193E+02  0.51699555609E+00  0.17717765357E+02  0.47000000000E+01 0.  1.
        -11    1    1    2    0    0 -0.70813051950E+02 -0.42546870071E+01 -0.97563246893E+02  0.12062826299E+03  0.00000000000E+00 0. -1.
         11    1    1    2    0    0 -0.60247584548E+02 -0.31087944332E+02 -0.33581538874E+03  0.34259043629E+03  0.00000000000E+00 0.  1.
<mgrwt>
<rscale>  0 0.35434707E+03</rscale>
<asrwt>0</asrwt>
<pdfrwt beam="1">  1        2 0.60787827E-02 0.35434707E+03</pdfrwt>
<pdfrwt beam="2">  1       -2 0.12222340E+00 0.35434707E+03</pdfrwt>
<totfact> 0.64809142E+02</totfact>
</mgrwt>
</event>
<event>
 6    1  0.5258538E-006  0.1628919E+03  0.7546771E-02  0.1193448E+00
          2   -1    0    0  501    0  0.00000000000E+00  0.00000000000E+00  0.95479314928E+02  0.95479314928E+02  0.00000000000E+00 0.  1.
         -2   -1    0    0    0  501 -0.00000000000E+00 -0.00000000000E+00 -0.29359151134E+03  0.29359151134E+03  0.00000000000E+00 0. -1.
          5    1    1    2  502    0  0.53662732717E+02 -0.26436942325E+01 -0.68279096481E+02  0.87010361556E+02  0.47000000000E+01 0.  1.
         -5    1    1    2    0  502  0.44085882834E+02  0.39474485903E+02  0.49059927129E+02  0.77011470266E+02  0.47000000000E+01 0.  1.
        -11    1    1    2    0    0 -0.46563638104E+02 -0.52171316752E+02 -0.14709000599E+03  0.16286647460E+03  0.00000000000E+00 0. -1.
         11    1    1    2    0    0 -0.51184977448E+02  0.15340525081E+02 -0.31803021074E+02  0.62182519855E+02  0.00000000000E+00 0.  1.
<mgrwt>
<rscale>  0 0.15586301E+03</rscale>
<asrwt>0</asrwt>
<pdfrwt beam="1">  1        2 0.14689126E-01 0.16289194E+03</pdfrwt>
<pdfrwt beam="2">  1       -2 0.45167924E-01 0.16289194E+03</pdfrwt>
<totfact> 0.18384046E+03</totfact>
</mgrwt>
</event>
<event>
 6    1  0.5258538E-006  0.1363106E+03  0.7546771E-02  0.1227891E+00
          3   -1    0    0  501    0  0.00000000000E+00  0.00000000000E+00  0.41011086043E+02  0.41011086043E+02  0.00000000000E+00 0. -1.
         -3   -1    0    0    0  501 -0.00000000000E+00 -0.00000000000E+00 -0.44854351680E+03  0.44854351680E+03  0.00000000000E+00 0.  1.
          5    1    1    2  502    0 -0.60012078598E+02  0.36716017860E+02 -0.55444779642E+02  0.89697988465E+02  0.47000000000E+01 0. -1.
         -5    1    1    2    0  502  0.59074934518E+02 -0.27408611629E+02 -0.66561666058E+02  0.93239612119E+02  0.47000000000E+01 0.  1.
        -11    1    1    2    0    0  0.52301066803E+02  0.30911236780E+01 -0.90617799176E+02  0.10467350267E+03  0.00000000000E+00 0.  1.
         11    1    1    2    0    0 -0.51363922724E+02 -0.12398529910E+02 -0.19490818588E+03  0.20194349958E+03  0.00000000000E+00 0. -1.
<mgrwt>
<rscale>  0 0.12970683E+03</rscale>
<asrwt>0</asrwt>
<pdfrwt beam="1">  1        3 0.63093984E-02 0.13631065E+03</pdfrwt>
<pdfrwt beam="2">  1       -3 0.69006689E-01 0.13631065E+03</pdfrwt>
<totfact> 0.74502676E+02</totfact>
</mgrwt>
</event>
<event>
 6    1  0.5258538E-006  0.1658187E+03  0.7546771E-02  0.1197067E+00
         -2   -1    0    0    0  501 -0.00000000000E+00  0.00000000000E+00  0.29268894349E+02  0.29268894349E+02  0.00000000000E+00 0.  1.
          2   -1    0    0  501    0  0.00000000000E+00 -0.00000000000E+00 -0.76741035331E+03  0.76741035331E+03  0.00000000000E+00 0. -1.
          5    1    1    2  502    0  0.10034478008E+03 -0.33650780554E+02 -0.46351989584E+03  0.47547264250E+03  0.47000000000E+01 0. -1.
         -5    1    1    2    0  502  0.78924219524E+01  0.46090683423E+02 -0.80047186408E+02  0.92823938046E+02  0.47000000000E+01 0. -1.
        -11    1    1    2    0    0 -0.35152881912E+02 -0.90679184756E+01 -0.26111323734E+02  0.44718603281E+02  0.00000000000E+00 0.  1.
         11    1    1    2    0    0 -0.73084320119E+02 -0.33719843933E+01 -0.16846305298E+03  0.18366406383E+03  0.00000000000E+00 0. -1.
<mgrwt>
<rscale>  0 0.15280586E+03</rscale>
<asrwt>0</asrwt>
<pdfrwt beam="2">  1        2 0.11806311E+00 0.16581867E+03</pdfrwt>
<pdfrwt beam="1">  1       -2 0.45029078E-02 0.16581867E+03</pdfrwt>
<totfact> 0.83592268E+03</totfact>
</mgrwt>
</event>
<event>
 6    1  0.5258538E-006  0.1283038E+03  0.7546771E-02  0.1244164E+00
         -2   -1    0    0    0  501 -0.00000000000E+00  0.00000000000E+00  0.80600290603E+01  0.80600290603E+01  0.00000000000E+00 0.  1.
          2   -1    0    0  501    0  0.00000000000E+00 -0.00000000000E+00 -0.21689272606E+04  0.21689272606E+04  0.00000000000E+00 0. -1.
          5    1    1    2  502    0 -0.49387977926E+02  0.36571778153E+01 -0.86984675066E+03  0.87126804541E+03  0.47000000000E+01 0.  1.
         -5    1    1    2    0  502  0.75757885969E+02  0.63560321421E+01 -0.89393715465E+03  0.89717633880E+03  0.47000000000E+01 0.  1.
        -11    1    1    2    0    0 -0.41041352148E+02 -0.43317878762E+02 -0.24276953046E+03  0.24999575221E+03  0.00000000000E+00 0. -1.
         11    1    1    2    0    0  0.14671444104E+02  0.33304668805E+02 -0.15431379581E+03  0.15854715328E+03  0.00000000000E+00 0.  1.
<mgrwt>
<rscale>  0 0.11935552E+03</rscale>
<asrwt>0</asrwt>
<pdfrwt beam="2">  1        2 0.33368089E+00 0.12830384E+03</pdfrwt>
<pdfrwt beam="1">  1       -2 0.12400053E-02 0.12830384E+03</pdfrwt>
<totfact> 0.92840521E+03</totfact>
</mgrwt>
</event>
<event>
 6    1  0.5258538E-006  0.3847166E+03  0.7546771E-02  0.1049204E+00
          3   -1    0    0  501    0  0.00000000000E+00  0.00000000000E+00  0.11011715394E+04  0.11011715394E+04  0.00000000000E+00 0. -1.
         -3   -1    0    0    0  501 -0.00000000000E+00 -0.00000000000E+00 -0.33602142268E+02  0.33602142268E+02  0.00000000000E+00 0.  1.
          5    1    1    2  502    0 -0.37150170311E+02  0.11522897072E+02  0.57784692764E+03  0.57917361308E+03  0.47000000000E+01 0. -1.
         -5    1    1    2    0  502 -0.95905311813E+02 -0.10138189363E+02  0.23778736676E+03  0.25664281309E+03  0.47000000000E+01 0. -1.
        -11    1    1    2    0    0  0.56255217584E+02  0.33676448372E+02  0.58373185975E+02  0.87784859294E+02  0.00000000000E+00 0.  1.
         11    1    1    2    0    0  0.76800264540E+02 -0.35061156081E+02  0.19356191673E+03  0.21117239617E+03  0.00000000000E+00 0. -1.
<mgrwt>
<rscale>  0 0.38471664E+03</rscale>
<asrwt>0</asrwt>
<pdfrwt beam="1">  1        3 0.16941098E+00 0.38471664E+03</pdfrwt>
<pdfrwt beam="2">  1       -3 0.51695612E-02 0.38471664E+03</pdfrwt>
<totfact> 0.13985935E+02</totfact>
</mgrwt>
</event>
<event>
 6    1  0.5258538E-006  0.1279692E+03  0.7546771E-02  0.1244651E+00
          3   -1    0    0  501    0  0.00000000000E+00  0.00000000000E+00  0.16210606629E+03  0.16210606629E+03  0.00000000000E+00 0. -1.
         -3   -1    0    0    0  501 -0.00000000000E+00 -0.00000000000E+00 -0.94745096598E+02  0.94745096598E+02  0.00000000000E+00 0.  1.
          5    1    1    2  502    0  0.16011792785E+02 -0.44622937984E+02 -0.47910609313E+01  0.47881398971E+02  0.47000000000E+01 0.  1.
         -5    1    1    2    0  502  0.10835397643E+02  0.50133170652E+02  0.97072792416E+02  0.10989066234E+03  0.47000000000E+01 0.  1.
        -11    1    1    2    0    0  0.23687073598E+01  0.38110778934E+02  0.52228725777E+01  0.38539857855E+02  0.00000000000E+00 0. -1.
         11    1    1    2    0    0 -0.29215897788E+02 -0.43621011602E+02 -0.30143634375E+02  0.60539243719E+02  0.00000000000E+00 0.  1.
<mgrwt>
<rscale>  0 0.11906295E+03</rscale>
<asrwt>0</asrwt>
<pdfrwt beam="1">  1        3 0.24939395E-01 0.12796916E+03</pdfrwt>
<pdfrwt beam="2">  1       -3 0.14576169E-01 0.12796916E+03</pdfrwt>
<totfact> 0.13403835E+03</totfact>
</mgrwt>
</event>
<event>
 6    1  0.5258538E-006  0.1994403E+03  0.7546771E-02  0.1154976E+00
         -2   -1    0    0    0  501 -0.00000000000E+00  0.00000000000E+00  0.22681821893E+02  0.22681821893E+02  0.00000000000E+00 0. -1.
          2   -1    0    0  501    0  0.00000000000E+00 -0.00000000000E+00 -0.23439557792E+04  0.23439557792E+04  0.00000000000E+00 0.  1.
          5    1    1    2  502    0  0.23833972914E+02 -0.56834468562E+02 -0.10957390828E+04  0.10974809532E+04  0.47000000000E+01 0.  1.
         -5    1    1    2    0  502  0.11762789129E+03 -0.75048204163E+01 -0.78684558274E+03  0.79563855123E+03  0.47000000000E+01 0.  1.
        -11    1    1    2    0    0 -0.12260140631E+03  0.47222110145E+02 -0.42449212358E+03  0.44435863387E+03  0.00000000000E+00 0.  1.
         11    1    1    2    0    0 -0.18860457893E+02  0.17117178833E+02 -0.14197168136E+02  0.29159462722E+02  0.00000000000E+00 0. -1.
<mgrwt>
<rscale>  0 0.19391603E+03</rscale>
<asrwt>0</asrwt>
<pdfrwt beam="2">  1        2 0.36060842E+00 0.19944030E+03</pdfrwt>
<pdfrwt beam="1">  1       -2 0.34895126E-02 0.19944030E+03</pdfrwt>
<totfact> 0.16589689E+03</totfact>
</mgrwt>
</event>
<event>
 6    1  0.5258538E-006  0.1532746E+03  0.7546771E-02  0.1205076E+00
         -2   -1    0    0    0  501 -0.00000000000E+00  0.00000000000E+00  0.61965940449E+02  0.61965940449E+02  0.00000000000E+00 0.  1.
          2   -1    0    0  501    0  0.00000000000E+00 -0.00000000000E+00 -0.33483562765E+03  0.33483562765E+03  0.00000000000E+00 0. -1.
          5    1    1    2  502    0 -0.42773540600E+02 -0.15093899366E+02 -0.77211033415E+00  0.45607978774E+02  0.47000000000E+01 0.  1.
         -5    1    1    2    0  502 -0.42693952835E+02  0.39012731264E+02 -0.19255355262E+03  0.20110625907E+03  0.47000000000E+01 0.  1.
        -11    1    1    2    0    0  0.37427818290E+02 -0.34131049566E+02 -0.86742812187E+02  0.10044941808E+03  0.00000000000E+00 0. -1.
         11    1    1    2    0    0  0.48039675144E+02  0.10212217668E+02  0.71987879386E+01  0.49637912179E+02  0.00000000000E+00 0.  1.
<mgrwt>
<rscale>  0 0.14631489E+03</rscale>
<asrwt>0</asrwt>
<pdfrwt beam="2">  1        2 0.51513174E-01 0.15327460E+03</pdfrwt>
<pdfrwt beam="1">  1       -2 0.95332214E-02 0.15327460E+03</pdfrwt>
<totfact> 0.66823884E+03</totfact>
</mgrwt>
</event>
<event>
 6    1  0.5258538E-006  0.1514031E+03  0.7546771E-02  0.1204932E+00
          1   -1    0    0  501    0  0.00000000000E+00  0.00000000000E+00  0.73388429896E+02  0.73388429896E+02  0.00000000000E+00 0. -1.
         -1   -1    0    0    0  501 -0.00000000000E+00 -0.00000000000E+00 -0.27676703939E+03  0.27676703939E+03  0.00000000000E+00 0.  1.
          5    1    1    2  502    0  0.78313534112E+02  0.34407319715E+02 -0.15985704625E+02  0.87146463080E+02  0.47000000000E+01 0. -1.
         -5    1    1    2    0  502  0.17480856263E+02 -0.44287446442E+02 -0.76624337052E+02  0.90334585164E+02  0.47000000000E+01 0.  1.
        -11    1    1    2    0    0 -0.74126598989E+02 -0.24177899980E+02 -0.10663105712E+03  0.13209657780E+03  0.00000000000E+00 0.  1.
         11    1    1    2    0    0 -0.21667791385E+02  0.34058026707E+02 -0.41375106941E+01  0.40577843233E+02  0.00000000000E+00 0. -1.
<mgrwt>
<rscale>  0 0.14642856E+03</rscale>
<asrwt>0</asrwt>
<pdfrwt beam="1">  1        1 0.11290528E-01 0.15140311E+03</pdfrwt>
<pdfrwt beam="2">  1       -1 0.42579544E-01 0.15140311E+03</pdfrwt>
<totfact> 0.29157451E+03</totfact>
</mgrwt>
</event>
<event>
 6    1  0.5258538E-006  0.1404524E+03  0.7546771E-02  0.1232064E+00
         -2   -1    0    0    0  501 -0.00000000000E+00  0.00000000000E+00  0.17555366993E+02  0.17555366993E+02  0.00000000000E+00 0.  1.
          2   -1    0    0  501    0  0.00000000000E+00 -0.00000000000E+00 -0.95865779954E+03  0.95865779954E+03  0.00000000000E+00 0. -1.
          5    1    1    2  502    0 -0.30013752273E+02 -0.34883613568E+02 -0.71108040891E+03  0.71258341951E+03  0.47000000000E+01 0. -1.
         -5    1    1    2    0  502  0.28399076508E+02 -0.16805602348E+02 -0.42693312935E+02  0.54164054373E+02  0.47000000000E+01 0.  1.
        -11    1    1    2    0    0 -0.35999172897E+02  0.25411462080E+02 -0.62504577436E+02  0.76475519317E+02  0.00000000000E+00 0. -1.
         11    1    1    2    0    0  0.37613848662E+02  0.26277753837E+02 -0.12482413326E+03  0.13299017333E+03  0.00000000000E+00 0.  1.
<mgrwt>
<rscale>  0 0.12694257E+03</rscale>
<asrwt>0</asrwt>
<pdfrwt beam="2">  1        2 0.14748582E+00 0.14045236E+03</pdfrwt>
<pdfrwt beam="1">  1       -2 0.27008256E-02 0.14045236E+03</pdfrwt>
<totfact> 0.13265334E+04</totfact>
</mgrwt>
</event>
<event>
 6    1  0.5258538E-006  0.2355516E+03  0.7546771E-02  0.1125400E+00
          1   -1    0    0  501    0  0.00000000000E+00  0.00000000000E+00  0.77395581188E+03  0.77395581188E+03  0.00000000000E+00 0. -1.
         -1   -1    0    0    0  501 -0.00000000000E+00 -0.00000000000E+00 -0.90215171864E+02  0.90215171864E+02  0.00000000000E+00 0.  1.
          5    1    1    2  502    0  0.14206754205E+03  0.85869095477E+02  0.40249237656E+03  0.43540658154E+03  0.47000000000E+01 0. -1.
         -5    1    1    2    0  502 -0.14564292365E+02  0.67770155977E+02  0.16546486816E+03  0.17945925791E+03  0.47000000000E+01 0. -1.
        -11    1    1    2    0    0 -0.11907614843E+03 -0.13839891361E+03  0.62066498597E+02  0.19283578159E+03  0.00000000000E+00 0.  1.
         11    1    1    2    0    0 -0.84271012566E+01 -0.15240337844E+02  0.53716896691E+02  0.56469362696E+02  0.00000000000E+00 0. -1.
<mgrwt>
<rscale>  0 0.23177061E+03</rscale>
<asrwt>0</asrwt>
<pdfrwt beam="1">  1        1 0.11907012E+00 0.23555163E+03</pdfrwt>
<pdfrwt beam="2">  1       -1 0.13879258E-01 0.23555163E+03</pdfrwt>
<totfact> 0.88506185E+02</totfact>
</mgrwt>
</event>
<event>
 6    1  0.5258538E-006  0.1419211E+03  0.7546771E-02  0.1221323E+00
          1   -1    0    0  501    0  0.00000000000E+00  0.00000000000E+00  0.60132368295E+02  0.60132368295E+02  0.00000000000E+00 0. -1.
         -1   -1    0    0    0  501 -0.00000000000E+00 -0.00000000000E+00 -0.31977205483E+03  0.31977205483E+03  0.00000000000E+00 0.  1.
          5    1    1    2  502    0  0.17047764299E+00 -0.34985530320E+02 -0.92447648233E+02  0.98957940855E+02  0.47000000000E+01 0.  1.
         -5    1    1    2    0  502  0.52951995780E+02 -0.61858697301E+01  0.23944357900E+02  0.58631059317E+02  0.47000000000E+01 0.  1.
        -11    1    1    2    0    0  0.79764611994E+01  0.27660347318E+02 -0.13568842446E+03  0.13870856960E+03  0.00000000000E+00 0.  1.
         11    1    1    2    0    0 -0.61098934622E+02  0.13511052731E+02 -0.55447971741E+02  0.83606853356E+02  0.00000000000E+00 0. -1.
<mgrwt>
<rscale>  0 0.13422120E+03</rscale>
<asrwt>0</asrwt>
<pdfrwt beam="1">  1        1 0.92511335E-02 0.14192108E+03</pdfrwt>
<pdfrwt beam="2">  1       -1 0.49195701E-01 0.14192108E+03</pdfrwt>
<totfact> 0.29196530E+03</totfact>
</mgrwt>
</event>
<event>
 6    1  0.5258538E-006  0.1298437E+03  0.7546771E-02  0.1241919E+00
          2   -1    0    0  501    0  0.00000000000E+00  0.00000000000E+00  0.34612720315E+03  0.34612720315E+03  0.00000000000E+00 0. -1.
         -2   -1    0    0    0  501 -0.00000000000E+00 -0.00000000000E+00 -0.45055820248E+02  0.45055820248E+02  0.00000000000E+00 0.  1.
          5    1    1    2  502    0  0.23935335162E+02 -0.52560958099E+02  0.17835614273E+03  0.18753281909E+03  0.47000000000E+01 0. -1.
         -5    1    1    2    0  502  0.10434477086E+02  0.59969380231E+02  0.71274818805E+02  0.93847720659E+02  0.47000000000E+01 0. -1.
        -11    1    1    2    0    0 -0.26283040667E+02 -0.33331107108E+02 -0.91350293857E+01  0.43419001482E+02  0.00000000000E+00 0.  1.
         11    1    1    2    0    0 -0.80867715812E+01  0.25922684977E+02  0.60575450756E+02  0.66383482172E+02  0.00000000000E+00 0. -1.
<mgrwt>
<rscale>  0 0.12071663E+03</rscale>
<asrwt>0</asrwt>
<pdfrwt beam="1">  1        2 0.53250337E-01 0.12984372E+03</pdfrwt>
<pdfrwt beam="2">  1       -2 0.69316649E-02 0.12984372E+03</pdfrwt>
<totfact> 0.10446589E+04</totfact>
</mgrwt>
</event>
<event>
 6    1  0.5258538E-006  0.4475287E+03  0.7546771E-02  0.1028462E+00
          3   -1    0    0  501    0  0.00000000000E+00  0.00000000000E+00  0.32666612820E+03  0.32666612820E+03  0.00000000000E+00 0. -1.
         -3   -1    0    0    0  501 -0.00000000000E+00 -0.00000000000E+00 -0.15327724192E+03  0.15327724192E+03  0.00000000000E+00 0.  1.
          5    1    1    2  502    0 -0.99780816589E+02  0.16418077160E+03  0.15510152007E+03  0.24696175544E+03  0.47000000000E+01 0. -1.
         -5    1    1    2    0  502  0.22165701880E+02 -0.62966323251E+01  0.22314818279E+02  0.32419238629E+02  0.47000000000E+01 0. -1.
        -11    1    1    2    0    0 -0.32673782758E+01 -0.37171114308E+02 -0.35924797708E+02  0.51797283617E+02  0.00000000000E+00 0.  1.
         11    1    1    2    0    0  0.80882492984E+02 -0.12071302496E+03  0.31897345633E+02  0.14876509243E+03  0.00000000000E+00 0. -1.
<mgrwt>
<rscale>  0 0.44752869E+03</rscale>
<asrwt>0</asrwt>
<pdfrwt beam="1">  1        3 0.50256327E-01 0.44752869E+03</pdfrwt>
<pdfrwt beam="2">  1       -3 0.23581114E-01 0.44752869E+03</pdfrwt>
<totfact> 0.17261116E+02</totfact>
</mgrwt>
</event>
<event>
 6    1  0.5258538E-006  0.1814749E+03  0.7546771E-02  0.1171712E+00
         -1   -1    0    0    0  501 -0.00000000000E+00  0.00000000000E+00  0.13671494853E+03  0.13671494853E+03  0.00000000000E+00 0.  1.
          1   -1    0    0  501    0  0.00000000000E+00 -0.00000000000E+00 -0.25880755375E+03  0.25880755375E+03  0.00000000000E+00 0. -1.
          5    1    1    2  502    0  0.12648607811E+02 -0.42911358751E+01 -0.10431446402E+03  0.10527107167E+03  0.47000000000E+01 0. -1.
         -5    1    1    2    0  502  0.11382670389E+03  0.39978834155E+02 -0.41969915830E+02  0.12782170994E+03  0.47000000000E+01 0.  1.
        -11    1    1    2    0    0  0.76794582264E+00 -0.10509824142E+02  0.30798334017E+02  0.32551244562E+02  0.00000000000E+00 0.  1.
         11    1    1    2    0    0 -0.12724325752E+03 -0.25177874138E+02 -0.66065593881E+01  0.12987847611E+03  0.00000000000E+00 0. -1.
<mgrwt>
<rscale>  0 0.17601958E+03</rscale>
<asrwt>0</asrwt>
<pdfrwt beam="2">  1        1 0.39816546E-01 0.18147486E+03</pdfrwt>
<pdfrwt beam="1">  1       -1 0.21033069E-01 0.18147486E+03</pdfrwt>
<totfact> 0.19364353E+03</totfact>
</mgrwt>
</event>
<event>
 6    1  0.5258538E-006  0.1804021E+03  0.7546771E-02  0.1173057E+00
          1   -1    0    0  501    0  0.00000000000E+00  0.00000000000E+00  0.31909860014E+03  0.31909860014E+03  0.00000000000E+00 0. -1.
         -1   -1    0    0    0  501 -0.00000000000E+00 -0.00000000000E+00 -0.99300604134E+02  0.99300604134E+02  0.00000000000E+00 0.  1.
          5    1    1    2  502    0 -0.13053615157E+03  0.51362063177E+02  0.10761437888E+03  0.17686348674E+03  0.47000000000E+01 0.  1.
         -5    1    1    2    0  502  0.25024063559E+01 -0.28415612233E+02  0.72538813918E+02  0.78087633981E+02  0.47000000000E+01 0.  1.
        -11    1    1    2    0    0  0.10618136498E+03 -0.50393651541E+02  0.10798520736E+02  0.11802800699E+03  0.00000000000E+00 0.  1.
         11    1    1    2    0    0  0.21852380229E+02  0.27447200597E+02  0.28846282472E+02  0.45420076561E+02  0.00000000000E+00 0. -1.
<mgrwt>
<rscale>  0 0.17467649E+03</rscale>
<asrwt>0</asrwt>
<pdfrwt beam="1">  1        1 0.49092092E-01 0.18040205E+03</pdfrwt>
<pdfrwt beam="2">  1       -1 0.15277016E-01 0.18040205E+03</pdfrwt>
<totfact> 0.24877921E+03</totfact>
</mgrwt>
</event>
<event>
 6    1  0.5258538E-006  0.2211736E+03  0.7546771E-02  0.1136217E+00
         -1   -1    0    0    0  501 -0.00000000000E+00  0.00000000000E+00  0.30612533888E+03  0.30612533888E+03  0.00000000000E+00 0.  1.
          1   -1    0    0  501    0  0.00000000000E+00 -0.00000000000E+00 -0.16078457491E+03  0.16078457491E+03  0.00000000000E+00 0. -1.
          5    1    1    2  502    0 -0.12167420065E+03  0.31457732798E+02 -0.39572198266E+02  0.13184175716E+03  0.47000000000E+01 0.  1.
         -5    1    1    2    0  502 -0.60353078722E+02 -0.44041211919E+02  0.49120309363E+02  0.89537797887E+02  0.47000000000E+01 0.  1.
        -11    1    1    2    0    0  0.15943210788E+03  0.41665095954E+02  0.12595647457E+03  0.20741169381E+03  0.00000000000E+00 0.  1.
         11    1    1    2    0    0  0.22595171492E+02 -0.29081616833E+02  0.98361782933E+01  0.38118664927E+02  0.00000000000E+00 0. -1.
<mgrwt>
<rscale>  0 0.21689823E+03</rscale>
<asrwt>0</asrwt>
<pdfrwt beam="2">  1        1 0.24736088E-01 0.22117355E+03</pdfrwt>
<pdfrwt beam="1">  1       -1 0.47096206E-01 0.22117355E+03</pdfrwt>
<totfact> 0.88939562E+02</totfact>
</mgrwt>
</event>
<event>
 6    1  0.5258538E-006  0.1522125E+03  0.7546771E-02  0.1207917E+00
          3   -1    0    0  501    0  0.00000000000E+00  0.00000000000E+00  0.13347999989E+03  0.13347999989E+03  0.00000000000E+00 0. -1.
         -3   -1    0    0    0  501 -0.00000000000E+00 -0.00000000000E+00 -0.14312379195E+03  0.14312379195E+03  0.00000000000E+00 0.  1.
          5    1    1    2  502    0 -0.99522487561E+02  0.14383341462E+02  0.39676877825E+01  0.10074442212E+03  0.47000000000E+01 0.  1.
         -5    1    1    2    0  502  0.19201011995E+02 -0.47431846741E+02  0.70294910674E+01  0.51864850251E+02  0.47000000000E+01 0.  1.
        -11    1    1    2    0    0  0.33471003481E+02  0.58538396405E+02 -0.21102807085E+02  0.70656778830E+02  0.00000000000E+00 0.  1.
         11    1    1    2    0    0  0.46850472084E+02 -0.25489891127E+02  0.46183617142E+00  0.53337740643E+02  0.00000000000E+00 0. -1.
<mgrwt>
<rscale>  0 0.14409962E+03</rscale>
<asrwt>0</asrwt>
<pdfrwt beam="1">  1        3 0.20535385E-01 0.15221252E+03</pdfrwt>
<pdfrwt beam="2">  1       -3 0.22019045E-01 0.15221252E+03</pdfrwt>
<totfact> 0.95018276E+02</totfact>
</mgrwt>
</event>
<event>
 6    1  0.5258538E-006  0.1290590E+03  0.7546771E-02  0.1243258E+00
          3   -1    0    0  501    0  0.00000000000E+00  0.00000000000E+00  0.27823194728E+03  0.27823194728E+03  0.00000000000E+00 0. -1.
         -3   -1    0    0    0  501 -0.00000000000E+00 -0.00000000000E+00 -0.46237525693E+02  0.46237525693E+02  0.00000000000E+00 0.  1.
          5    1    1    2  502    0 -0.44283941323E+02  0.60369275194E+01 -0.75409650591E-01  0.44940044944E+02  0.47000000000E+01 0. -1.
         -5    1    1    2    0  502  0.15986366747E+02 -0.21354176357E+02  0.15203456718E+03  0.15442850898E+03  0.47000000000E+01 0. -1.
        -11    1    1    2    0    0  0.22704764267E+02  0.51013228707E+02  0.30008354399E+02  0.63390513148E+02  0.00000000000E+00 0. -1.
         11    1    1    2    0    0  0.55928103094E+01 -0.35695979869E+02  0.50026909665E+02  0.61710405902E+02  0.00000000000E+00 0.  1.
<mgrwt>
<rscale>  0 0.11990224E+03</rscale>
<asrwt>0</asrwt>
<pdfrwt beam="1">  1        3 0.42804914E-01 0.12905904E+03</pdfrwt>
<pdfrwt beam="2">  1       -3 0.71134656E-02 0.12905904E+03</pdfrwt>
<totfact> 0.16019858E+03</totfact>
</mgrwt>
</event>
<event>
 6    1  0.5258538E-006  0.3544870E+03  0.7546771E-02  0.1060788E+00
          1   -1    0    0  501    0  0.00000000000E+00  0.00000000000E+00  0.10515549813E+03  0.10515549813E+03  0.00000000000E+00 0. -1.
         -1   -1    0    0    0  501 -0.00000000000E+00 -0.00000000000E+00 -0.29875053036E+03  0.29875053036E+03  0.00000000000E+00 0.  1.
          5    1    1    2  502    0 -0.36636335027E+02  0.12914726751E+03 -0.45280254604E+02  0.14175199895E+03  0.47000000000E+01 0. -1.
         -5    1    1    2    0  502  0.21927282400E+02 -0.86177780280E+01  0.23818865621E+02  0.33830462177E+02  0.47000000000E+01 0. -1.
        -11    1    1    2    0    0 -0.27731178161E+02 -0.27895752921E+02 -0.87247835964E+02  0.95704629740E+02  0.00000000000E+00 0. -1.
         11    1    1    2    0    0  0.42440230788E+02 -0.92633736563E+02 -0.84885807286E+02  0.13261893763E+03  0.00000000000E+00 0.  1.
<mgrwt>
<rscale>  0 0.35448701E+03</rscale>
<asrwt>0</asrwt>
<pdfrwt beam="1">  1        1 0.16177769E-01 0.35448701E+03</pdfrwt>
<pdfrwt beam="2">  1       -1 0.45961619E-01 0.35448701E+03</pdfrwt>
<totfact> 0.16246160E+03</totfact>
</mgrwt>
</event>
<event>
 6    1  0.5258538E-006  0.1462039E+03  0.7546771E-02  0.1214724E+00
         -1   -1    0    0    0  501 -0.00000000000E+00  0.00000000000E+00  0.40151369581E+02  0.40151369581E+02  0.00000000000E+00 0.  1.
          1   -1    0    0  501    0  0.00000000000E+00 -0.00000000000E+00 -0.43905165407E+03  0.43905165407E+03  0.00000000000E+00 0. -1.
          5    1    1    2  502    0  0.40694033818E+02 -0.66064468390E+02 -0.91772383103E+02  0.12026960827E+03  0.47000000000E+01 0. -1.
         -5    1    1    2    0  502 -0.65000350834E+02 -0.57732666505E+01 -0.12696172460E+03  0.14282767844E+03  0.47000000000E+01 0. -1.
        -11    1    1    2    0    0 -0.30577435036E+02  0.43491106827E+02 -0.11282932325E+03  0.12472735101E+03  0.00000000000E+00 0. -1.
         11    1    1    2    0    0  0.54883752052E+02  0.28346628214E+02 -0.67336853543E+02  0.91378385931E+02  0.00000000000E+00 0.  1.
<mgrwt>
<rscale>  0 0.13896803E+03</rscale>
<asrwt>0</asrwt>
<pdfrwt beam="2">  1        1 0.67546409E-01 0.14620387E+03</pdfrwt>
<pdfrwt beam="1">  1       -1 0.61771337E-02 0.14620387E+03</pdfrwt>
<totfact> 0.65980744E+03</totfact>
</mgrwt>
</event>
<event>
 6    1  0.5258538E-006  0.1256741E+03  0.7546771E-02  0.1250181E+00
         -2   -1    0    0    0  501 -0.00000000000E+00  0.00000000000E+00  0.55936156243E+02  0.55936156243E+02  0.00000000000E+00 0.  1.
          2   -1    0    0  501    0  0.00000000000E+00 -0.00000000000E+00 -0.20933512667E+03  0.20933512667E+03  0.00000000000E+00 0. -1.
          5    1    1    2  502    0 -0.30722898589E+01  0.63364323641E+02 -0.44713608360E+02  0.77755213639E+02  0.47000000000E+01 0.  1.
         -5    1    1    2    0  502 -0.96931601693E+01 -0.61040211056E+02 -0.49022099627E+02  0.79026077795E+02  0.47000000000E+01 0.  1.
        -11    1    1    2    0    0  0.14656288897E+02  0.42791280065E+02 -0.33672760132E+02  0.56389318392E+02  0.00000000000E+00 0. -1.
         11    1    1    2    0    0 -0.18908388683E+01 -0.45115392650E+02 -0.25990502304E+02  0.52100673082E+02  0.00000000000E+00 0.  1.
<mgrwt>
<rscale>  0 0.11580567E+03</rscale>
<asrwt>0</asrwt>
<pdfrwt beam="2">  1        2 0.32205404E-01 0.12567414E+03</pdfrwt>
<pdfrwt beam="1">  1       -2 0.86055625E-02 0.12567414E+03</pdfrwt>
<totfact> 0.12743636E+04</totfact>
</mgrwt>
</event>
<event>
 6    1  0.5258538E-006  0.3840739E+03  0.7546771E-02  0.1049438E+00
         -1   -1    0    0    0  501 -0.00000000000E+00  0.00000000000E+00  0.38339574648E+02  0.38339574648E+02  0.00000000000E+00 0.  1.
          1   -1    0    0  501    0  0.00000000000E+00 -0.00000000000E+00 -0.96188306539E+03  0.96188306539E+03  0.00000000000E+00 0. -1.
          5    1    1    2  502    0  0.10215120756E+03 -0.30097288768E+02 -0.62004856896E+03  0.62914468437E+03  0.47000000000E+01 0. -1.
         -5    1    1    2    0  502 -0.22521242787E+02  0.20813804500E+02 -0.20417095990E+03  0.20651462830E+03  0.47000000000E+01 0.  1.
        -11    1    1    2    0    0 -0.17726351844E+02 -0.17874556691E+02 -0.93368409406E+02  0.96702550130E+02  0.00000000000E+00 0. -1.
         11    1    1    2    0    0 -0.61903612933E+02  0.27158040959E+02 -0.59555524772E+01  0.67860777244E+02  0.00000000000E+00 0.  1.
<mgrwt>
<rscale>  0 0.38407389E+03</rscale>
<asrwt>0</asrwt>
<pdfrwt beam="2">  1        1 0.14798201E+00 0.38407389E+03</pdfrwt>
<pdfrwt beam="1">  1       -1 0.58983960E-02 0.38407389E+03</pdfrwt>
<totfact> 0.23486816E+03</totfact>
</mgrwt>
</event>
<event>
 6    1  0.5258538E-006  0.1386548E+03  0.7546771E-02  0.1227032E+00
         -2   -1    0    0    0  501 -0.00000000000E+00  0.00000000000E+00  0.13025184367E+03  0.13025184367E+03  0.00000000000E+00 0.  1.
          2   -1    0    0  501    0  0.00000000000E+00 -0.00000000000E+00 -0.13985948283E+03  0.13985948283E+03  0.00000000000E+00 0. -1.
          5    1    1    2  502    0 -0.28397682136E+02 -0.24587158946E+02 -0.35274212256E+02  0.51742794532E+02  0.47000000000E+01 0. -1.
         -5    1    1    2    0  502  0.56945446482E+02  0.77352532706E+02 -0.24447645658E+02  0.99226889346E+02  0.47000000000E+01 0. -1.
        -11    1    1    2    0    0  0.19089113580E+02 -0.30493344829E+02  0.55648906581E+02  0.66264916357E+02  0.00000000000E+00 0.  1.
         11    1    1    2    0    0 -0.47636877926E+02 -0.22272028931E+02 -0.55346878292E+01  0.52876726266E+02  0.00000000000E+00 0. -1.
<mgrwt>
<rscale>  0 0.13028571E+03</rscale>
<asrwt>0</asrwt>
<pdfrwt beam="2">  1        2 0.21516844E-01 0.13865477E+03</pdfrwt>
<pdfrwt beam="1">  1       -2 0.20038745E-01 0.13865477E+03</pdfrwt>
<totfact> 0.51071330E+03</totfact>
</mgrwt>
</event>
<event>
 6    1  0.5258538E-006  0.1311033E+03  0.7546771E-02  0.1239616E+00
          1   -1    0    0  501    0  0.00000000000E+00  0.00000000000E+00  0.28823700462E+03  0.28823700462E+03  0.00000000000E+00 0. -1.
         -1   -1    0    0    0  501 -0.00000000000E+00 -0.00000000000E+00 -0.58890397789E+02  0.58890397789E+02  0.00000000000E+00 0.  1.
          5    1    1    2  502    0  0.41256708703E+02  0.63409711510E+02  0.82363901954E+02  0.11193216639E+03  0.47000000000E+01 0. -1.
         -5    1    1    2    0  502 -0.58978077562E+01 -0.45707036491E+02  0.12599715892E+03  0.13424340348E+03  0.47000000000E+01 0. -1.
        -11    1    1    2    0    0  0.18340823491E+02 -0.26553058198E+02 -0.15122351485E+02  0.35638970530E+02  0.00000000000E+00 0.  1.
         11    1    1    2    0    0 -0.53699724438E+02  0.88503831794E+01  0.36107897441E+02  0.65312862016E+02  0.00000000000E+00 0. -1.
<mgrwt>
<rscale>  0 0.12213517E+03</rscale>
<asrwt>0</asrwt>
<pdfrwt beam="1">  1        1 0.44344154E-01 0.13110332E+03</pdfrwt>
<pdfrwt beam="2">  1       -1 0.90600614E-02 0.13110332E+03</pdfrwt>
<totfact> 0.62369286E+03</totfact>
</mgrwt>
</event>
<event>
 6    1  0.5258538E-006  0.1282504E+03  0.7546771E-02  0.1261626E+00
          2   -1    0    0  501    0  0.00000000000E+00  0.00000000000E+00  0.18715738203E+03  0.18715738203E+03  0.00000000000E+00 0. -1.
         -2   -1    0    0    0  501 -0.00000000000E+00 -0.00000000000E+00 -0.77158057844E+02  0.77158057844E+02  0.00000000000E+00 0.  1.
          5    1    1    2  502    0 -0.10287137347E+02  0.70668321764E+02  0.12561309279E+03  0.14457031499E+03  0.47000000000E+01 0. -1.
         -5    1    1    2    0  502  0.53714922841E+01 -0.42406792387E+02  0.14512955929E+02  0.45386174764E+02  0.47000000000E+01 0. -1.
        -11    1    1    2    0    0  0.29865751505E+02 -0.30390539438E+02 -0.22485412449E+02  0.48178229246E+02  0.00000000000E+00 0. -1.
         11    1    1    2    0    0 -0.24950106442E+02  0.21290100609E+01 -0.76413120814E+01  0.26180720877E+02  0.00000000000E+00 0.  1.
<mgrwt>
<rscale>  0 0.10943177E+03</rscale>
<asrwt>0</asrwt>
<pdfrwt beam="1">  1        2 0.28793443E-01 0.12825037E+03</pdfrwt>
<pdfrwt beam="2">  1       -2 0.11870471E-01 0.12825037E+03</pdfrwt>
<totfact> 0.86926080E+03</totfact>
</mgrwt>
</event>
<event>
 6    1  0.5258538E-006  0.1251732E+03  0.7546771E-02  0.1250008E+00
         -2   -1    0    0    0  501 -0.00000000000E+00  0.00000000000E+00  0.21287297027E+02  0.21287297027E+02  0.00000000000E+00 0. -1.
          2   -1    0    0  501    0  0.00000000000E+00 -0.00000000000E+00 -0.55510340437E+03  0.55510340437E+03  0.00000000000E+00 0.  1.
          5    1    1    2  502    0  0.33822454009E+02 -0.94929723284E+01 -0.19656338064E+02  0.40528219119E+02  0.47000000000E+01 0. -1.
         -5    1    1    2    0  502 -0.37380896719E+02  0.15050716108E+02 -0.30052989197E+03  0.30325593393E+03  0.47000000000E+01 0. -1.
        -11    1    1    2    0    0  0.24888899637E+02  0.35638923541E+02 -0.12854963166E+03  0.13570039793E+03  0.00000000000E+00 0.  1.
         11    1    1    2    0    0 -0.21330456927E+02 -0.41196667321E+02 -0.85080245639E+02  0.96906150419E+02  0.00000000000E+00 0. -1.
<mgrwt>
<rscale>  0 0.11590617E+03</rscale>
<asrwt>0</asrwt>
<pdfrwt beam="2">  1        2 0.85400508E-01 0.12517317E+03</pdfrwt>
<pdfrwt beam="1">  1       -2 0.32749694E-02 0.12517317E+03</pdfrwt>
<totfact> 0.19211953E+04</totfact>
</mgrwt>
</event>
<event>
 6    1  0.5258538E-006  0.4589387E+03  0.7546771E-02  0.1025089E+00
          2   -1    0    0  501    0  0.00000000000E+00  0.00000000000E+00  0.10310568779E+04  0.10310568779E+04  0.00000000000E+00 0. -1.
         -2   -1    0    0    0  501 -0.00000000000E+00 -0.00000000000E+00 -0.51070105196E+02  0.51070105196E+02  0.00000000000E+00 0.  1.
          5    1    1    2  502    0  0.20611972887E+03 -0.36752379172E+02  0.53524635225E+03  0.57475806005E+03  0.47000000000E+01 0. -1.
         -5    1    1    2    0  502 -0.60832417623E+01  0.19700376775E+02  0.21593900544E+02  0.30224116465E+02  0.47000000000E+01 0. -1.
        -11    1    1    2    0    0 -0.15176637372E+03  0.19132414699E+01  0.38484180458E+03  0.41369059361E+03  0.00000000000E+00 0. -1.
         11    1    1    2    0    0 -0.48270113380E+02  0.15138760928E+02  0.38304715355E+02  0.63454212993E+02  0.00000000000E+00 0.  1.
<mgrwt>
<rscale>  0 0.45893870E+03</rscale>
<asrwt>0</asrwt>
<pdfrwt beam="1">  1        2 0.15862412E+00 0.45893870E+03</pdfrwt>
<pdfrwt beam="2">  1       -2 0.78569400E-02 0.45893870E+03</pdfrwt>
<totfact> 0.24486676E+03</totfact>
</mgrwt>
</event>
<event>
 6    1  0.5258538E-006  0.1399664E+03  0.7546771E-02  0.1279542E+00
          1   -1    0    0  501    0  0.00000000000E+00  0.00000000000E+00  0.16336455199E+03  0.16336455199E+03  0.00000000000E+00 0. -1.
         -1   -1    0    0    0  501 -0.00000000000E+00 -0.00000000000E+00 -0.48040009850E+02  0.48040009850E+02  0.00000000000E+00 0.  1.
          5    1    1    2  502    0  0.58830753871E+01  0.57992350333E+02  0.85262475229E+02  0.10339005250E+03  0.47000000000E+01 0. -1.
         -5    1    1    2    0  502 -0.37811395630E+02 -0.52910035423E+02  0.10109969431E+02  0.65980868210E+02  0.47000000000E+01 0.  1.
        -11    1    1    2    0    0  0.17517272726E+02  0.53133553171E+01  0.14778831608E+02  0.23526590322E+02  0.00000000000E+00 0.  1.
         11    1    1    2    0    0  0.14411047517E+02 -0.10395670227E+02  0.51732658756E+01  0.18507050814E+02  0.00000000000E+00 0. -1.
<mgrwt>
<rscale>  0 0.10035941E+03</rscale>
<asrwt>0</asrwt>
<pdfrwt beam="1">  1        1 0.25133008E-01 0.13996644E+03</pdfrwt>
<pdfrwt beam="2">  1       -1 0.73907708E-02 0.13996644E+03</pdfrwt>
<totfact> 0.17252996E+04</totfact>
</mgrwt>
</event>
<event>
 6    1  0.5258538E-006  0.4261018E+03  0.7546771E-02  0.1035099E+00
          1   -1    0    0  501    0  0.00000000000E+00  0.00000000000E+00  0.21949345314E+03  0.21949345314E+03  0.00000000000E+00 0. -1.
         -1   -1    0    0    0  501 -0.00000000000E+00 -0.00000000000E+00 -0.20679740609E+03  0.20679740609E+03  0.00000000000E+00 0.  1.
          5    1    1    2  502    0  0.96879936932E+02  0.13137733715E+03  0.92354059297E+02  0.18760887283E+03  0.47000000000E+01 0.  1.
         -5    1    1    2    0  502  0.83684114813E+01  0.50299766393E+01 -0.31882517754E+02  0.33673667962E+02  0.47000000000E+01 0.  1.
        -11    1    1    2    0    0  0.12173355508E+02 -0.51507795265E+02 -0.24226562084E+02  0.58207988007E+02  0.00000000000E+00 0.  1.
         11    1    1    2    0    0 -0.11742170392E+03 -0.84899518522E+02 -0.23548932405E+02  0.14680033043E+03  0.00000000000E+00 0. -1.
<mgrwt>
<rscale>  0 0.42610176E+03</rscale>
<asrwt>0</asrwt>
<pdfrwt beam="1">  1        1 0.33768224E-01 0.42610176E+03</pdfrwt>
<pdfrwt beam="2">  1       -1 0.31814986E-01 0.42610176E+03</pdfrwt>
<totfact> 0.12089779E+03</totfact>
</mgrwt>
</event>
<event>
 6    1  0.5258538E-006  0.4240918E+03  0.7546771E-02  0.1035743E+00
          2   -1    0    0  501    0  0.00000000000E+00  0.00000000000E+00  0.27694997856E+04  0.27694997856E+04  0.00000000000E+00 0. -1.
         -2   -1    0    0    0  501 -0.00000000000E+00 -0.00000000000E+00 -0.16235231071E+02  0.16235231071E+02  0.00000000000E+00 0.  1.
          5    1    1    2  502    0 -0.53809601038E+02 -0.89149267576E+01  0.50358680390E+03  0.50655375642E+03  0.47000000000E+01 0. -1.
         -5    1    1    2    0  502 -0.19580030744E+02  0.13225856304E+03  0.16696480526E+04  0.16749992282E+04  0.47000000000E+01 0. -1.
        -11    1    1    2    0    0  0.37765774144E+01 -0.93007584040E+02  0.30908975456E+03  0.32280202850E+03  0.00000000000E+00 0.  1.
         11    1    1    2    0    0  0.69613054367E+02 -0.30336052239E+02  0.27093994349E+03  0.28138000353E+03  0.00000000000E+00 0. -1.
<mgrwt>
<rscale>  0 0.42409182E+03</rscale>
<asrwt>0</asrwt>
<pdfrwt beam="1">  1        2 0.42607651E+00 0.42409182E+03</pdfrwt>
<pdfrwt beam="2">  1       -2 0.24977301E-02 0.42409182E+03</pdfrwt>
<totfact> 0.15506774E+03</totfact>
</mgrwt>
</event>
<event>
 6    1  0.5258538E-006  0.1443170E+03  0.7546771E-02  0.1218036E+00
          2   -1    0    0  501    0  0.00000000000E+00  0.00000000000E+00  0.11539218783E+03  0.11539218783E+03  0.00000000000E+00 0. -1.
         -2   -1    0    0    0  501 -0.00000000000E+00 -0.00000000000E+00 -0.14950634668E+03  0.14950634668E+03  0.00000000000E+00 0.  1.
          5    1    1    2  502    0 -0.53709987442E+02  0.65292401152E+01  0.21082112261E+02  0.58257524706E+02  0.47000000000E+01 0. -1.
         -5    1    1    2    0  502  0.30901638182E+02  0.61924222820E+02 -0.58730559023E+02  0.90889433804E+02  0.47000000000E+01 0. -1.
        -11    1    1    2    0    0 -0.11044718807E+02 -0.40544332506E+02  0.40514280034E+02  0.58371530720E+02  0.00000000000E+00 0. -1.
         11    1    1    2    0    0  0.33853068068E+02 -0.27909130429E+02 -0.36979992128E+02  0.57380045283E+02  0.00000000000E+00 0.  1.
<mgrwt>
<rscale>  0 0.13655868E+03</rscale>
<asrwt>0</asrwt>
<pdfrwt beam="1">  1        2 0.17752644E-01 0.14431705E+03</pdfrwt>
<pdfrwt beam="2">  1       -2 0.23000976E-01 0.14431705E+03</pdfrwt>
<totfact> 0.50313467E+03</totfact>
</mgrwt>
</event>
<event>
 6    1  0.5258538E-006  0.1720088E+03  0.7546771E-02  0.1182112E+00
          2   -1    0    0  501    0  0.00000000000E+00  0.00000000000E+00  0.49895218275E+03  0.49895218275E+03  0.00000000000E+00 0. -1.
         -2   -1    0    0    0  501 -0.00000000000E+00 -0.00000000000E+00 -0.51726006419E+02  0.51726006419E+02  0.00000000000E+00 0.  1.
          5    1    1    2  502    0 -0.26969425651E+02  0.33682969251E+02  0.63016319968E+02  0.76518226063E+02  0.47000000000E+01 0.  1.
         -5    1    1    2    0  502  0.12400927834E+03  0.33741576289E+02  0.18574685396E+03  0.22592206364E+03  0.47000000000E+01 0.  1.
        -11    1    1    2    0    0 -0.64136251748E+02 -0.39585806321E+02  0.18987998315E+03  0.20429122069E+03  0.00000000000E+00 0. -1.
         11    1    1    2    0    0 -0.32903600938E+02 -0.27838739219E+02  0.85830192582E+01  0.43946678778E+02  0.00000000000E+00 0.  1.
<mgrwt>
<rscale>  0 0.16597448E+03</rscale>
<asrwt>0</asrwt>
<pdfrwt beam="1">  1        2 0.76761871E-01 0.17200876E+03</pdfrwt>
<pdfrwt beam="2">  1       -2 0.79578475E-02 0.17200876E+03</pdfrwt>
<totfact> 0.57934743E+03</totfact>
</mgrwt>
</event>
<event>
 6    1  0.5258538E-006  0.1345613E+03  0.7546771E-02  0.1239984E+00
          2   -1    0    0  501    0  0.00000000000E+00  0.00000000000E+00  0.41264980813E+03  0.41264980813E+03  0.00000000000E+00 0. -1.
         -2   -1    0    0    0  501 -0.00000000000E+00 -0.00000000000E+00 -0.33006242654E+02  0.33006242654E+02  0.00000000000E+00 0.  1.
          5    1    1    2  502    0 -0.32949867789E+02 -0.54353211900E+02  0.10497581939E+03  0.12280870526E+03  0.47000000000E+01 0. -1.
         -5    1    1    2    0  502  0.30561453010E+02  0.60631384827E+02  0.17680966831E+03  0.18945689759E+03  0.47000000000E+01 0.  1.
        -11    1    1    2    0    0 -0.23239226928E+02 -0.27807551302E+00  0.10383126614E+03  0.10640052078E+03  0.00000000000E+00 0. -1.
         11    1    1    2    0    0  0.25627641707E+02 -0.60000974143E+01 -0.59731883658E+01  0.26989927153E+02  0.00000000000E+00 0.  1.
<mgrwt>
<rscale>  0 0.12190683E+03</rscale>
<asrwt>0</asrwt>
<pdfrwt beam="1">  1        2 0.63484582E-01 0.13456131E+03</pdfrwt>
<pdfrwt beam="2">  1       -2 0.50778838E-02 0.13456131E+03</pdfrwt>
<totfact> 0.13918253E+04</totfact>
</mgrwt>
</event>
<event>
 6    1  0.5258538E-006  0.1989528E+03  0.7546771E-02  0.1155012E+00
         -1   -1    0    0    0  501 -0.00000000000E+00  0.00000000000E+00  0.23869341961E+03  0.23869341961E+03  0.00000000000E+00 0.  1.
          1   -1    0    0  501    0  0.00000000000E+00 -0.00000000000E+00 -0.18450293487E+03  0.18450293487E+03  0.00000000000E+00 0. -1.
          5    1    1    2  502    0 -0.11139544844E+03 -0.90641647509E+02 -0.82245010311E+02  0.16556323843E+03  0.47000000000E+01 0. -1.
         -5    1    1    2    0  502 -0.28960155636E+02  0.25397803278E+02  0.18990975114E+02  0.43202848998E+02  0.47000000000E+01 0. -1.
        -11    1    1    2    0    0  0.46192014433E+02 -0.13455867660E+02  0.65252713559E+02  0.81072061764E+02  0.00000000000E+00 0.  1.
         11    1    1    2    0    0  0.94163589645E+02  0.78699711891E+02  0.52191806382E+02  0.13335820530E+03  0.00000000000E+00 0. -1.
<mgrwt>
<rscale>  0 0.19387543E+03</rscale>
<asrwt>0</asrwt>
<pdfrwt beam="2">  1        1 0.28385067E-01 0.19895277E+03</pdfrwt>
<pdfrwt beam="1">  1       -1 0.36722065E-01 0.19895277E+03</pdfrwt>
<totfact> 0.11627746E+03</totfact>
</mgrwt>
</event>
<event>
 6    1  0.5258538E-006  0.1273102E+03  0.7546771E-02  0.1246219E+00
          1   -1    0    0  501    0  0.00000000000E+00  0.00000000000E+00  0.28093948723E+03  0.28093948723E+03  0.00000000000E+00 0.  1.
         -1   -1    0    0    0  501 -0.00000000000E+00 -0.00000000000E+00 -0.44717722579E+02  0.44717722579E+02  0.00000000000E+00 0. -1.
          5    1    1    2  502    0  0.60278037394E+02  0.39657646151E+02  0.63674828599E+02  0.96347000407E+02  0.47000000000E+01 0. -1.
         -5    1    1    2    0  502 -0.43890927082E+02 -0.21938716825E+02  0.95560639069E+02  0.10752509714E+03  0.47000000000E+01 0. -1.
        -11    1    1    2    0    0 -0.53962859975E+02 -0.46309475906E+01  0.49959557761E+02  0.73684417240E+02  0.00000000000E+00 0. -1.
         11    1    1    2    0    0  0.37575749664E+02 -0.13087981736E+02  0.27026739226E+02  0.48100695025E+02  0.00000000000E+00 0.  1.
<mgrwt>
<rscale>  0 0.11812724E+03</rscale>
<asrwt>0</asrwt>
<pdfrwt beam="1">  1        1 0.43221458E-01 0.12731024E+03</pdfrwt>
<pdfrwt beam="2">  1       -1 0.68796498E-02 0.12731024E+03</pdfrwt>
<totfact> 0.97238697E+03</totfact>
</mgrwt>
</event>
<event>
 6    1  0.5258538E-006  0.2014810E+03  0.7546771E-02  0.1150600E+00
         -2   -1    0    0    0  501 -0.00000000000E+00  0.00000000000E+00  0.31445370078E+02  0.31445370078E+02  0.00000000000E+00 0.  1.
          2   -1    0    0  501    0  0.00000000000E+00 -0.00000000000E+00 -0.14621823702E+04  0.14621823702E+04  0.00000000000E+00 0. -1.
          5    1    1    2  502    0  0.92345533657E+02  0.10681014776E+03 -0.98707965215E+03  0.99713812230E+03  0.47000000000E+01 0. -1.
         -5    1    1    2    0  502  0.26437974022E+02  0.12535585944E+02 -0.41532723254E+02  0.51021216040E+02  0.47000000000E+01 0.  1.
        -11    1    1    2    0    0 -0.10099177698E+03 -0.92535831815E+02 -0.38578631207E+03  0.40938160409E+03  0.00000000000E+00 0.  1.
         11    1    1    2    0    0 -0.17791730700E+02 -0.26809901888E+02 -0.16338312691E+02  0.36086797892E+02  0.00000000000E+00 0. -1.
<mgrwt>
<rscale>  0 0.19898246E+03</rscale>
<asrwt>0</asrwt>
<pdfrwt beam="2">  1        2 0.22495122E+00 0.20148097E+03</pdfrwt>
<pdfrwt beam="1">  1       -2 0.48377473E-02 0.20148097E+03</pdfrwt>
<totfact> 0.29398349E+03</totfact>
</mgrwt>
</event>
<event>
 6    1  0.5258538E-006  0.1520927E+03  0.7546771E-02  0.1207523E+00
         -2   -1    0    0    0  501 -0.00000000000E+00  0.00000000000E+00  0.43598703092E+02  0.43598703092E+02  0.00000000000E+00 0.  1.
          2   -1    0    0  501    0  0.00000000000E+00 -0.00000000000E+00 -0.45046014959E+03  0.45046014959E+03  0.00000000000E+00 0. -1.
          5    1    1    2  502    0 -0.71275359241E+02 -0.74922340199E+02 -0.25888521974E+03  0.27881388217E+03  0.47000000000E+01 0. -1.
         -5    1    1    2    0  502  0.27541362843E+02  0.13587213043E+00 -0.92102628741E+01  0.29418770721E+02  0.47000000000E+01 0. -1.
        -11    1    1    2    0    0  0.24555127616E+02  0.57442288142E+02 -0.21999830984E+02  0.66231135597E+02  0.00000000000E+00 0.  1.
         11    1    1    2    0    0  0.19178868782E+02  0.17344179927E+02 -0.11676613290E+03  0.11959506419E+03  0.00000000000E+00 0. -1.
<mgrwt>
<rscale>  0 0.14440434E+03</rscale>
<asrwt>0</asrwt>
<pdfrwt beam="2">  1        2 0.69301562E-01 0.15209267E+03</pdfrwt>
<pdfrwt beam="1">  1       -2 0.67074927E-02 0.15209267E+03</pdfrwt>
<totfact> 0.83761368E+03</totfact>
</mgrwt>
</event>
<event>
 6    1  0.5258538E-006  0.1388262E+03  0.7546771E-02  0.1226124E+00
          2   -1    0    0  501    0  0.00000000000E+00  0.00000000000E+00  0.74503842527E+03  0.74503842527E+03  0.00000000000E+00 0.  1.
         -2   -1    0    0    0  501 -0.00000000000E+00 -0.00000000000E+00 -0.31225144451E+02  0.31225144451E+02  0.00000000000E+00 0. -1.
          5    1    1    2  502    0  0.44983741943E+02 -0.15795916802E+02  0.46240649976E+03  0.46488160756E+03  0.47000000000E+01 0.  1.
         -5    1    1    2    0  502 -0.44898588489E+02 -0.44523998318E+02  0.14619765753E+03  0.15935530974E+03  0.47000000000E+01 0.  1.
        -11    1    1    2    0    0 -0.15953002132E+02  0.61315672338E+02  0.11644007144E+03  0.13256093010E+03  0.00000000000E+00 0.  1.
         11    1    1    2    0    0  0.15867848678E+02 -0.99575721740E+00 -0.11230947921E+02  0.19465722316E+02  0.00000000000E+00 0. -1.
<mgrwt>
<rscale>  0 0.13090192E+03</rscale>
<asrwt>0</asrwt>
<pdfrwt beam="1">  1        2 0.11462128E+00 0.13882618E+03</pdfrwt>
<pdfrwt beam="2">  1       -2 0.48038690E-02 0.13882618E+03</pdfrwt>
<totfact> 0.77908276E+03</totfact>
</mgrwt>
</event>
<event>
 6    1  0.7962529E-006  0.2389649E+03  0.7546771E-02  0.1120484E+00
          1   -1    0    0  501    0  0.00000000000E+00  0.00000000000E+00  0.45996475427E+03  0.45996475427E+03  0.00000000000E+00 0. -1.
         -1   -1    0    0    0  501 -0.00000000000E+00 -0.00000000000E+00 -0.31037279308E+02  0.31037279308E+02  0.00000000000E+00 0.  1.
          5    1    1    2  502    0 -0.54577245212E+00 -0.34258015388E+01 -0.11656333993E+02  0.13038178781E+02  0.47000000000E+01 0. -1.
         -5    1    1    2    0  502  0.28830868935E+02 -0.22848832763E+02  0.31686332689E+03  0.31902624671E+03  0.47000000000E+01 0. -1.
        -11    1    1    2    0    0 -0.36270258728E+02  0.49277027619E+02  0.43420839753E+02  0.75027504583E+02  0.00000000000E+00 0.  1.
         11    1    1    2    0    0  0.79851622447E+01 -0.23002393317E+02  0.80299642317E+02  0.83910103508E+02  0.00000000000E+00 0. -1.
<mgrwt>
<rscale>  0 0.23896489E+03</rscale>
<asrwt>0</asrwt>
<pdfrwt beam="1">  1        1 0.70763803E-01 0.23896489E+03</pdfrwt>
<pdfrwt beam="2">  1       -1 0.47749664E-02 0.23896489E+03</pdfrwt>
<totfact> 0.93933703E+03</totfact>
</mgrwt>
</event>
<event>
 6    1  0.5258538E-006  0.1380720E+03  0.7546771E-02  0.1231072E+00
          1   -1    0    0  501    0  0.00000000000E+00  0.00000000000E+00  0.12862278437E+04  0.12862278437E+04  0.00000000000E+00 0. -1.
         -1   -1    0    0    0  501 -0.00000000000E+00 -0.00000000000E+00 -0.11288967862E+02  0.11288967862E+02  0.00000000000E+00 0.  1.
          5    1    1    2  502    0 -0.14852762613E+02 -0.75865739723E+01  0.99621056017E+01  0.19987351248E+02  0.47000000000E+01 0. -1.
         -5    1    1    2    0  502 -0.99641684949E+00 -0.48872908886E+02  0.81258441327E+03  0.81406699525E+03  0.47000000000E+01 0. -1.
        -11    1    1    2    0    0 -0.12147693404E+02 -0.17110155805E+02  0.71218679931E+02  0.74245701949E+02  0.00000000000E+00 0.  1.
         11    1    1    2    0    0  0.27996872867E+02  0.73569638663E+02  0.38117367703E+03  0.38921676310E+03  0.00000000000E+00 0. -1.
<mgrwt>
<rscale>  0 0.12759290E+03</rscale>
<asrwt>0</asrwt>
<pdfrwt beam="1">  1        1 0.19788109E+00 0.13807200E+03</pdfrwt>
<pdfrwt beam="2">  1       -1 0.17367653E-02 0.13807200E+03</pdfrwt>
<totfact> 0.81854237E+03</totfact>
</mgrwt>
</event>
<event>
 6    1  0.5258538E-006  0.3254273E+03  0.7546771E-02  0.1073178E+00
          2   -1    0    0  501    0  0.00000000000E+00  0.00000000000E+00  0.11738616572E+04  0.11738616572E+04  0.00000000000E+00 0. -1.
         -2   -1    0    0    0  501 -0.00000000000E+00 -0.00000000000E+00 -0.22554391753E+02  0.22554391753E+02  0.00000000000E+00 0.  1.
          5    1    1    2  502    0  0.70637731048E+01 -0.10184090502E+03  0.38577240616E+03  0.39907882201E+03  0.47000000000E+01 0. -1.
         -5    1    1    2    0  502  0.28828493549E+02  0.10432844678E+02  0.49163353991E+03  0.49261095588E+03  0.47000000000E+01 0. -1.
        -11    1    1    2    0    0 -0.14738562693E+02  0.55063913343E+02  0.24987530670E+03  0.25629461306E+03  0.00000000000E+00 0. -1.
         11    1    1    2    0    0 -0.21153703960E+02  0.36344146996E+02  0.24026012681E+02  0.48431658008E+02  0.00000000000E+00 0.  1.
<mgrwt>
<rscale>  0 0.32542732E+03</rscale>
<asrwt>0</asrwt>
<pdfrwt beam="1">  1        2 0.18059405E+00 0.32542732E+03</pdfrwt>
<pdfrwt beam="2">  1       -2 0.34699073E-02 0.32542732E+03</pdfrwt>
<totfact> 0.70655265E+03</totfact>
</mgrwt>
</event>
<event>
 6    1  0.5258538E-006  0.3347718E+03  0.7546771E-02  0.1069045E+00
          2   -1    0    0  501    0  0.00000000000E+00  0.00000000000E+00  0.54387630492E+03  0.54387630492E+03  0.00000000000E+00 0. -1.
         -2   -1    0    0    0  501 -0.00000000000E+00 -0.00000000000E+00 -0.51515458826E+02  0.51515458826E+02  0.00000000000E+00 0.  1.
          5    1    1    2  502    0  0.16982920289E+02 -0.67279333670E+01  0.12410907344E+03  0.12553420561E+03  0.47000000000E+01 0.  1.
         -5    1    1    2    0  502 -0.10124958958E+03 -0.88289789853E+02  0.15012601233E+03  0.20151048598E+03  0.47000000000E+01 0.  1.
        -11    1    1    2    0    0 -0.10793664036E+02  0.49810619977E+02  0.67267789459E+02  0.84395240059E+02  0.00000000000E+00 0.  1.
         11    1    1    2    0    0  0.95060333329E+02  0.45207103242E+02  0.15085797087E+03  0.18395183209E+03  0.00000000000E+00 0. -1.
<mgrwt>
<rscale>  0 0.33477179E+03</rscale>
<asrwt>0</asrwt>
<pdfrwt beam="1">  1        2 0.83673274E-01 0.33477179E+03</pdfrwt>
<pdfrwt beam="2">  1       -2 0.79254556E-02 0.33477179E+03</pdfrwt>
<totfact> 0.54414207E+03</totfact>
</mgrwt>
</event>
<event>
 6    1  0.5258538E-006  0.1525265E+03  0.7546771E-02  0.1206242E+00
         -3   -1    0    0    0  501 -0.00000000000E+00  0.00000000000E+00  0.14509307535E+03  0.14509307535E+03  0.00000000000E+00 0.  1.
          3   -1    0    0  501    0  0.00000000000E+00 -0.00000000000E+00 -0.14493826842E+03  0.14493826842E+03  0.00000000000E+00 0. -1.
          5    1    1    2  502    0  0.90083349111E+02  0.59135300024E+02 -0.23841174783E+02  0.11046485917E+03  0.47000000000E+01 0.  1.
         -5    1    1    2    0  502 -0.41895936899E+02  0.13748292591E+02 -0.16415545424E+02  0.47284724905E+02  0.47000000000E+01 0.  1.
        -11    1    1    2    0    0 -0.69632338753E+02 -0.39564954326E+02  0.45855053462E+02  0.92286153560E+02  0.00000000000E+00 0. -1.
         11    1    1    2    0    0  0.21444926540E+02 -0.33318638289E+02 -0.54435263248E+01  0.39995606141E+02  0.00000000000E+00 0.  1.
<mgrwt>
<rscale>  0 0.14540027E+03</rscale>
<asrwt>0</asrwt>
<pdfrwt beam="2">  1        3 0.22298195E-01 0.15252648E+03</pdfrwt>
<pdfrwt beam="1">  1       -3 0.22322011E-01 0.15252648E+03</pdfrwt>
<totfact> 0.80118321E+02</totfact>
</mgrwt>
</event>
<event>
 6    1  0.5258538E-006  0.1605164E+03  0.7546771E-02  0.1196062E+00
          1   -1    0    0  501    0  0.00000000000E+00  0.00000000000E+00  0.50412485363E+03  0.50412485363E+03  0.00000000000E+00 0. -1.
         -1   -1    0    0    0  501 -0.00000000000E+00 -0.00000000000E+00 -0.60791914080E+02  0.60791914080E+02  0.00000000000E+00 0.  1.
          5    1    1    2  502    0  0.48968467034E+02 -0.62439649253E+02  0.30069307996E+03  0.31102256976E+03  0.47000000000E+01 0. -1.
         -5    1    1    2    0  502 -0.52115471125E+02 -0.38210923691E+02  0.86111846017E+02  0.10776565800E+03  0.47000000000E+01 0. -1.
        -11    1    1    2    0    0 -0.11858982255E+01  0.73561048027E+02  0.80958562751E+02  0.10939343227E+03  0.00000000000E+00 0. -1.
         11    1    1    2    0    0  0.43329023166E+01  0.27089524917E+02 -0.24430549182E+02  0.36735107677E+02  0.00000000000E+00 0.  1.
<mgrwt>
<rscale>  0 0.15364681E+03</rscale>
<asrwt>0</asrwt>
<pdfrwt beam="1">  1        1 0.77557667E-01 0.16051644E+03</pdfrwt>
<pdfrwt beam="2">  1       -1 0.93526025E-02 0.16051644E+03</pdfrwt>
<totfact> 0.29620278E+03</totfact>
</mgrwt>
</event>
<event>
 6    1  0.5258538E-006  0.1394581E+03  0.7546771E-02  0.1223939E+00
          2   -1    0    0  501    0  0.00000000000E+00  0.00000000000E+00  0.87338319856E+03  0.87338319856E+03  0.00000000000E+00 0. -1.
         -2   -1    0    0    0  501 -0.00000000000E+00 -0.00000000000E+00 -0.24702309532E+02  0.24702309532E+02  0.00000000000E+00 0.  1.
          5    1    1    2  502    0  0.68065672527E+02 -0.13381923203E+02  0.17678366771E+03  0.18996464622E+03  0.47000000000E+01 0.  1.
         -5    1    1    2    0  502 -0.80639244027E+01  0.28330109568E+02  0.50801735964E+03  0.50889227709E+03  0.47000000000E+01 0.  1.
        -11    1    1    2    0    0  0.18730474486E+02 -0.12003387354E+01  0.22313306981E+01  0.18901066748E+02  0.00000000000E+00 0.  1.
         11    1    1    2    0    0 -0.78732222611E+02 -0.13747847629E+02  0.16164853097E+03  0.18032751803E+03  0.00000000000E+00 0. -1.
<mgrwt>
<rscale>  0 0.13239878E+03</rscale>
<asrwt>0</asrwt>
<pdfrwt beam="1">  1        2 0.13436662E+00 0.13945807E+03</pdfrwt>
<pdfrwt beam="2">  1       -2 0.38003560E-02 0.13945807E+03</pdfrwt>
<totfact> 0.90612214E+03</totfact>
</mgrwt>
</event>
<event>
 6    1  0.5258538E-006  0.2159091E+03  0.7546771E-02  0.1140634E+00
          2   -1    0    0  501    0  0.00000000000E+00  0.00000000000E+00  0.93210905727E+03  0.93210905727E+03  0.00000000000E+00 0. -1.
         -2   -1    0    0    0  501 -0.00000000000E+00 -0.00000000000E+00 -0.45865904715E+02  0.45865904715E+02  0.00000000000E+00 0.  1.
          5    1    1    2  502    0 -0.64962630343E+02  0.98934219353E+02  0.29744813988E+03  0.32016497156E+03  0.47000000000E+01 0.  1.
         -5    1    1    2    0  502 -0.92161562684E+02 -0.19534385588E+02  0.16138477104E+03  0.18692907794E+03  0.47000000000E+01 0.  1.
        -11    1    1    2    0    0  0.68699900305E+02 -0.30467502862E+02  0.29435502283E+03  0.30379734117E+03  0.00000000000E+00 0. -1.
         11    1    1    2    0    0  0.88424292722E+02 -0.48932330903E+02  0.13305521881E+03  0.16708357131E+03  0.00000000000E+00 0.  1.
<mgrwt>
<rscale>  0 0.21118102E+03</rscale>
<asrwt>0</asrwt>
<pdfrwt beam="1">  1        2 0.14340138E+00 0.21590909E+03</pdfrwt>
<pdfrwt beam="2">  1       -2 0.70562938E-02 0.21590909E+03</pdfrwt>
<totfact> 0.33117661E+03</totfact>
</mgrwt>
</event>
<event>
 6    1  0.5258538E-006  0.1997449E+03  0.7546771E-02  0.1154458E+00
          1   -1    0    0  501    0  0.00000000000E+00  0.00000000000E+00  0.35615864107E+03  0.35615864107E+03  0.00000000000E+00 0. -1.
         -1   -1    0    0    0  501 -0.00000000000E+00 -0.00000000000E+00 -0.17302066893E+03  0.17302066893E+03  0.00000000000E+00 0.  1.
          5    1    1    2  502    0 -0.92584568792E+02 -0.27380410880E+02  0.71668834620E+02  0.12033329188E+03  0.47000000000E+01 0. -1.
         -5    1    1    2    0  502 -0.16237672913E+02 -0.84128581429E+02  0.19329255700E+03  0.21148376492E+03  0.47000000000E+01 0. -1.
        -11    1    1    2    0    0  0.95949096172E+02  0.53050815587E+02 -0.20258996454E+02  0.11149459641E+03  0.00000000000E+00 0. -1.
         11    1    1    2    0    0  0.12873145533E+02  0.58458176723E+02 -0.61564423022E+02  0.85867656797E+02  0.00000000000E+00 0.  1.
<mgrwt>
<rscale>  0 0.19450662E+03</rscale>
<asrwt>0</asrwt>
<pdfrwt beam="1">  1        1 0.54793637E-01 0.19974489E+03</pdfrwt>
<pdfrwt beam="2">  1       -1 0.26618565E-01 0.19974489E+03</pdfrwt>
<totfact> 0.88223874E+02</totfact>
</mgrwt>
</event>
<event>
 6    1  0.5258538E-006  0.1307092E+03  0.7546771E-02  0.1232850E+00
          2   -1    0    0  501    0  0.00000000000E+00  0.00000000000E+00  0.37354690231E+03  0.37354690231E+03  0.00000000000E+00 0. -1.
         -2   -1    0    0    0  501 -0.00000000000E+00 -0.00000000000E+00 -0.43348483918E+02  0.43348483918E+02  0.00000000000E+00 0.  1.
          5    1    1    2  502    0 -0.29911362856E+02 -0.40038123662E+01  0.20758258016E+03  0.20981739139E+03  0.47000000000E+01 0. -1.
         -5    1    1    2    0  502 -0.25819947620E+02  0.43184518048E+02  0.23633526124E+02  0.55787147723E+02  0.47000000000E+01 0.  1.
        -11    1    1    2    0    0  0.29413896850E+02  0.10575458613E+02 -0.63190242156E+01  0.31889617744E+02  0.00000000000E+00 0.  1.
         11    1    1    2    0    0  0.26317413625E+02 -0.49756164294E+02  0.10530133632E+03  0.11940122937E+03  0.00000000000E+00 0. -1.
<mgrwt>
<rscale>  0 0.12643079E+03</rscale>
<asrwt>0</asrwt>
<pdfrwt beam="1">  1        2 0.57468752E-01 0.13070916E+03</pdfrwt>
<pdfrwt beam="2">  1       -2 0.66689978E-02 0.13070916E+03</pdfrwt>
<totfact> 0.10224267E+04</totfact>
</mgrwt>
</event>
<event>
 6    1  0.5258538E-006  0.2838242E+03  0.7546771E-02  0.1095349E+00
         -1   -1    0    0    0  501 -0.00000000000E+00  0.00000000000E+00  0.14087862445E+03  0.14087862445E+03  0.00000000000E+00 0.  1.
          1   -1    0    0  501    0  0.00000000000E+00 -0.00000000000E+00 -0.54794331829E+03  0.54794331829E+03  0.00000000000E+00 0. -1.
          5    1    1    2  502    0  0.23854561221E+03  0.66047417688E+02 -0.15537732328E+03  0.29228491763E+03  0.47000000000E+01 0. -1.
         -5    1    1    2    0  502  0.69616546387E+01  0.22293728729E+01 -0.68927065320E+02  0.69472764969E+02  0.47000000000E+01 0. -1.
        -11    1    1    2    0    0 -0.14851051338E+03 -0.19708900998E+02 -0.55301814753E+02  0.15969378221E+03  0.00000000000E+00 0.  1.
         11    1    1    2    0    0 -0.96996753469E+02 -0.48567889563E+02 -0.12745849049E+03  0.16737047792E+03  0.00000000000E+00 0. -1.
<mgrwt>
<rscale>  0 0.28062374E+03</rscale>
<asrwt>0</asrwt>
<pdfrwt beam="2">  1        1 0.84298973E-01 0.28382417E+03</pdfrwt>
<pdfrwt beam="1">  1       -1 0.21673634E-01 0.28382417E+03</pdfrwt>
<totfact> 0.70686690E+02</totfact>
</mgrwt>
</event>
<event>
 6    1  0.5258538E-006  0.1250155E+03  0.7546771E-02  0.1251345E+00
         -1   -1    0    0    0  501 -0.00000000000E+00  0.00000000000E+00  0.24773370458E+03  0.24773370458E+03  0.00000000000E+00 0.  1.
          1   -1    0    0  501    0  0.00000000000E+00 -0.00000000000E+00 -0.53816575276E+02  0.53816575276E+02  0.00000000000E+00 0. -1.
          5    1    1    2  502    0  0.12813992209E+02  0.45686095925E+02  0.71531188504E+02  0.85966381138E+02  0.47000000000E+01 0. -1.
         -5    1    1    2    0  502 -0.11908622404E+02 -0.47034660816E+02 -0.15331758709E+02  0.51100170555E+02  0.47000000000E+01 0. -1.
        -11    1    1    2    0    0  0.43169282761E+02 -0.23542763147E+01  0.87272935252E+02  0.97394531770E+02  0.00000000000E+00 0. -1.
         11    1    1    2    0    0 -0.44074652565E+02  0.37028412060E+01  0.50444764253E+02  0.67089196390E+02  0.00000000000E+00 0.  1.
<mgrwt>
<rscale>  0 0.11513512E+03</rscale>
<asrwt>0</asrwt>
<pdfrwt beam="2">  1        1 0.82794733E-02 0.12501545E+03</pdfrwt>
<pdfrwt beam="1">  1       -1 0.38112877E-01 0.12501545E+03</pdfrwt>
<totfact> 0.52876227E+03</totfact>
</mgrwt>
</event>
<event>
 6    1  0.5258538E-006  0.3939926E+03  0.7546771E-02  0.1045880E+00
         -2   -1    0    0    0  501 -0.00000000000E+00  0.00000000000E+00  0.22076485251E+02  0.22076485251E+02  0.00000000000E+00 0.  1.
          2   -1    0    0  501    0  0.00000000000E+00 -0.00000000000E+00 -0.17578678499E+04  0.17578678499E+04  0.00000000000E+00 0. -1.
          5    1    1    2  502    0 -0.86892174867E+02 -0.10165648287E+03 -0.78263372365E+03  0.79399113720E+03  0.47000000000E+01 0. -1.
         -5    1    1    2    0  502 -0.24328269801E+02  0.26182179066E+02 -0.55600732392E+03  0.55717466334E+03  0.47000000000E+01 0. -1.
        -11    1    1    2    0    0  0.70564589762E+02  0.15292038060E+02 -0.29326862091E+03  0.30202597863E+03  0.00000000000E+00 0. -1.
         11    1    1    2    0    0  0.40655854906E+02  0.60182265748E+02 -0.10388169616E+03  0.12675255598E+03  0.00000000000E+00 0.  1.
<mgrwt>
<rscale>  0 0.39399261E+03</rscale>
<asrwt>0</asrwt>
<pdfrwt beam="2">  1        2 0.27044123E+00 0.39399261E+03</pdfrwt>
<pdfrwt beam="1">  1       -2 0.33963820E-02 0.39399261E+03</pdfrwt>
<totfact> 0.34970804E+03</totfact>
</mgrwt>
</event>
<event>
 6    1  0.5258538E-006  0.1250765E+03  0.7546771E-02  0.1253630E+00
         -3   -1    0    0    0  501 -0.00000000000E+00  0.00000000000E+00  0.31776974462E+03  0.31776974462E+03  0.00000000000E+00 0. -1.
          3   -1    0    0  501    0  0.00000000000E+00 -0.00000000000E+00 -0.38012668833E+02  0.38012668833E+02  0.00000000000E+00 0.  1.
          5    1    1    2  502    0  0.44822366227E+02 -0.17318262557E+02  0.10744318979E+03  0.11779259639E+03  0.47000000000E+01 0. -1.
         -5    1    1    2    0  502 -0.46353145316E+02  0.21448889001E+02  0.70485284443E+01  0.51772972421E+02  0.47000000000E+01 0. -1.
        -11    1    1    2    0    0  0.81588951388E+01  0.36266906405E+02  0.40814729004E+02  0.55205961397E+02  0.00000000000E+00 0.  1.
         11    1    1    2    0    0 -0.66281160497E+01 -0.40397532848E+02  0.12445062855E+03  0.13101088325E+03  0.00000000000E+00 0. -1.
<mgrwt>
<rscale>  0 0.11383388E+03</rscale>
<asrwt>0</asrwt>
<pdfrwt beam="2">  1        3 0.58481031E-02 0.12507649E+03</pdfrwt>
<pdfrwt beam="1">  1       -3 0.48887651E-01 0.12507649E+03</pdfrwt>
<totfact> 0.16789934E+03</totfact>
</mgrwt>
</event>
<event>
 6    1  0.5258538E-006  0.2232416E+03  0.7546771E-02  0.1134696E+00
         -2   -1    0    0    0  501 -0.00000000000E+00  0.00000000000E+00  0.31929519286E+02  0.31929519286E+02  0.00000000000E+00 0.  1.
          2   -1    0    0  501    0  0.00000000000E+00 -0.00000000000E+00 -0.14650902948E+04  0.14650902948E+04  0.00000000000E+00 0. -1.
          5    1    1    2  502    0  0.76352165960E+02 -0.14560460412E+03 -0.47844145768E+03  0.50592358357E+03  0.47000000000E+01 0.  1.
         -5    1    1    2    0  502 -0.45538039102E+02 -0.36772637302E+02 -0.17926123400E+03  0.18863355977E+03  0.47000000000E+01 0.  1.
        -11    1    1    2    0    0  0.29595332684E+02  0.88885754480E+02 -0.40184074787E+03  0.41261670800E+03  0.00000000000E+00 0. -1.
         11    1    1    2    0    0 -0.60409459542E+02  0.93491486943E+02 -0.37361733594E+03  0.38984596272E+03  0.00000000000E+00 0.  1.
<mgrwt>
<rscale>  0 0.21891304E+03</rscale>
<asrwt>0</asrwt>
<pdfrwt beam="2">  1        2 0.22539848E+00 0.22324156E+03</pdfrwt>
<pdfrwt beam="1">  1       -2 0.49122343E-02 0.22324156E+03</pdfrwt>
<totfact> 0.28638707E+03</totfact>
</mgrwt>
</event>
<event>
 6    1  0.5258538E-006  0.3244053E+03  0.7546771E-02  0.1073640E+00
         -2   -1    0    0    0  501 -0.00000000000E+00  0.00000000000E+00  0.44784547239E+02  0.44784547239E+02  0.00000000000E+00 0.  1.
          2   -1    0    0  501    0  0.00000000000E+00 -0.00000000000E+00 -0.58747286274E+03  0.58747286274E+03  0.00000000000E+00 0. -1.
          5    1    1    2  502    0 -0.17940873151E+02  0.13366691572E+03 -0.26396242136E+03  0.29645736486E+03  0.47000000000E+01 0. -1.
         -5    1    1    2    0  502  0.17214235401E+02 -0.21630998264E+02 -0.10882239214E+03  0.11237719082E+03  0.47000000000E+01 0. -1.
        -11    1    1    2    0    0  0.12662083769E+02 -0.37421510489E+02 -0.13411626461E+03  0.13981369835E+03  0.00000000000E+00 0. -1.
         11    1    1    2    0    0 -0.11935446019E+02 -0.74614406969E+02 -0.35787237393E+02  0.83609155953E+02  0.00000000000E+00 0.  1.
<mgrwt>
<rscale>  0 0.32440534E+03</rscale>
<asrwt>0</asrwt>
<pdfrwt beam="2">  1        2 0.90380429E-01 0.32440534E+03</pdfrwt>
<pdfrwt beam="1">  1       -2 0.68899312E-02 0.32440534E+03</pdfrwt>
<totfact> 0.61899867E+03</totfact>
</mgrwt>
</event>
<event>
 6    1  0.5258538E-006  0.1438348E+03  0.7546771E-02  0.1218678E+00
          1   -1    0    0  501    0  0.00000000000E+00  0.00000000000E+00  0.73017385544E+03  0.73017385544E+03  0.00000000000E+00 0. -1.
         -1   -1    0    0    0  501 -0.00000000000E+00 -0.00000000000E+00 -0.28934492063E+02  0.28934492063E+02  0.00000000000E+00 0.  1.
          5    1    1    2  502    0 -0.45478020281E+02 -0.58895862282E+02  0.18367754225E+03  0.19823345442E+03  0.47000000000E+01 0.  1.
         -5    1    1    2    0  502  0.48067212077E+02 -0.12196081645E+02  0.26427174693E+02  0.56388712049E+02  0.47000000000E+01 0.  1.
        -11    1    1    2    0    0  0.26163468817E+02  0.70099399471E+02  0.43521217851E+03  0.44159720700E+03  0.00000000000E+00 0. -1.
         11    1    1    2    0    0 -0.28752660612E+02  0.99254445527E+00  0.55922467918E+02  0.62888974032E+02  0.00000000000E+00 0.  1.
<mgrwt>
<rscale>  0 0.13609782E+03</rscale>
<asrwt>0</asrwt>
<pdfrwt beam="1">  1        1 0.11233443E+00 0.14383482E+03</pdfrwt>
<pdfrwt beam="2">  1       -1 0.44514609E-02 0.14383482E+03</pdfrwt>
<totfact> 0.53914515E+03</totfact>
</mgrwt>
</event>
<event>
 6    1  0.5258538E-006  0.4151208E+03  0.7546771E-02  0.1039411E+00
         -1   -1    0    0    0  501 -0.00000000000E+00  0.00000000000E+00  0.34766462538E+03  0.34766462538E+03  0.00000000000E+00 0.  1.
          1   -1    0    0  501    0  0.00000000000E+00 -0.00000000000E+00 -0.51755632326E+03  0.51755632326E+03  0.00000000000E+00 0. -1.
          5    1    1    2  502    0 -0.56327215024E+02  0.52280123390E+02 -0.75591996415E+01  0.77364061122E+02  0.47000000000E+01 0. -1.
         -5    1    1    2    0  502 -0.33054624063E+03  0.31555785150E+02 -0.18661579926E+03  0.38092536186E+03  0.47000000000E+01 0. -1.
        -11    1    1    2    0    0  0.30777658555E+02 -0.67838020203E+01 -0.23721207621E+02  0.39445911410E+02  0.00000000000E+00 0. -1.
         11    1    1    2    0    0  0.35609579710E+03 -0.77052106519E+02  0.48004508645E+02  0.36748561425E+03  0.00000000000E+00 0.  1.
<mgrwt>
<rscale>  0 0.41287400E+03</rscale>
<asrwt>0</asrwt>
<pdfrwt beam="2">  1        1 0.79624049E-01 0.41512078E+03</pdfrwt>
<pdfrwt beam="1">  1       -1 0.53486866E-01 0.41512078E+03</pdfrwt>
<totfact> 0.15507709E+02</totfact>
</mgrwt>
</event>
<event>
 6    1  0.5258538E-006  0.1337763E+03  0.7546771E-02  0.1234904E+00
         -1   -1    0    0    0  501 -0.00000000000E+00  0.00000000000E+00  0.61563187632E+02  0.61563187632E+02  0.00000000000E+00 0.  1.
          1   -1    0    0  501    0  0.00000000000E+00 -0.00000000000E+00 -0.22739826014E+03  0.22739826014E+03  0.00000000000E+00 0. -1.
          5    1    1    2  502    0  0.48589895302E+02  0.14745177184E+02 -0.32162024856E+02  0.60289999324E+02  0.47000000000E+01 0. -1.
         -5    1    1    2    0  502 -0.53673899512E+02 -0.62093414644E+02 -0.71406048047E+02  0.10889165867E+03  0.47000000000E+01 0. -1.
        -11    1    1    2    0    0 -0.19071150629E+02  0.54724773690E+02 -0.72251243181E+02  0.92621551396E+02  0.00000000000E+00 0. -1.
         11    1    1    2    0    0  0.24155154840E+02 -0.73765362301E+01  0.99842435756E+01  0.27158238379E+02  0.00000000000E+00 0.  1.
<mgrwt>
<rscale>  0 0.12510588E+03</rscale>
<asrwt>0</asrwt>
<pdfrwt beam="2">  1        1 0.34984347E-01 0.13377626E+03</pdfrwt>
<pdfrwt beam="1">  1       -1 0.94712600E-02 0.13377626E+03</pdfrwt>
<totfact> 0.78252259E+03</totfact>
</mgrwt>
</event>
<event>
 6    1  0.5258538E-006  0.1371313E+03  0.7546771E-02  0.1229091E+00
         -3   -1    0    0    0  501 -0.00000000000E+00  0.00000000000E+00  0.14225553864E+02  0.14225553864E+02  0.00000000000E+00 0.  1.
          3   -1    0    0  501    0  0.00000000000E+00 -0.00000000000E+00 -0.10512798317E+04  0.10512798317E+04  0.00000000000E+00 0. -1.
          5    1    1    2  502    0  0.32589609824E+02  0.22461421108E+02 -0.80098158880E+02  0.89467330142E+02  0.47000000000E+01 0. -1.
         -5    1    1    2    0  502 -0.17370773021E+02 -0.76748848886E+02 -0.53163797436E+03  0.53745060735E+03  0.47000000000E+01 0. -1.
        -11    1    1    2    0    0 -0.31814446050E+02  0.74444451629E+02 -0.32152845147E+03  0.33156399150E+03  0.00000000000E+00 0.  1.
         11    1    1    2    0    0  0.16595609247E+02 -0.20157023851E+02 -0.10378969313E+03  0.10702345657E+03  0.00000000000E+00 0. -1.
<mgrwt>
<rscale>  0 0.12890413E+03</rscale>
<asrwt>0</asrwt>
<pdfrwt beam="2">  1        3 0.16173541E+00 0.13713134E+03</pdfrwt>
<pdfrwt beam="1">  1       -3 0.21885460E-02 0.13713134E+03</pdfrwt>
<totfact> 0.54908270E+02</totfact>
</mgrwt>
</event>
<event>
 6    1  0.5258538E-006  0.1408450E+03  0.7546771E-02  0.1223239E+00
         -2   -1    0    0    0  501 -0.00000000000E+00  0.00000000000E+00  0.32932660598E+02  0.32932660598E+02  0.00000000000E+00 0.  1.
          2   -1    0    0  501    0  0.00000000000E+00 -0.00000000000E+00 -0.54397275030E+03  0.54397275030E+03  0.00000000000E+00 0. -1.
          5    1    1    2  502    0  0.34085734357E+01  0.66846449351E+02 -0.31986449075E+03  0.32682632789E+03  0.47000000000E+01 0. -1.
         -5    1    1    2    0  502  0.43971027464E+02 -0.22478917884E+02 -0.57365931701E+02  0.75839917757E+02  0.47000000000E+01 0. -1.
        -11    1    1    2    0    0 -0.25533254969E+02 -0.12686356712E+02  0.60803438392E+01  0.29152381329E+02  0.00000000000E+00 0.  1.
         11    1    1    2    0    0 -0.21846345931E+02 -0.31681174755E+02 -0.13989001110E+03  0.14508678392E+03  0.00000000000E+00 0. -1.
<mgrwt>
<rscale>  0 0.13288342E+03</rscale>
<asrwt>0</asrwt>
<pdfrwt beam="2">  1        2 0.83688110E-01 0.14084500E+03</pdfrwt>
<pdfrwt beam="1">  1       -2 0.50665635E-02 0.14084500E+03</pdfrwt>
<totfact> 0.10364907E+04</totfact>
</mgrwt>
</event>
<event>
 6    1  0.5258538E-006  0.1499308E+03  0.7546771E-02  0.1210123E+00
         -2   -1    0    0    0  501 -0.00000000000E+00  0.00000000000E+00  0.23959758358E+02  0.23959758358E+02  0.00000000000E+00 0.  1.
          2   -1    0    0  501    0  0.00000000000E+00 -0.00000000000E+00 -0.91945226810E+03  0.91945226810E+03  0.00000000000E+00 0. -1.
          5    1    1    2  502    0  0.65700259810E+02  0.24277692711E+02 -0.67116701120E+03  0.67482825772E+03  0.47000000000E+01 0. -1.
         -5    1    1    2    0  502  0.84931363819E+01  0.12453378877E+02 -0.33369218259E+01  0.16138310269E+02  0.47000000000E+01 0. -1.
        -11    1    1    2    0    0 -0.15612332008E+02  0.10039144716E+02  0.54859798062E+00  0.18569606811E+02  0.00000000000E+00 0.  1.
         11    1    1    2    0    0 -0.58581064183E+02 -0.46770216304E+02 -0.22153717470E+03  0.23387585165E+03  0.00000000000E+00 0. -1.
<mgrwt>
<rscale>  0 0.14240985E+03</rscale>
<asrwt>0</asrwt>
<pdfrwt beam="2">  1        2 0.14145419E+00 0.14993079E+03</pdfrwt>
<pdfrwt beam="1">  1       -2 0.36861169E-02 0.14993079E+03</pdfrwt>
<totfact> 0.88992054E+03</totfact>
</mgrwt>
</event>
<event>
 6    1  0.5258538E-006  0.3626574E+03  0.7546771E-02  0.1057537E+00
          2   -1    0    0  501    0  0.00000000000E+00  0.00000000000E+00  0.75459070239E+03  0.75459070239E+03  0.00000000000E+00 0. -1.
         -2   -1    0    0    0  501 -0.00000000000E+00 -0.00000000000E+00 -0.43573414788E+02  0.43573414788E+02  0.00000000000E+00 0.  1.
          5    1    1    2  502    0 -0.97687823521E+02  0.76309082265E+02  0.35299611530E+03  0.37415816751E+03  0.47000000000E+01 0.  1.
         -5    1    1    2    0  502 -0.12317651535E+02 -0.40518986146E+02  0.19919516408E+03  0.20370153699E+03  0.47000000000E+01 0.  1.
        -11    1    1    2    0    0  0.36432914795E+02 -0.25186830101E+02 -0.71451614861E+00  0.44297225921E+02  0.00000000000E+00 0.  1.
         11    1    1    2    0    0  0.73572560262E+02 -0.10603266018E+02  0.15954052437E+03  0.17600718675E+03  0.00000000000E+00 0. -1.
<mgrwt>
<rscale>  0 0.36265738E+03</rscale>
<asrwt>0</asrwt>
<pdfrwt beam="1">  1        2 0.11609087E+00 0.36265738E+03</pdfrwt>
<pdfrwt beam="2">  1       -2 0.67036028E-02 0.36265738E+03</pdfrwt>
<totfact> 0.47851681E+03</totfact>
</mgrwt>
</event>
<event>
 6    1  0.5258538E-006  0.1336170E+03  0.7546771E-02  0.1232828E+00
          3   -1    0    0  501    0  0.00000000000E+00  0.00000000000E+00  0.10867614339E+03  0.10867614339E+03  0.00000000000E+00 0. -1.
         -3   -1    0    0    0  501 -0.00000000000E+00 -0.00000000000E+00 -0.13377849999E+03  0.13377849999E+03  0.00000000000E+00 0.  1.
          5    1    1    2  502    0  0.67595450724E+02 -0.11845035327E+02 -0.42909616906E+02  0.81072652871E+02  0.47000000000E+01 0.  1.
         -5    1    1    2    0  502 -0.32850357196E+02 -0.20103770406E+02  0.35719237715E+02  0.52737666761E+02  0.47000000000E+01 0.  1.
        -11    1    1    2    0    0 -0.16186070934E+02  0.60802764387E+02 -0.33134372406E+02  0.71111543958E+02  0.00000000000E+00 0.  1.
         11    1    1    2    0    0 -0.18559022594E+02 -0.28853958653E+02  0.15222394991E+02  0.37532779791E+02  0.00000000000E+00 0. -1.
<mgrwt>
<rscale>  0 0.12644510E+03</rscale>
<asrwt>0</asrwt>
<pdfrwt beam="1">  1        3 0.16719407E-01 0.13361699E+03</pdfrwt>
<pdfrwt beam="2">  1       -3 0.20581308E-01 0.13361699E+03</pdfrwt>
<totfact> 0.15032655E+03</totfact>
</mgrwt>
</event>
<event>
 6    1  0.5258538E-006  0.1292476E+03  0.7546771E-02  0.1242129E+00
         -1   -1    0    0    0  501 -0.00000000000E+00  0.00000000000E+00  0.28284405270E+03  0.28284405270E+03  0.00000000000E+00 0.  1.
          1   -1    0    0  501    0  0.00000000000E+00 -0.00000000000E+00 -0.47365814666E+02  0.47365814666E+02  0.00000000000E+00 0. -1.
          5    1    1    2  502    0  0.47759558476E+02 -0.32788001705E+02  0.11758659584E+03  0.13116678697E+03  0.47000000000E+01 0. -1.
         -5    1    1    2    0  502 -0.28570988752E+02  0.60982000643E+01 -0.15620556198E+02  0.33460143727E+02  0.47000000000E+01 0. -1.
        -11    1    1    2    0    0 -0.75851520835E+01  0.24601198795E+02  0.14609140340E+03  0.14834234615E+03  0.00000000000E+00 0.  1.
         11    1    1    2    0    0 -0.11603417640E+02  0.20886028456E+01 -0.12579205012E+02  0.17240590520E+02  0.00000000000E+00 0. -1.
<mgrwt>
<rscale>  0 0.12058874E+03</rscale>
<asrwt>0</asrwt>
<pdfrwt beam="2">  1        1 0.72870486E-02 0.12924764E+03</pdfrwt>
<pdfrwt beam="1">  1       -1 0.43514469E-01 0.12924764E+03</pdfrwt>
<totfact> 0.49837447E+03</totfact>
</mgrwt>
</event>
<event>
 6    1  0.5258538E-006  0.3316577E+03  0.7546771E-02  0.1070406E+00
         -1   -1    0    0    0  501 -0.00000000000E+00  0.00000000000E+00  0.60841727029E+02  0.60841727029E+02  0.00000000000E+00 0.  1.
          1   -1    0    0  501    0  0.00000000000E+00 -0.00000000000E+00 -0.45197937338E+03  0.45197937338E+03  0.00000000000E+00 0. -1.
          5    1    1    2  502    0 -0.26687979823E+02  0.14887407683E+02 -0.51315778812E+01  0.31341765523E+02  0.47000000000E+01 0. -1.
         -5    1    1    2    0  502 -0.18489980659E+02 -0.13114487368E+03 -0.19224539226E+03  0.23349783323E+03  0.47000000000E+01 0. -1.
        -11    1    1    2    0    0  0.24430441569E+01  0.89252923362E+02 -0.67356018580E+02  0.11184313136E+03  0.00000000000E+00 0. -1.
         11    1    1    2    0    0  0.42734916325E+02  0.27004542639E+02 -0.12640465762E+03  0.13613837029E+03  0.00000000000E+00 0.  1.
<mgrwt>
<rscale>  0 0.33165769E+03</rscale>
<asrwt>0</asrwt>
<pdfrwt beam="2">  1        1 0.69535290E-01 0.33165769E+03</pdfrwt>
<pdfrwt beam="1">  1       -1 0.93602654E-02 0.33165769E+03</pdfrwt>
<totfact> 0.34948547E+03</totfact>
</mgrwt>
</event>
<event>
 6    1  0.5258538E-006  0.2553233E+03  0.7546771E-02  0.1109986E+00
          1   -1    0    0  501    0  0.00000000000E+00  0.00000000000E+00  0.16856694888E+03  0.16856694888E+03  0.00000000000E+00 0. -1.
         -1   -1    0    0    0  501 -0.00000000000E+00 -0.00000000000E+00 -0.96682603548E+02  0.96682603548E+02  0.00000000000E+00 0.  1.
          5    1    1    2  502    0 -0.59894476021E+01  0.29332975524E+02 -0.15662913666E+02  0.34113249628E+02  0.47000000000E+01 0. -1.
         -5    1    1    2    0  502  0.64772932220E+02 -0.63910553452E+02  0.83610236024E+02  0.12366427600E+03  0.47000000000E+01 0. -1.
        -11    1    1    2    0    0 -0.22545230191E+02  0.36777319486E+02  0.38149420713E+02  0.57586777420E+02  0.00000000000E+00 0. -1.
         11    1    1    2    0    0 -0.36238254427E+02 -0.21997415578E+01 -0.34212397737E+02  0.49885249381E+02  0.00000000000E+00 0.  1.
<mgrwt>
<rscale>  0 0.25532326E+03</rscale>
<asrwt>0</asrwt>
<pdfrwt beam="1">  1        1 0.25933377E-01 0.25532326E+03</pdfrwt>
<pdfrwt beam="2">  1       -1 0.14874247E-01 0.25532326E+03</pdfrwt>
<totfact> 0.58767404E+03</totfact>
</mgrwt>
</event>
<event>
 6    1  0.5258538E-006  0.3942054E+03  0.7546771E-02  0.1045805E+00
          3   -1    0    0  501    0  0.00000000000E+00  0.00000000000E+00  0.35045284451E+03  0.35045284451E+03  0.00000000000E+00 0. -1.
         -3   -1    0    0    0  501 -0.00000000000E+00 -0.00000000000E+00 -0.11085506775E+03  0.11085506775E+03  0.00000000000E+00 0.  1.
          5    1    1    2  502    0 -0.39871342458E+01  0.19492381173E+02  0.30961675020E+02  0.37102095404E+02  0.47000000000E+01 0.  1.
         -5    1    1    2    0  502 -0.58472023603E+02 -0.16920190434E+03  0.84833019377E+02  0.19815900977E+03  0.47000000000E+01 0.  1.
        -11    1    1    2    0    0  0.12238583355E+02  0.12715825708E+03  0.58124438783E+02  0.14034762431E+03  0.00000000000E+00 0.  1.
         11    1    1    2    0    0  0.50220574494E+02  0.22551266089E+02  0.65678643587E+02  0.85699182774E+02  0.00000000000E+00 0. -1.
<mgrwt>
<rscale>  0 0.39420540E+03</rscale>
<asrwt>0</asrwt>
<pdfrwt beam="1">  1        3 0.53915822E-01 0.39420540E+03</pdfrwt>
<pdfrwt beam="2">  1       -3 0.17054626E-01 0.39420540E+03</pdfrwt>
<totfact> 0.26535890E+02</totfact>
</mgrwt>
</event>
<event>
 6    1  0.5258538E-006  0.1569975E+03  0.7546771E-02  0.1202647E+00
         -1   -1    0    0    0  501 -0.00000000000E+00  0.00000000000E+00  0.13854095853E+03  0.13854095853E+03  0.00000000000E+00 0.  1.
          1   -1    0    0  501    0  0.00000000000E+00 -0.00000000000E+00 -0.19369439910E+03  0.19369439910E+03  0.00000000000E+00 0. -1.
          5    1    1    2  502    0  0.11018974133E+03  0.36243280557E+02 -0.98182501373E+02  0.15204357288E+03  0.47000000000E+01 0. -1.
         -5    1    1    2    0  502 -0.36866176791E+02  0.11605917261E+02 -0.16043771967E+02  0.42110627228E+02  0.47000000000E+01 0.  1.
        -11    1    1    2    0    0 -0.99690026598E+01 -0.24140414117E+02  0.65123543349E+02  0.70165636220E+02  0.00000000000E+00 0.  1.
         11    1    1    2    0    0 -0.63354561875E+02 -0.23708783701E+02 -0.60507105784E+01  0.67915521300E+02  0.00000000000E+00 0. -1.
<mgrwt>
<rscale>  0 0.14824475E+03</rscale>
<asrwt>0</asrwt>
<pdfrwt beam="2">  1        1 0.29799138E-01 0.15699749E+03</pdfrwt>
<pdfrwt beam="1">  1       -1 0.21313994E-01 0.15699749E+03</pdfrwt>
<totfact> 0.27066474E+03</totfact>
</mgrwt>
</event>
<event>
 6    1  0.5258538E-006  0.2684762E+03  0.7546771E-02  0.1102155E+00
          2   -1    0    0  501    0  0.00000000000E+00  0.00000000000E+00  0.54888816712E+03  0.54888816712E+03  0.00000000000E+00 0. -1.
         -2   -1    0    0    0  501 -0.00000000000E+00 -0.00000000000E+00 -0.32829763072E+02  0.32829763072E+02  0.00000000000E+00 0.  1.
          5    1    1    2  502    0  0.72150746968E+01 -0.56867869107E+02  0.20853567272E+02  0.61179842330E+02  0.47000000000E+01 0. -1.
         -5    1    1    2    0  502  0.18849744826E+02 -0.95476010175E+01  0.20829873846E+03  0.20942044793E+03  0.47000000000E+01 0. -1.
        -11    1    1    2    0    0  0.10318674563E+02  0.29984537188E+02  0.16295318476E+02  0.35652277898E+02  0.00000000000E+00 0.  1.
         11    1    1    2    0    0 -0.36383494085E+02  0.36430932936E+02  0.27061077984E+03  0.27546536203E+03  0.00000000000E+00 0. -1.
<mgrwt>
<rscale>  0 0.26847621E+03</rscale>
<asrwt>0</asrwt>
<pdfrwt beam="1">  1        2 0.84444327E-01 0.26847621E+03</pdfrwt>
<pdfrwt beam="2">  1       -2 0.50507332E-02 0.26847621E+03</pdfrwt>
<totfact> 0.10718477E+04</totfact>
</mgrwt>
</event>
<event>
 6    1  0.5258538E-006  0.1382399E+03  0.7546771E-02  0.1228159E+00
         -2   -1    0    0    0  501 -0.00000000000E+00  0.00000000000E+00  0.27845282304E+02  0.27845282304E+02  0.00000000000E+00 0.  1.
          2   -1    0    0  501    0  0.00000000000E+00 -0.00000000000E+00 -0.55124476741E+03  0.55124476741E+03  0.00000000000E+00 0. -1.
          5    1    1    2  502    0  0.42271265355E+02  0.69259725304E+02 -0.33204065933E+03  0.34184332504E+03  0.47000000000E+01 0.  1.
         -5    1    1    2    0  502 -0.68730104395E+01 -0.21919806059E+02 -0.72730881432E+01  0.24550030169E+02  0.47000000000E+01 0.  1.
        -11    1    1    2    0    0 -0.51140415530E+02 -0.27343233151E+02 -0.51085316272E+02  0.77283271400E+02  0.00000000000E+00 0.  1.
         11    1    1    2    0    0  0.15742160614E+02 -0.19996686093E+02 -0.13300042136E+03  0.13541342311E+03  0.00000000000E+00 0. -1.
<mgrwt>
<rscale>  0 0.12952711E+03</rscale>
<asrwt>0</asrwt>
<pdfrwt beam="2">  1        2 0.84806883E-01 0.13823991E+03</pdfrwt>
<pdfrwt beam="1">  1       -2 0.42838898E-02 0.13823991E+03</pdfrwt>
<totfact> 0.13112568E+04</totfact>
</mgrwt>
</event>
<event>
 6    1  0.5258538E-006  0.1334430E+03  0.7546771E-02  0.1235387E+00
         -2   -1    0    0    0  501 -0.00000000000E+00  0.00000000000E+00  0.55598708360E+02  0.55598708360E+02  0.00000000000E+00 0.  1.
          2   -1    0    0  501    0  0.00000000000E+00 -0.00000000000E+00 -0.25120137152E+03  0.25120137152E+03  0.00000000000E+00 0. -1.
          5    1    1    2  502    0 -0.31260233713E+02 -0.37836009579E+02 -0.94675186673E+02  0.10674383731E+03  0.47000000000E+01 0.  1.
         -5    1    1    2    0  502  0.68498470958E+02  0.96546037584E+01 -0.28857826586E+02  0.75100706072E+02  0.47000000000E+01 0.  1.
        -11    1    1    2    0    0  0.24403469604E+02  0.13984549589E+02  0.12079182784E+01  0.28152371525E+02  0.00000000000E+00 0.  1.
         11    1    1    2    0    0 -0.61641706849E+02  0.14196856231E+02 -0.73277568184E+02  0.96803164974E+02  0.00000000000E+00 0. -1.
<mgrwt>
<rscale>  0 0.12479711E+03</rscale>
<asrwt>0</asrwt>
<pdfrwt beam="2">  1        2 0.38646365E-01 0.13344299E+03</pdfrwt>
<pdfrwt beam="1">  1       -2 0.85536475E-02 0.13344299E+03</pdfrwt>
<totfact> 0.10638012E+04</totfact>
</mgrwt>
</event>
<event>
 6    1  0.5258538E-006  0.1325026E+03  0.7546771E-02  0.1235718E+00
          1   -1    0    0  501    0  0.00000000000E+00  0.00000000000E+00  0.18984230232E+03  0.18984230232E+03  0.00000000000E+00 0. -1.
         -1   -1    0    0    0  501 -0.00000000000E+00 -0.00000000000E+00 -0.73819442101E+02  0.73819442101E+02  0.00000000000E+00 0.  1.
          5    1    1    2  502    0 -0.14741417888E+02 -0.61865926558E+02  0.94972527407E+02  0.11439656128E+03  0.47000000000E+01 0. -1.
         -5    1    1    2    0  502  0.25518413854E+02  0.19243782015E+02 -0.19853904141E+02  0.37918070910E+02  0.47000000000E+01 0. -1.
        -11    1    1    2    0    0 -0.36185973388E+02 -0.91316192819E+01 -0.49949016944E+01  0.37653156358E+02  0.00000000000E+00 0.  1.
         11    1    1    2    0    0  0.25408977422E+02  0.51753763825E+02  0.45899138646E+02  0.73693955872E+02  0.00000000000E+00 0. -1.
<mgrwt>
<rscale>  0 0.12458567E+03</rscale>
<asrwt>0</asrwt>
<pdfrwt beam="1">  1        1 0.29206508E-01 0.13250260E+03</pdfrwt>
<pdfrwt beam="2">  1       -1 0.11356837E-01 0.13250260E+03</pdfrwt>
<totfact> 0.74118376E+03</totfact>
</mgrwt>
</event>
<event>
 6    1  0.5258538E-006  0.1469101E+03  0.7546771E-02  0.1214149E+00
         -1   -1    0    0    0  501 -0.00000000000E+00  0.00000000000E+00  0.44118032804E+02  0.44118032804E+02  0.00000000000E+00 0.  1.
          1   -1    0    0  501    0  0.00000000000E+00 -0.00000000000E+00 -0.44209077909E+03  0.44209077909E+03  0.00000000000E+00 0. -1.
          5    1    1    2  502    0  0.25808716500E+02  0.43998153989E+02 -0.27099280306E+03  0.27579179957E+03  0.47000000000E+01 0. -1.
         -5    1    1    2    0  502  0.44531667731E+02 -0.12222548425E+02 -0.20732696503E+02  0.50836943508E+02  0.47000000000E+01 0. -1.
        -11    1    1    2    0    0 -0.57005349646E+02  0.22950057270E+02 -0.43683260608E+02  0.75395903565E+02  0.00000000000E+00 0.  1.
         11    1    1    2    0    0 -0.13335034585E+02 -0.54725662835E+02 -0.62563986121E+02  0.84184165254E+02  0.00000000000E+00 0. -1.
<mgrwt>
<rscale>  0 0.13939203E+03</rscale>
<asrwt>0</asrwt>
<pdfrwt beam="2">  1        1 0.68013966E-01 0.14691007E+03</pdfrwt>
<pdfrwt beam="1">  1       -1 0.67873897E-02 0.14691007E+03</pdfrwt>
<totfact> 0.56812046E+03</totfact>
</mgrwt>
</event>
<event>
 6    1  0.5258538E-006  0.2465620E+03  0.7546771E-02  0.1118130E+00
         -2   -1    0    0    0  501 -0.00000000000E+00  0.00000000000E+00  0.14022919979E+03  0.14022919979E+03  0.00000000000E+00 0.  1.
          2   -1    0    0  501    0  0.00000000000E+00 -0.00000000000E+00 -0.41094939138E+03  0.41094939138E+03  0.00000000000E+00 0. -1.
          5    1    1    2  502    0  0.68933179536E+02  0.54434498164E+02 -0.10843983585E+03  0.13962874285E+03  0.47000000000E+01 0. -1.
         -5    1    1    2    0  502 -0.21567518519E+01  0.14732976542E+03 -0.61006657847E+02  0.15954502079E+03  0.47000000000E+01 0. -1.
        -11    1    1    2    0    0 -0.67355783581E+02 -0.72871878234E+02 -0.25378201501E+02  0.10242638982E+03  0.00000000000E+00 0. -1.
         11    1    1    2    0    0  0.57935589729E+00 -0.12889238535E+03 -0.75895496390E+02  0.14957843771E+03  0.00000000000E+00 0.  1.
<mgrwt>
<rscale>  0 0.24251279E+03</rscale>
<asrwt>0</asrwt>
<pdfrwt beam="2">  1        2 0.63222983E-01 0.24656201E+03</pdfrwt>
<pdfrwt beam="1">  1       -2 0.21573723E-01 0.24656201E+03</pdfrwt>
<totfact> 0.14257167E+03</totfact>
</mgrwt>
</event>
<event>
 6    1  0.5258538E-006  0.2029403E+03  0.7546771E-02  0.1151583E+00
          1   -1    0    0  501    0  0.00000000000E+00  0.00000000000E+00  0.32974222948E+03  0.32974222948E+03  0.00000000000E+00 0. -1.
         -1   -1    0    0    0  501 -0.00000000000E+00 -0.00000000000E+00 -0.11472750382E+03  0.11472750382E+03  0.00000000000E+00 0.  1.
          5    1    1    2  502    0  0.37784808423E+02  0.77896629666E+02  0.91245018146E+02  0.12587025064E+03  0.47000000000E+01 0.  1.
         -5    1    1    2    0  502  0.10918025364E+03 -0.14956664524E+02  0.48266793620E+02  0.12039851729E+03  0.47000000000E+01 0.  1.
        -11    1    1    2    0    0 -0.73464477368E+02  0.16078760456E+02  0.27274523103E+02  0.79996597323E+02  0.00000000000E+00 0.  1.
         11    1    1    2    0    0 -0.73500584695E+02 -0.79018725598E+02  0.48228390792E+02  0.11820436804E+03  0.00000000000E+00 0. -1.
<mgrwt>
<rscale>  0 0.19782949E+03</rscale>
<asrwt>0</asrwt>
<pdfrwt beam="1">  1        1 0.50729573E-01 0.20294029E+03</pdfrwt>
<pdfrwt beam="2">  1       -1 0.17650385E-01 0.20294029E+03</pdfrwt>
<totfact> 0.19037821E+03</totfact>
</mgrwt>
</event>
<event>
 6    1  0.5258538E-006  0.1636332E+03  0.7546771E-02  0.1191605E+00
          1   -1    0    0  501    0  0.00000000000E+00  0.00000000000E+00  0.47982129528E+02  0.47982129528E+02  0.00000000000E+00 0. -1.
         -1   -1    0    0    0  501 -0.00000000000E+00 -0.00000000000E+00 -0.54636711668E+03  0.54636711668E+03  0.00000000000E+00 0.  1.
          5    1    1    2  502    0 -0.56655580955E+02  0.93357646794E+02 -0.12341167823E+03  0.16485762764E+03  0.47000000000E+01 0. -1.
         -5    1    1    2    0  502  0.51435753962E+02  0.12043802707E+02 -0.40296928570E+02  0.66607975660E+02  0.47000000000E+01 0. -1.
        -11    1    1    2    0    0  0.38208032418E+02 -0.64832546723E+02 -0.26675617231E+03  0.27716776205E+03  0.00000000000E+00 0.  1.
         11    1    1    2    0    0 -0.32988205426E+02 -0.40568902778E+02 -0.67920208046E+02  0.85715880855E+02  0.00000000000E+00 0. -1.
<mgrwt>
<rscale>  0 0.15745133E+03</rscale>
<asrwt>0</asrwt>
<pdfrwt beam="1">  1        1 0.73818662E-02 0.16363318E+03</pdfrwt>
<pdfrwt beam="2">  1       -1 0.84056479E-01 0.16363318E+03</pdfrwt>
<totfact> 0.14053793E+03</totfact>
</mgrwt>
</event>
<event>
 6    1  0.5258538E-006  0.2614755E+03  0.7546771E-02  0.1106260E+00
          2   -1    0    0  501    0  0.00000000000E+00  0.00000000000E+00  0.56900394696E+03  0.56900394696E+03  0.00000000000E+00 0. -1.
         -2   -1    0    0    0  501 -0.00000000000E+00 -0.00000000000E+00 -0.30039079031E+02  0.30039079031E+02  0.00000000000E+00 0.  1.
          5    1    1    2  502    0  0.20524350007E+02 -0.31061922385E+02  0.14738351273E+03  0.15208577116E+03  0.47000000000E+01 0.  1.
         -5    1    1    2    0  502 -0.77418589723E+02  0.62303905701E+02  0.22351842026E+03  0.24465892359E+03  0.47000000000E+01 0.  1.
        -11    1    1    2    0    0  0.13665204402E+02 -0.27178505196E+02  0.18158125048E+01  0.30474680164E+02  0.00000000000E+00 0.  1.
         11    1    1    2    0    0  0.43229035314E+02 -0.40634781198E+01  0.16624712244E+03  0.17182365108E+03  0.00000000000E+00 0. -1.
<mgrwt>
<rscale>  0 0.26147546E+03</rscale>
<asrwt>0</asrwt>
<pdfrwt beam="1">  1        2 0.87539061E-01 0.26147546E+03</pdfrwt>
<pdfrwt beam="2">  1       -2 0.46213972E-02 0.26147546E+03</pdfrwt>
<totfact> 0.11757400E+04</totfact>
</mgrwt>
</event>
<event>
 6    1  0.5258538E-006  0.1402506E+03  0.7546771E-02  0.1223751E+00
          1   -1    0    0  501    0  0.00000000000E+00  0.00000000000E+00  0.96560572149E+03  0.96560572149E+03  0.00000000000E+00 0. -1.
         -1   -1    0    0    0  501 -0.00000000000E+00 -0.00000000000E+00 -0.16487499185E+02  0.16487499185E+02  0.00000000000E+00 0.  1.
          5    1    1    2  502    0  0.54181020859E+02 -0.52021893732E+02  0.18600486379E+03  0.20065333240E+03  0.47000000000E+01 0.  1.
         -5    1    1    2    0  502  0.90908369053E+01  0.45125657281E+02  0.36498197904E+03  0.36790338852E+03  0.47000000000E+01 0.  1.
        -11    1    1    2    0    0 -0.54270985785E+02 -0.37431224127E+02  0.25775163989E+03  0.26604951476E+03  0.00000000000E+00 0.  1.
         11    1    1    2    0    0 -0.90008719798E+01  0.44327460577E+02  0.14037973958E+03  0.14748698499E+03  0.00000000000E+00 0. -1.
<mgrwt>
<rscale>  0 0.13252844E+03</rscale>
<asrwt>0</asrwt>
<pdfrwt beam="1">  1        1 0.14855468E+00 0.14025065E+03</pdfrwt>
<pdfrwt beam="2">  1       -1 0.25365391E-02 0.14025065E+03</pdfrwt>
<totfact> 0.79569942E+03</totfact>
</mgrwt>
</event>
<event>
 6    1  0.5258538E-006  0.2218530E+03  0.7546771E-02  0.1135913E+00
          2   -1    0    0  501    0  0.00000000000E+00  0.00000000000E+00  0.17656738275E+04  0.17656738275E+04  0.00000000000E+00 0. -1.
         -2   -1    0    0    0  501 -0.00000000000E+00 -0.00000000000E+00 -0.32082957962E+02  0.32082957962E+02  0.00000000000E+00 0.  1.
          5    1    1    2  502    0  0.89391952173E+01 -0.10497963917E+02  0.27438295241E+02  0.31065519523E+02  0.47000000000E+01 0.  1.
         -5    1    1    2    0  502 -0.12789068865E+03  0.14992754718E+03  0.12688015100E+04  0.12840224529E+04  0.47000000000E+01 0.  1.
        -11    1    1    2    0    0  0.76556904112E+02 -0.30074330902E+02  0.23247090837E+03  0.24659308219E+03  0.00000000000E+00 0. -1.
         11    1    1    2    0    0  0.42394589317E+02 -0.10935525236E+03  0.20488015586E+03  0.23607573083E+03  0.00000000000E+00 0.  1.
<mgrwt>
<rscale>  0 0.21729870E+03</rscale>
<asrwt>0</asrwt>
<pdfrwt beam="1">  1        2 0.27164205E+00 0.22185297E+03</pdfrwt>
<pdfrwt beam="2">  1       -2 0.49358410E-02 0.22185297E+03</pdfrwt>
<totfact> 0.19745544E+03</totfact>
</mgrwt>
</event>
<event>
 6    1  0.5258538E-006  0.1268622E+03  0.7546771E-02  0.1247292E+00
         -2   -1    0    0    0  501 -0.00000000000E+00  0.00000000000E+00  0.56014937898E+02  0.56014937898E+02  0.00000000000E+00 0. -1.
          2   -1    0    0  501    0  0.00000000000E+00 -0.00000000000E+00 -0.26259178706E+03  0.26259178706E+03  0.00000000000E+00 0.  1.
          5    1    1    2  502    0 -0.45413976851E+02 -0.12220440733E+02 -0.18056263594E+03  0.18664598566E+03  0.47000000000E+01 0. -1.
         -5    1    1    2    0  502  0.26621194521E+02  0.23015135056E+02 -0.18595297170E+01  0.35551825413E+02  0.47000000000E+01 0. -1.
        -11    1    1    2    0    0  0.66457537960E+01 -0.48156063801E+02  0.29145038608E+01  0.48699762393E+02  0.00000000000E+00 0. -1.
         11    1    1    2    0    0  0.12147028534E+02  0.37361369477E+02 -0.27069187365E+02  0.47709151491E+02  0.00000000000E+00 0.  1.
<mgrwt>
<rscale>  0 0.11749223E+03</rscale>
<asrwt>0</asrwt>
<pdfrwt beam="2">  1        2 0.40398737E-01 0.12686221E+03</pdfrwt>
<pdfrwt beam="1">  1       -2 0.86176825E-02 0.12686221E+03</pdfrwt>
<totfact> 0.99919528E+03</totfact>
</mgrwt>
</event>
<event>
 6    1  0.5258538E-006  0.1323814E+03  0.7546771E-02  0.1236716E+00
          2   -1    0    0  501    0  0.00000000000E+00  0.00000000000E+00  0.86412619776E+03  0.86412619776E+03  0.00000000000E+00 0. -1.
         -2   -1    0    0    0  501 -0.00000000000E+00 -0.00000000000E+00 -0.16053066493E+02  0.16053066493E+02  0.00000000000E+00 0.  1.
          5    1    1    2  502    0 -0.36068962848E+02 -0.13600195068E+01  0.50561953047E+03  0.50692802184E+03  0.47000000000E+01 0. -1.
         -5    1    1    2    0  502  0.23189630092E+01  0.28946101305E+02  0.21175002322E+02  0.36245345819E+02  0.47000000000E+01 0. -1.
        -11    1    1    2    0    0 -0.30230477303E+01  0.26314145334E+02  0.38068839419E+02  0.46376821764E+02  0.00000000000E+00 0.  1.
         11    1    1    2    0    0  0.36773047569E+02 -0.53900227132E+02  0.28320975906E+03  0.29062907484E+03  0.00000000000E+00 0. -1.
<mgrwt>
<rscale>  0 0.12395202E+03</rscale>
<asrwt>0</asrwt>
<pdfrwt beam="1">  1        2 0.13294246E+00 0.13238137E+03</pdfrwt>
<pdfrwt beam="2">  1       -2 0.24697032E-02 0.13238137E+03</pdfrwt>
<totfact> 0.17260812E+04</totfact>
</mgrwt>
</event>
<event>
 6    1  0.5258538E-006  0.1273906E+03  0.7546771E-02  0.1246083E+00
          2   -1    0    0  501    0  0.00000000000E+00  0.00000000000E+00  0.54878834049E+03  0.54878834049E+03  0.00000000000E+00 0. -1.
         -2   -1    0    0    0  501 -0.00000000000E+00 -0.00000000000E+00 -0.26069581898E+02  0.26069581898E+02  0.00000000000E+00 0.  1.
          5    1    1    2  502    0 -0.57959691775E+02  0.29351534117E+02  0.23895010176E+03  0.24766929474E+03  0.47000000000E+01 0.  1.
         -5    1    1    2    0  502  0.60428830871E+02 -0.49197928150E+01  0.16233767273E+03  0.17335356342E+03  0.47000000000E+01 0.  1.
        -11    1    1    2    0    0  0.42482937741E+02 -0.19114366692E+01  0.41591864581E+02  0.59483920420E+02  0.00000000000E+00 0. -1.
         11    1    1    2    0    0 -0.44952076836E+02 -0.22520304633E+02  0.79839119522E+02  0.94351143812E+02  0.00000000000E+00 0.  1.
<mgrwt>
<rscale>  0 0.11820807E+03</rscale>
<asrwt>0</asrwt>
<pdfrwt beam="1">  1        2 0.84428966E-01 0.12739062E+03</pdfrwt>
<pdfrwt beam="2">  1       -2 0.40107053E-02 0.12739062E+03</pdfrwt>
<totfact> 0.14444877E+04</totfact>
</mgrwt>
</event>
<event>
 6    1  0.5258538E-006  0.1257675E+03  0.7546771E-02  0.1248706E+00
          1   -1    0    0  501    0  0.00000000000E+00  0.00000000000E+00  0.19549419272E+03  0.19549419272E+03  0.00000000000E+00 0. -1.
         -1   -1    0    0    0  501 -0.00000000000E+00 -0.00000000000E+00 -0.62479134242E+02  0.62479134242E+02  0.00000000000E+00 0.  1.
          5    1    1    2  502    0  0.12872315433E+02 -0.34565963316E+02  0.10702721578E+03  0.11330232673E+03  0.47000000000E+01 0. -1.
         -5    1    1    2    0  502 -0.26417428919E+02  0.31947624015E+02 -0.13032339685E+02  0.43708844741E+02  0.47000000000E+01 0. -1.
        -11    1    1    2    0    0 -0.18462210454E+02  0.32166634434E+02  0.43507715167E+02  0.57170506948E+02  0.00000000000E+00 0.  1.
         11    1    1    2    0    0  0.32007323940E+02 -0.29548295134E+02 -0.44875327912E+01  0.43791648537E+02  0.00000000000E+00 0. -1.
<mgrwt>
<rscale>  0 0.11666314E+03</rscale>
<asrwt>0</asrwt>
<pdfrwt beam="1">  1        1 0.30076029E-01 0.12576753E+03</pdfrwt>
<pdfrwt beam="2">  1       -1 0.96121746E-02 0.12576753E+03</pdfrwt>
<totfact> 0.91845863E+03</totfact>
</mgrwt>
</event>
<event>
 6    1  0.5258538E-006  0.1925399E+03  0.7546771E-02  0.1160810E+00
         -2   -1    0    0    0  501 -0.00000000000E+00  0.00000000000E+00  0.50993215703E+02  0.50993215703E+02  0.00000000000E+00 0.  1.
          2   -1    0    0  501    0  0.00000000000E+00 -0.00000000000E+00 -0.67287445576E+03  0.67287445576E+03  0.00000000000E+00 0. -1.
          5    1    1    2  502    0 -0.53321958326E+02  0.64326950967E+02 -0.77565705427E+02  0.11410397241E+03  0.47000000000E+01 0.  1.
         -5    1    1    2    0  502 -0.73262139749E+02  0.93249874934E+01 -0.30925829324E+03  0.31798911687E+03  0.47000000000E+01 0.  1.
        -11    1    1    2    0    0  0.59014776447E+02  0.14728985494E+02 -0.70126913040E+02  0.92830333326E+02  0.00000000000E+00 0. -1.
         11    1    1    2    0    0  0.67569321627E+02 -0.88380923955E+02 -0.16493032835E+03  0.19894424886E+03  0.00000000000E+00 0.  1.
<mgrwt>
<rscale>  0 0.18741922E+03</rscale>
<asrwt>0</asrwt>
<pdfrwt beam="2">  1        2 0.10351914E+00 0.19253995E+03</pdfrwt>
<pdfrwt beam="1">  1       -2 0.78451103E-02 0.19253995E+03</pdfrwt>
<totfact> 0.42278731E+03</totfact>
</mgrwt>
</event>
<event>
 6    1  0.5258538E-006  0.1194667E+03  0.7546771E-02  0.1251693E+00
         -2   -1    0    0    0  501 -0.00000000000E+00  0.00000000000E+00  0.84734620011E+02  0.84734620011E+02  0.00000000000E+00 0.  1.
          2   -1    0    0  501    0  0.00000000000E+00 -0.00000000000E+00 -0.28689360282E+03  0.28689360282E+03  0.00000000000E+00 0. -1.
          5    1    1    2  502    0  0.37053384946E+02 -0.15584974928E+02 -0.21043762031E+03  0.21429401956E+03  0.47000000000E+01 0. -1.
         -5    1    1    2    0  502 -0.33271504336E+02 -0.26789809107E+02 -0.24993342519E+02  0.49713620298E+02  0.47000000000E+01 0.  1.
        -11    1    1    2    0    0 -0.10703213954E+02  0.15721164591E+02 -0.31748436176E+02  0.37009147581E+02  0.00000000000E+00 0. -1.
         11    1    1    2    0    0  0.69213333444E+01  0.26653619444E+02  0.65020416198E+02  0.70611435387E+02  0.00000000000E+00 0.  1.
<mgrwt>
<rscale>  0 0.11493579E+03</rscale>
<asrwt>0</asrwt>
<pdfrwt beam="2">  1        2 0.44137477E-01 0.11946671E+03</pdfrwt>
<pdfrwt beam="1">  1       -2 0.13036096E-01 0.11946671E+03</pdfrwt>
<totfact> 0.47199663E+03</totfact>
</mgrwt>
</event>
<event>
 6    1  0.5258538E-006  0.1382722E+03  0.7546771E-02  0.1225998E+00
         -4   -1    0    0    0  501 -0.00000000000E+00  0.00000000000E+00  0.21998998044E+03  0.21998998044E+03  0.00000000000E+00 0.  1.
          4   -1    0    0  501    0  0.00000000000E+00 -0.00000000000E+00 -0.75030347523E+02  0.75030347523E+02  0.00000000000E+00 0. -1.
          5    1    1    2  502    0 -0.50877854282E+02 -0.58763544707E+02  0.53676033545E+02  0.94577570385E+02  0.47000000000E+01 0. -1.
         -5    1    1    2    0  502  0.49906626626E+02 -0.32577322253E+00 -0.85907989427E+01  0.50859309235E+02  0.47000000000E+01 0. -1.
        -11    1    1    2    0    0  0.72349010285E+01  0.15630430320E+02  0.10406062515E+03  0.10547638528E+03  0.00000000000E+00 0.  1.
         11    1    1    2    0    0 -0.62636733725E+01  0.43458887609E+02 -0.41862268410E+01  0.44107063057E+02  0.00000000000E+00 0. -1.
<mgrwt>
<rscale>  0 0.13098763E+03</rscale>
<asrwt>0</asrwt>
<pdfrwt beam="2">  1        4 0.11543130E-01 0.13827222E+03</pdfrwt>
<pdfrwt beam="1">  1       -4 0.33844612E-01 0.13827222E+03</pdfrwt>
<totfact> 0.83163700E+02</totfact>
</mgrwt>
</event>
<event>
 6    1  0.5258538E-006  0.1590260E+03  0.7546771E-02  0.1197780E+00
          2   -1    0    0  501    0  0.00000000000E+00  0.00000000000E+00  0.55528014793E+03  0.55528014793E+03  0.00000000000E+00 0. -1.
         -2   -1    0    0    0  501 -0.00000000000E+00 -0.00000000000E+00 -0.44386850279E+02  0.44386850279E+02  0.00000000000E+00 0.  1.
          5    1    1    2  502    0 -0.84630813287E+02 -0.61302066289E+01  0.15992297749E+03  0.18110053208E+03  0.47000000000E+01 0. -1.
         -5    1    1    2    0  502  0.18487061310E+02 -0.66603380936E+02  0.22353389097E+03  0.23402408466E+03  0.47000000000E+01 0. -1.
        -11    1    1    2    0    0  0.39332723795E+02 -0.14264916648E+02  0.32212540923E+02  0.52803397626E+02  0.00000000000E+00 0. -1.
         11    1    1    2    0    0  0.26811028181E+02  0.86998504213E+02  0.95223888270E+02  0.13173898385E+03  0.00000000000E+00 0.  1.
<mgrwt>
<rscale>  0 0.15221308E+03</rscale>
<asrwt>0</asrwt>
<pdfrwt beam="1">  1        2 0.85427710E-01 0.15902603E+03</pdfrwt>
<pdfrwt beam="2">  1       -2 0.68287466E-02 0.15902603E+03</pdfrwt>
<totfact> 0.64850867E+03</totfact>
</mgrwt>
</event>
<event>
 6    1  0.5258538E-006  0.1430996E+03  0.7546771E-02  0.1218605E+00
         -2   -1    0    0    0  501 -0.00000000000E+00  0.00000000000E+00  0.22123180348E+03  0.22123180348E+03  0.00000000000E+00 0.  1.
          2   -1    0    0  501    0  0.00000000000E+00 -0.00000000000E+00 -0.77697770574E+02  0.77697770574E+02  0.00000000000E+00 0. -1.
          5    1    1    2  502    0  0.44405360194E+02  0.97866426300E+02  0.42659609054E+02  0.11572210530E+03  0.47000000000E+01 0. -1.
         -5    1    1    2    0  502 -0.21092655312E+02 -0.27979548840E+02  0.18473389974E+02  0.39888737741E+02  0.47000000000E+01 0.  1.
        -11    1    1    2    0    0 -0.56318755308E+02 -0.48994474936E+02  0.70002091294E+02  0.10233549511E+03  0.00000000000E+00 0.  1.
         11    1    1    2    0    0  0.33006050427E+02 -0.20892402523E+02  0.12398942587E+02  0.40983235905E+02  0.00000000000E+00 0. -1.
<mgrwt>
<rscale>  0 0.13615008E+03</rscale>
<asrwt>0</asrwt>
<pdfrwt beam="2">  1        2 0.11953503E-01 0.14309958E+03</pdfrwt>
<pdfrwt beam="1">  1       -2 0.34035662E-01 0.14309958E+03</pdfrwt>
<totfact> 0.39855942E+03</totfact>
</mgrwt>
</event>
<event>
 6    1  0.5258538E-006  0.3712569E+03  0.7546771E-02  0.1054213E+00
         -2   -1    0    0    0  501 -0.00000000000E+00  0.00000000000E+00  0.18907138624E+02  0.18907138624E+02  0.00000000000E+00 0.  1.
          2   -1    0    0  501    0  0.00000000000E+00 -0.00000000000E+00 -0.18224818070E+04  0.18224818070E+04  0.00000000000E+00 0. -1.
          5    1    1    2  502    0 -0.39176321856E+02 -0.43360813644E+01 -0.20686417321E+03  0.21063822529E+03  0.47000000000E+01 0. -1.
         -5    1    1    2    0  502  0.24413927653E+02  0.15335173338E+03 -0.80557881237E+03  0.82042190788E+03  0.47000000000E+01 0. -1.
        -11    1    1    2    0    0 -0.35859331453E+02 -0.80675923604E+02 -0.46388341180E+03  0.47221003383E+03  0.00000000000E+00 0.  1.
         11    1    1    2    0    0  0.50621725657E+02 -0.68339728416E+02 -0.32724827098E+03  0.33811877861E+03  0.00000000000E+00 0. -1.
<mgrwt>
<rscale>  0 0.37125687E+03</rscale>
<asrwt>0</asrwt>
<pdfrwt beam="2">  1        2 0.28038183E+00 0.37125687E+03</pdfrwt>
<pdfrwt beam="1">  1       -2 0.29087904E-02 0.37125687E+03</pdfrwt>
<totfact> 0.40817349E+03</totfact>
</mgrwt>
</event>
<event>
 6    1  0.5258538E-006  0.3361693E+03  0.7546771E-02  0.1068439E+00
          1   -1    0    0  501    0  0.00000000000E+00  0.00000000000E+00  0.44745572750E+03  0.44745572750E+03  0.00000000000E+00 0. -1.
         -1   -1    0    0    0  501 -0.00000000000E+00 -0.00000000000E+00 -0.63140225886E+02  0.63140225886E+02  0.00000000000E+00 0.  1.
          5    1    1    2  502    0  0.11174851629E+02  0.10315087987E+03  0.11864582412E+03  0.15768291889E+03  0.47000000000E+01 0. -1.
         -5    1    1    2    0  502 -0.82538069853E+01  0.15221458551E+01  0.20028954514E+03  0.20052040831E+03  0.47000000000E+01 0. -1.
        -11    1    1    2    0    0  0.34214198920E+02 -0.63500128157E+02  0.79545714567E+01  0.72568263661E+02  0.00000000000E+00 0.  1.
         11    1    1    2    0    0 -0.37135243565E+02 -0.41172897567E+02  0.57425560895E+02  0.79824362527E+02  0.00000000000E+00 0. -1.
<mgrwt>
<rscale>  0 0.33616934E+03</rscale>
<asrwt>0</asrwt>
<pdfrwt beam="1">  1        1 0.68839341E-01 0.33616934E+03</pdfrwt>
<pdfrwt beam="2">  1       -1 0.97138812E-02 0.33616934E+03</pdfrwt>
<totfact> 0.33443664E+03</totfact>
</mgrwt>
</event>
<event>
 6    1  0.5258538E-006  0.1331171E+03  0.7546771E-02  0.1235439E+00
          1   -1    0    0  501    0  0.00000000000E+00  0.00000000000E+00  0.90271300022E+03  0.90271300022E+03  0.00000000000E+00 0. -1.
         -1   -1    0    0    0  501 -0.00000000000E+00 -0.00000000000E+00 -0.15681639574E+02  0.15681639574E+02  0.00000000000E+00 0.  1.
          5    1    1    2  502    0 -0.29213283594E+02  0.64710248372E+02  0.26403831847E+03  0.27345777700E+03  0.47000000000E+01 0. -1.
         -5    1    1    2    0  502  0.54537677827E+02 -0.26481853662E+02  0.29630803203E+03  0.30248336602E+03  0.47000000000E+01 0. -1.
        -11    1    1    2    0    0 -0.41807085235E+02  0.24144447490E+01  0.66421723604E+02  0.78520744302E+02  0.00000000000E+00 0.  1.
         11    1    1    2    0    0  0.16482691001E+02 -0.40642839459E+02  0.26026328654E+03  0.26393275247E+03  0.00000000000E+00 0. -1.
<mgrwt>
<rscale>  0 0.12476383E+03</rscale>
<asrwt>0</asrwt>
<pdfrwt beam="1">  1        1 0.13887888E+00 0.13311712E+03</pdfrwt>
<pdfrwt beam="2">  1       -1 0.24125606E-02 0.13311712E+03</pdfrwt>
<totfact> 0.95177949E+03</totfact>
</mgrwt>
</event>
<event>
 6    1  0.5258538E-006  0.3229892E+03  0.7546771E-02  0.1074282E+00
          2   -1    0    0  501    0  0.00000000000E+00  0.00000000000E+00  0.24234171463E+03  0.24234171463E+03  0.00000000000E+00 0. -1.
         -2   -1    0    0    0  501 -0.00000000000E+00 -0.00000000000E+00 -0.10761870787E+03  0.10761870787E+03  0.00000000000E+00 0.  1.
          5    1    1    2  502    0  0.81138476739E+02 -0.11203149416E+03  0.50359572678E+02  0.14728436662E+03  0.47000000000E+01 0. -1.
         -5    1    1    2    0  502 -0.98691387971E+01  0.18185098316E+02  0.43682229378E+02  0.48562587089E+02  0.47000000000E+01 0. -1.
        -11    1    1    2    0    0 -0.38581881434E+02  0.81390811502E+01 -0.19916797604E+02  0.44175615941E+02  0.00000000000E+00 0.  1.
         11    1    1    2    0    0 -0.32687456508E+02  0.85707314692E+02  0.60598002315E+02  0.10993785285E+03  0.00000000000E+00 0. -1.
<mgrwt>
<rscale>  0 0.32298918E+03</rscale>
<asrwt>0</asrwt>
<pdfrwt beam="1">  1        2 0.37283341E-01 0.32298918E+03</pdfrwt>
<pdfrwt beam="2">  1       -2 0.16556724E-01 0.32298918E+03</pdfrwt>
<totfact> 0.40065533E+03</totfact>
</mgrwt>
</event>
<event>
 6    1  0.5258538E-006  0.1278609E+03  0.7546771E-02  0.1245406E+00
         -1   -1    0    0    0  501 -0.00000000000E+00  0.00000000000E+00  0.98989759097E+02  0.98989759097E+02  0.00000000000E+00 0.  1.
          1   -1    0    0  501    0  0.00000000000E+00 -0.00000000000E+00 -0.12594046842E+03  0.12594046842E+03  0.00000000000E+00 0. -1.
          5    1    1    2  502    0  0.49674595260E+01 -0.49768870934E+02  0.20305066576E+02  0.54184886240E+02  0.47000000000E+01 0. -1.
         -5    1    1    2    0  502  0.16480084469E+02  0.66707595301E+02 -0.26596845692E+02  0.73830743297E+02  0.47000000000E+01 0. -1.
        -11    1    1    2    0    0 -0.17463204118E+02  0.34546612551E+02 -0.23347278794E+02  0.45205390873E+02  0.00000000000E+00 0.  1.
         11    1    1    2    0    0 -0.39843398767E+01 -0.51485336919E+02  0.26883485844E+01  0.51709207110E+02  0.00000000000E+00 0. -1.
<mgrwt>
<rscale>  0 0.11861130E+03</rscale>
<asrwt>0</asrwt>
<pdfrwt beam="2">  1        1 0.19375457E-01 0.12786092E+03</pdfrwt>
<pdfrwt beam="1">  1       -1 0.15229194E-01 0.12786092E+03</pdfrwt>
<totfact> 0.78559336E+03</totfact>
</mgrwt>
</event>
<event>
 6    1  0.5258538E-006  0.2477768E+03  0.7546771E-02  0.1114718E+00
          1   -1    0    0  501    0  0.00000000000E+00  0.00000000000E+00  0.45294453412E+02  0.45294453412E+02  0.00000000000E+00 0. -1.
         -1   -1    0    0    0  501 -0.00000000000E+00 -0.00000000000E+00 -0.33885689782E+03  0.33885689782E+03  0.00000000000E+00 0.  1.
          5    1    1    2  502    0  0.75633024841E+01 -0.21951807249E+02  0.61431303219E+01  0.24472707985E+02  0.47000000000E+01 0.  1.
         -5    1    1    2    0  502 -0.40194898184E+02  0.73880969418E+02 -0.17631344390E+03  0.19540355161E+03  0.47000000000E+01 0.  1.
        -11    1    1    2    0    0  0.52844586872E+02 -0.66652997393E+01 -0.37623348454E+02  0.65211141158E+02  0.00000000000E+00 0. -1.
         11    1    1    2    0    0 -0.20212991172E+02 -0.45263862430E+02 -0.85768782375E+02  0.99063950478E+02  0.00000000000E+00 0.  1.
<mgrwt>
<rscale>  0 0.24777682E+03</rscale>
<asrwt>0</asrwt>
<pdfrwt beam="1">  1        1 0.69683777E-02 0.24777682E+03</pdfrwt>
<pdfrwt beam="2">  1       -1 0.52131828E-01 0.24777682E+03</pdfrwt>
<totfact> 0.39575022E+03</totfact>
</mgrwt>
</event>
<event>
 6    1  0.5258538E-006  0.1353870E+03  0.7546771E-02  0.1232336E+00
         -4   -1    0    0    0  501 -0.00000000000E+00  0.00000000000E+00  0.35629758860E+02  0.35629758860E+02  0.00000000000E+00 0.  1.
          4   -1    0    0  501    0  0.00000000000E+00 -0.00000000000E+00 -0.42344468349E+03  0.42344468349E+03  0.00000000000E+00 0. -1.
          5    1    1    2  502    0 -0.27161966532E+02  0.67046424987E+01 -0.17654583576E+03  0.17881064504E+03  0.47000000000E+01 0. -1.
         -5    1    1    2    0  502  0.78170357252E+02 -0.16824077493E+02 -0.92361423487E+02  0.12225537569E+03  0.47000000000E+01 0. -1.
        -11    1    1    2    0    0 -0.67320473301E+02  0.32883871474E+02 -0.96324611962E+02  0.12203206955E+03  0.00000000000E+00 0. -1.
         11    1    1    2    0    0  0.16312082581E+02 -0.22764436480E+02 -0.22583053420E+02  0.35976352068E+02  0.00000000000E+00 0.  1.
<mgrwt>
<rscale>  0 0.12676500E+03</rscale>
<asrwt>0</asrwt>
<pdfrwt beam="2">  1        4 0.65145336E-01 0.13538698E+03</pdfrwt>
<pdfrwt beam="1">  1       -4 0.54815014E-02 0.13538698E+03</pdfrwt>
<totfact> 0.75825247E+02</totfact>
</mgrwt>
</event>
<event>
 6    1  0.5258538E-006  0.1443225E+03  0.7546771E-02  0.1235809E+00
          2   -1    0    0  501    0  0.00000000000E+00  0.00000000000E+00  0.44438287116E+03  0.44438287116E+03  0.00000000000E+00 0. -1.
         -2   -1    0    0    0  501 -0.00000000000E+00 -0.00000000000E+00 -0.17657366311E+03  0.17657366311E+03  0.00000000000E+00 0.  1.
          5    1    1    2  502    0 -0.52046640828E+02 -0.16954208617E+02  0.40803139229E+03  0.41171349882E+03  0.47000000000E+01 0. -1.
         -5    1    1    2    0  502  0.30967379475E+02  0.49323964332E+01  0.14651657721E+02  0.34929474661E+02  0.47000000000E+01 0.  1.
        -11    1    1    2    0    0  0.47319758841E+02  0.12842046466E+02 -0.12643593066E+03  0.13561018508E+03  0.00000000000E+00 0.  1.
         11    1    1    2    0    0 -0.26240497487E+02 -0.82023428264E+00 -0.28437911302E+02  0.38703375716E+02  0.00000000000E+00 0. -1.
<mgrwt>
<rscale>  0 0.12452805E+03</rscale>
<asrwt>0</asrwt>
<pdfrwt beam="1">  1        2 0.68366595E-01 0.14432250E+03</pdfrwt>
<pdfrwt beam="2">  1       -2 0.27165179E-01 0.14432250E+03</pdfrwt>
<totfact> 0.86837322E+02</totfact>
</mgrwt>
</event>
<event>
 6    1  0.5258538E-006  0.1903094E+03  0.7546771E-02  0.1167018E+00
          2   -1    0    0  501    0  0.00000000000E+00  0.00000000000E+00  0.83716239914E+03  0.83716239914E+03  0.00000000000E+00 0. -1.
         -2   -1    0    0    0  501 -0.00000000000E+00 -0.00000000000E+00 -0.97779123147E+02  0.97779123147E+02  0.00000000000E+00 0.  1.
          5    1    1    2  502    0 -0.10995300520E+03 -0.40309038937E+02  0.70682774985E+03  0.71647891799E+03  0.47000000000E+01 0. -1.
         -5    1    1    2    0  502  0.18477399783E+02 -0.34458961515E+02  0.48606821825E+02  0.62558352435E+02  0.47000000000E+01 0.  1.
        -11    1    1    2    0    0  0.98653548090E+02  0.22828816367E+02 -0.67274340068E+00  0.10126267818E+03  0.00000000000E+00 0.  1.
         11    1    1    2    0    0 -0.71779426751E+01  0.51939184084E+02 -0.15378552280E+02  0.54641573684E+02  0.00000000000E+00 0. -1.
<mgrwt>
<rscale>  0 0.18081364E+03</rscale>
<asrwt>0</asrwt>
<pdfrwt beam="1">  1        2 0.12879421E+00 0.19030942E+03</pdfrwt>
<pdfrwt beam="2">  1       -2 0.15042943E-01 0.19030942E+03</pdfrwt>
<totfact> 0.11412625E+03</totfact>
</mgrwt>
</event>
<event>
 6    1  0.5258538E-006  0.1707659E+03  0.7546771E-02  0.1183398E+00
          1   -1    0    0  501    0  0.00000000000E+00  0.00000000000E+00  0.14615532599E+04  0.14615532599E+04  0.00000000000E+00 0.  1.
         -1   -1    0    0    0  501 -0.00000000000E+00 -0.00000000000E+00 -0.20631754370E+02  0.20631754370E+02  0.00000000000E+00 0. -1.
          5    1    1    2  502    0 -0.25092503113E+02  0.15513130581E+02  0.37621135038E+03  0.37739549690E+03  0.47000000000E+01 0. -1.
         -5    1    1    2    0  502  0.12105254320E+03  0.50286353462E+02  0.68066897281E+03  0.69319173113E+03  0.47000000000E+01 0. -1.
        -11    1    1    2    0    0  0.12308301006E+02 -0.22920951303E+02  0.34774537562E+02  0.43429629804E+02  0.00000000000E+00 0. -1.
         11    1    1    2    0    0 -0.10826834109E+03 -0.42878532740E+02  0.34926664479E+03  0.36816815643E+03  0.00000000000E+00 0.  1.
<mgrwt>
<rscale>  0 0.16478535E+03</rscale>
<asrwt>0</asrwt>
<pdfrwt beam="1">  1        1 0.22485427E+00 0.17076591E+03</pdfrwt>
<pdfrwt beam="2">  1       -1 0.31741172E-02 0.17076591E+03</pdfrwt>
<totfact> 0.26246377E+03</totfact>
</mgrwt>
</event>
<event>
 6    1  0.5258538E-006  0.1463376E+03  0.7546771E-02  0.1214548E+00
          3   -1    0    0  501    0  0.00000000000E+00  0.00000000000E+00  0.11955354673E+03  0.11955354673E+03  0.00000000000E+00 0. -1.
         -3   -1    0    0    0  501 -0.00000000000E+00 -0.00000000000E+00 -0.16163008287E+03  0.16163008287E+03  0.00000000000E+00 0.  1.
          5    1    1    2  502    0  0.67998100046E+01 -0.10009846401E+03  0.10858083678E+02  0.10102439257E+03  0.47000000000E+01 0. -1.
         -5    1    1    2    0  502 -0.34894474964E+02  0.29386676929E+02  0.71947620514E+01  0.46422578181E+02  0.47000000000E+01 0. -1.
        -11    1    1    2    0    0 -0.11168090514E+02  0.32270541313E+02 -0.70022107546E+02  0.77905132228E+02  0.00000000000E+00 0.  1.
         11    1    1    2    0    0  0.39262755474E+02  0.38441245764E+02  0.98927256804E+01  0.55831526620E+02  0.00000000000E+00 0. -1.
<mgrwt>
<rscale>  0 0.13909766E+03</rscale>
<asrwt>0</asrwt>
<pdfrwt beam="1">  1        3 0.18392853E-01 0.14633764E+03</pdfrwt>
<pdfrwt beam="2">  1       -3 0.24866167E-01 0.14633764E+03</pdfrwt>
<totfact> 0.92158370E+02</totfact>
</mgrwt>
</event>
<event>
 6    1  0.5258538E-006  0.1314646E+03  0.7546771E-02  0.1239086E+00
          1   -1    0    0  501    0  0.00000000000E+00  0.00000000000E+00  0.51454163867E+03  0.51454163867E+03  0.00000000000E+00 0. -1.
         -1   -1    0    0    0  501 -0.00000000000E+00 -0.00000000000E+00 -0.29623406929E+02  0.29623406929E+02  0.00000000000E+00 0.  1.
          5    1    1    2  502    0 -0.91359473629E+01  0.31828266550E+02  0.26011828449E+02  0.42369910373E+02  0.47000000000E+01 0. -1.
         -5    1    1    2    0  502 -0.15160482878E+02 -0.64427189939E+02  0.34303294342E+03  0.34939146143E+03  0.47000000000E+01 0. -1.
        -11    1    1    2    0    0  0.33018435221E+02 -0.10113596759E+02  0.10035456251E+03  0.10612982672E+03  0.00000000000E+00 0.  1.
         11    1    1    2    0    0 -0.87220049800E+01  0.42712520148E+02  0.15518897365E+02  0.46273847081E+02  0.00000000000E+00 0. -1.
<mgrwt>
<rscale>  0 0.12246472E+03</rscale>
<asrwt>0</asrwt>
<pdfrwt beam="1">  1        1 0.79160245E-01 0.13146455E+03</pdfrwt>
<pdfrwt beam="2">  1       -1 0.45574476E-02 0.13146455E+03</pdfrwt>
<totfact> 0.83819842E+03</totfact>
</mgrwt>
</event>
<event>
 6    1  0.5258538E-006  0.1707073E+03  0.7546771E-02  0.1177691E+00
          2   -1    0    0  501    0  0.00000000000E+00  0.00000000000E+00  0.94406357832E+03  0.94406357832E+03  0.00000000000E+00 0.  1.
         -2   -1    0    0    0  501 -0.00000000000E+00 -0.00000000000E+00 -0.39596810934E+02  0.39596810934E+02  0.00000000000E+00 0. -1.
          5    1    1    2  502    0 -0.23418665927E+02 -0.24873700460E+02  0.49471606522E+02  0.60304765485E+02  0.47000000000E+01 0. -1.
         -5    1    1    2    0  502  0.86598478709E+02 -0.68799746043E+02  0.63663263217E+03  0.64618565438E+03  0.47000000000E+01 0. -1.
        -11    1    1    2    0    0  0.14002302431E+02 -0.14514288861E+02 -0.15427029126E+01  0.20226442762E+02  0.00000000000E+00 0.  1.
         11    1    1    2    0    0 -0.77182115213E+02  0.10818773536E+03  0.21990523161E+03  0.25694352663E+03  0.00000000000E+00 0. -1.
<mgrwt>
<rscale>  0 0.17015089E+03</rscale>
<asrwt>0</asrwt>
<pdfrwt beam="1">  1        2 0.14524053E+00 0.17070735E+03</pdfrwt>
<pdfrwt beam="2">  1       -2 0.60918178E-02 0.17070735E+03</pdfrwt>
<totfact> 0.40561693E+03</totfact>
</mgrwt>
</event>
<event>
 6    1  0.5258538E-006  0.1468219E+03  0.7546771E-02  0.1210376E+00
          2   -1    0    0  501    0  0.00000000000E+00  0.00000000000E+00  0.17840160428E+04  0.17840160428E+04  0.00000000000E+00 0. -1.
         -2   -1    0    0    0  501 -0.00000000000E+00 -0.00000000000E+00 -0.13808839419E+02  0.13808839419E+02  0.00000000000E+00 0.  1.
          5    1    1    2  502    0 -0.45454205866E+02  0.43206302322E+02  0.64731061404E+03  0.65035835540E+03  0.47000000000E+01 0.  1.
         -5    1    1    2    0  502  0.78937775991E+02  0.26151535518E+02  0.70854502647E+03  0.71342359074E+03  0.47000000000E+01 0.  1.
        -11    1    1    2    0    0 -0.14116896539E+02 -0.33339580054E+01  0.50336625560E+00  0.14513973317E+02  0.00000000000E+00 0.  1.
         11    1    1    2    0    0 -0.19366673586E+02 -0.66023879835E+02  0.41384819665E+03  0.41952896280E+03  0.00000000000E+00 0. -1.
<mgrwt>
<rscale>  0 0.14221730E+03</rscale>
<asrwt>0</asrwt>
<pdfrwt beam="1">  1        2 0.27446382E+00 0.14682193E+03</pdfrwt>
<pdfrwt beam="2">  1       -2 0.21244382E-02 0.14682193E+03</pdfrwt>
<totfact> 0.67393857E+03</totfact>
</mgrwt>
</event>
<event>
 6    1  0.5258538E-006  0.1533201E+03  0.7546771E-02  0.1203595E+00
         -2   -1    0    0    0  501 -0.00000000000E+00  0.00000000000E+00  0.34064545492E+02  0.34064545492E+02  0.00000000000E+00 0.  1.
          2   -1    0    0  501    0  0.00000000000E+00 -0.00000000000E+00 -0.70840171481E+03  0.70840171481E+03  0.00000000000E+00 0. -1.
          5    1    1    2  502    0 -0.36686659025E+02 -0.37005116296E+02 -0.44142280392E+03  0.44451262232E+03  0.47000000000E+01 0.  1.
         -5    1    1    2    0  502  0.20504237728E+02 -0.50280104224E+02 -0.66151019427E+02  0.85712076260E+02  0.47000000000E+01 0.  1.
        -11    1    1    2    0    0 -0.98282453664E+01  0.82436576275E+02 -0.60479740339E+02  0.10271408134E+03  0.00000000000E+00 0.  1.
         11    1    1    2    0    0  0.26010666663E+02  0.48486442449E+01 -0.10628360563E+03  0.10952748037E+03  0.00000000000E+00 0. -1.
<mgrwt>
<rscale>  0 0.14748753E+03</rscale>
<asrwt>0</asrwt>
<pdfrwt beam="2">  1        2 0.10898488E+00 0.15332007E+03</pdfrwt>
<pdfrwt beam="1">  1       -2 0.52406995E-02 0.15332007E+03</pdfrwt>
<totfact> 0.73016908E+03</totfact>
</mgrwt>
</event>
<event>
 6    1  0.5258538E-006  0.1485964E+03  0.7546771E-02  0.1214456E+00
         -2   -1    0    0    0  501 -0.00000000000E+00  0.00000000000E+00  0.22225087236E+02  0.22225087236E+02  0.00000000000E+00 0.  1.
          2   -1    0    0  501    0  0.00000000000E+00 -0.00000000000E+00 -0.81826600574E+03  0.81826600574E+03  0.00000000000E+00 0. -1.
          5    1    1    2  502    0 -0.17675803780E+02  0.48090921339E+02 -0.50007501959E+03  0.50271491521E+03  0.47000000000E+01 0. -1.
         -5    1    1    2    0  502 -0.39797370013E+02 -0.10020606816E+02 -0.40265878251E+02  0.57685996327E+02  0.47000000000E+01 0.  1.
        -11    1    1    2    0    0 -0.15705877769E+02 -0.24258876912E+02 -0.13660377320E+03  0.13962721282E+03  0.00000000000E+00 0.  1.
         11    1    1    2    0    0  0.73179051561E+02 -0.13811437611E+02 -0.11909624746E+03  0.14046296863E+03  0.00000000000E+00 0. -1.
<mgrwt>
<rscale>  0 0.13916577E+03</rscale>
<asrwt>0</asrwt>
<pdfrwt beam="2">  1        2 0.12588708E+00 0.14859642E+03</pdfrwt>
<pdfrwt beam="1">  1       -2 0.34192441E-02 0.14859642E+03</pdfrwt>
<totfact> 0.11558387E+04</totfact>
</mgrwt>
</event>
<event>
 6    1  0.5258538E-006  0.1799140E+03  0.7546771E-02  0.1173293E+00
          2   -1    0    0  501    0  0.00000000000E+00  0.00000000000E+00  0.12444866658E+04  0.12444866658E+04  0.00000000000E+00 0. -1.
         -2   -1    0    0    0  501 -0.00000000000E+00 -0.00000000000E+00 -0.23124716986E+02  0.23124716986E+02  0.00000000000E+00 0.  1.
          5    1    1    2  502    0  0.10582483018E+03 -0.35054636380E+02  0.60617563751E+03  0.61635924242E+03  0.47000000000E+01 0. -1.
         -5    1    1    2    0  502  0.23555571444E+02  0.38697619489E+02  0.71356470937E+02  0.84653450283E+02  0.47000000000E+01 0. -1.
        -11    1    1    2    0    0 -0.32820331714E+02  0.40617039659E+02  0.20236994676E+03  0.20899883597E+03  0.00000000000E+00 0. -1.
         11    1    1    2    0    0 -0.96560069907E+02 -0.44260022769E+02  0.34145989358E+03  0.35759985408E+03  0.00000000000E+00 0.  1.
<mgrwt>
<rscale>  0 0.17444263E+03</rscale>
<asrwt>0</asrwt>
<pdfrwt beam="1">  1        2 0.19145943E+00 0.17991397E+03</pdfrwt>
<pdfrwt beam="2">  1       -2 0.35576497E-02 0.17991397E+03</pdfrwt>
<totfact> 0.61050742E+03</totfact>
</mgrwt>
</event>
<event>
 6    1  0.5258538E-006  0.1371183E+03  0.7546771E-02  0.1229584E+00
          1   -1    0    0  501    0  0.00000000000E+00  0.00000000000E+00  0.23963905697E+03  0.23963905697E+03  0.00000000000E+00 0.  1.
         -1   -1    0    0    0  501 -0.00000000000E+00 -0.00000000000E+00 -0.69889430519E+02  0.69889430519E+02  0.00000000000E+00 0. -1.
          5    1    1    2  502    0 -0.32257296183E+02  0.41564759322E+02  0.13552162077E+02  0.54533599473E+02  0.47000000000E+01 0. -1.
         -5    1    1    2    0  502  0.59681453331E+02  0.76815363858E+01  0.13359917650E+03  0.14660051785E+03  0.47000000000E+01 0. -1.
        -11    1    1    2    0    0 -0.25858689677E+02 -0.82814117140E+01  0.51511201592E+02  0.58229352574E+02  0.00000000000E+00 0.  1.
         11    1    1    2    0    0 -0.15654674712E+01 -0.40964883994E+02 -0.28912913725E+02  0.50165017583E+02  0.00000000000E+00 0. -1.
<mgrwt>
<rscale>  0 0.12857625E+03</rscale>
<asrwt>0</asrwt>
<pdfrwt beam="1">  1        1 0.36867547E-01 0.13711826E+03</pdfrwt>
<pdfrwt beam="2">  1       -1 0.10752220E-01 0.13711826E+03</pdfrwt>
<totfact> 0.60520359E+03</totfact>
</mgrwt>
</event>
<event>
 6    1  0.5258538E-006  0.3802420E+03  0.7546771E-02  0.1051766E+00
          1   -1    0    0  501    0  0.00000000000E+00  0.00000000000E+00  0.18096336971E+04  0.18096336971E+04  0.00000000000E+00 0. -1.
         -1   -1    0    0    0  501 -0.00000000000E+00 -0.00000000000E+00 -0.78667375648E+02  0.78667375648E+02  0.00000000000E+00 0.  1.
          5    1    1    2  502    0 -0.21668633897E+01 -0.24340673241E+02  0.75559527105E+02  0.79551843518E+02  0.47000000000E+01 0.  1.
         -5    1    1    2    0  502 -0.35458897923E+03 -0.16696337887E+02  0.89787129358E+03  0.96550870619E+03  0.47000000000E+01 0.  1.
        -11    1    1    2    0    0  0.49908042198E+02 -0.20019213498E+02  0.73684005533E+02  0.91219045470E+02  0.00000000000E+00 0.  1.
         11    1    1    2    0    0  0.30684780042E+03  0.61056224626E+02  0.68385149520E+03  0.75202147753E+03  0.00000000000E+00 0. -1.
<mgrwt>
<rscale>  0 0.37775671E+03</rscale>
<asrwt>0</asrwt>
<pdfrwt beam="1">  1        1 0.27840515E+00 0.38024201E+03</pdfrwt>
<pdfrwt beam="2">  1       -1 0.12102675E-01 0.38024201E+03</pdfrwt>
<totfact> 0.19942004E+02</totfact>
</mgrwt>
</event>
<event>
 6    1  0.5258538E-006  0.2989639E+03  0.7546771E-02  0.1085760E+00
         -4   -1    0    0    0  501 -0.00000000000E+00  0.00000000000E+00  0.93716027807E+02  0.93716027807E+02  0.00000000000E+00 0.  1.
          4   -1    0    0  501    0  0.00000000000E+00 -0.00000000000E+00 -0.23843154595E+03  0.23843154595E+03  0.00000000000E+00 0. -1.
          5    1    1    2  502    0  0.10159642076E+03 -0.71954196506E+02 -0.53283044195E+02  0.13550059744E+03  0.47000000000E+01 0. -1.
         -5    1    1    2    0  502 -0.18811461864E+02  0.13387198599E+02 -0.51301340339E+02  0.56453571228E+02  0.47000000000E+01 0. -1.
        -11    1    1    2    0    0 -0.68600168933E+02  0.51127109788E+01 -0.48624734933E+02  0.84240654309E+02  0.00000000000E+00 0. -1.
         11    1    1    2    0    0 -0.14184789967E+02  0.53454286928E+02  0.84936013195E+01  0.55952750789E+02  0.00000000000E+00 0.  1.
<mgrwt>
<rscale>  0 0.29896393E+03</rscale>
<asrwt>0</asrwt>
<pdfrwt beam="2">  1        4 0.36681777E-01 0.29896393E+03</pdfrwt>
<pdfrwt beam="1">  1       -4 0.14417850E-01 0.29896393E+03</pdfrwt>
<totfact> 0.55198736E+02</totfact>
</mgrwt>
</event>
<event>
 6    1  0.5258538E-006  0.1362067E+03  0.7546771E-02  0.1228932E+00
          1   -1    0    0  501    0  0.00000000000E+00  0.00000000000E+00  0.53833664792E+02  0.53833664792E+02  0.00000000000E+00 0. -1.
         -1   -1    0    0    0  501 -0.00000000000E+00 -0.00000000000E+00 -0.31240596910E+03  0.31240596910E+03  0.00000000000E+00 0.  1.
          5    1    1    2  502    0  0.33603361600E+02  0.73964816627E+02 -0.88963670542E+02  0.12056784267E+03  0.47000000000E+01 0. -1.
         -5    1    1    2    0  502  0.68829026711E+01 -0.38086618103E+02  0.52014251355E+01  0.39333314774E+02  0.47000000000E+01 0. -1.
        -11    1    1    2    0    0  0.12958263699E+02  0.24681051948E+02 -0.57641336496E+02  0.64028076626E+02  0.00000000000E+00 0. -1.
         11    1    1    2    0    0 -0.53444527971E+02 -0.60559250473E+02 -0.11716872241E+03  0.14231039983E+03  0.00000000000E+00 0.  1.
<mgrwt>
<rscale>  0 0.12901001E+03</rscale>
<asrwt>0</asrwt>
<pdfrwt beam="1">  1        1 0.82821023E-02 0.13620670E+03</pdfrwt>
<pdfrwt beam="2">  1       -1 0.48062456E-01 0.13620670E+03</pdfrwt>
<totfact> 0.35233505E+03</totfact>
</mgrwt>
</event>
<event>
 6    1  0.5258538E-006  0.1538171E+03  0.7546771E-02  0.1204536E+00
         -1   -1    0    0    0  501 -0.00000000000E+00  0.00000000000E+00  0.23277330824E+02  0.23277330824E+02  0.00000000000E+00 0.  1.
          1   -1    0    0  501    0  0.00000000000E+00 -0.00000000000E+00 -0.12210133636E+04  0.12210133636E+04  0.00000000000E+00 0. -1.
          5    1    1    2  502    0  0.61819510836E+02  0.39242154939E+02 -0.93909618305E+03  0.94195824200E+03  0.47000000000E+01 0.  1.
         -5    1    1    2    0  502  0.24391763977E+02 -0.14718887407E+02 -0.41071211612E+02  0.50204962102E+02  0.47000000000E+01 0.  1.
        -11    1    1    2    0    0 -0.26089636406E+02  0.34299696535E+02 -0.80492164832E+02  0.91302392682E+02  0.00000000000E+00 0.  1.
         11    1    1    2    0    0 -0.60121638407E+02 -0.58822964067E+02 -0.13707647332E+03  0.16082509768E+03  0.00000000000E+00 0. -1.
<mgrwt>
<rscale>  0 0.14674068E+03</rscale>
<asrwt>0</asrwt>
<pdfrwt beam="2">  1        1 0.18784827E+00 0.15381711E+03</pdfrwt>
<pdfrwt beam="1">  1       -1 0.35811267E-02 0.15381711E+03</pdfrwt>
<totfact> 0.31786096E+03</totfact>
</mgrwt>
</event>
<event>
 6    1  0.5258538E-006  0.1333886E+03  0.7546771E-02  0.1235773E+00
          2   -1    0    0  501    0  0.00000000000E+00  0.00000000000E+00  0.37424031444E+03  0.37424031444E+03  0.00000000000E+00 0. -1.
         -2   -1    0    0    0  501 -0.00000000000E+00 -0.00000000000E+00 -0.52041794747E+02  0.52041794747E+02  0.00000000000E+00 0.  1.
          5    1    1    2  502    0 -0.32552748004E+02  0.48036971992E+02  0.48583531176E+02  0.75826654827E+02  0.47000000000E+01 0. -1.
         -5    1    1    2    0  502 -0.95475314892E+01 -0.28153216613E+02  0.24254246028E+03  0.24440272912E+03  0.47000000000E+01 0. -1.
        -11    1    1    2    0    0  0.34703527929E+02 -0.46038294383E+02 -0.82608846296E+01  0.58241751478E+02  0.00000000000E+00 0.  1.
         11    1    1    2    0    0  0.73967515643E+01  0.26154539004E+02  0.39333412869E+02  0.47810973762E+02  0.00000000000E+00 0. -1.
<mgrwt>
<rscale>  0 0.12455094E+03</rscale>
<asrwt>0</asrwt>
<pdfrwt beam="1">  1        2 0.57575431E-01 0.13338859E+03</pdfrwt>
<pdfrwt beam="2">  1       -2 0.80064302E-02 0.13338859E+03</pdfrwt>
<totfact> 0.77204928E+03</totfact>
</mgrwt>
</event>
<event>
 6    1  0.5258538E-006  0.2081528E+03  0.7546771E-02  0.1146853E+00
          1   -1    0    0  501    0  0.00000000000E+00  0.00000000000E+00  0.80269100778E+03  0.80269100778E+03  0.00000000000E+00 0. -1.
         -1   -1    0    0    0  501 -0.00000000000E+00 -0.00000000000E+00 -0.59278530305E+02  0.59278530305E+02  0.00000000000E+00 0.  1.
          5    1    1    2  502    0  0.47236667154E+02  0.12187411242E+03  0.39966061469E+03  0.42051789371E+03  0.47000000000E+01 0.  1.
         -5    1    1    2    0  502  0.74308128594E+02 -0.81693701977E+01  0.16217471048E+03  0.17863695951E+03  0.47000000000E+01 0.  1.
        -11    1    1    2    0    0 -0.63778948905E+02 -0.14113455953E+02  0.28486778907E+02  0.71263177973E+02  0.00000000000E+00 0.  1.
         11    1    1    2    0    0 -0.57765846843E+02 -0.99591286267E+02  0.15309037339E+03  0.19155150688E+03  0.00000000000E+00 0. -1.
<mgrwt>
<rscale>  0 0.20345909E+03</rscale>
<asrwt>0</asrwt>
<pdfrwt beam="1">  1        1 0.12349092E+00 0.20815284E+03</pdfrwt>
<pdfrwt beam="2">  1       -1 0.91197745E-02 0.20815284E+03</pdfrwt>
<totfact> 0.16087471E+03</totfact>
</mgrwt>
</event>
<event>
 6    1  0.5258538E-006  0.3930142E+03  0.7546771E-02  0.1046226E+00
          2   -1    0    0  501    0  0.00000000000E+00  0.00000000000E+00  0.18398111009E+03  0.18398111009E+03  0.00000000000E+00 0. -1.
         -2   -1    0    0    0  501 -0.00000000000E+00 -0.00000000000E+00 -0.20988586339E+03  0.20988586339E+03  0.00000000000E+00 0.  1.
          5    1    1    2  502    0  0.83473902672E+02  0.93550472426E+02  0.64727660344E+02  0.14117840958E+03  0.47000000000E+01 0.  1.
         -5    1    1    2    0  502 -0.12155441120E+02  0.46389246095E+02 -0.37960743935E+02  0.61341869732E+02  0.47000000000E+01 0.  1.
        -11    1    1    2    0    0 -0.68182704264E+02 -0.56493202825E+02 -0.60854520017E+02  0.10744131297E+03  0.00000000000E+00 0.  1.
         11    1    1    2    0    0 -0.31357572877E+01 -0.83446515697E+02  0.81828503049E+01  0.83905381203E+02  0.00000000000E+00 0. -1.
<mgrwt>
<rscale>  0 0.39301417E+03</rscale>
<asrwt>0</asrwt>
<pdfrwt beam="1">  1        2 0.28304786E-01 0.39301417E+03</pdfrwt>
<pdfrwt beam="2">  1       -2 0.32290133E-01 0.39301417E+03</pdfrwt>
<totfact> 0.16820720E+03</totfact>
</mgrwt>
</event>
<event>
 6    1  0.5258538E-006  0.2595338E+03  0.7546771E-02  0.1109368E+00
         -1   -1    0    0    0  501 -0.00000000000E+00  0.00000000000E+00  0.18096337995E+03  0.18096337995E+03  0.00000000000E+00 0.  1.
          1   -1    0    0  501    0  0.00000000000E+00 -0.00000000000E+00 -0.71008240041E+03  0.71008240041E+03  0.00000000000E+00 0. -1.
          5    1    1    2  502    0  0.34438759631E+02 -0.14123986612E+03 -0.24106581938E+03  0.28154848112E+03  0.47000000000E+01 0. -1.
         -5    1    1    2    0  502  0.87468686039E+02 -0.50751776184E+02 -0.34203980450E+03  0.35670692688E+03  0.47000000000E+01 0. -1.
        -11    1    1    2    0    0 -0.10064804744E+03  0.11965975715E+03 -0.59556674956E+01  0.15647350226E+03  0.00000000000E+00 0. -1.
         11    1    1    2    0    0 -0.21259398225E+02  0.72331885159E+02  0.59942270913E+02  0.96316870099E+02  0.00000000000E+00 0.  1.
<mgrwt>
<rscale>  0 0.25633114E+03</rscale>
<asrwt>0</asrwt>
<pdfrwt beam="2">  1        1 0.10924345E+00 0.25953381E+03</pdfrwt>
<pdfrwt beam="1">  1       -1 0.27840520E-01 0.25953381E+03</pdfrwt>
<totfact> 0.32331779E+02</totfact>
</mgrwt>
</event>
<event>
 6    1  0.5258538E-006  0.2774151E+03  0.7546771E-02  0.1097109E+00
          2   -1    0    0  501    0  0.00000000000E+00  0.00000000000E+00  0.49222638329E+02  0.49222638329E+02  0.00000000000E+00 0. -1.
         -2   -1    0    0    0  501 -0.00000000000E+00 -0.00000000000E+00 -0.39087266917E+03  0.39087266917E+03  0.00000000000E+00 0.  1.
          5    1    1    2  502    0  0.94851070567E+02  0.12050379669E+02 -0.14443189714E+03  0.17327608072E+03  0.47000000000E+01 0.  1.
         -5    1    1    2    0  502 -0.15541923113E+02 -0.30836227511E+02 -0.81928546693E+00  0.34859511325E+02  0.47000000000E+01 0.  1.
        -11    1    1    2    0    0 -0.27162496763E+02  0.47022675478E+02 -0.49249323712E+02  0.73310498058E+02  0.00000000000E+00 0. -1.
         11    1    1    2    0    0 -0.52146650691E+02 -0.28236827636E+02 -0.14714952453E+03  0.15864921740E+03  0.00000000000E+00 0.  1.
<mgrwt>
<rscale>  0 0.27741510E+03</rscale>
<asrwt>0</asrwt>
<pdfrwt beam="1">  1        2 0.75727136E-02 0.27741510E+03</pdfrwt>
<pdfrwt beam="2">  1       -2 0.60134257E-01 0.27741510E+03</pdfrwt>
<totfact> 0.23960864E+03</totfact>
</mgrwt>
</event>
<event>
 6    1  0.5258538E-006  0.2750723E+03  0.7546771E-02  0.1098411E+00
         -1   -1    0    0    0  501 -0.00000000000E+00  0.00000000000E+00  0.32474723970E+02  0.32474723970E+02  0.00000000000E+00 0.  1.
          1   -1    0    0  501    0  0.00000000000E+00 -0.00000000000E+00 -0.58248950855E+03  0.58248950855E+03  0.00000000000E+00 0. -1.
          5    1    1    2  502    0 -0.10557896669E+03 -0.32943490090E+02 -0.28545654682E+03  0.30616943327E+03  0.47000000000E+01 0. -1.
         -5    1    1    2    0  502  0.32022705098E+02 -0.31356972988E+01 -0.37105997469E+02  0.49337929502E+02  0.47000000000E+01 0. -1.
        -11    1    1    2    0    0  0.50304775273E+02 -0.27361789499E+02 -0.10382838124E+03  0.11857306056E+03  0.00000000000E+00 0.  1.
         11    1    1    2    0    0  0.23251486317E+02  0.63440976889E+02 -0.12362385905E+03  0.14088380919E+03  0.00000000000E+00 0. -1.
<mgrwt>
<rscale>  0 0.27507225E+03</rscale>
<asrwt>0</asrwt>
<pdfrwt beam="2">  1        1 0.89613768E-01 0.27507225E+03</pdfrwt>
<pdfrwt beam="1">  1       -1 0.49961115E-02 0.27507225E+03</pdfrwt>
<totfact> 0.64341069E+03</totfact>
</mgrwt>
</event>
<event>
 6    1  0.5258538E-006  0.2305543E+03  0.7546771E-02  0.1130295E+00
         -1   -1    0    0    0  501 -0.00000000000E+00  0.00000000000E+00  0.35119447196E+02  0.35119447196E+02  0.00000000000E+00 0.  1.
          1   -1    0    0  501    0  0.00000000000E+00 -0.00000000000E+00 -0.14544663084E+04  0.14544663084E+04  0.00000000000E+00 0. -1.
          5    1    1    2  502    0 -0.10564580917E+02  0.14501278303E+02 -0.23879127652E+03  0.23951046153E+03  0.47000000000E+01 0. -1.
         -5    1    1    2    0  502 -0.76776783498E+02 -0.18059455370E+03 -0.67987909607E+03  0.70764874237E+03  0.47000000000E+01 0.  1.
        -11    1    1    2    0    0  0.82674023806E+02  0.69531798363E+02 -0.31636661977E+03  0.33430151555E+03  0.00000000000E+00 0.  1.
         11    1    1    2    0    0  0.46673406098E+01  0.96561477034E+02 -0.18430986889E+03  0.20812503618E+03  0.00000000000E+00 0. -1.
<mgrwt>
<rscale>  0 0.22488113E+03</rscale>
<asrwt>0</asrwt>
<pdfrwt beam="2">  1        1 0.22376406E+00 0.23055434E+03</pdfrwt>
<pdfrwt beam="1">  1       -1 0.54029917E-02 0.23055434E+03</pdfrwt>
<totfact> 0.12043450E+03</totfact>
</mgrwt>
</event>
<event>
 6    1  0.5258538E-006  0.1540722E+03  0.7546771E-02  0.1204254E+00
          1   -1    0    0  501    0  0.00000000000E+00  0.00000000000E+00  0.71180332006E+03  0.71180332006E+03  0.00000000000E+00 0. -1.
         -1   -1    0    0    0  501 -0.00000000000E+00 -0.00000000000E+00 -0.30874968704E+02  0.30874968704E+02  0.00000000000E+00 0.  1.
          5    1    1    2  502    0  0.40136552603E+02 -0.16402989008E+02  0.52268705847E+02  0.68074286733E+02  0.47000000000E+01 0. -1.
         -5    1    1    2    0  502  0.23019498420E+02  0.80644880433E+02  0.43279169029E+03  0.44086758923E+03  0.47000000000E+01 0. -1.
        -11    1    1    2    0    0 -0.41106400683E+02  0.13621615658E+02  0.95104105777E+02  0.10449916519E+03  0.00000000000E+00 0. -1.
         11    1    1    2    0    0 -0.22049650340E+02 -0.77863507083E+02  0.10076384944E+03  0.12923724761E+03  0.00000000000E+00 0.  1.
<mgrwt>
<rscale>  0 0.14696419E+03</rscale>
<asrwt>0</asrwt>
<pdfrwt beam="1">  1        1 0.10950819E+00 0.15407221E+03</pdfrwt>
<pdfrwt beam="2">  1       -1 0.47499957E-02 0.15407221E+03</pdfrwt>
<totfact> 0.50983590E+03</totfact>
</mgrwt>
</event>
<event>
 6    1  0.5258538E-006  0.1475920E+03  0.7546771E-02  0.1213388E+00
         -2   -1    0    0    0  501 -0.00000000000E+00  0.00000000000E+00  0.15367569707E+02  0.15367569707E+02  0.00000000000E+00 0.  1.
          2   -1    0    0  501    0  0.00000000000E+00 -0.00000000000E+00 -0.12250324432E+04  0.12250324432E+04  0.00000000000E+00 0. -1.
          5    1    1    2  502    0 -0.68970422557E+01  0.25315516064E+02 -0.38662857882E+03  0.38754637465E+03  0.47000000000E+01 0. -1.
         -5    1    1    2    0  502  0.56021086139E+02 -0.86564779189E+02 -0.42188396805E+03  0.43432706062E+03  0.47000000000E+01 0. -1.
        -11    1    1    2    0    0 -0.43701731087E+02  0.81141773973E+02 -0.36896931831E+03  0.38030538602E+03  0.00000000000E+00 0. -1.
         11    1    1    2    0    0 -0.54223127960E+01 -0.19892510848E+02 -0.32183008277E+02  0.38221191578E+02  0.00000000000E+00 0.  1.
<mgrwt>
<rscale>  0 0.13995580E+03</rscale>
<asrwt>0</asrwt>
<pdfrwt beam="2">  1        2 0.18846661E+00 0.14759202E+03</pdfrwt>
<pdfrwt beam="1">  1       -2 0.23642405E-02 0.14759202E+03</pdfrwt>
<totfact> 0.11342671E+04</totfact>
</mgrwt>
</event>
<event>
 6    1  0.5258538E-006  0.2798293E+03  0.7546771E-02  0.1095782E+00
          2   -1    0    0  501    0  0.00000000000E+00  0.00000000000E+00  0.24073084511E+03  0.24073084511E+03  0.00000000000E+00 0. -1.
         -2   -1    0    0    0  501 -0.00000000000E+00 -0.00000000000E+00 -0.81319506050E+02  0.81319506050E+02  0.00000000000E+00 0.  1.
          5    1    1    2  502    0 -0.53849129562E+02 -0.66855961102E+02  0.15502633213E+02  0.87360574208E+02  0.47000000000E+01 0.  1.
         -5    1    1    2    0  502 -0.56048807895E+01  0.68420832311E+01  0.10566951832E+03  0.10614313871E+03  0.47000000000E+01 0.  1.
        -11    1    1    2    0    0  0.24416143132E+02  0.77278117045E+02  0.13099248991E+02  0.82095345444E+02  0.00000000000E+00 0.  1.
         11    1    1    2    0    0  0.35037867219E+02 -0.17264239174E+02  0.25139938532E+02  0.46451292802E+02  0.00000000000E+00 0. -1.
<mgrwt>
<rscale>  0 0.27982933E+03</rscale>
<asrwt>0</asrwt>
<pdfrwt beam="1">  1        2 0.37035514E-01 0.27982933E+03</pdfrwt>
<pdfrwt beam="2">  1       -2 0.12510693E-01 0.27982933E+03</pdfrwt>
<totfact> 0.63786332E+03</totfact>
</mgrwt>
</event>
<event>
 6    1  0.5258538E-006  0.2018094E+03  0.7546771E-02  0.1152543E+00
          1   -1    0    0  501    0  0.00000000000E+00  0.00000000000E+00  0.22077333516E+04  0.22077333516E+04  0.00000000000E+00 0. -1.
         -1   -1    0    0    0  501 -0.00000000000E+00 -0.00000000000E+00 -0.18709530336E+02  0.18709530336E+02  0.00000000000E+00 0.  1.
          5    1    1    2  502    0 -0.40226670801E+02 -0.74879484509E+02  0.43094410319E+03  0.43927216201E+03  0.47000000000E+01 0.  1.
         -5    1    1    2    0  502 -0.10444076257E+03  0.10274086524E+02  0.10782214819E+04  0.10833268591E+04  0.47000000000E+01 0.  1.
        -11    1    1    2    0    0  0.44933360027E+02  0.18446646978E+02  0.76923349478E+02  0.90975201692E+02  0.00000000000E+00 0.  1.
         11    1    1    2    0    0  0.99734073348E+02  0.46158751006E+02  0.60293488674E+03  0.61286865912E+03  0.00000000000E+00 0. -1.
<mgrwt>
<rscale>  0 0.19671169E+03</rscale>
<asrwt>0</asrwt>
<pdfrwt beam="1">  1        1 0.33965108E+00 0.20180936E+03</pdfrwt>
<pdfrwt beam="2">  1       -1 0.28783910E-02 0.20180936E+03</pdfrwt>
<totfact> 0.99791790E+02</totfact>
</mgrwt>
</event>
<event>
 6    1  0.5258538E-006  0.1258506E+03  0.7546771E-02  0.1248861E+00
         -3   -1    0    0    0  501 -0.00000000000E+00  0.00000000000E+00  0.13527061827E+03  0.13527061827E+03  0.00000000000E+00 0.  1.
          3   -1    0    0  501    0  0.00000000000E+00 -0.00000000000E+00 -0.89488183086E+02  0.89488183086E+02  0.00000000000E+00 0. -1.
          5    1    1    2  502    0  0.43675888330E+02  0.37409448725E+02  0.10831945471E+02  0.58706653098E+02  0.47000000000E+01 0.  1.
         -5    1    1    2    0  502 -0.43170860428E+02 -0.52054177745E+02  0.23216458599E+01  0.67829496904E+02  0.47000000000E+01 0.  1.
        -11    1    1    2    0    0  0.23345068086E+02  0.40683954748E+02  0.40584588823E+02  0.62026488114E+02  0.00000000000E+00 0.  1.
         11    1    1    2    0    0 -0.23850095988E+02 -0.26039225728E+02 -0.79557449723E+01  0.36196163239E+02  0.00000000000E+00 0. -1.
<mgrwt>
<rscale>  0 0.11657267E+03</rscale>
<asrwt>0</asrwt>
<pdfrwt beam="2">  1        3 0.13767413E-01 0.12585063E+03</pdfrwt>
<pdfrwt beam="1">  1       -3 0.20810864E-01 0.12585063E+03</pdfrwt>
<totfact> 0.20336191E+03</totfact>
</mgrwt>
</event>
<event>
 6    1  0.5258538E-006  0.1339552E+03  0.7546771E-02  0.1234504E+00
         -2   -1    0    0    0  501 -0.00000000000E+00  0.00000000000E+00  0.23955241650E+02  0.23955241650E+02  0.00000000000E+00 0.  1.
          2   -1    0    0  501    0  0.00000000000E+00 -0.00000000000E+00 -0.66693662193E+03  0.66693662193E+03  0.00000000000E+00 0. -1.
          5    1    1    2  502    0 -0.21915018640E+02  0.49884047609E+02 -0.16851497438E+03  0.17716679384E+03  0.47000000000E+01 0.  1.
         -5    1    1    2    0  502  0.68501376270E+02 -0.37681137823E+02 -0.31047429434E+03  0.32020100585E+03  0.47000000000E+01 0.  1.
        -11    1    1    2    0    0 -0.28067567512E+02 -0.32387361974E+02 -0.16024412583E+03  0.16587618703E+03  0.00000000000E+00 0. -1.
         11    1    1    2    0    0 -0.18518790117E+02  0.20184452188E+02 -0.37479857182E+01  0.27647876853E+02  0.00000000000E+00 0.  1.
<mgrwt>
<rscale>  0 0.12536268E+03</rscale>
<asrwt>0</asrwt>
<pdfrwt beam="2">  1        2 0.10260562E+00 0.13395525E+03</pdfrwt>
<pdfrwt beam="1">  1       -2 0.36854222E-02 0.13395525E+03</pdfrwt>
<totfact> 0.13162206E+04</totfact>
</mgrwt>
</event>
<event>
 6    1  0.5258538E-006  0.2132134E+03  0.7546771E-02  0.1142678E+00
         -2   -1    0    0    0  501 -0.00000000000E+00  0.00000000000E+00  0.92123816086E+02  0.92123816086E+02  0.00000000000E+00 0.  1.
          2   -1    0    0  501    0  0.00000000000E+00 -0.00000000000E+00 -0.49204629136E+03  0.49204629136E+03  0.00000000000E+00 0. -1.
          5    1    1    2  502    0 -0.12809402116E+03 -0.96465631518E+02 -0.20641888595E+03  0.26142789216E+03  0.47000000000E+01 0.  1.
         -5    1    1    2    0  502  0.27578692593E+02 -0.43990842210E+02 -0.83796303463E+02  0.98689862486E+02  0.47000000000E+01 0.  1.
        -11    1    1    2    0    0  0.58919812128E+02  0.10213632989E+03 -0.11808892058E+03  0.16687830089E+03  0.00000000000E+00 0. -1.
         11    1    1    2    0    0  0.41595516435E+02  0.38320143840E+02  0.83816347204E+01  0.57174051912E+02  0.00000000000E+00 0.  1.
<mgrwt>
<rscale>  0 0.20860141E+03</rscale>
<asrwt>0</asrwt>
<pdfrwt beam="2">  1        2 0.75699431E-01 0.21321337E+03</pdfrwt>
<pdfrwt beam="1">  1       -2 0.14172895E-01 0.21321337E+03</pdfrwt>
<totfact> 0.23644843E+03</totfact>
</mgrwt>
</event>
<event>
 6    1  0.5258538E-006  0.1290860E+03  0.7546771E-02  0.1242373E+00
          2   -1    0    0  501    0  0.00000000000E+00  0.00000000000E+00  0.14050911122E+03  0.14050911122E+03  0.00000000000E+00 0. -1.
         -2   -1    0    0    0  501 -0.00000000000E+00 -0.00000000000E+00 -0.93246267106E+02  0.93246267106E+02  0.00000000000E+00 0.  1.
          5    1    1    2  502    0  0.36720333858E+02  0.67372164934E+02  0.16167558769E+02  0.78554894711E+02  0.47000000000E+01 0. -1.
         -5    1    1    2    0  502 -0.36407100304E+02 -0.35153405897E+02 -0.46789604020E+01  0.51041371153E+02  0.47000000000E+01 0. -1.
        -11    1    1    2    0    0  0.44707243515E+02 -0.26323874348E+02  0.13628866714E+02  0.53641681473E+02  0.00000000000E+00 0.  1.
         11    1    1    2    0    0 -0.45020477068E+02 -0.58948846892E+01  0.22145379030E+02  0.50517430985E+02  0.00000000000E+00 0. -1.
<mgrwt>
<rscale>  0 0.12043968E+03</rscale>
<asrwt>0</asrwt>
<pdfrwt beam="1">  1        2 0.21616786E-01 0.12908603E+03</pdfrwt>
<pdfrwt beam="2">  1       -2 0.14345580E-01 0.12908603E+03</pdfrwt>
<totfact> 0.87955573E+03</totfact>
</mgrwt>
</event>
<event>
 6    1  0.5258538E-006  0.3231313E+03  0.7546771E-02  0.1074217E+00
         -2   -1    0    0    0  501 -0.00000000000E+00  0.00000000000E+00  0.14145573815E+03  0.14145573815E+03  0.00000000000E+00 0.  1.
          2   -1    0    0  501    0  0.00000000000E+00 -0.00000000000E+00 -0.18453446088E+03  0.18453446088E+03  0.00000000000E+00 0. -1.
          5    1    1    2  502    0 -0.11846715506E+02 -0.27913262492E+02 -0.25322661944E+02  0.39784696796E+02  0.47000000000E+01 0.  1.
         -5    1    1    2    0  502  0.12147438051E+03  0.41036512546E+01  0.43391952972E+02  0.12914262137E+03  0.47000000000E+01 0.  1.
        -11    1    1    2    0    0 -0.68081200092E+02 -0.17987319533E+02  0.23166784994E+01  0.70455379278E+02  0.00000000000E+00 0. -1.
         11    1    1    2    0    0 -0.41546464907E+02  0.41796930770E+02 -0.63464692256E+02  0.86607501587E+02  0.00000000000E+00 0.  1.
<mgrwt>
<rscale>  0 0.32313129E+03</rscale>
<asrwt>0</asrwt>
<pdfrwt beam="2">  1        2 0.28389917E-01 0.32313129E+03</pdfrwt>
<pdfrwt beam="1">  1       -2 0.21762421E-01 0.32313129E+03</pdfrwt>
<totfact> 0.33892066E+03</totfact>
</mgrwt>
</event>
<event>
 6    1  0.5258538E-006  0.2690718E+03  0.7546771E-02  0.1104057E+00
          2   -1    0    0  501    0  0.00000000000E+00  0.00000000000E+00  0.36698496409E+03  0.36698496409E+03  0.00000000000E+00 0. -1.
         -2   -1    0    0    0  501 -0.00000000000E+00 -0.00000000000E+00 -0.18640521224E+03  0.18640521224E+03  0.00000000000E+00 0.  1.
          5    1    1    2  502    0  0.69962264388E+02 -0.59857013765E+02  0.38405755253E+02  0.99873282572E+02  0.47000000000E+01 0.  1.
         -5    1    1    2    0  502  0.16820846466E+03  0.52806268670E+02  0.49158571043E+02  0.18308807908E+03  0.47000000000E+01 0.  1.
        -11    1    1    2    0    0 -0.10687456100E+03  0.32648230228E+02  0.82265512572E+01  0.11205246482E+03  0.00000000000E+00 0.  1.
         11    1    1    2    0    0 -0.13129616805E+03 -0.25597485133E+02  0.84788874292E+02  0.15837634986E+03  0.00000000000E+00 0. -1.
<mgrwt>
<rscale>  0 0.26520343E+03</rscale>
<asrwt>0</asrwt>
<pdfrwt beam="1">  1        2 0.56459225E-01 0.26907178E+03</pdfrwt>
<pdfrwt beam="2">  1       -2 0.28677725E-01 0.26907178E+03</pdfrwt>
<totfact> 0.97576126E+02</totfact>
</mgrwt>
</event>
<event>
 6    1  0.5258538E-006  0.1474220E+03  0.7546771E-02  0.1212890E+00
         -4   -1    0    0    0  501 -0.00000000000E+00  0.00000000000E+00  0.23256711549E+02  0.23256711549E+02  0.00000000000E+00 0.  1.
          4   -1    0    0  501    0  0.00000000000E+00 -0.00000000000E+00 -0.93946854338E+03  0.93946854338E+03  0.00000000000E+00 0. -1.
          5    1    1    2  502    0 -0.19770192857E+02  0.23959286070E+02 -0.26321399957E+03  0.26508226550E+03  0.47000000000E+01 0.  1.
         -5    1    1    2    0  502  0.74397956656E+02 -0.79852061005E+02 -0.43285099982E+03  0.44642298960E+03  0.47000000000E+01 0.  1.
        -11    1    1    2    0    0 -0.24938374077E+02  0.63912948890E+02 -0.70219792200E+02  0.98171313295E+02  0.00000000000E+00 0.  1.
         11    1    1    2    0    0 -0.29689389722E+02 -0.80201739554E+01 -0.14992704024E+03  0.15304868653E+03  0.00000000000E+00 0. -1.
<mgrwt>
<rscale>  0 0.14032653E+03</rscale>
<asrwt>0</asrwt>
<pdfrwt beam="2">  1        4 0.14453366E+00 0.14742200E+03</pdfrwt>
<pdfrwt beam="1">  1       -4 0.35779547E-02 0.14742200E+03</pdfrwt>
<totfact> 0.24226583E+02</totfact>
</mgrwt>
</event>
<event>
 6    1  0.5258538E-006  0.3174226E+03  0.7546771E-02  0.1076842E+00
         -3   -1    0    0    0  501 -0.00000000000E+00  0.00000000000E+00  0.46051824991E+03  0.46051824991E+03  0.00000000000E+00 0.  1.
          3   -1    0    0  501    0  0.00000000000E+00 -0.00000000000E+00 -0.54697658525E+02  0.54697658525E+02  0.00000000000E+00 0. -1.
          5    1    1    2  502    0 -0.75852557433E+02 -0.97913684795E+02  0.14140510466E+03  0.18803774558E+03  0.47000000000E+01 0. -1.
         -5    1    1    2    0  502  0.29403439350E+02  0.24809631702E+01  0.22422435078E+01  0.29963896272E+02  0.47000000000E+01 0. -1.
        -11    1    1    2    0    0  0.47448840674E+01  0.52643779480E+02  0.21409199769E+03  0.22052044104E+03  0.00000000000E+00 0.  1.
         11    1    1    2    0    0  0.41704234015E+02  0.42788942145E+02  0.48081245530E+02  0.76693825543E+02  0.00000000000E+00 0. -1.
<mgrwt>
<rscale>  0 0.31742256E+03</rscale>
<asrwt>0</asrwt>
<pdfrwt beam="2">  1        3 0.84150247E-02 0.31742256E+03</pdfrwt>
<pdfrwt beam="1">  1       -3 0.70848959E-01 0.31742256E+03</pdfrwt>
<totfact> 0.48934389E+02</totfact>
</mgrwt>
</event>
<event>
 6    1  0.5258538E-006  0.1393057E+03  0.7546771E-02  0.1225856E+00
          2   -1    0    0  501    0  0.00000000000E+00  0.00000000000E+00  0.95028245021E+02  0.95028245021E+02  0.00000000000E+00 0. -1.
         -2   -1    0    0    0  501 -0.00000000000E+00 -0.00000000000E+00 -0.25956733799E+03  0.25956733799E+03  0.00000000000E+00 0.  1.
          5    1    1    2  502    0 -0.28087926512E+02 -0.46485755192E+02 -0.97395392853E+01  0.55378747521E+02  0.47000000000E+01 0. -1.
         -5    1    1    2    0  502 -0.26061047527E+02  0.75630306262E+02  0.29164536876E+02  0.85274742067E+02  0.47000000000E+01 0. -1.
        -11    1    1    2    0    0  0.53373482159E+02 -0.58876993024E+02 -0.13488909791E+03  0.15655764957E+03  0.00000000000E+00 0. -1.
         11    1    1    2    0    0  0.77549188052E+00  0.29732441954E+02 -0.49074992647E+02  0.57384443846E+02  0.00000000000E+00 0.  1.
<mgrwt>
<rscale>  0 0.13108396E+03</rscale>
<asrwt>0</asrwt>
<pdfrwt beam="1">  1        2 0.14619730E-01 0.13930568E+03</pdfrwt>
<pdfrwt beam="2">  1       -2 0.39933437E-01 0.13930568E+03</pdfrwt>
<totfact> 0.23245327E+03</totfact>
</mgrwt>
</event>
<event>
 6    1  0.5258538E-006  0.1486013E+03  0.7546771E-02  0.1210274E+00
          2   -1    0    0  501    0  0.00000000000E+00  0.00000000000E+00  0.75544266885E+02  0.75544266885E+02  0.00000000000E+00 0. -1.
         -2   -1    0    0    0  501 -0.00000000000E+00 -0.00000000000E+00 -0.26236468082E+03  0.26236468082E+03  0.00000000000E+00 0.  1.
          5    1    1    2  502    0 -0.40634664731E+02 -0.53803824620E+02  0.13451980341E+02  0.68913520420E+02  0.47000000000E+01 0. -1.
         -5    1    1    2    0  502  0.46300967892E+02 -0.26352873966E+02 -0.74568491526E+02  0.91764936236E+02  0.47000000000E+01 0. -1.
        -11    1    1    2    0    0 -0.36854854162E+02  0.82005671413E+02 -0.11058580187E+03  0.14252168254E+03  0.00000000000E+00 0.  1.
         11    1    1    2    0    0  0.31188551000E+02 -0.18489728271E+01 -0.15118100885E+02  0.34708808513E+02  0.00000000000E+00 0. -1.
<mgrwt>
<rscale>  0 0.14229492E+03</rscale>
<asrwt>0</asrwt>
<pdfrwt beam="1">  1        2 0.11622195E-01 0.14860127E+03</pdfrwt>
<pdfrwt beam="2">  1       -2 0.40363797E-01 0.14860127E+03</pdfrwt>
<totfact> 0.30048131E+03</totfact>
</mgrwt>
</event>
<event>
 6    1  0.5258538E-006  0.1148206E+03  0.7546771E-02  0.1260434E+00
         -3   -1    0    0    0  501 -0.00000000000E+00  0.00000000000E+00  0.90053264479E+02  0.90053264479E+02  0.00000000000E+00 0.  1.
          3   -1    0    0  501    0  0.00000000000E+00 -0.00000000000E+00 -0.13704423445E+03  0.13704423445E+03  0.00000000000E+00 0. -1.
          5    1    1    2  502    0 -0.20059286274E+02  0.41041190780E+02 -0.12534207518E+02  0.47602002736E+02  0.47000000000E+01 0. -1.
         -5    1    1    2    0  502  0.19883490719E+02 -0.63678517426E+02 -0.46959392460E+02  0.81716469117E+02  0.47000000000E+01 0.  1.
        -11    1    1    2    0    0  0.26464742493E+01 -0.20179683206E+02 -0.30745089065E+02  0.36871180369E+02  0.00000000000E+00 0.  1.
         11    1    1    2    0    0 -0.24706786949E+01  0.42817009853E+02  0.43247719069E+02  0.60907846708E+02  0.00000000000E+00 0. -1.
<mgrwt>
<rscale>  0 0.11007317E+03</rscale>
<asrwt>0</asrwt>
<pdfrwt beam="2">  1        3 0.21083728E-01 0.11482064E+03</pdfrwt>
<pdfrwt beam="1">  1       -3 0.13854348E-01 0.11482064E+03</pdfrwt>
<totfact> 0.19340435E+03</totfact>
</mgrwt>
</event>
<event>
 6    1  0.5258538E-006  0.1286663E+03  0.7546771E-02  0.1244604E+00
         -2   -1    0    0    0  501 -0.00000000000E+00  0.00000000000E+00  0.17658904554E+02  0.17658904554E+02  0.00000000000E+00 0.  1.
          2   -1    0    0  501    0  0.00000000000E+00 -0.00000000000E+00 -0.70503954440E+03  0.70503954440E+03  0.00000000000E+00 0. -1.
          5    1    1    2  502    0  0.25499720422E+02 -0.20259051018E+02 -0.32347112551E+03  0.32514046800E+03  0.47000000000E+01 0. -1.
         -5    1    1    2    0  502 -0.26727208153E+02  0.50720629563E+02 -0.81330780906E+02  0.99617828934E+02  0.47000000000E+01 0. -1.
        -11    1    1    2    0    0 -0.35814023844E+02  0.58609692604E+01 -0.66893502070E+02  0.76103455137E+02  0.00000000000E+00 0.  1.
         11    1    1    2    0    0  0.37041511576E+02 -0.36322547805E+02 -0.21568523136E+03  0.22183669689E+03  0.00000000000E+00 0. -1.
<mgrwt>
<rscale>  0 0.11909120E+03</rscale>
<asrwt>0</asrwt>
<pdfrwt beam="2">  1        2 0.10846762E+00 0.12866634E+03</pdfrwt>
<pdfrwt beam="1">  1       -2 0.27167545E-02 0.12866634E+03</pdfrwt>
<totfact> 0.19249518E+04</totfact>
</mgrwt>
</event>
<event>
 6    1  0.5258538E-006  0.3308719E+03  0.7546771E-02  0.1070752E+00
          2   -1    0    0  501    0  0.00000000000E+00  0.00000000000E+00  0.10112621860E+04  0.10112621860E+04  0.00000000000E+00 0. -1.
         -2   -1    0    0    0  501 -0.00000000000E+00 -0.00000000000E+00 -0.27064243451E+02  0.27064243451E+02  0.00000000000E+00 0.  1.
          5    1    1    2  502    0  0.73392364631E+02 -0.98667964807E+02  0.39596168751E+03  0.41464388870E+03  0.47000000000E+01 0. -1.
         -5    1    1    2    0  502 -0.46041089532E+02 -0.20276194150E+02  0.21104967396E+03  0.21701373425E+03  0.47000000000E+01 0. -1.
        -11    1    1    2    0    0  0.14237635741E+02  0.75633157813E+02  0.11994924595E+03  0.14251633743E+03  0.00000000000E+00 0.  1.
         11    1    1    2    0    0 -0.41588910840E+02  0.43311001144E+02  0.25723733509E+03  0.26415246902E+03  0.00000000000E+00 0. -1.
<mgrwt>
<rscale>  0 0.33087185E+03</rscale>
<asrwt>0</asrwt>
<pdfrwt beam="1">  1        2 0.15557877E+00 0.33087185E+03</pdfrwt>
<pdfrwt beam="2">  1       -2 0.41637305E-02 0.33087185E+03</pdfrwt>
<totfact> 0.67057791E+03</totfact>
</mgrwt>
</event>
<event>
 6    1  0.5258538E-006  0.1523661E+03  0.7546771E-02  0.1206781E+00
          1   -1    0    0  501    0  0.00000000000E+00  0.00000000000E+00  0.16234051155E+03  0.16234051155E+03  0.00000000000E+00 0. -1.
         -1   -1    0    0    0  501 -0.00000000000E+00 -0.00000000000E+00 -0.14768928515E+03  0.14768928515E+03  0.00000000000E+00 0.  1.
          5    1    1    2  502    0  0.11774494448E+03  0.10158375416E+02  0.60310270569E+02  0.13276476671E+03  0.47000000000E+01 0. -1.
         -5    1    1    2    0  502 -0.32657834158E+02  0.85380339155E+01  0.16372051080E+02  0.37809604753E+02  0.47000000000E+01 0. -1.
        -11    1    1    2    0    0 -0.68176989489E+01 -0.41977001690E+02 -0.28426066634E+02  0.51152624118E+02  0.00000000000E+00 0.  1.
         11    1    1    2    0    0 -0.78269411377E+02  0.23280592359E+02 -0.33605028612E+02  0.88302801122E+02  0.00000000000E+00 0. -1.
<mgrwt>
<rscale>  0 0.14497955E+03</rscale>
<asrwt>0</asrwt>
<pdfrwt beam="1">  1        1 0.24975463E-01 0.15236613E+03</pdfrwt>
<pdfrwt beam="2">  1       -1 0.22721429E-01 0.15236613E+03</pdfrwt>
<totfact> 0.30400300E+03</totfact>
</mgrwt>
</event>
<event>
 6    1  0.5258538E-006  0.1704493E+03  0.7546771E-02  0.1183719E+00
          1   -1    0    0  501    0  0.00000000000E+00  0.00000000000E+00  0.95475067247E+03  0.95475067247E+03  0.00000000000E+00 0. -1.
         -1   -1    0    0    0  501 -0.00000000000E+00 -0.00000000000E+00 -0.34660570721E+02  0.34660570721E+02  0.00000000000E+00 0.  1.
          5    1    1    2  502    0  0.12749498000E+01 -0.36149999633E+02  0.75953404487E+02  0.84258279259E+02  0.47000000000E+01 0.  1.
         -5    1    1    2    0  502 -0.11715545813E+03  0.35663423202E+02  0.64830392526E+03  0.65978583694E+03  0.47000000000E+01 0.  1.
        -11    1    1    2    0    0  0.11811079946E+03  0.23751047629E+02  0.13916066351E+03  0.18406510663E+03  0.00000000000E+00 0.  1.
         11    1    1    2    0    0 -0.22302911234E+01 -0.23264471198E+02  0.56672108492E+02  0.61302020354E+02  0.00000000000E+00 0. -1.
<mgrwt>
<rscale>  0 0.16448988E+03</rscale>
<asrwt>0</asrwt>
<pdfrwt beam="1">  1        1 0.14688470E+00 0.17044931E+03</pdfrwt>
<pdfrwt beam="2">  1       -1 0.53323962E-02 0.17044931E+03</pdfrwt>
<totfact> 0.27391035E+03</totfact>
</mgrwt>
</event>
<event>
 6    1  0.5258538E-006  0.1312859E+03  0.7546771E-02  0.1238419E+00
         -1   -1    0    0    0  501 -0.00000000000E+00  0.00000000000E+00  0.23633979485E+02  0.23633979485E+02  0.00000000000E+00 0.  1.
          1   -1    0    0  501    0  0.00000000000E+00 -0.00000000000E+00 -0.57054985671E+03  0.57054985671E+03  0.00000000000E+00 0. -1.
          5    1    1    2  502    0  0.19240591212E+02  0.25092118636E+02 -0.23937741610E+03  0.24150248882E+03  0.47000000000E+01 0.  1.
         -5    1    1    2    0  502 -0.14361307045E+02 -0.64951951504E+02 -0.82246011530E+02  0.10588436880E+03  0.47000000000E+01 0.  1.
        -11    1    1    2    0    0  0.13680875613E+02  0.51241072115E+02 -0.21718139774E+03  0.22356335423E+03  0.00000000000E+00 0. -1.
         11    1    1    2    0    0 -0.18560159779E+02 -0.11381239247E+02 -0.81110518489E+01  0.23233624339E+02  0.00000000000E+00 0.  1.
<mgrwt>
<rscale>  0 0.12288050E+03</rscale>
<asrwt>0</asrwt>
<pdfrwt beam="2">  1        1 0.87776901E-01 0.13128595E+03</pdfrwt>
<pdfrwt beam="1">  1       -1 0.36359968E-02 0.13128595E+03</pdfrwt>
<totfact> 0.10181959E+04</totfact>
</mgrwt>
</event>
<event>
 6    1  0.5258538E-006  0.2625133E+03  0.7546771E-02  0.1105643E+00
         -1   -1    0    0    0  501 -0.00000000000E+00  0.00000000000E+00  0.12951600885E+03  0.12951600885E+03  0.00000000000E+00 0.  1.
          1   -1    0    0  501    0  0.00000000000E+00 -0.00000000000E+00 -0.13302070763E+03  0.13302070763E+03  0.00000000000E+00 0. -1.
          5    1    1    2  502    0 -0.48584318323E+01 -0.30726557604E+01 -0.64675357670E+02  0.65100210930E+02  0.47000000000E+01 0.  1.
         -5    1    1    2    0  502  0.59689886006E+02 -0.36082810717E+02  0.37724538821E+02  0.79436028034E+02  0.47000000000E+01 0.  1.
        -11    1    1    2    0    0  0.12277824884E+02  0.42325787653E+02  0.25251164519E+02  0.50792111532E+02  0.00000000000E+00 0. -1.
         11    1    1    2    0    0 -0.67109279058E+02 -0.31703211756E+01 -0.18050444516E+01  0.67208365978E+02  0.00000000000E+00 0.  1.
<mgrwt>
<rscale>  0 0.26251332E+03</rscale>
<asrwt>0</asrwt>
<pdfrwt beam="2">  1        1 0.20464724E-01 0.26251332E+03</pdfrwt>
<pdfrwt beam="1">  1       -1 0.19925540E-01 0.26251332E+03</pdfrwt>
<totfact> 0.49819411E+03</totfact>
</mgrwt>
</event>
<event>
 6    1  0.5258538E-006  0.1311545E+03  0.7546771E-02  0.1238111E+00
          1   -1    0    0  501    0  0.00000000000E+00  0.00000000000E+00  0.11138905544E+03  0.11138905544E+03  0.00000000000E+00 0. -1.
         -1   -1    0    0    0  501 -0.00000000000E+00 -0.00000000000E+00 -0.15588868111E+03  0.15588868111E+03  0.00000000000E+00 0.  1.
          5    1    1    2  502    0 -0.50900532957E+02  0.64702911228E+02  0.43350508613E+02  0.93159473881E+02  0.47000000000E+01 0. -1.
         -5    1    1    2    0  502  0.28356003217E+02 -0.31925102110E+02 -0.55967966545E+01  0.43320770953E+02  0.47000000000E+01 0. -1.
        -11    1    1    2    0    0 -0.36673126381E+02 -0.16757956466E+02 -0.31056470474E+02  0.50894515046E+02  0.00000000000E+00 0.  1.
         11    1    1    2    0    0  0.59217656121E+02 -0.16019852652E+02 -0.51196867152E+02  0.79902976676E+02  0.00000000000E+00 0. -1.
<mgrwt>
<rscale>  0 0.12307363E+03</rscale>
<asrwt>0</asrwt>
<pdfrwt beam="1">  1        1 0.17136778E-01 0.13115454E+03</pdfrwt>
<pdfrwt beam="2">  1       -1 0.23982874E-01 0.13115454E+03</pdfrwt>
<totfact> 0.44556775E+03</totfact>
</mgrwt>
</event>
<event>
 6    1  0.5258538E-006  0.1456743E+03  0.7546771E-02  0.1215903E+00
         -1   -1    0    0    0  501 -0.00000000000E+00  0.00000000000E+00  0.71391024340E+03  0.71391024340E+03  0.00000000000E+00 0.  1.
          1   -1    0    0  501    0  0.00000000000E+00 -0.00000000000E+00 -0.26161625096E+02  0.26161625096E+02  0.00000000000E+00 0. -1.
          5    1    1    2  502    0  0.53586737754E+02 -0.15137315706E+02  0.55088046462E+02  0.78469482303E+02  0.47000000000E+01 0. -1.
         -5    1    1    2    0  502 -0.84000777660E+01  0.74750221306E+02  0.22417056325E+03  0.23650092668E+03  0.47000000000E+01 0. -1.
        -11    1    1    2    0    0  0.20283518084E+02 -0.42804065614E+02  0.12523895101E+03  0.13389699022E+03  0.00000000000E+00 0.  1.
         11    1    1    2    0    0 -0.65470178072E+02 -0.16808839986E+02  0.28325105758E+03  0.29120446930E+03  0.00000000000E+00 0. -1.
<mgrwt>
<rscale>  0 0.13810430E+03</rscale>
<asrwt>0</asrwt>
<pdfrwt beam="2">  1        1 0.40248659E-02 0.14567425E+03</pdfrwt>
<pdfrwt beam="1">  1       -1 0.10983233E+00 0.14567425E+03</pdfrwt>
<totfact> 0.17907429E+03</totfact>
</mgrwt>
</event>
<event>
 6    1  0.5258538E-006  0.7057709E+03  0.7546771E-02  0.1037973E+00
         -1   -1    0    0    0  501 -0.00000000000E+00  0.00000000000E+00  0.39919499124E+03  0.39919499124E+03  0.00000000000E+00 0.  1.
          1   -1    0    0  501    0  0.00000000000E+00 -0.00000000000E+00 -0.42165462031E+03  0.42165462031E+03  0.00000000000E+00 0. -1.
          5    1    1    2  502    0  0.99378814924E+02  0.81311383508E+02 -0.37639624185E+03  0.39772340995E+03  0.47000000000E+01 0. -1.
         -5    1    1    2    0  502 -0.94420720115E+02 -0.85800170940E+02  0.28658818336E+03  0.31373845566E+03  0.47000000000E+01 0.  1.
        -11    1    1    2    0    0  0.27941756346E+02  0.11431241732E+02 -0.40575702494E+01  0.30461104897E+02  0.00000000000E+00 0. -1.
         11    1    1    2    0    0 -0.32899851155E+02 -0.69424542996E+01  0.71405999667E+02  0.78926641042E+02  0.00000000000E+00 0.  1.
<mgrwt>
<rscale>  0 0.41722510E+03</rscale>
<asrwt>0</asrwt>
<pdfrwt beam="2">  1        1 0.64869941E-01 0.70577085E+03</pdfrwt>
<pdfrwt beam="1">  1       -1 0.61414614E-01 0.70577085E+03</pdfrwt>
<totfact> 0.15298474E+02</totfact>
</mgrwt>
</event>
<event>
 6    1  0.5258538E-006  0.1538149E+03  0.7546771E-02  0.1204876E+00
         -1   -1    0    0    0  501 -0.00000000000E+00  0.00000000000E+00  0.26013985956E+02  0.26013985956E+02  0.00000000000E+00 0.  1.
          1   -1    0    0  501    0  0.00000000000E+00 -0.00000000000E+00 -0.90071602189E+03  0.90071602189E+03  0.00000000000E+00 0. -1.
          5    1    1    2  502    0  0.31923405182E+02  0.23422307276E+02 -0.10309325398E+03  0.11053514054E+03  0.47000000000E+01 0.  1.
         -5    1    1    2    0  502 -0.10238391423E+03  0.31980302103E+02 -0.55561824562E+03  0.56589657225E+03  0.47000000000E+01 0.  1.
        -11    1    1    2    0    0 -0.71506759084E+01 -0.31161284520E+02 -0.12152081379E+03  0.12565614192E+03  0.00000000000E+00 0. -1.
         11    1    1    2    0    0  0.77611184960E+02 -0.24241324859E+02 -0.94469722538E+02  0.12464215314E+03  0.00000000000E+00 0.  1.
<mgrwt>
<rscale>  0 0.14647204E+03</rscale>
<asrwt>0</asrwt>
<pdfrwt beam="2">  1        1 0.13857169E+00 0.15381490E+03</pdfrwt>
<pdfrwt beam="1">  1       -1 0.40021520E-02 0.15381490E+03</pdfrwt>
<totfact> 0.45941658E+03</totfact>
</mgrwt>
</event>
<event>
 6    1  0.5258538E-006  0.2510558E+03  0.7546771E-02  0.1112639E+00
         -2   -1    0    0    0  501 -0.00000000000E+00  0.00000000000E+00  0.14390352553E+02  0.14390352553E+02  0.00000000000E+00 0.  1.
          2   -1    0    0  501    0  0.00000000000E+00 -0.00000000000E+00 -0.10949868947E+04  0.10949868947E+04  0.00000000000E+00 0. -1.
          5    1    1    2  502    0 -0.38553265811E+01 -0.50615723421E+02 -0.73311252132E+03  0.73488289810E+03  0.47000000000E+01 0. -1.
         -5    1    1    2    0  502  0.22496913424E+02 -0.57267456728E+01 -0.28752157296E+02  0.37251621157E+02  0.47000000000E+01 0.  1.
        -11    1    1    2    0    0  0.25851365917E+02  0.59150523562E+02 -0.16503294094E+03  0.17720877279E+03  0.00000000000E+00 0.  1.
         11    1    1    2    0    0 -0.44492952760E+02 -0.28080544683E+01 -0.15369892259E+03  0.16003395521E+03  0.00000000000E+00 0. -1.
<mgrwt>
<rscale>  0 0.25105575E+03</rscale>
<asrwt>0</asrwt>
<pdfrwt beam="2">  1        2 0.16845952E+00 0.25105575E+03</pdfrwt>
<pdfrwt beam="1">  1       -2 0.22139005E-02 0.25105575E+03</pdfrwt>
<totfact> 0.15211965E+04</totfact>
</mgrwt>
</event>
<event>
 6    1  0.5258538E-006  0.1251975E+03  0.7546771E-02  0.1250292E+00
          1   -1    0    0  501    0  0.00000000000E+00  0.00000000000E+00  0.36331761898E+03  0.36331761898E+03  0.00000000000E+00 0. -1.
         -1   -1    0    0    0  501 -0.00000000000E+00 -0.00000000000E+00 -0.32327977202E+02  0.32327977202E+02  0.00000000000E+00 0.  1.
          5    1    1    2  502    0  0.70574434509E+00  0.63430494006E+02  0.11862388410E+03  0.13460178871E+03  0.47000000000E+01 0. -1.
         -5    1    1    2    0  502 -0.47355746416E+01 -0.58591917072E+02  0.66476765063E+02  0.88863314740E+02  0.47000000000E+01 0. -1.
        -11    1    1    2    0    0  0.79942472941E+01 -0.42721236267E+02  0.37884333036E+02  0.57656176664E+02  0.00000000000E+00 0.  1.
         11    1    1    2    0    0 -0.39644169976E+01  0.37882659332E+02  0.10800465958E+03  0.11452431607E+03  0.00000000000E+00 0. -1.
<mgrwt>
<rscale>  0 0.11574142E+03</rscale>
<asrwt>0</asrwt>
<pdfrwt beam="1">  1        1 0.55895015E-01 0.12519745E+03</pdfrwt>
<pdfrwt beam="2">  1       -1 0.49735352E-02 0.12519745E+03</pdfrwt>
<totfact> 0.11434821E+04</totfact>
</mgrwt>
</event>
<event>
 6    1  0.5258538E-006  0.1348608E+03  0.7546771E-02  0.1233329E+00
          2   -1    0    0  501    0  0.00000000000E+00  0.00000000000E+00  0.48234787651E+02  0.48234787651E+02  0.00000000000E+00 0. -1.
         -2   -1    0    0    0  501 -0.00000000000E+00 -0.00000000000E+00 -0.32977068959E+03  0.32977068959E+03  0.00000000000E+00 0.  1.
          5    1    1    2  502    0  0.16114166222E+02  0.73293889423E+02 -0.75283192637E+02  0.10640164319E+03  0.47000000000E+01 0. -1.
         -5    1    1    2    0  502  0.27533970535E+02 -0.47654650996E+02 -0.20098354630E+02  0.58780261601E+02  0.47000000000E+01 0. -1.
        -11    1    1    2    0    0 -0.10140324629E+02 -0.32789106879E+02 -0.13627860795E+02  0.36927906837E+02  0.00000000000E+00 0. -1.
         11    1    1    2    0    0 -0.33507812129E+02  0.71498684531E+01 -0.17252649388E+03  0.17589566562E+03  0.00000000000E+00 0.  1.
<mgrwt>
<rscale>  0 0.12612003E+03</rscale>
<asrwt>0</asrwt>
<pdfrwt beam="1">  1        2 0.74207368E-02 0.13486075E+03</pdfrwt>
<pdfrwt beam="2">  1       -2 0.50733950E-01 0.13486075E+03</pdfrwt>
<totfact> 0.33398954E+03</totfact>
</mgrwt>
</event>
<event>
 6    1  0.5258538E-006  0.1277017E+03  0.7546771E-02  0.1243942E+00
          1   -1    0    0  501    0  0.00000000000E+00  0.00000000000E+00  0.35264044077E+03  0.35264044077E+03  0.00000000000E+00 0. -1.
         -1   -1    0    0    0  501 -0.00000000000E+00 -0.00000000000E+00 -0.38581231921E+02  0.38581231921E+02  0.00000000000E+00 0.  1.
          5    1    1    2  502    0  0.64405668162E+01 -0.19316908856E+02  0.21908664522E+03  0.22008105775E+03  0.47000000000E+01 0. -1.
         -5    1    1    2    0  502 -0.32533663199E+02  0.20595931754E+02  0.67688171280E+01  0.39376878130E+02  0.47000000000E+01 0. -1.
        -11    1    1    2    0    0 -0.16288969524E+02  0.12806671145E+01 -0.13729035816E+02  0.21341439990E+02  0.00000000000E+00 0.  1.
         11    1    1    2    0    0  0.42382065907E+02 -0.25596900131E+01  0.10193278232E+03  0.11042229682E+03  0.00000000000E+00 0. -1.
<mgrwt>
<rscale>  0 0.11948912E+03</rscale>
<asrwt>0</asrwt>
<pdfrwt beam="1">  1        1 0.54252373E-01 0.12770173E+03</pdfrwt>
<pdfrwt beam="2">  1       -1 0.59355744E-02 0.12770173E+03</pdfrwt>
<totfact> 0.91473637E+03</totfact>
</mgrwt>
</event>
<event>
 6    1  0.5258538E-006  0.2112433E+03  0.7546771E-02  0.1158676E+00
          4   -1    0    0  501    0  0.00000000000E+00  0.00000000000E+00  0.69128619472E+02  0.69128619472E+02  0.00000000000E+00 0. -1.
         -4   -1    0    0    0  501 -0.00000000000E+00 -0.00000000000E+00 -0.55414642355E+03  0.55414642355E+03  0.00000000000E+00 0.  1.
          5    1    1    2  502    0  0.20590207729E+02 -0.13809599161E+03 -0.12436164670E+03  0.18703574184E+03  0.47000000000E+01 0. -1.
         -5    1    1    2    0  502 -0.40026929727E+02  0.52046671579E+02 -0.19904748867E+02  0.68769907323E+02  0.47000000000E+01 0.  1.
        -11    1    1    2    0    0 -0.14800140387E+01  0.10648520451E+03 -0.24014575657E+03  0.26269996883E+03  0.00000000000E+00 0.  1.
         11    1    1    2    0    0  0.20916736037E+02 -0.20435884473E+02 -0.10060565194E+03  0.10476942504E+03  0.00000000000E+00 0. -1.
<mgrwt>
<rscale>  0 0.18976179E+03</rscale>
<asrwt>0</asrwt>
<pdfrwt beam="1">  1        4 0.10635172E-01 0.21124331E+03</pdfrwt>
<pdfrwt beam="2">  1       -4 0.85253295E-01 0.21124331E+03</pdfrwt>
<totfact> 0.15088579E+02</totfact>
</mgrwt>
</event>
<event>
 6    1  0.5258538E-006  0.1530241E+03  0.7546771E-02  0.1205079E+00
          2   -1    0    0  501    0  0.00000000000E+00  0.00000000000E+00  0.22701290392E+03  0.22701290392E+03  0.00000000000E+00 0. -1.
         -2   -1    0    0    0  501 -0.00000000000E+00 -0.00000000000E+00 -0.12739033612E+03  0.12739033612E+03  0.00000000000E+00 0.  1.
          5    1    1    2  502    0 -0.78527508732E+01  0.42337648152E+02  0.28248351200E+02  0.51712682128E+02  0.47000000000E+01 0. -1.
         -5    1    1    2    0  502  0.95938002595E+02 -0.48360159018E+02  0.12422733043E+03  0.16430862712E+03  0.47000000000E+01 0. -1.
        -11    1    1    2    0    0 -0.63979833507E+02 -0.26324520415E+02 -0.66335233664E+02  0.95847601410E+02  0.00000000000E+00 0.  1.
         11    1    1    2    0    0 -0.24105418214E+02  0.32347031281E+02  0.13482119838E+02  0.42534329374E+02  0.00000000000E+00 0. -1.
<mgrwt>
<rscale>  0 0.14631197E+03</rscale>
<asrwt>0</asrwt>
<pdfrwt beam="1">  1        2 0.34925062E-01 0.15302409E+03</pdfrwt>
<pdfrwt beam="2">  1       -2 0.19598513E-01 0.15302409E+03</pdfrwt>
<totfact> 0.31355711E+03</totfact>
</mgrwt>
</event>
<event>
 6    1  0.5258538E-006  0.3081393E+03  0.7546771E-02  0.1081241E+00
         -1   -1    0    0    0  501 -0.00000000000E+00  0.00000000000E+00  0.82134761446E+02  0.82134761446E+02  0.00000000000E+00 0.  1.
          1   -1    0    0  501    0  0.00000000000E+00 -0.00000000000E+00 -0.28900624969E+03  0.28900624969E+03  0.00000000000E+00 0. -1.
          5    1    1    2  502    0  0.55292915363E+01  0.31610921117E+01  0.28036817459E+02  0.29132777099E+02  0.47000000000E+01 0.  1.
         -5    1    1    2    0  502  0.86167608092E+02  0.57231166549E+02 -0.12923494757E+03  0.16560200718E+03  0.47000000000E+01 0.  1.
        -11    1    1    2    0    0 -0.75889014993E+02  0.28786119077E+01 -0.60042527317E+02  0.96811848912E+02  0.00000000000E+00 0. -1.
         11    1    1    2    0    0 -0.15807884635E+02 -0.63270870568E+02 -0.45630830812E+02  0.79594377940E+02  0.00000000000E+00 0.  1.
<mgrwt>
<rscale>  0 0.30813932E+03</rscale>
<asrwt>0</asrwt>
<pdfrwt beam="2">  1        1 0.44462501E-01 0.30813932E+03</pdfrwt>
<pdfrwt beam="1">  1       -1 0.12636117E-01 0.30813932E+03</pdfrwt>
<totfact> 0.38748140E+03</totfact>
</mgrwt>
</event>
<event>
 6    1  0.5258538E-006  0.1498169E+03  0.7546771E-02  0.1209570E+00
          4   -1    0    0  501    0  0.00000000000E+00  0.00000000000E+00  0.65907193022E+02  0.65907193022E+02  0.00000000000E+00 0. -1.
         -4   -1    0    0    0  501 -0.00000000000E+00 -0.00000000000E+00 -0.28825223627E+03  0.28825223627E+03  0.00000000000E+00 0.  1.
          5    1    1    2  502    0  0.99245703317E+01 -0.64487379542E+02 -0.12029855442E+03  0.13693411339E+03  0.47000000000E+01 0. -1.
         -5    1    1    2    0  502  0.37686113928E+02 -0.29939750523E+01  0.20322761140E+02  0.43177675828E+02  0.47000000000E+01 0. -1.
        -11    1    1    2    0    0 -0.69867587961E+02  0.23662665652E+02 -0.83273841631E+02  0.11124717656E+03  0.00000000000E+00 0. -1.
         11    1    1    2    0    0  0.22256903702E+02  0.43818688942E+02 -0.39095408336E+02  0.62800463501E+02  0.00000000000E+00 0.  1.
<mgrwt>
<rscale>  0 0.14283086E+03</rscale>
<asrwt>0</asrwt>
<pdfrwt beam="1">  1        4 0.10139568E-01 0.14981688E+03</pdfrwt>
<pdfrwt beam="2">  1       -4 0.44346499E-01 0.14981688E+03</pdfrwt>
<totfact> 0.61971217E+02</totfact>
</mgrwt>
</event>
<event>
 6    1  0.5258538E-006  0.2828227E+03  0.7546771E-02  0.1094157E+00
          1   -1    0    0  501    0  0.00000000000E+00  0.00000000000E+00  0.54334365535E+02  0.54334365535E+02  0.00000000000E+00 0. -1.
         -1   -1    0    0    0  501 -0.00000000000E+00 -0.00000000000E+00 -0.36803917291E+03  0.36803917291E+03  0.00000000000E+00 0.  1.
          5    1    1    2  502    0  0.70722621644E+01  0.10599874603E+03 -0.59990023104E+02  0.12209276770E+03  0.47000000000E+01 0.  1.
         -5    1    1    2    0  502  0.74952245086E+01 -0.14402993768E+02 -0.98892281688E+02  0.10032645712E+03  0.47000000000E+01 0.  1.
        -11    1    1    2    0    0 -0.16539283741E+02 -0.60931120424E+02 -0.15692987297E+03  0.16915417338E+03  0.00000000000E+00 0.  1.
         11    1    1    2    0    0  0.19717970681E+01 -0.30664631839E+02  0.21073703840E+01  0.30800140250E+02  0.00000000000E+00 0. -1.
<mgrwt>
<rscale>  0 0.28282274E+03</rscale>
<asrwt>0</asrwt>
<pdfrwt beam="1">  1        1 0.83591332E-02 0.28282274E+03</pdfrwt>
<pdfrwt beam="2">  1       -1 0.56621411E-01 0.28282274E+03</pdfrwt>
<totfact> 0.26549366E+03</totfact>
</mgrwt>
</event>
<event>
 6    1  0.5258538E-006  0.2716643E+03  0.7546771E-02  0.1100331E+00
         -2   -1    0    0    0  501 -0.00000000000E+00  0.00000000000E+00  0.67506081242E+01  0.67506081242E+01  0.00000000000E+00 0.  1.
          2   -1    0    0  501    0  0.00000000000E+00 -0.00000000000E+00 -0.27331415094E+04  0.27331415094E+04  0.00000000000E+00 0. -1.
          5    1    1    2  502    0  0.42869135045E+02  0.35945450430E+02 -0.22032590972E+04  0.22039742689E+04  0.47000000000E+01 0. -1.
         -5    1    1    2    0  502 -0.14779010532E+02 -0.92858919783E+00 -0.41563919520E+02  0.44372636118E+02  0.47000000000E+01 0.  1.
        -11    1    1    2    0    0 -0.52844357268E+02  0.28199539297E+01 -0.23747791953E+03  0.24330277536E+03  0.00000000000E+00 0.  1.
         11    1    1    2    0    0  0.24754232755E+02 -0.37836815162E+02 -0.24408996502E+03  0.24824243724E+03  0.00000000000E+00 0. -1.
<mgrwt>
<rscale>  0 0.27166426E+03</rscale>
<asrwt>0</asrwt>
<pdfrwt beam="2">  1        2 0.42048375E+00 0.27166426E+03</pdfrwt>
<pdfrwt beam="1">  1       -2 0.10385540E-02 0.27166426E+03</pdfrwt>
<totfact> 0.60022831E+03</totfact>
</mgrwt>
</event>
<event>
 6    1  0.5258538E-006  0.1257422E+03  0.7546771E-02  0.1248967E+00
          2   -1    0    0  501    0  0.00000000000E+00  0.00000000000E+00  0.11746844424E+03  0.11746844424E+03  0.00000000000E+00 0. -1.
         -2   -1    0    0    0  501 -0.00000000000E+00 -0.00000000000E+00 -0.12021103603E+03  0.12021103603E+03  0.00000000000E+00 0.  1.
          5    1    1    2  502    0 -0.10938452845E+02 -0.55172693638E+02  0.52118640041E+00  0.56444995430E+02  0.47000000000E+01 0. -1.
         -5    1    1    2    0  502  0.24280516850E+02  0.57979669834E+02  0.44311672729E+02  0.77050632395E+02  0.47000000000E+01 0. -1.
        -11    1    1    2    0    0  0.10539486453E+02  0.17894155462E+02 -0.64900302904E+02  0.68141990662E+02  0.00000000000E+00 0.  1.
         11    1    1    2    0    0 -0.23881550458E+02 -0.20701131658E+02  0.17324851983E+02  0.36041861778E+02  0.00000000000E+00 0. -1.
<mgrwt>
<rscale>  0 0.11651056E+03</rscale>
<asrwt>0</asrwt>
<pdfrwt beam="1">  1        2 0.18072068E-01 0.12574219E+03</pdfrwt>
<pdfrwt beam="2">  1       -2 0.18494006E-01 0.12574219E+03</pdfrwt>
<totfact> 0.70729759E+03</totfact>
</mgrwt>
</event>
<event>
 6    1  0.5258538E-006  0.1488544E+03  0.7546771E-02  0.1211022E+00
          1   -1    0    0  501    0  0.00000000000E+00  0.00000000000E+00  0.13031375204E+03  0.13031375204E+03  0.00000000000E+00 0. -1.
         -1   -1    0    0    0  501 -0.00000000000E+00 -0.00000000000E+00 -0.14301465170E+03  0.14301465170E+03  0.00000000000E+00 0.  1.
          5    1    1    2  502    0 -0.13040600045E+02  0.65197993273E+02 -0.37239238268E+01  0.66759217978E+02  0.47000000000E+01 0.  1.
         -5    1    1    2    0  502 -0.65916724075E+02 -0.47930395361E+02 -0.19024240866E+02  0.83823320459E+02  0.47000000000E+01 0.  1.
        -11    1    1    2    0    0  0.59334402944E+02 -0.51525736961E+02 -0.86562165407E+01  0.79059490429E+02  0.00000000000E+00 0.  1.
         11    1    1    2    0    0  0.19622921176E+02  0.34258139048E+02  0.18703481571E+02  0.43686374871E+02  0.00000000000E+00 0. -1.
<mgrwt>
<rscale>  0 0.14172875E+03</rscale>
<asrwt>0</asrwt>
<pdfrwt beam="1">  1        1 0.20048270E-01 0.14885436E+03</pdfrwt>
<pdfrwt beam="2">  1       -1 0.22002254E-01 0.14885436E+03</pdfrwt>
<totfact> 0.42263989E+03</totfact>
</mgrwt>
</event>
<event>
 6    1  0.5258538E-006  0.2719980E+03  0.7546771E-02  0.1100142E+00
          2   -1    0    0  501    0  0.00000000000E+00  0.00000000000E+00  0.58429904920E+03  0.58429904920E+03  0.00000000000E+00 0. -1.
         -2   -1    0    0    0  501 -0.00000000000E+00 -0.00000000000E+00 -0.31654560848E+02  0.31654560848E+02  0.00000000000E+00 0.  1.
          5    1    1    2  502    0 -0.46559906244E+02  0.77856189633E+02  0.35781699796E+03  0.36916731323E+03  0.47000000000E+01 0.  1.
         -5    1    1    2    0  502  0.11096938990E+02 -0.69635827894E+01 -0.39032291708E+01  0.14455405154E+02  0.47000000000E+01 0.  1.
        -11    1    1    2    0    0  0.29458546480E+02 -0.32470815132E+02  0.18647148848E+03  0.19155619492E+03  0.00000000000E+00 0. -1.
         11    1    1    2    0    0  0.60044207741E+01 -0.38421791711E+02  0.12259231080E+02  0.40774696734E+02  0.00000000000E+00 0.  1.
<mgrwt>
<rscale>  0 0.27199801E+03</rscale>
<asrwt>0</asrwt>
<pdfrwt beam="1">  1        2 0.89892153E-01 0.27199801E+03</pdfrwt>
<pdfrwt beam="2">  1       -2 0.48699329E-02 0.27199801E+03</pdfrwt>
<totfact> 0.10551204E+04</totfact>
</mgrwt>
</event>
<event>
 6    1  0.5258538E-006  0.1265303E+03  0.7546771E-02  0.1246277E+00
          1   -1    0    0  501    0  0.00000000000E+00  0.00000000000E+00  0.24453153449E+03  0.24453153449E+03  0.00000000000E+00 0. -1.
         -1   -1    0    0    0  501 -0.00000000000E+00 -0.00000000000E+00 -0.68471620986E+02  0.68471620986E+02  0.00000000000E+00 0.  1.
          5    1    1    2  502    0  0.14035215654E+02 -0.52949542336E+02  0.32017803541E+02  0.63622881541E+02  0.47000000000E+01 0. -1.
         -5    1    1    2    0  502  0.55600088892E+01  0.51541820569E+02  0.14426888729E+03  0.15337234042E+03  0.47000000000E+01 0. -1.
        -11    1    1    2    0    0  0.18346864755E+02  0.21067281481E+02  0.32004933956E+02  0.42482391563E+02  0.00000000000E+00 0. -1.
         11    1    1    2    0    0 -0.37942089299E+02 -0.19659559715E+02 -0.32231711284E+02  0.53525541948E+02  0.00000000000E+00 0.  1.
<mgrwt>
<rscale>  0 0.11809255E+03</rscale>
<asrwt>0</asrwt>
<pdfrwt beam="1">  1        1 0.37620236E-01 0.12653035E+03</pdfrwt>
<pdfrwt beam="2">  1       -1 0.10534096E-01 0.12653035E+03</pdfrwt>
<totfact> 0.60591284E+03</totfact>
</mgrwt>
</event>
<event>
 6    1  0.5258538E-006  0.2675214E+03  0.7546771E-02  0.1102707E+00
          2   -1    0    0  501    0  0.00000000000E+00  0.00000000000E+00  0.35290503895E+03  0.35290503895E+03  0.00000000000E+00 0. -1.
         -2   -1    0    0    0  501 -0.00000000000E+00 -0.00000000000E+00 -0.50698994408E+02  0.50698994408E+02  0.00000000000E+00 0.  1.
          5    1    1    2  502    0  0.75653212293E+02  0.39890858343E+02  0.23854584085E+03  0.25345788072E+03  0.47000000000E+01 0. -1.
         -5    1    1    2    0  502 -0.25227642868E+02 -0.28070659437E+01  0.35003420980E+01  0.26051026442E+02  0.47000000000E+01 0. -1.
        -11    1    1    2    0    0 -0.25659287863E+02 -0.72808796675E+01 -0.21139145159E+02  0.34033420639E+02  0.00000000000E+00 0.  1.
         11    1    1    2    0    0 -0.24766281562E+02 -0.29802912732E+02  0.81299006754E+02  0.90061705562E+02  0.00000000000E+00 0. -1.
<mgrwt>
<rscale>  0 0.26752144E+03</rscale>
<asrwt>0</asrwt>
<pdfrwt beam="1">  1        2 0.54293081E-01 0.26752144E+03</pdfrwt>
<pdfrwt beam="2">  1       -2 0.77998455E-02 0.26752144E+03</pdfrwt>
<totfact> 0.89322778E+03</totfact>
</mgrwt>
</event>
<event>
 6    1  0.5258538E-006  0.1932819E+03  0.7546771E-02  0.1160417E+00
          1   -1    0    0  501    0  0.00000000000E+00  0.00000000000E+00  0.76192454493E+02  0.76192454493E+02  0.00000000000E+00 0. -1.
         -1   -1    0    0    0  501 -0.00000000000E+00 -0.00000000000E+00 -0.46484735757E+03  0.46484735757E+03  0.00000000000E+00 0.  1.
          5    1    1    2  502    0  0.35460717287E+02 -0.96573850967E+02 -0.73722199534E+02  0.12665316366E+03  0.47000000000E+01 0. -1.
         -5    1    1    2    0  502 -0.78448444803E+02 -0.44439113148E+02 -0.67214308547E+02  0.11255597071E+03  0.47000000000E+01 0. -1.
        -11    1    1    2    0    0  0.37564511236E+02  0.80428241209E+02 -0.67188315399E+02  0.11132863160E+03  0.00000000000E+00 0. -1.
         11    1    1    2    0    0  0.54232162803E+01  0.60584722906E+02 -0.18053007960E+03  0.19050204609E+03  0.00000000000E+00 0.  1.
<mgrwt>
<rscale>  0 0.18784786E+03</rscale>
<asrwt>0</asrwt>
<pdfrwt beam="1">  1        1 0.11721916E-01 0.19328195E+03</pdfrwt>
<pdfrwt beam="2">  1       -1 0.71514978E-01 0.19328195E+03</pdfrwt>
<totfact> 0.10561793E+03</totfact>
</mgrwt>
</event>
<event>
 6    1  0.5258538E-006  0.2765530E+03  0.7546771E-02  0.1097587E+00
          1   -1    0    0  501    0  0.00000000000E+00  0.00000000000E+00  0.11519617008E+03  0.11519617008E+03  0.00000000000E+00 0. -1.
         -1   -1    0    0    0  501 -0.00000000000E+00 -0.00000000000E+00 -0.16598115821E+03  0.16598115821E+03  0.00000000000E+00 0.  1.
          5    1    1    2  502    0 -0.39498191277E+02 -0.69090770460E+02  0.50940128107E+02  0.94607760403E+02  0.47000000000E+01 0.  1.
         -5    1    1    2    0  502 -0.20305789184E+01  0.89444323575E+00 -0.53485544190E+02  0.53737479628E+02  0.47000000000E+01 0.  1.
        -11    1    1    2    0    0  0.15660901669E+02  0.72022553124E+02  0.46282985177E+01  0.73850749127E+02  0.00000000000E+00 0. -1.
         11    1    1    2    0    0  0.25867868527E+02 -0.38262258992E+01 -0.52867870570E+02  0.58981339128E+02  0.00000000000E+00 0.  1.
<mgrwt>
<rscale>  0 0.27655302E+03</rscale>
<asrwt>0</asrwt>
<pdfrwt beam="1">  1        1 0.17722488E-01 0.27655302E+03</pdfrwt>
<pdfrwt beam="2">  1       -1 0.25535563E-01 0.27655302E+03</pdfrwt>
<totfact> 0.39961889E+03</totfact>
</mgrwt>
</event>
<event>
 6    1  0.5258538E-006  0.1546203E+03  0.7546771E-02  0.1206685E+00
          1   -1    0    0  501    0  0.00000000000E+00  0.00000000000E+00  0.53579633778E+03  0.53579633778E+03  0.00000000000E+00 0. -1.
         -1   -1    0    0    0  501 -0.00000000000E+00 -0.00000000000E+00 -0.41889844167E+02  0.41889844167E+02  0.00000000000E+00 0.  1.
          5    1    1    2  502    0  0.66563726156E+02 -0.75245094055E+02  0.28372308587E+03  0.30102065257E+03  0.47000000000E+01 0. -1.
         -5    1    1    2    0  502 -0.52097084345E+02 -0.15111309326E+01  0.10479192378E+03  0.11713166524E+03  0.47000000000E+01 0.  1.
        -11    1    1    2    0    0  0.92272669076E+01  0.82266550194E+02  0.10684758835E+03  0.13516410349E+03  0.00000000000E+00 0.  1.
         11    1    1    2    0    0 -0.23693908719E+02 -0.55103252062E+01 -0.14561043755E+01  0.24369760651E+02  0.00000000000E+00 0. -1.
<mgrwt>
<rscale>  0 0.14505495E+03</rscale>
<asrwt>0</asrwt>
<pdfrwt beam="1">  1        1 0.82430201E-01 0.15462034E+03</pdfrwt>
<pdfrwt beam="2">  1       -1 0.64445918E-02 0.15462034E+03</pdfrwt>
<totfact> 0.47923461E+03</totfact>
</mgrwt>
</event>
<event>
 6    1  0.5258538E-006  0.1438969E+03  0.7546771E-02  0.1218047E+00
          2   -1    0    0  501    0  0.00000000000E+00  0.00000000000E+00  0.47277385286E+02  0.47277385286E+02  0.00000000000E+00 0. -1.
         -2   -1    0    0    0  501 -0.00000000000E+00 -0.00000000000E+00 -0.38101764399E+03  0.38101764399E+03  0.00000000000E+00 0.  1.
          5    1    1    2  502    0 -0.62908439803E+02  0.63302892503E+02 -0.43414876910E+02  0.99356275769E+02  0.47000000000E+01 0. -1.
         -5    1    1    2    0  502 -0.30596689834E+01 -0.36233295770E+02 -0.88748838202E+02  0.96024265573E+02  0.47000000000E+01 0. -1.
        -11    1    1    2    0    0  0.33874610182E+02  0.22695597117E+02 -0.14641406415E+03  0.15198571487E+03  0.00000000000E+00 0.  1.
         11    1    1    2    0    0  0.32093498604E+02 -0.49765193850E+02 -0.55162479446E+02  0.80928773068E+02  0.00000000000E+00 0. -1.
<mgrwt>
<rscale>  0 0.13655101E+03</rscale>
<asrwt>0</asrwt>
<pdfrwt beam="1">  1        2 0.72734437E-02 0.14389687E+03</pdfrwt>
<pdfrwt beam="2">  1       -2 0.58618101E-01 0.14389687E+03</pdfrwt>
<totfact> 0.25711246E+03</totfact>
</mgrwt>
</event>
<event>
 6    1  0.5258538E-006  0.1381604E+03  0.7546771E-02  0.1227814E+00
          1   -1    0    0  501    0  0.00000000000E+00  0.00000000000E+00  0.17073521973E+03  0.17073521973E+03  0.00000000000E+00 0. -1.
         -1   -1    0    0    0  501 -0.00000000000E+00 -0.00000000000E+00 -0.88528240412E+02  0.88528240412E+02  0.00000000000E+00 0.  1.
          5    1    1    2  502    0 -0.13758637100E+02  0.71474639742E+01 -0.41178747370E+02  0.44251164630E+02  0.47000000000E+01 0. -1.
         -5    1    1    2    0  502 -0.44808175197E+02 -0.14356548728E+01  0.92926221019E+02  0.10328216798E+03  0.47000000000E+01 0. -1.
        -11    1    1    2    0    0 -0.18848635665E+02  0.10438513833E+02 -0.89997802456E+01  0.23350153788E+02  0.00000000000E+00 0.  1.
         11    1    1    2    0    0  0.77415447961E+02 -0.16150322935E+02  0.39459285911E+02  0.88379973741E+02  0.00000000000E+00 0. -1.
<mgrwt>
<rscale>  0 0.12975908E+03</rscale>
<asrwt>0</asrwt>
<pdfrwt beam="1">  1        1 0.26266957E-01 0.13816035E+03</pdfrwt>
<pdfrwt beam="2">  1       -1 0.13619729E-01 0.13816035E+03</pdfrwt>
<totfact> 0.64065789E+03</totfact>
</mgrwt>
</event>
<event>
 6    1  0.5258538E-006  0.1332152E+03  0.7546771E-02  0.1235323E+00
         -1   -1    0    0    0  501 -0.00000000000E+00  0.00000000000E+00  0.11905001228E+04  0.11905001228E+04  0.00000000000E+00 0.  1.
          1   -1    0    0  501    0  0.00000000000E+00 -0.00000000000E+00 -0.11746009067E+02  0.11746009067E+02  0.00000000000E+00 0. -1.
          5    1    1    2  502    0 -0.18535027711E+02 -0.80208146422E+02  0.41698765389E+03  0.42506198077E+03  0.47000000000E+01 0.  1.
         -5    1    1    2    0  502  0.34184050980E+02  0.36914905449E+02  0.28894139181E+03  0.29332657140E+03  0.47000000000E+01 0.  1.
        -11    1    1    2    0    0  0.20429715057E+02  0.57691669393E+02  0.34017193637E+03  0.34563369088E+03  0.00000000000E+00 0. -1.
         11    1    1    2    0    0 -0.36078738325E+02 -0.14398428420E+02  0.13265313164E+03  0.13822388879E+03  0.00000000000E+00 0.  1.
<mgrwt>
<rscale>  0 0.12483767E+03</rscale>
<asrwt>0</asrwt>
<pdfrwt beam="2">  1        1 0.18070793E-02 0.13321522E+03</pdfrwt>
<pdfrwt beam="1">  1       -1 0.18315377E+00 0.13321522E+03</pdfrwt>
<totfact> 0.14788434E+03</totfact>
</mgrwt>
</event>
<event>
 6    1  0.5258538E-006  0.1768650E+03  0.7546771E-02  0.1176893E+00
          3   -1    0    0  501    0  0.00000000000E+00  0.00000000000E+00  0.41753478595E+03  0.41753478595E+03  0.00000000000E+00 0. -1.
         -3   -1    0    0    0  501 -0.00000000000E+00 -0.00000000000E+00 -0.98611673538E+02  0.98611673538E+02  0.00000000000E+00 0.  1.
          5    1    1    2  502    0 -0.52223609881E+02 -0.69581397464E+02  0.84553132409E+02  0.12140921918E+03  0.47000000000E+01 0.  1.
         -5    1    1    2    0  502  0.37288573997E+02 -0.54578793078E+02  0.23113942648E+03  0.24045125676E+03  0.47000000000E+01 0.  1.
        -11    1    1    2    0    0 -0.23654816184E+02  0.10551350649E+03 -0.12011343954E+02  0.10879762297E+03  0.00000000000E+00 0.  1.
         11    1    1    2    0    0  0.38589852067E+02  0.18646684050E+02  0.15241897469E+02  0.45488360567E+02  0.00000000000E+00 0. -1.
<mgrwt>
<rscale>  0 0.17091853E+03</rscale>
<asrwt>0</asrwt>
<pdfrwt beam="1">  1        3 0.64236120E-01 0.17686496E+03</pdfrwt>
<pdfrwt beam="2">  1       -3 0.15171027E-01 0.17686496E+03</pdfrwt>
<totfact> 0.20957028E+02</totfact>
</mgrwt>
</event>
<event>
 6    1  0.5258538E-006  0.2755148E+03  0.7546771E-02  0.1098164E+00
         -2   -1    0    0    0  501 -0.00000000000E+00  0.00000000000E+00  0.96974163596E+03  0.96974163596E+03  0.00000000000E+00 0.  1.
          2   -1    0    0  501    0  0.00000000000E+00 -0.00000000000E+00 -0.19569239365E+02  0.19569239365E+02  0.00000000000E+00 0. -1.
          5    1    1    2  502    0 -0.37832850081E+02  0.41640421681E+01  0.16270030400E+03  0.16715903419E+03  0.47000000000E+01 0. -1.
         -5    1    1    2    0  502  0.93569925041E+02  0.59415707228E+02  0.33186953412E+03  0.34992146950E+03  0.47000000000E+01 0. -1.
        -11    1    1    2    0    0  0.11911861610E+02 -0.50427507087E+02  0.14236239808E+03  0.15149877328E+03  0.00000000000E+00 0.  1.
         11    1    1    2    0    0 -0.67648936570E+02 -0.13152242309E+02  0.31324016040E+03  0.32073159836E+03  0.00000000000E+00 0. -1.
<mgrwt>
<rscale>  0 0.27551484E+03</rscale>
<asrwt>0</asrwt>
<pdfrwt beam="2">  1        2 0.30106530E-02 0.27551484E+03</pdfrwt>
<pdfrwt beam="1">  1       -2 0.14919098E+00 0.27551484E+03</pdfrwt>
<totfact> 0.10028686E+03</totfact>
</mgrwt>
</event>
<event>
 6    1  0.5258538E-006  0.1434132E+03  0.7546771E-02  0.1221004E+00
          3   -1    0    0  501    0  0.00000000000E+00  0.00000000000E+00  0.50325619243E+03  0.50325619243E+03  0.00000000000E+00 0. -1.
         -3   -1    0    0    0  501 -0.00000000000E+00 -0.00000000000E+00 -0.45195171166E+02  0.45195171166E+02  0.00000000000E+00 0.  1.
          5    1    1    2  502    0  0.70850770606E+00 -0.55238932811E+02  0.69350632159E+02  0.88788748511E+02  0.47000000000E+01 0.  1.
         -5    1    1    2    0  502 -0.59002031832E+02  0.15939005740E+02  0.32733707027E+03  0.33302693470E+03  0.47000000000E+01 0.  1.
        -11    1    1    2    0    0 -0.21162738776E+02  0.10700217633E+02  0.28333176988E+01  0.23882710464E+02  0.00000000000E+00 0. -1.
         11    1    1    2    0    0  0.79456262902E+02  0.28599709438E+02  0.58540001137E+02  0.10275296992E+03  0.00000000000E+00 0.  1.
<mgrwt>
<rscale>  0 0.13444571E+03</rscale>
<asrwt>0</asrwt>
<pdfrwt beam="1">  1        3 0.77424026E-01 0.14341317E+03</pdfrwt>
<pdfrwt beam="2">  1       -3 0.69531036E-02 0.14341317E+03</pdfrwt>
<totfact> 0.50270123E+02</totfact>
</mgrwt>
</event>
<event>
 6    1  0.5258538E-006  0.2684253E+03  0.7546771E-02  0.1102184E+00
         -2   -1    0    0    0  501 -0.00000000000E+00  0.00000000000E+00  0.65355737565E+02  0.65355737565E+02  0.00000000000E+00 0.  1.
          2   -1    0    0  501    0  0.00000000000E+00 -0.00000000000E+00 -0.27561515487E+03  0.27561515487E+03  0.00000000000E+00 0. -1.
          5    1    1    2  502    0 -0.10337413636E+02 -0.27832292505E+01  0.18973711454E+02  0.22286772132E+02  0.47000000000E+01 0. -1.
         -5    1    1    2    0  502  0.84676989649E+02 -0.17997075715E+02 -0.15672059405E+03  0.17910198745E+03  0.47000000000E+01 0. -1.
        -11    1    1    2    0    0  0.17402608355E+02  0.17210075862E+02 -0.29099563576E+02  0.38023967298E+02  0.00000000000E+00 0. -1.
         11    1    1    2    0    0 -0.91742184368E+02  0.35702291032E+01 -0.43412971141E+02  0.10155816556E+03  0.00000000000E+00 0.  1.
<mgrwt>
<rscale>  0 0.26842527E+03</rscale>
<asrwt>0</asrwt>
<pdfrwt beam="2">  1        2 0.42402332E-01 0.26842527E+03</pdfrwt>
<pdfrwt beam="1">  1       -2 0.10054729E-01 0.26842527E+03</pdfrwt>
<totfact> 0.78157819E+03</totfact>
</mgrwt>
</event>
<event>
 6    1  0.5258538E-006  0.1304463E+03  0.7546771E-02  0.1240360E+00
          1   -1    0    0  501    0  0.00000000000E+00  0.00000000000E+00  0.47055899619E+03  0.47055899619E+03  0.00000000000E+00 0. -1.
         -1   -1    0    0    0  501 -0.00000000000E+00 -0.00000000000E+00 -0.29449310151E+02  0.29449310151E+02  0.00000000000E+00 0.  1.
          5    1    1    2  502    0 -0.18546508601E+01  0.68832708264E+02  0.12261638542E+03  0.14070625228E+03  0.47000000000E+01 0. -1.
         -5    1    1    2    0  502  0.31817661113E+02 -0.46626450098E+02  0.18354356274E+03  0.19208518639E+03  0.47000000000E+01 0. -1.
        -11    1    1    2    0    0 -0.10594142265E+02  0.32239188281E+02  0.82376458659E+02  0.89092547683E+02  0.00000000000E+00 0. -1.
         11    1    1    2    0    0 -0.19368867988E+02 -0.54445446447E+02  0.52573279226E+02  0.78124319995E+02  0.00000000000E+00 0.  1.
<mgrwt>
<rscale>  0 0.12167450E+03</rscale>
<asrwt>0</asrwt>
<pdfrwt beam="1">  1        1 0.72393686E-01 0.13044626E+03</pdfrwt>
<pdfrwt beam="2">  1       -1 0.45306634E-02 0.13044626E+03</pdfrwt>
<totfact> 0.94902255E+03</totfact>
</mgrwt>
</event>
<event>
 6    1  0.5258538E-006  0.1291572E+03  0.7546771E-02  0.1242558E+00
         -4   -1    0    0    0  501 -0.00000000000E+00  0.00000000000E+00  0.23231372270E+02  0.23231372270E+02  0.00000000000E+00 0.  1.
          4   -1    0    0  501    0  0.00000000000E+00 -0.00000000000E+00 -0.57956560179E+03  0.57956560179E+03  0.00000000000E+00 0. -1.
          5    1    1    2  502    0 -0.39874371900E+02  0.20734717005E+02 -0.78864444973E+02  0.90893259951E+02  0.47000000000E+01 0. -1.
         -5    1    1    2    0  502  0.72362664921E+02 -0.20784569014E+02 -0.30183909343E+03  0.31112261555E+03  0.47000000000E+01 0. -1.
        -11    1    1    2    0    0 -0.39903983984E+02 -0.27833641721E+02 -0.42629462937E+02  0.64686247839E+02  0.00000000000E+00 0.  1.
         11    1    1    2    0    0  0.74156909630E+01  0.27883493730E+02 -0.13300122818E+03  0.13609485072E+03  0.00000000000E+00 0. -1.
<mgrwt>
<rscale>  0 0.12032752E+03</rscale>
<asrwt>0</asrwt>
<pdfrwt beam="2">  1        4 0.89163925E-01 0.12915719E+03</pdfrwt>
<pdfrwt beam="1">  1       -4 0.35740578E-02 0.12915719E+03</pdfrwt>
<totfact> 0.74738180E+02</totfact>
</mgrwt>
</event>
<event>
 6    1  0.5258538E-006  0.1339167E+03  0.7546771E-02  0.1234525E+00
          2   -1    0    0  501    0  0.00000000000E+00  0.00000000000E+00  0.71893338923E+03  0.71893338923E+03  0.00000000000E+00 0.  1.
         -2   -1    0    0    0  501 -0.00000000000E+00 -0.00000000000E+00 -0.22539164756E+02  0.22539164756E+02  0.00000000000E+00 0. -1.
          5    1    1    2  502    0 -0.43867857147E+02  0.17765517598E+02  0.37293223056E+03  0.37595284424E+03  0.47000000000E+01 0.  1.
         -5    1    1    2    0  502  0.59870187729E+02  0.27326297813E+02  0.15028717105E+03  0.16413253703E+03  0.47000000000E+01 0.  1.
        -11    1    1    2    0    0  0.28046749321E+02  0.10423825106E+02  0.34605499506E+02  0.45747315478E+02  0.00000000000E+00 0. -1.
         11    1    1    2    0    0 -0.44049079904E+02 -0.55515640517E+02  0.13856932336E+03  0.15563985723E+03  0.00000000000E+00 0.  1.
<mgrwt>
<rscale>  0 0.12534914E+03</rscale>
<asrwt>0</asrwt>
<pdfrwt beam="1">  1        2 0.11060512E+00 0.13391668E+03</pdfrwt>
<pdfrwt beam="2">  1       -2 0.34675644E-02 0.13391668E+03</pdfrwt>
<totfact> 0.13179213E+04</totfact>
</mgrwt>
</event>
<event>
 6    1  0.5258538E-006  0.1962582E+03  0.7546771E-02  0.1157309E+00
          2   -1    0    0  501    0  0.00000000000E+00  0.00000000000E+00  0.65053813192E+03  0.65053813192E+03  0.00000000000E+00 0. -1.
         -2   -1    0    0    0  501 -0.00000000000E+00 -0.00000000000E+00 -0.53621092250E+02  0.53621092250E+02  0.00000000000E+00 0.  1.
          5    1    1    2  502    0  0.55460805207E+02  0.17251591586E+02  0.24316218086E+03  0.25004690466E+03  0.47000000000E+01 0. -1.
         -5    1    1    2    0  502  0.90770300389E+02  0.21590409359E+02  0.59775334837E+02  0.11090795221E+03  0.47000000000E+01 0. -1.
        -11    1    1    2    0    0 -0.14438282919E+02  0.24300313734E+02  0.28378006266E+02  0.40053470521E+02  0.00000000000E+00 0.  1.
         11    1    1    2    0    0 -0.13179282268E+03 -0.63142314679E+02  0.26560151771E+03  0.30315089679E+03  0.00000000000E+00 0. -1.
<mgrwt>
<rscale>  0 0.19128326E+03</rscale>
<asrwt>0</asrwt>
<pdfrwt beam="1">  1        2 0.10008278E+00 0.19625817E+03</pdfrwt>
<pdfrwt beam="2">  1       -2 0.82493993E-02 0.19625817E+03</pdfrwt>
<totfact> 0.40716180E+03</totfact>
</mgrwt>
</event>
<event>
 6    1  0.5258538E-006  0.2935696E+03  0.7546771E-02  0.1088500E+00
          3   -1    0    0  501    0  0.00000000000E+00  0.00000000000E+00  0.84017418397E+02  0.84017418397E+02  0.00000000000E+00 0. -1.
         -3   -1    0    0    0  501 -0.00000000000E+00 -0.00000000000E+00 -0.25644421502E+03  0.25644421502E+03  0.00000000000E+00 0.  1.
          5    1    1    2  502    0 -0.11077839729E+03 -0.30829631439E+02 -0.95752688787E+01  0.11548201269E+03  0.47000000000E+01 0. -1.
         -5    1    1    2    0  502  0.24357054729E+02  0.52331761829E+01 -0.38223201257E+02  0.45866713010E+02  0.47000000000E+01 0. -1.
        -11    1    1    2    0    0  0.39071440679E+02 -0.33060516987E+02 -0.66528126322E+02  0.83937874956E+02  0.00000000000E+00 0.  1.
         11    1    1    2    0    0  0.47349901886E+02  0.58656972243E+02 -0.58100200166E+02  0.95175032759E+02  0.00000000000E+00 0. -1.
<mgrwt>
<rscale>  0 0.29356962E+03</rscale>
<asrwt>0</asrwt>
<pdfrwt beam="1">  1        3 0.12925757E-01 0.29356962E+03</pdfrwt>
<pdfrwt beam="2">  1       -3 0.39452956E-01 0.29356962E+03</pdfrwt>
<totfact> 0.78155139E+02</totfact>
</mgrwt>
</event>
<event>
 6    1  0.5258538E-006  0.1321321E+03  0.7546771E-02  0.1238668E+00
         -1   -1    0    0    0  501 -0.00000000000E+00  0.00000000000E+00  0.27369309735E+02  0.27369309735E+02  0.00000000000E+00 0.  1.
          1   -1    0    0  501    0  0.00000000000E+00 -0.00000000000E+00 -0.48854186035E+03  0.48854186035E+03  0.00000000000E+00 0. -1.
          5    1    1    2  502    0  0.13156285784E+02  0.44376634695E+02 -0.23074900160E+03  0.23539236458E+03  0.47000000000E+01 0. -1.
         -5    1    1    2    0  502 -0.37889057190E+02 -0.94436902635E+01 -0.12226415632E+02  0.41186638364E+02  0.47000000000E+01 0. -1.
        -11    1    1    2    0    0  0.32997665720E+02  0.21880453726E+02 -0.10889680053E+03  0.11587110668E+03  0.00000000000E+00 0. -1.
         11    1    1    2    0    0 -0.82648943141E+01 -0.56813398157E+02 -0.10930033285E+03  0.12346106046E+03  0.00000000000E+00 0.  1.
<mgrwt>
<rscale>  0 0.12272527E+03</rscale>
<asrwt>0</asrwt>
<pdfrwt beam="2">  1        1 0.75160288E-01 0.13213210E+03</pdfrwt>
<pdfrwt beam="1">  1       -1 0.42106630E-02 0.13213210E+03</pdfrwt>
<totfact> 0.10079310E+04</totfact>
</mgrwt>
</event>
<event>
 6    1  0.5258538E-006  0.3626320E+03  0.7546771E-02  0.1057547E+00
         -1   -1    0    0    0  501 -0.00000000000E+00  0.00000000000E+00  0.35447719194E+02  0.35447719194E+02  0.00000000000E+00 0.  1.
          1   -1    0    0  501    0  0.00000000000E+00 -0.00000000000E+00 -0.92743610971E+03  0.92743610971E+03  0.00000000000E+00 0. -1.
          5    1    1    2  502    0  0.48223790423E+02 -0.17223992708E+02 -0.82026196593E+03  0.82187224228E+03  0.47000000000E+01 0.  1.
         -5    1    1    2    0  502  0.10297400010E+02  0.84596630501E+01 -0.51415647378E+01  0.15037554118E+02  0.47000000000E+01 0.  1.
        -11    1    1    2    0    0 -0.44419863091E+02  0.37939399238E+02 -0.79154005294E+01  0.58950621855E+02  0.00000000000E+00 0.  1.
         11    1    1    2    0    0 -0.14101327342E+02 -0.29175069581E+02 -0.58669459317E+02  0.67023410644E+02  0.00000000000E+00 0. -1.
<mgrwt>
<rscale>  0 0.36263202E+03</rscale>
<asrwt>0</asrwt>
<pdfrwt beam="2">  1        1 0.14268246E+00 0.36263202E+03</pdfrwt>
<pdfrwt beam="1">  1       -1 0.54534960E-02 0.36263202E+03</pdfrwt>
<totfact> 0.28135023E+03</totfact>
</mgrwt>
</event>
<event>
 6    1  0.5258538E-006  0.1258297E+03  0.7546771E-02  0.1249547E+00
         -1   -1    0    0    0  501 -0.00000000000E+00  0.00000000000E+00  0.10361370269E+03  0.10361370269E+03  0.00000000000E+00 0.  1.
          1   -1    0    0  501    0  0.00000000000E+00 -0.00000000000E+00 -0.11389916593E+03  0.11389916593E+03  0.00000000000E+00 0. -1.
          5    1    1    2  502    0  0.17350312190E+02 -0.33100287502E+02  0.40609493312E+02  0.55388476355E+02  0.47000000000E+01 0. -1.
         -5    1    1    2    0  502 -0.25849305699E+02  0.44940046614E+02 -0.47756633446E+02  0.70644040321E+02  0.47000000000E+01 0. -1.
        -11    1    1    2    0    0  0.44744130846E+02  0.62780594987E+01  0.14263831319E+02  0.47380461798E+02  0.00000000000E+00 0.  1.
         11    1    1    2    0    0 -0.36245137338E+02 -0.18117818610E+02 -0.17402154424E+02  0.44099890141E+02  0.00000000000E+00 0. -1.
<mgrwt>
<rscale>  0 0.11617305E+03</rscale>
<asrwt>0</asrwt>
<pdfrwt beam="2">  1        1 0.17522949E-01 0.12582970E+03</pdfrwt>
<pdfrwt beam="1">  1       -1 0.15940570E-01 0.12582970E+03</pdfrwt>
<totfact> 0.83024298E+03</totfact>
</mgrwt>
</event>
<event>
 6    1  0.5258538E-006  0.2871634E+03  0.7546771E-02  0.1091840E+00
          1   -1    0    0  501    0  0.00000000000E+00  0.00000000000E+00  0.39465011696E+03  0.39465011696E+03  0.00000000000E+00 0. -1.
         -1   -1    0    0    0  501 -0.00000000000E+00 -0.00000000000E+00 -0.52237943102E+02  0.52237943102E+02  0.00000000000E+00 0.  1.
          5    1    1    2  502    0 -0.38156859162E+01  0.39598380933E+01 -0.12814987182E+02  0.14715762746E+02  0.47000000000E+01 0.  1.
         -5    1    1    2    0  502  0.46550869474E+02  0.62135748485E+02  0.27980953485E+03  0.29041918064E+03  0.47000000000E+01 0.  1.
        -11    1    1    2    0    0 -0.58305072775E+02 -0.32673282764E+02  0.11291890210E+02  0.67782975018E+02  0.00000000000E+00 0.  1.
         11    1    1    2    0    0  0.15569889217E+02 -0.33422303815E+02  0.64125735978E+02  0.73970141660E+02  0.00000000000E+00 0. -1.
<mgrwt>
<rscale>  0 0.28716344E+03</rscale>
<asrwt>0</asrwt>
<pdfrwt beam="1">  1        1 0.60715401E-01 0.28716344E+03</pdfrwt>
<pdfrwt beam="2">  1       -1 0.80366069E-02 0.28716344E+03</pdfrwt>
<totfact> 0.52518233E+03</totfact>
</mgrwt>
</event>
<event>
 6    1  0.5258538E-006  0.1368093E+03  0.7546771E-02  0.1229686E+00
          1   -1    0    0  501    0  0.00000000000E+00  0.00000000000E+00  0.15795100062E+04  0.15795100062E+04  0.00000000000E+00 0. -1.
         -1   -1    0    0    0  501 -0.00000000000E+00 -0.00000000000E+00 -0.10614792058E+02  0.10614792058E+02  0.00000000000E+00 0.  1.
          5    1    1    2  502    0 -0.32880485167E+02 -0.24906363900E+02  0.98705899199E+03  0.98793167625E+03  0.47000000000E+01 0. -1.
         -5    1    1    2    0  502 -0.19501487827E+02  0.43577179639E+02  0.15398578463E+03  0.16128543171E+03  0.47000000000E+01 0. -1.
        -11    1    1    2    0    0  0.76706606481E+02 -0.66122308305E+01  0.35264623693E+03  0.36095289651E+03  0.00000000000E+00 0. -1.
         11    1    1    2    0    0 -0.24324633488E+02 -0.12058584909E+02  0.75204200558E+02  0.79954793764E+02  0.00000000000E+00 0.  1.
<mgrwt>
<rscale>  0 0.12850810E+03</rscale>
<asrwt>0</asrwt>
<pdfrwt beam="1">  1        1 0.24300135E+00 0.13680928E+03</pdfrwt>
<pdfrwt beam="2">  1       -1 0.16330462E-02 0.13680928E+03</pdfrwt>
<totfact> 0.57445804E+03</totfact>
</mgrwt>
</event>
<event>
 6    1  0.5258538E-006  0.1405123E+03  0.7546771E-02  0.1223972E+00
          2   -1    0    0  501    0  0.00000000000E+00  0.00000000000E+00  0.85594560371E+03  0.85594560371E+03  0.00000000000E+00 0.  1.
         -2   -1    0    0    0  501 -0.00000000000E+00 -0.00000000000E+00 -0.21901779773E+02  0.21901779773E+02  0.00000000000E+00 0. -1.
          5    1    1    2  502    0 -0.37112784098E+02  0.24405282677E+02  0.59787095881E+02  0.74629507568E+02  0.47000000000E+01 0.  1.
         -5    1    1    2    0  502 -0.37718350423E+01  0.25061585659E+02  0.57260535197E+03  0.57318521345E+03  0.47000000000E+01 0.  1.
        -11    1    1    2    0    0  0.44289838808E+02 -0.24490349392E+02  0.19823640300E+03  0.20459481545E+03  0.00000000000E+00 0. -1.
         11    1    1    2    0    0 -0.34052196677E+01 -0.24976518944E+02  0.34149730891E+01  0.25437847015E+02  0.00000000000E+00 0.  1.
<mgrwt>
<rscale>  0 0.13237638E+03</rscale>
<asrwt>0</asrwt>
<pdfrwt beam="1">  1        2 0.13168391E+00 0.14051229E+03</pdfrwt>
<pdfrwt beam="2">  1       -2 0.33695052E-02 0.14051229E+03</pdfrwt>
<totfact> 0.11117317E+04</totfact>
</mgrwt>
</event>
<event>
 6    1  0.5258538E-006  0.1259477E+03  0.7546771E-02  0.1250639E+00
         -2   -1    0    0    0  501 -0.00000000000E+00  0.00000000000E+00  0.10912161623E+03  0.10912161623E+03  0.00000000000E+00 0.  1.
          2   -1    0    0  501    0  0.00000000000E+00 -0.00000000000E+00 -0.12478458018E+03  0.12478458018E+03  0.00000000000E+00 0. -1.
          5    1    1    2  502    0 -0.28787226950E+02 -0.33107419928E+02 -0.67614403666E+02  0.80737867651E+02  0.47000000000E+01 0.  1.
         -5    1    1    2    0  502  0.25258520325E+02  0.47997634442E+02  0.13896774304E+02  0.56186974443E+02  0.47000000000E+01 0.  1.
        -11    1    1    2    0    0 -0.43035929935E+01  0.16635516709E+02  0.56892178743E+02  0.59430474766E+02  0.00000000000E+00 0.  1.
         11    1    1    2    0    0  0.78322996188E+01 -0.31525731222E+02 -0.18837513329E+02  0.37550879548E+02  0.00000000000E+00 0. -1.
<mgrwt>
<rscale>  0 0.11554149E+03</rscale>
<asrwt>0</asrwt>
<pdfrwt beam="2">  1        2 0.19197628E-01 0.12594772E+03</pdfrwt>
<pdfrwt beam="1">  1       -2 0.16787941E-01 0.12594772E+03</pdfrwt>
<totfact> 0.77560182E+03</totfact>
</mgrwt>
</event>
<event>
 6    1  0.5258538E-006  0.2190877E+03  0.7546771E-02  0.1138324E+00
         -1   -1    0    0    0  501 -0.00000000000E+00  0.00000000000E+00  0.28466191375E+02  0.28466191375E+02  0.00000000000E+00 0.  1.
          1   -1    0    0  501    0  0.00000000000E+00 -0.00000000000E+00 -0.15429764066E+04  0.15429764066E+04  0.00000000000E+00 0. -1.
          5    1    1    2  502    0  0.18743709205E+02  0.15052356483E+02 -0.38854591236E+03  0.38931724349E+03  0.47000000000E+01 0. -1.
         -5    1    1    2    0  502  0.86851578056E+02  0.13063254679E+03 -0.41924093723E+03  0.44765289270E+03  0.47000000000E+01 0. -1.
        -11    1    1    2    0    0 -0.11388901001E+03 -0.15159794331E+03 -0.66319751017E+03  0.68977067241E+03  0.00000000000E+00 0.  1.
         11    1    1    2    0    0  0.82937227483E+01  0.59130400335E+01 -0.43525855499E+02  0.44701789409E+02  0.00000000000E+00 0. -1.
<mgrwt>
<rscale>  0 0.21414600E+03</rscale>
<asrwt>0</asrwt>
<pdfrwt beam="2">  1        1 0.23738091E+00 0.21908769E+03</pdfrwt>
<pdfrwt beam="1">  1       -1 0.43794155E-02 0.21908769E+03</pdfrwt>
<totfact> 0.14423219E+03</totfact>
</mgrwt>
</event>
<event>
 6    1  0.5258538E-006  0.3089139E+03  0.7546771E-02  0.1082393E+00
          4   -1    0    0  501    0  0.00000000000E+00  0.00000000000E+00  0.15234305951E+03  0.15234305951E+03  0.00000000000E+00 0. -1.
         -4   -1    0    0    0  501 -0.00000000000E+00 -0.00000000000E+00 -0.80049191769E+03  0.80049191769E+03  0.00000000000E+00 0.  1.
          5    1    1    2  502    0 -0.19186608140E+03  0.17759101809E+03 -0.53503457595E+02  0.26690049246E+03  0.47000000000E+01 0.  1.
         -5    1    1    2    0  502  0.99989807834E+01  0.38561009918E+02 -0.38065542229E+02  0.55299245996E+02  0.47000000000E+01 0.  1.
        -11    1    1    2    0    0 -0.32400930339E+01 -0.39618261143E+02 -0.93658283354E+02  0.10174467485E+03  0.00000000000E+00 0.  1.
         11    1    1    2    0    0  0.18510719365E+03 -0.17653376687E+03 -0.46292157500E+03  0.52889056391E+03  0.00000000000E+00 0. -1.
<mgrwt>
<rscale>  0 0.30576574E+03</rscale>
<asrwt>0</asrwt>
<pdfrwt beam="1">  1        4 0.23437394E-01 0.30891389E+03</pdfrwt>
<pdfrwt beam="2">  1       -4 0.12315260E+00 0.30891389E+03</pdfrwt>
<totfact> 0.16170468E+01</totfact>
</mgrwt>
</event>
<event>
 6    1  0.5258538E-006  0.1413313E+03  0.7546771E-02  0.1222313E+00
         -1   -1    0    0    0  501 -0.00000000000E+00  0.00000000000E+00  0.14440350918E+03  0.14440350918E+03  0.00000000000E+00 0.  1.
          1   -1    0    0  501    0  0.00000000000E+00 -0.00000000000E+00 -0.11196679074E+03  0.11196679074E+03  0.00000000000E+00 0. -1.
          5    1    1    2  502    0 -0.29436550742E+02 -0.21845299398E+02 -0.16663606491E+02  0.40540022283E+02  0.47000000000E+01 0.  1.
         -5    1    1    2    0  502  0.45926301067E+02  0.85684673082E+02  0.27834559584E+02  0.10123211466E+03  0.47000000000E+01 0.  1.
        -11    1    1    2    0    0 -0.40404404701E+02 -0.44688149765E+02  0.45530565507E+02  0.75515422557E+02  0.00000000000E+00 0.  1.
         11    1    1    2    0    0  0.23914654376E+02 -0.19151223920E+02 -0.24264800166E+02  0.39082740419E+02  0.00000000000E+00 0. -1.
<mgrwt>
<rscale>  0 0.13352757E+03</rscale>
<asrwt>0</asrwt>
<pdfrwt beam="2">  1        1 0.17225660E-01 0.14133134E+03</pdfrwt>
<pdfrwt beam="1">  1       -1 0.22215924E-01 0.14133134E+03</pdfrwt>
<totfact> 0.50366488E+03</totfact>
</mgrwt>
</event>
<event>
 6    1  0.5258538E-006  0.1598511E+03  0.7546771E-02  0.1196480E+00
         -2   -1    0    0    0  501 -0.00000000000E+00  0.00000000000E+00  0.22819291019E+02  0.22819291019E+02  0.00000000000E+00 0.  1.
          2   -1    0    0  501    0  0.00000000000E+00 -0.00000000000E+00 -0.10019108023E+04  0.10019108023E+04  0.00000000000E+00 0. -1.
          5    1    1    2  502    0 -0.60819645670E+02 -0.21589835144E+01 -0.17052108684E+03  0.18111659661E+03  0.47000000000E+01 0.  1.
         -5    1    1    2    0  502  0.22418512121E+02 -0.89805101206E+02 -0.46990864168E+03  0.47896113351E+03  0.47000000000E+01 0.  1.
        -11    1    1    2    0    0  0.18240302651E+02 -0.15695240983E+02 -0.85283371735E+02  0.88613219809E+02  0.00000000000E+00 0.  1.
         11    1    1    2    0    0  0.20160830897E+02  0.10765932570E+03 -0.25337841106E+03  0.27603914343E+03  0.00000000000E+00 0. -1.
<mgrwt>
<rscale>  0 0.15329655E+03</rscale>
<asrwt>0</asrwt>
<pdfrwt beam="2">  1        2 0.15414014E+00 0.15985110E+03</pdfrwt>
<pdfrwt beam="1">  1       -2 0.35106598E-02 0.15985110E+03</pdfrwt>
<totfact> 0.85436027E+03</totfact>
</mgrwt>
</event>
<event>
 6    1  0.5258538E-006  0.1556310E+03  0.7546771E-02  0.1201880E+00
         -3   -1    0    0    0  501 -0.00000000000E+00  0.00000000000E+00  0.19746622647E+03  0.19746622647E+03  0.00000000000E+00 0.  1.
          3   -1    0    0  501    0  0.00000000000E+00 -0.00000000000E+00 -0.10958521302E+03  0.10958521302E+03  0.00000000000E+00 0. -1.
          5    1    1    2  502    0  0.14653210202E+02 -0.23454898368E+02 -0.26666337024E+02  0.38704422964E+02  0.47000000000E+01 0. -1.
         -5    1    1    2    0  502  0.21761220273E+02  0.10870763733E+03  0.38192910247E+02  0.11735284196E+03  0.47000000000E+01 0. -1.
        -11    1    1    2    0    0 -0.23168065012E+01 -0.77791962729E+02  0.13344123624E+02  0.78962159880E+02  0.00000000000E+00 0. -1.
         11    1    1    2    0    0 -0.34097623974E+02 -0.74607762351E+01  0.63010316602E+02  0.72032014695E+02  0.00000000000E+00 0.  1.
<mgrwt>
<rscale>  0 0.14886064E+03</rscale>
<asrwt>0</asrwt>
<pdfrwt beam="2">  1        3 0.16859264E-01 0.15563100E+03</pdfrwt>
<pdfrwt beam="1">  1       -3 0.30379419E-01 0.15563100E+03</pdfrwt>
<totfact> 0.74981627E+02</totfact>
</mgrwt>
</event>
<event>
 6    1  0.5258538E-006  0.1312343E+03  0.7546771E-02  0.1238434E+00
          1   -1    0    0  501    0  0.00000000000E+00  0.00000000000E+00  0.13686268278E+04  0.13686268278E+04  0.00000000000E+00 0. -1.
         -1   -1    0    0    0  501 -0.00000000000E+00 -0.00000000000E+00 -0.17023906580E+02  0.17023906580E+02  0.00000000000E+00 0.  1.
          5    1    1    2  502    0  0.43630942142E+02 -0.26154417691E+02  0.58691090554E+03  0.58913004822E+03  0.47000000000E+01 0. -1.
         -5    1    1    2    0  502 -0.40400364938E+02  0.65985486377E+02  0.58789886411E+03  0.59298687871E+03  0.47000000000E+01 0. -1.
        -11    1    1    2    0    0 -0.32919095528E+02  0.15602971501E+02  0.48497233011E+02  0.60655594794E+02  0.00000000000E+00 0.  1.
         11    1    1    2    0    0  0.29688518325E+02 -0.55434040187E+02  0.12829591853E+03  0.14287821263E+03  0.00000000000E+00 0. -1.
<mgrwt>
<rscale>  0 0.12287162E+03</rscale>
<asrwt>0</asrwt>
<pdfrwt beam="1">  1        1 0.21055789E+00 0.13123427E+03</pdfrwt>
<pdfrwt beam="2">  1       -1 0.26190636E-02 0.13123427E+03</pdfrwt>
<totfact> 0.39792576E+03</totfact>
</mgrwt>
</event>
<event>
 6    1  0.5258538E-006  0.1749006E+03  0.7546771E-02  0.1178489E+00
          1   -1    0    0  501    0  0.00000000000E+00  0.00000000000E+00  0.13071353997E+03  0.13071353997E+03  0.00000000000E+00 0. -1.
         -1   -1    0    0    0  501 -0.00000000000E+00 -0.00000000000E+00 -0.25310012927E+03  0.25310012927E+03  0.00000000000E+00 0.  1.
          5    1    1    2  502    0 -0.37798470379E+02  0.15770810429E+02  0.65749439575E+02  0.77604907248E+02  0.47000000000E+01 0.  1.
         -5    1    1    2    0  502 -0.50420691860E+02  0.68981313395E+02 -0.48132143445E+02  0.98180756760E+02  0.47000000000E+01 0.  1.
        -11    1    1    2    0    0  0.10193925743E+03 -0.44526431199E+02 -0.10499687534E+03  0.15296587565E+03  0.00000000000E+00 0. -1.
         11    1    1    2    0    0 -0.13720095193E+02 -0.40225692624E+02 -0.35007010085E+02  0.55062129584E+02  0.00000000000E+00 0.  1.
<mgrwt>
<rscale>  0 0.16938649E+03</rscale>
<asrwt>0</asrwt>
<pdfrwt beam="1">  1        1 0.20109775E-01 0.17490063E+03</pdfrwt>
<pdfrwt beam="2">  1       -1 0.38938481E-01 0.17490063E+03</pdfrwt>
<totfact> 0.16207217E+03</totfact>
</mgrwt>
</event>
<event>
 6    1  0.5258538E-006  0.1778679E+03  0.7546771E-02  0.1175141E+00
          1   -1    0    0  501    0  0.00000000000E+00  0.00000000000E+00  0.42535939976E+03  0.42535939976E+03  0.00000000000E+00 0. -1.
         -1   -1    0    0    0  501 -0.00000000000E+00 -0.00000000000E+00 -0.71033571733E+02  0.71033571733E+02  0.00000000000E+00 0.  1.
          5    1    1    2  502    0  0.81882719807E+02  0.23498049010E+02  0.72978945477E+02  0.11227178895E+03  0.47000000000E+01 0. -1.
         -5    1    1    2    0  502  0.34903308640E+02 -0.72207221335E+02  0.17856342345E+03  0.19580375369E+03  0.47000000000E+01 0. -1.
        -11    1    1    2    0    0 -0.16906205870E+02  0.55091679214E+02  0.34625047459E+02  0.67229508604E+02  0.00000000000E+00 0.  1.
         11    1    1    2    0    0 -0.99879822577E+02 -0.63825068901E+01  0.68158411640E+02  0.12108792025E+03  0.00000000000E+00 0. -1.
<mgrwt>
<rscale>  0 0.17262190E+03</rscale>
<asrwt>0</asrwt>
<pdfrwt beam="1">  1        1 0.65439906E-01 0.17786786E+03</pdfrwt>
<pdfrwt beam="2">  1       -1 0.10928242E-01 0.17786786E+03</pdfrwt>
<totfact> 0.29172009E+03</totfact>
</mgrwt>
</event>
<event>
 6    1  0.5258538E-006  0.1423301E+03  0.7546771E-02  0.1220884E+00
         -1   -1    0    0    0  501 -0.00000000000E+00  0.00000000000E+00  0.52475778162E+03  0.52475778162E+03  0.00000000000E+00 0.  1.
          1   -1    0    0  501    0  0.00000000000E+00 -0.00000000000E+00 -0.31376098988E+02  0.31376098988E+02  0.00000000000E+00 0. -1.
          5    1    1    2  502    0 -0.36159543281E+02 -0.26958389345E+02  0.17620568528E+03  0.18194724744E+03  0.47000000000E+01 0. -1.
         -5    1    1    2    0  502  0.69206412229E+02 -0.32549116585E+02  0.77671473022E+02  0.10910508790E+03  0.47000000000E+01 0. -1.
        -11    1    1    2    0    0 -0.57937427057E+02  0.15488420555E+02  0.98932859690E+02  0.11569074013E+03  0.00000000000E+00 0.  1.
         11    1    1    2    0    0  0.24890558109E+02  0.44019085375E+02  0.14057166463E+03  0.14939080513E+03  0.00000000000E+00 0. -1.
<mgrwt>
<rscale>  0 0.13453047E+03</rscale>
<asrwt>0</asrwt>
<pdfrwt beam="2">  1        1 0.48270925E-02 0.14233008E+03</pdfrwt>
<pdfrwt beam="1">  1       -1 0.80731960E-01 0.14233008E+03</pdfrwt>
<totfact> 0.27090062E+03</totfact>
</mgrwt>
</event>
<event>
 6    1  0.5258538E-006  0.1535771E+03  0.7546771E-02  0.1203516E+00
         -2   -1    0    0    0  501 -0.00000000000E+00  0.00000000000E+00  0.75773345042E+02  0.75773345042E+02  0.00000000000E+00 0.  1.
          2   -1    0    0  501    0  0.00000000000E+00 -0.00000000000E+00 -0.63089399592E+03  0.63089399592E+03  0.00000000000E+00 0. -1.
          5    1    1    2  502    0 -0.73424173162E+02  0.27279852327E+02 -0.41154126504E+03  0.41895537039E+03  0.47000000000E+01 0. -1.
         -5    1    1    2    0  502  0.32453402056E+02  0.54420935316E+02 -0.14341582120E+03  0.15685996709E+03  0.47000000000E+01 0.  1.
        -11    1    1    2    0    0 -0.23144999045E+02  0.40127873194E+01 -0.35556399387E+01  0.23757862240E+02  0.00000000000E+00 0. -1.
         11    1    1    2    0    0  0.64115770151E+02 -0.85713574963E+02  0.33920752914E+01  0.10709414125E+03  0.00000000000E+00 0.  1.
<mgrwt>
<rscale>  0 0.14755024E+03</rscale>
<asrwt>0</asrwt>
<pdfrwt beam="2">  1        2 0.97060612E-01 0.15357713E+03</pdfrwt>
<pdfrwt beam="1">  1       -2 0.11657438E-01 0.15357713E+03</pdfrwt>
<totfact> 0.24261910E+03</totfact>
</mgrwt>
</event>
<event>
 6    1  0.5258538E-006  0.1457143E+03  0.7546771E-02  0.1227054E+00
          2   -1    0    0  501    0  0.00000000000E+00  0.00000000000E+00  0.14481106484E+03  0.14481106484E+03  0.00000000000E+00 0. -1.
         -2   -1    0    0    0  501 -0.00000000000E+00 -0.00000000000E+00 -0.10429899151E+03  0.10429899151E+03  0.00000000000E+00 0.  1.
          5    1    1    2  502    0 -0.61645431331E+02  0.44724709096E+02  0.55844094804E+02  0.94557452018E+02  0.47000000000E+01 0. -1.
         -5    1    1    2    0  502  0.42331454797E+02 -0.43023542063E+02 -0.25593376785E+01  0.60593873009E+02  0.47000000000E+01 0.  1.
        -11    1    1    2    0    0 -0.22208432295E+02  0.51417377901E+01 -0.38422086668E+02  0.44675593745E+02  0.00000000000E+00 0. -1.
         11    1    1    2    0    0  0.41522408828E+02 -0.68429048227E+01  0.25649402870E+02  0.49283137572E+02  0.00000000000E+00 0.  1.
<mgrwt>
<rscale>  0 0.13027120E+03</rscale>
<asrwt>0</asrwt>
<pdfrwt beam="1">  1        2 0.22278625E-01 0.14571434E+03</pdfrwt>
<pdfrwt beam="2">  1       -2 0.16045999E-01 0.14571434E+03</pdfrwt>
<totfact> 0.71429310E+03</totfact>
</mgrwt>
</event>
<event>
 6    1  0.6926274E-006  0.1346624E+03  0.7546771E-02  0.1232589E+00
         -1   -1    0    0    0  501 -0.00000000000E+00  0.00000000000E+00  0.25846877491E+02  0.25846877491E+02  0.00000000000E+00 0.  1.
          1   -1    0    0  501    0  0.00000000000E+00 -0.00000000000E+00 -0.56860479435E+03  0.56860479435E+03  0.00000000000E+00 0. -1.
          5    1    1    2  502    0 -0.73484725374E+02 -0.49121190028E+02 -0.18675667462E+03  0.20667133737E+03  0.47000000000E+01 0.  1.
         -5    1    1    2    0  502  0.39339729898E+02  0.12469181201E+02 -0.16033845242E+03  0.16563092752E+03  0.47000000000E+01 0.  1.
        -11    1    1    2    0    0  0.10790012294E+02  0.57533946263E+01  0.81459572685E+01  0.14692941668E+02  0.00000000000E+00 0.  1.
         11    1    1    2    0    0  0.23354983183E+02  0.30898614201E+02 -0.20380874709E+03  0.20745646529E+03  0.00000000000E+00 0. -1.
<mgrwt>
<rscale>  0 0.12660055E+03</rscale>
<asrwt>0</asrwt>
<pdfrwt beam="2">  1        1 0.87477657E-01 0.13466235E+03</pdfrwt>
<pdfrwt beam="1">  1       -1 0.39764428E-02 0.13466235E+03</pdfrwt>
<totfact> 0.89869568E+03</totfact>
</mgrwt>
</event>
<event>
 6    1  0.5258538E-006  0.1273724E+03  0.7546771E-02  0.1245187E+00
         -1   -1    0    0    0  501 -0.00000000000E+00  0.00000000000E+00  0.27563819239E+02  0.27563819239E+02  0.00000000000E+00 0.  1.
          1   -1    0    0  501    0  0.00000000000E+00 -0.00000000000E+00 -0.48348412205E+03  0.48348412205E+03  0.00000000000E+00 0. -1.
          5    1    1    2  502    0 -0.52431267700E+02 -0.30705297104E+02 -0.87876355457E+02  0.10694015593E+03  0.47000000000E+01 0.  1.
         -5    1    1    2    0  502  0.29698279635E+02  0.39854064503E+02 -0.23307556365E+03  0.23836241868E+03  0.47000000000E+01 0.  1.
        -11    1    1    2    0    0  0.37995821809E+02  0.41474337069E+01 -0.13980322155E+03  0.14493386229E+03  0.00000000000E+00 0. -1.
         11    1    1    2    0    0 -0.15262833744E+02 -0.13296201105E+02  0.48348378455E+01  0.20811504384E+02  0.00000000000E+00 0.  1.
<mgrwt>
<rscale>  0 0.11874189E+03</rscale>
<asrwt>0</asrwt>
<pdfrwt beam="2">  1        1 0.74382173E-01 0.12737242E+03</pdfrwt>
<pdfrwt beam="1">  1       -1 0.42405875E-02 0.12737242E+03</pdfrwt>
<totfact> 0.10083326E+04</totfact>
</mgrwt>
</event>
<event>
 6    1  0.5258538E-006  0.1294605E+03  0.7546771E-02  0.1241748E+00
          2   -1    0    0  501    0  0.00000000000E+00  0.00000000000E+00  0.38569475256E+03  0.38569475256E+03  0.00000000000E+00 0. -1.
         -2   -1    0    0    0  501 -0.00000000000E+00 -0.00000000000E+00 -0.34921605464E+02  0.34921605464E+02  0.00000000000E+00 0.  1.
          5    1    1    2  502    0  0.48416577194E+02 -0.22453366224E+01  0.98949062262E+02  0.11028242565E+03  0.47000000000E+01 0. -1.
         -5    1    1    2    0  502 -0.78321910875E+02  0.17920051976E+02  0.14016452306E+03  0.16162807155E+03  0.47000000000E+01 0. -1.
        -11    1    1    2    0    0  0.53203145641E+02  0.18000240210E+02  0.75334465832E+02  0.93967361865E+02  0.00000000000E+00 0. -1.
         11    1    1    2    0    0 -0.23297811960E+02 -0.33674955564E+02  0.36325095942E+02  0.54738498971E+02  0.00000000000E+00 0.  1.
<mgrwt>
<rscale>  0 0.12082141E+03</rscale>
<asrwt>0</asrwt>
<pdfrwt beam="1">  1        2 0.59337651E-01 0.12946046E+03</pdfrwt>
<pdfrwt beam="2">  1       -2 0.53725550E-02 0.12946046E+03</pdfrwt>
<totfact> 0.13699594E+04</totfact>
</mgrwt>
</event>
<event>
 6    1  0.5258538E-006  0.1350383E+03  0.7546771E-02  0.1232432E+00
          1   -1    0    0  501    0  0.00000000000E+00  0.00000000000E+00  0.16100268956E+04  0.16100268956E+04  0.00000000000E+00 0. -1.
         -1   -1    0    0    0  501 -0.00000000000E+00 -0.00000000000E+00 -0.10082733748E+02  0.10082733748E+02  0.00000000000E+00 0.  1.
          5    1    1    2  502    0 -0.61815577978E+01 -0.43710684011E+02  0.12740772676E+03  0.13492091903E+03  0.47000000000E+01 0. -1.
         -5    1    1    2    0  502  0.24249872261E+02 -0.40871717243E+01  0.10352374976E+04  0.10355402105E+04  0.47000000000E+01 0. -1.
        -11    1    1    2    0    0  0.31095680842E+02  0.45428648455E+02  0.21153262418E+03  0.21857894355E+03  0.00000000000E+00 0.  1.
         11    1    1    2    0    0 -0.49163995305E+02  0.23692072796E+01  0.22576631330E+03  0.23106955619E+03  0.00000000000E+00 0. -1.
<mgrwt>
<rscale>  0 0.12670284E+03</rscale>
<asrwt>0</asrwt>
<pdfrwt beam="1">  1        1 0.24769624E+00 0.13503828E+03</pdfrwt>
<pdfrwt beam="2">  1       -1 0.15511911E-02 0.13503828E+03</pdfrwt>
<totfact> 0.59093708E+03</totfact>
</mgrwt>
</event>
<event>
 6    1  0.5258538E-006  0.1775896E+03  0.7546771E-02  0.1175840E+00
          3   -1    0    0  501    0  0.00000000000E+00  0.00000000000E+00  0.56379325004E+02  0.56379325004E+02  0.00000000000E+00 0. -1.
         -3   -1    0    0    0  501 -0.00000000000E+00 -0.00000000000E+00 -0.52594870607E+03  0.52594870607E+03  0.00000000000E+00 0.  1.
          5    1    1    2  502    0 -0.90548788898E+02 -0.11888695048E+02 -0.48781056197E+02  0.10364413001E+03  0.47000000000E+01 0. -1.
         -5    1    1    2    0  502 -0.38028859512E+01 -0.71845855234E+02 -0.12815094996E+03  0.14704096311E+03  0.47000000000E+01 0. -1.
        -11    1    1    2    0    0  0.52036056528E+02  0.65912399855E+01 -0.18671807384E+03  0.19394544264E+03  0.00000000000E+00 0. -1.
         11    1    1    2    0    0  0.42315618321E+02  0.77143310297E+02 -0.10591930107E+03  0.13769749531E+03  0.00000000000E+00 0.  1.
<mgrwt>
<rscale>  0 0.17193983E+03</rscale>
<asrwt>0</asrwt>
<pdfrwt beam="1">  1        3 0.86737425E-02 0.17758964E+03</pdfrwt>
<pdfrwt beam="2">  1       -3 0.80915184E-01 0.17758964E+03</pdfrwt>
<totfact> 0.32711637E+02</totfact>
</mgrwt>
</event>
<event>
 6    1  0.5258538E-006  0.2525314E+03  0.7546771E-02  0.1111715E+00
         -4   -1    0    0    0  501 -0.00000000000E+00  0.00000000000E+00  0.12201535810E+03  0.12201535810E+03  0.00000000000E+00 0.  1.
          4   -1    0    0  501    0  0.00000000000E+00 -0.00000000000E+00 -0.13066414028E+03  0.13066414028E+03  0.00000000000E+00 0. -1.
          5    1    1    2  502    0  0.34140050110E+02  0.66988191491E+00  0.18101553598E+02  0.38932608517E+02  0.47000000000E+01 0.  1.
         -5    1    1    2    0  502 -0.79224080714E+02  0.32792103019E+02 -0.58609139458E+02  0.10396585119E+03  0.47000000000E+01 0.  1.
        -11    1    1    2    0    0  0.48483819404E+02  0.16194273474E+02  0.31430354615E+02  0.60006686532E+02  0.00000000000E+00 0.  1.
         11    1    1    2    0    0 -0.33997887992E+01 -0.49656258407E+02  0.42844906490E+00  0.49774352146E+02  0.00000000000E+00 0. -1.
<mgrwt>
<rscale>  0 0.25253144E+03</rscale>
<asrwt>0</asrwt>
<pdfrwt beam="2">  1        4 0.20102176E-01 0.25253144E+03</pdfrwt>
<pdfrwt beam="1">  1       -4 0.18771593E-01 0.25253144E+03</pdfrwt>
<totfact> 0.10480970E+03</totfact>
</mgrwt>
</event>
<event>
 6    1  0.5258538E-006  0.2744383E+03  0.7546771E-02  0.1098766E+00
          1   -1    0    0  501    0  0.00000000000E+00  0.00000000000E+00  0.76721270968E+03  0.76721270968E+03  0.00000000000E+00 0. -1.
         -1   -1    0    0    0  501 -0.00000000000E+00 -0.00000000000E+00 -0.24542217672E+02  0.24542217672E+02  0.00000000000E+00 0.  1.
          5    1    1    2  502    0  0.33719453963E+01  0.19527092726E+02  0.28705339400E+03  0.28777494396E+03  0.47000000000E+01 0. -1.
         -5    1    1    2    0  502  0.78130660816E+02 -0.34049326750E+02  0.16463517955E+03  0.18544699824E+03  0.47000000000E+01 0.  1.
        -11    1    1    2    0    0 -0.39154292365E+02  0.28387594780E+02  0.25951322853E+03  0.26398111661E+03  0.00000000000E+00 0.  1.
         11    1    1    2    0    0 -0.42348313848E+02 -0.13865360755E+02  0.31468689934E+02  0.54551868537E+02  0.00000000000E+00 0. -1.
<mgrwt>
<rscale>  0 0.27443835E+03</rscale>
<asrwt>0</asrwt>
<pdfrwt beam="1">  1        1 0.11803271E+00 0.27443835E+03</pdfrwt>
<pdfrwt beam="2">  1       -1 0.37757264E-02 0.27443835E+03</pdfrwt>
<totfact> 0.65718682E+03</totfact>
</mgrwt>
</event>
<event>
 6    1  0.5258538E-006  0.1280656E+03  0.7546771E-02  0.1238010E+00
         -1   -1    0    0    0  501 -0.00000000000E+00  0.00000000000E+00  0.46626467986E+02  0.46626467986E+02  0.00000000000E+00 0.  1.
          1   -1    0    0  501    0  0.00000000000E+00 -0.00000000000E+00 -0.30737226316E+03  0.30737226316E+03  0.00000000000E+00 0. -1.
          5    1    1    2  502    0  0.58550953436E+02  0.26076807193E+01 -0.53920506243E+02  0.79777974031E+02  0.47000000000E+01 0. -1.
         -5    1    1    2    0  502 -0.37564006776E+02 -0.54172931528E+02 -0.10871093873E+03  0.12722389443E+03  0.47000000000E+01 0.  1.
        -11    1    1    2    0    0 -0.32455031023E+01 -0.25804247807E+02 -0.43376280094E+02  0.50575628222E+02  0.00000000000E+00 0. -1.
         11    1    1    2    0    0 -0.17741443557E+02  0.77369498617E+02 -0.54738070113E+02  0.96421234463E+02  0.00000000000E+00 0.  1.
<mgrwt>
<rscale>  0 0.12313708E+03</rscale>
<asrwt>0</asrwt>
<pdfrwt beam="2">  1        1 0.47288040E-01 0.12806556E+03</pdfrwt>
<pdfrwt beam="1">  1       -1 0.71733028E-02 0.12806556E+03</pdfrwt>
<totfact> 0.81777972E+03</totfact>
</mgrwt>
</event>
<event>
 6    1  0.5258538E-006  0.1340001E+03  0.7546771E-02  0.1235370E+00
          2   -1    0    0  501    0  0.00000000000E+00  0.00000000000E+00  0.10725188675E+04  0.10725188675E+04  0.00000000000E+00 0. -1.
         -2   -1    0    0    0  501 -0.00000000000E+00 -0.00000000000E+00 -0.13491922695E+02  0.13491922695E+02  0.00000000000E+00 0.  1.
          5    1    1    2  502    0 -0.54164249447E+02 -0.27529066473E+02  0.34362803680E+03  0.34898987535E+03  0.47000000000E+01 0.  1.
         -5    1    1    2    0  502  0.27134339080E+02  0.67515072323E+02  0.37391901006E+03  0.38096203674E+03  0.47000000000E+01 0.  1.
        -11    1    1    2    0    0 -0.19921408865E+02 -0.11292772393E+02  0.21594878695E+02  0.31475832401E+02  0.00000000000E+00 0.  1.
         11    1    1    2    0    0  0.46951319232E+02 -0.28693233457E+02  0.31988501924E+03  0.32458304570E+03  0.00000000000E+00 0. -1.
<mgrwt>
<rscale>  0 0.12480753E+03</rscale>
<asrwt>0</asrwt>
<pdfrwt beam="1">  1        2 0.16500284E+00 0.13400011E+03</pdfrwt>
<pdfrwt beam="2">  1       -2 0.20756813E-02 0.13400011E+03</pdfrwt>
<totfact> 0.16620576E+04</totfact>
</mgrwt>
</event>
<event>
 6    1  0.5258538E-006  0.3488168E+03  0.7546771E-02  0.1063102E+00
         -2   -1    0    0    0  501 -0.00000000000E+00  0.00000000000E+00  0.34670160471E+02  0.34670160471E+02  0.00000000000E+00 0.  1.
          2   -1    0    0  501    0  0.00000000000E+00 -0.00000000000E+00 -0.87736204662E+03  0.87736204662E+03  0.00000000000E+00 0. -1.
          5    1    1    2  502    0  0.52949988186E+02  0.39978282352E+01 -0.21557548286E+03  0.22206882421E+03  0.47000000000E+01 0.  1.
         -5    1    1    2    0  502 -0.95752434711E+01 -0.12197489843E+03 -0.36763615937E+03  0.38748935058E+03  0.47000000000E+01 0.  1.
        -11    1    1    2    0    0 -0.23467745365E+02  0.51546021076E+02 -0.32857630944E+02  0.65477868570E+02  0.00000000000E+00 0.  1.
         11    1    1    2    0    0 -0.19906999350E+02  0.66431049114E+02 -0.22662261297E+03  0.23699616373E+03  0.00000000000E+00 0. -1.
<mgrwt>
<rscale>  0 0.34881676E+03</rscale>
<asrwt>0</asrwt>
<pdfrwt beam="2">  1        2 0.13497877E+00 0.34881676E+03</pdfrwt>
<pdfrwt beam="1">  1       -2 0.53338711E-02 0.34881676E+03</pdfrwt>
<totfact> 0.55989676E+03</totfact>
</mgrwt>
</event>
<event>
 6    1  0.5258538E-006  0.1278655E+03  0.7546771E-02  0.1247933E+00
          1   -1    0    0  501    0  0.00000000000E+00  0.00000000000E+00  0.21841540860E+03  0.21841540860E+03  0.00000000000E+00 0. -1.
         -1   -1    0    0    0  501 -0.00000000000E+00 -0.00000000000E+00 -0.78362697171E+02  0.78362697171E+02  0.00000000000E+00 0.  1.
          5    1    1    2  502    0 -0.42341516736E+02 -0.45177821592E+02  0.10136982077E+03  0.11887712213E+03  0.47000000000E+01 0. -1.
         -5    1    1    2    0  502  0.19535516996E+02  0.59503101564E+02  0.58416633043E+02  0.85772073172E+02  0.47000000000E+01 0. -1.
        -11    1    1    2    0    0  0.47959772620E+02 -0.17962128150E+02 -0.35414676393E+02  0.62265376747E+02  0.00000000000E+00 0.  1.
         11    1    1    2    0    0 -0.25153772879E+02  0.36368481774E+01  0.15680934003E+02  0.29863533715E+02  0.00000000000E+00 0. -1.
<mgrwt>
<rscale>  0 0.11711549E+03</rscale>
<asrwt>0</asrwt>
<pdfrwt beam="1">  1        1 0.33602370E-01 0.12786549E+03</pdfrwt>
<pdfrwt beam="2">  1       -1 0.12055800E-01 0.12786549E+03</pdfrwt>
<totfact> 0.56677429E+03</totfact>
</mgrwt>
</event>
<event>
 6    1  0.5258538E-006  0.1270642E+03  0.7546771E-02  0.1247654E+00
          2   -1    0    0  501    0  0.00000000000E+00  0.00000000000E+00  0.23356058917E+03  0.23356058917E+03  0.00000000000E+00 0.  1.
         -2   -1    0    0    0  501 -0.00000000000E+00 -0.00000000000E+00 -0.63359329908E+02  0.63359329908E+02  0.00000000000E+00 0. -1.
          5    1    1    2  502    0  0.28353111250E+02 -0.31562055152E+02  0.11104558592E+02  0.44107408272E+02  0.47000000000E+01 0. -1.
         -5    1    1    2    0  502 -0.24240778052E+02  0.53849857054E+02  0.14863177620E+03  0.16000286661E+03  0.47000000000E+01 0. -1.
        -11    1    1    2    0    0 -0.19242321304E+02 -0.27073096426E+02 -0.32827996180E+02  0.46700072938E+02  0.00000000000E+00 0. -1.
         11    1    1    2    0    0  0.15129988107E+02  0.47852945232E+01  0.43292920646E+02  0.46109571261E+02  0.00000000000E+00 0.  1.
<mgrwt>
<rscale>  0 0.11727921E+03</rscale>
<asrwt>0</asrwt>
<pdfrwt beam="1">  1        2 0.35932398E-01 0.12706419E+03</pdfrwt>
<pdfrwt beam="2">  1       -2 0.97475893E-02 0.12706419E+03</pdfrwt>
<totfact> 0.93429462E+03</totfact>
</mgrwt>
</event>
<event>
 6    1  0.5258538E-006  0.1729644E+03  0.7546771E-02  0.1180971E+00
         -3   -1    0    0    0  501 -0.00000000000E+00  0.00000000000E+00  0.19058802525E+02  0.19058802525E+02  0.00000000000E+00 0.  1.
          3   -1    0    0  501    0  0.00000000000E+00 -0.00000000000E+00 -0.13820703228E+04  0.13820703228E+04  0.00000000000E+00 0. -1.
          5    1    1    2  502    0  0.44745086996E+02 -0.31787135977E+02 -0.36286209622E+03  0.36701980286E+03  0.47000000000E+01 0. -1.
         -5    1    1    2    0  502  0.54788568572E+02  0.98006897996E+02 -0.42520328706E+03  0.43980343862E+03  0.47000000000E+01 0. -1.
        -11    1    1    2    0    0 -0.85941596203E+01 -0.55537682098E+02 -0.16672900902E+03  0.17594560569E+03  0.00000000000E+00 0.  1.
         11    1    1    2    0    0 -0.90939495948E+02 -0.10682079920E+02 -0.40821712797E+03  0.41836027813E+03  0.00000000000E+00 0. -1.
<mgrwt>
<rscale>  0 0.16703927E+03</rscale>
<asrwt>0</asrwt>
<pdfrwt beam="2">  1        3 0.21262620E+00 0.17296443E+03</pdfrwt>
<pdfrwt beam="1">  1       -3 0.29321234E-02 0.17296443E+03</pdfrwt>
<totfact> 0.17270067E+02</totfact>
</mgrwt>
</event>
<event>
 6    1  0.5258538E-006  0.2508029E+03  0.7546771E-02  0.1143460E+00
         -2   -1    0    0    0  501 -0.00000000000E+00  0.00000000000E+00  0.21626918340E+03  0.21626918340E+03  0.00000000000E+00 0.  1.
          2   -1    0    0  501    0  0.00000000000E+00 -0.00000000000E+00 -0.18194277874E+03  0.18194277874E+03  0.00000000000E+00 0. -1.
          5    1    1    2  502    0 -0.18330013929E+02 -0.10653197648E+02 -0.13387922820E+03  0.13562897099E+03  0.47000000000E+01 0. -1.
         -5    1    1    2    0  502  0.78233745545E+01  0.81423638502E+02  0.87010802677E+02  0.11951562190E+03  0.47000000000E+01 0.  1.
        -11    1    1    2    0    0  0.33269558635E+02 -0.70005867494E+02  0.23427710505E+02  0.80972480726E+02  0.00000000000E+00 0.  1.
         11    1    1    2    0    0 -0.22762919261E+02 -0.76457336028E+00  0.57767119664E+02  0.62094888517E+02  0.00000000000E+00 0. -1.
<mgrwt>
<rscale>  0 0.20762575E+03</rscale>
<asrwt>0</asrwt>
<pdfrwt beam="2">  1        2 0.27991197E-01 0.25080294E+03</pdfrwt>
<pdfrwt beam="1">  1       -2 0.33272182E-01 0.25080294E+03</pdfrwt>
<totfact> 0.15942552E+03</totfact>
</mgrwt>
</event>
<event>
 6    1  0.5258538E-006  0.1461860E+03  0.7546771E-02  0.1218351E+00
         -2   -1    0    0    0  501 -0.00000000000E+00  0.00000000000E+00  0.79016071684E+02  0.79016071684E+02  0.00000000000E+00 0. -1.
          2   -1    0    0  501    0  0.00000000000E+00 -0.00000000000E+00 -0.32847154894E+03  0.32847154894E+03  0.00000000000E+00 0.  1.
          5    1    1    2  502    0 -0.23316638680E+02  0.61720826873E+02 -0.16877055892E+03  0.18126973732E+03  0.47000000000E+01 0. -1.
         -5    1    1    2    0  502 -0.51790254279E+02 -0.51198724174E+02 -0.89271300151E+02  0.11530392372E+03  0.47000000000E+01 0. -1.
        -11    1    1    2    0    0  0.69179836058E+02  0.24028856853E+02  0.16284998931E+02  0.75022908960E+02  0.00000000000E+00 0.  1.
         11    1    1    2    0    0  0.59270569005E+01 -0.34550959552E+02 -0.76986171186E+01  0.35891050626E+02  0.00000000000E+00 0. -1.
<mgrwt>
<rscale>  0 0.13633253E+03</rscale>
<asrwt>0</asrwt>
<pdfrwt beam="2">  1        2 0.50534086E-01 0.14618596E+03</pdfrwt>
<pdfrwt beam="1">  1       -2 0.12156318E-01 0.14618596E+03</pdfrwt>
<totfact> 0.46269526E+03</totfact>
</mgrwt>
</event>
<event>
 6    1  0.5258538E-006  0.2809033E+03  0.7546771E-02  0.1095197E+00
         -2   -1    0    0    0  501 -0.00000000000E+00  0.00000000000E+00  0.25630064534E+02  0.25630064534E+02  0.00000000000E+00 0.  1.
          2   -1    0    0  501    0  0.00000000000E+00 -0.00000000000E+00 -0.76966918869E+03  0.76966918869E+03  0.00000000000E+00 0. -1.
          5    1    1    2  502    0  0.63372238177E+02 -0.90026678778E+02 -0.23679558495E+03  0.26118017252E+03  0.47000000000E+01 0.  1.
         -5    1    1    2    0  502  0.10086684926E+02  0.29905493651E+02 -0.20949265348E+03  0.21190880498E+03  0.47000000000E+01 0.  1.
        -11    1    1    2    0    0 -0.65547220940E+02  0.34160023957E+01 -0.14872998340E+03  0.16256910902E+03  0.00000000000E+00 0.  1.
         11    1    1    2    0    0 -0.79117021631E+01  0.56705182731E+02 -0.14902090232E+03  0.15964116671E+03  0.00000000000E+00 0. -1.
<mgrwt>
<rscale>  0 0.28090334E+03</rscale>
<asrwt>0</asrwt>
<pdfrwt beam="2">  1        2 0.11841063E+00 0.28090334E+03</pdfrwt>
<pdfrwt beam="1">  1       -2 0.39430872E-02 0.28090334E+03</pdfrwt>
<totfact> 0.10440402E+04</totfact>
</mgrwt>
</event>
<event>
 6    1  0.5258538E-006  0.2702455E+03  0.7546771E-02  0.1101139E+00
          2   -1    0    0  501    0  0.00000000000E+00  0.00000000000E+00  0.47967619528E+02  0.47967619528E+02  0.00000000000E+00 0. -1.
         -2   -1    0    0    0  501 -0.00000000000E+00 -0.00000000000E+00 -0.38063493821E+03  0.38063493821E+03  0.00000000000E+00 0.  1.
          5    1    1    2  502    0 -0.86309545201E+02 -0.24162242271E+02 -0.49179191101E+02  0.10234175288E+03  0.47000000000E+01 0.  1.
         -5    1    1    2    0  502  0.56220770011E+01  0.22566207898E+02 -0.12277166699E+03  0.12504324733E+03  0.47000000000E+01 0.  1.
        -11    1    1    2    0    0  0.19807921052E+02 -0.27777730518E+02 -0.11413852368E+03  0.11912832844E+03  0.00000000000E+00 0.  1.
         11    1    1    2    0    0  0.60879547148E+02  0.29373764890E+02 -0.46577936908E+02  0.82089229083E+02  0.00000000000E+00 0. -1.
<mgrwt>
<rscale>  0 0.27024546E+03</rscale>
<asrwt>0</asrwt>
<pdfrwt beam="1">  1        2 0.73796338E-02 0.27024546E+03</pdfrwt>
<pdfrwt beam="2">  1       -2 0.58559221E-01 0.27024546E+03</pdfrwt>
<totfact> 0.26141574E+03</totfact>
</mgrwt>
</event>
<event>
 6    1  0.5258538E-006  0.1952238E+03  0.7546771E-02  0.1158109E+00
         -2   -1    0    0    0  501 -0.00000000000E+00  0.00000000000E+00  0.22609101455E+02  0.22609101455E+02  0.00000000000E+00 0.  1.
          2   -1    0    0  501    0  0.00000000000E+00 -0.00000000000E+00 -0.18095096872E+04  0.18095096872E+04  0.00000000000E+00 0. -1.
          5    1    1    2  502    0  0.66328222275E+02 -0.39535867720E+02 -0.48759392407E+03  0.49369266016E+03  0.47000000000E+01 0. -1.
         -5    1    1    2    0  502  0.74528632108E+02  0.90996662937E+02 -0.80413698998E+03  0.81270738789E+03  0.47000000000E+01 0. -1.
        -11    1    1    2    0    0 -0.14409775992E+03 -0.20593790005E+02 -0.40855273240E+03  0.43370912344E+03  0.00000000000E+00 0. -1.
         11    1    1    2    0    0  0.32409055401E+01 -0.30867005213E+02 -0.86616939337E+02  0.92009617213E+02  0.00000000000E+00 0.  1.
<mgrwt>
<rscale>  0 0.19039108E+03</rscale>
<asrwt>0</asrwt>
<pdfrwt beam="2">  1        2 0.27838615E+00 0.19522380E+03</pdfrwt>
<pdfrwt beam="1">  1       -2 0.34783228E-02 0.19522380E+03</pdfrwt>
<totfact> 0.31735571E+03</totfact>
</mgrwt>
</event>
<event>
 6    1  0.5258538E-006  0.1473574E+03  0.7546771E-02  0.1213325E+00
          2   -1    0    0  501    0  0.00000000000E+00  0.00000000000E+00  0.59445745911E+03  0.59445745911E+03  0.00000000000E+00 0. -1.
         -2   -1    0    0    0  501 -0.00000000000E+00 -0.00000000000E+00 -0.38606172662E+02  0.38606172662E+02  0.00000000000E+00 0.  1.
          5    1    1    2  502    0  0.25702320851E+02  0.28551197845E+02  0.21143873993E+03  0.21495164790E+03  0.47000000000E+01 0. -1.
         -5    1    1    2    0  502 -0.19819954923E+01 -0.99450013854E+02  0.23675748666E+03  0.25684709664E+03  0.47000000000E+01 0.  1.
        -11    1    1    2    0    0 -0.41167663248E+02 -0.23771915541E+00  0.16556687454E+02  0.44372929891E+02  0.00000000000E+00 0.  1.
         11    1    1    2    0    0  0.17447337889E+02  0.71136535165E+02  0.91098372406E+02  0.11689195734E+03  0.00000000000E+00 0. -1.
<mgrwt>
<rscale>  0 0.14000300E+03</rscale>
<asrwt>0</asrwt>
<pdfrwt beam="1">  1        2 0.91454987E-01 0.14735738E+03</pdfrwt>
<pdfrwt beam="2">  1       -2 0.59394116E-02 0.14735738E+03</pdfrwt>
<totfact> 0.73968755E+03</totfact>
</mgrwt>
</event>
<event>
 6    1  0.5258538E-006  0.2891164E+03  0.7546771E-02  0.1090811E+00
          2   -1    0    0  501    0  0.00000000000E+00  0.00000000000E+00  0.13413426083E+04  0.13413426083E+04  0.00000000000E+00 0. -1.
         -2   -1    0    0    0  501 -0.00000000000E+00 -0.00000000000E+00 -0.15579221908E+02  0.15579221908E+02  0.00000000000E+00 0.  1.
          5    1    1    2  502    0  0.49320334402E+02 -0.65656928488E+02  0.31030417736E+03  0.32102040454E+03  0.47000000000E+01 0.  1.
         -5    1    1    2    0  502 -0.70920839280E+01  0.19341049583E+01  0.68080875507E+03  0.68086466305E+03  0.47000000000E+01 0.  1.
        -11    1    1    2    0    0 -0.66908898232E+02  0.25432581290E+02  0.23052049130E+03  0.24137794796E+03  0.00000000000E+00 0. -1.
         11    1    1    2    0    0  0.24680647758E+02  0.38290242240E+02  0.10412996269E+03  0.11365881468E+03  0.00000000000E+00 0.  1.
<mgrwt>
<rscale>  0 0.28911641E+03</rscale>
<asrwt>0</asrwt>
<pdfrwt beam="1">  1        2 0.20636031E+00 0.28911641E+03</pdfrwt>
<pdfrwt beam="2">  1       -2 0.23968044E-02 0.28911641E+03</pdfrwt>
<totfact> 0.98543543E+03</totfact>
</mgrwt>
</event>
<event>
 6    1  0.5258538E-006  0.1532392E+03  0.7546771E-02  0.1205191E+00
          1   -1    0    0  501    0  0.00000000000E+00  0.00000000000E+00  0.11604780769E+03  0.11604780769E+03  0.00000000000E+00 0. -1.
         -1   -1    0    0    0  501 -0.00000000000E+00 -0.00000000000E+00 -0.19273939886E+03  0.19273939886E+03  0.00000000000E+00 0.  1.
          5    1    1    2  502    0 -0.29744128027E+02 -0.11023402702E+02 -0.40151112157E+02  0.51385118144E+02  0.47000000000E+01 0.  1.
         -5    1    1    2    0  502  0.42816135708E+02 -0.76658192682E+02  0.52360440785E+02  0.10233965869E+03  0.47000000000E+01 0.  1.
        -11    1    1    2    0    0  0.11420076539E+02  0.62947610699E+02 -0.99837433183E+02  0.11857627463E+03  0.00000000000E+00 0.  1.
         11    1    1    2    0    0 -0.24492084220E+02  0.24733984686E+02  0.10936513379E+02  0.36486155083E+02  0.00000000000E+00 0. -1.
<mgrwt>
<rscale>  0 0.14622397E+03</rscale>
<asrwt>0</asrwt>
<pdfrwt beam="1">  1        1 0.17853509E-01 0.15323916E+03</pdfrwt>
<pdfrwt beam="2">  1       -1 0.29652215E-01 0.15323916E+03</pdfrwt>
<totfact> 0.29990743E+03</totfact>
</mgrwt>
</event>
<event>
 6    1  0.5258538E-006  0.3610428E+03  0.7546771E-02  0.1058172E+00
          2   -1    0    0  501    0  0.00000000000E+00  0.00000000000E+00  0.12128481208E+03  0.12128481208E+03  0.00000000000E+00 0. -1.
         -2   -1    0    0    0  501 -0.00000000000E+00 -0.00000000000E+00 -0.26868967071E+03  0.26868967071E+03  0.00000000000E+00 0.  1.
          5    1    1    2  502    0  0.73694895455E+02 -0.25019546328E+01  0.89460018560E+02  0.11602750671E+03  0.47000000000E+01 0. -1.
         -5    1    1    2    0  502  0.70038716074E+01  0.92577590924E+01 -0.37854601395E+02  0.39872561589E+02  0.47000000000E+01 0.  1.
        -11    1    1    2    0    0 -0.49618775439E+02 -0.50555663237E+01 -0.19663014790E+03  0.20285708440E+03  0.00000000000E+00 0.  1.
         11    1    1    2    0    0 -0.31079991624E+02 -0.17002381360E+01 -0.23801278894E+01  0.31217330088E+02  0.00000000000E+00 0. -1.
<mgrwt>
<rscale>  0 0.36104280E+03</rscale>
<asrwt>0</asrwt>
<pdfrwt beam="1">  1        2 0.18659202E-01 0.36104280E+03</pdfrwt>
<pdfrwt beam="2">  1       -2 0.41336872E-01 0.36104280E+03</pdfrwt>
<totfact> 0.16925585E+03</totfact>
</mgrwt>
</event>
<event>
 6    1  0.5258538E-006  0.1358295E+03  0.7546771E-02  0.1231109E+00
          3   -1    0    0  501    0  0.00000000000E+00  0.00000000000E+00  0.19495153531E+03  0.19495153531E+03  0.00000000000E+00 0. -1.
         -3   -1    0    0    0  501 -0.00000000000E+00 -0.00000000000E+00 -0.76983158749E+02  0.76983158749E+02  0.00000000000E+00 0.  1.
          5    1    1    2  502    0 -0.15836619491E+02  0.41339313642E+02 -0.13681875319E+02  0.46572750419E+02  0.47000000000E+01 0. -1.
         -5    1    1    2    0  502 -0.37220059990E+02 -0.38370617265E+02  0.10255992997E+03  0.11575088065E+03  0.47000000000E+01 0. -1.
        -11    1    1    2    0    0  0.75213725583E+02  0.94431744183E+01  0.35064468356E+02  0.83521224849E+02  0.00000000000E+00 0.  1.
         11    1    1    2    0    0 -0.22157046102E+02 -0.12411870795E+02 -0.59741464480E+01  0.26089838144E+02  0.00000000000E+00 0. -1.
<mgrwt>
<rscale>  0 0.12756870E+03</rscale>
<asrwt>0</asrwt>
<pdfrwt beam="1">  1        3 0.29992544E-01 0.13582950E+03</pdfrwt>
<pdfrwt beam="2">  1       -3 0.11843563E-01 0.13582950E+03</pdfrwt>
<totfact> 0.13725489E+03</totfact>
</mgrwt>
</event>
<event>
 6    1  0.5258538E-006  0.1451821E+03  0.7546771E-02  0.1216368E+00
          1   -1    0    0  501    0  0.00000000000E+00  0.00000000000E+00  0.44413582059E+03  0.44413582059E+03  0.00000000000E+00 0. -1.
         -1   -1    0    0    0  501 -0.00000000000E+00 -0.00000000000E+00 -0.38957441756E+02  0.38957441756E+02  0.00000000000E+00 0.  1.
          5    1    1    2  502    0 -0.12666381034E+02  0.40709186714E+02  0.37762034181E+01  0.43058388308E+02  0.47000000000E+01 0.  1.
         -5    1    1    2    0  502 -0.18574211013E+02  0.26239418428E+02  0.22891960867E+03  0.23121372284E+03  0.47000000000E+01 0.  1.
        -11    1    1    2    0    0  0.17410650131E+02 -0.40363837673E+02  0.17335489660E+03  0.17884152288E+03  0.00000000000E+00 0. -1.
         11    1    1    2    0    0  0.13829941916E+02 -0.26584767469E+02 -0.87232986002E+00  0.29979628319E+02  0.00000000000E+00 0.  1.
<mgrwt>
<rscale>  0 0.13776527E+03</rscale>
<asrwt>0</asrwt>
<pdfrwt beam="1">  1        1 0.68328584E-01 0.14518213E+03</pdfrwt>
<pdfrwt beam="2">  1       -1 0.59934529E-02 0.14518213E+03</pdfrwt>
<totfact> 0.67984557E+03</totfact>
</mgrwt>
</event>
<event>
 6    1  0.5258538E-006  0.1878180E+03  0.7546771E-02  0.1189744E+00
         -2   -1    0    0    0  501 -0.00000000000E+00  0.00000000000E+00  0.25320456432E+02  0.25320456432E+02  0.00000000000E+00 0.  1.
          2   -1    0    0  501    0  0.00000000000E+00 -0.00000000000E+00 -0.94959037245E+03  0.94959037245E+03  0.00000000000E+00 0. -1.
          5    1    1    2  502    0  0.40663534200E+02  0.58693442944E+02 -0.70661450206E+03  0.71022854616E+03  0.47000000000E+01 0. -1.
         -5    1    1    2    0  502 -0.45996903575E+02 -0.26488235294E+02 -0.65685502033E+02  0.84581421865E+02  0.47000000000E+01 0.  1.
        -11    1    1    2    0    0  0.44423473244E+02 -0.84071920462E+00 -0.52964580978E+02  0.69133194791E+02  0.00000000000E+00 0.  1.
         11    1    1    2    0    0 -0.39090103869E+02 -0.31364488445E+02 -0.99005330941E+02  0.11096766606E+03  0.00000000000E+00 0. -1.
<mgrwt>
<rscale>  0 0.15907603E+03</rscale>
<asrwt>0</asrwt>
<pdfrwt beam="2">  1        2 0.14609082E+00 0.18781797E+03</pdfrwt>
<pdfrwt beam="1">  1       -2 0.38954550E-02 0.18781797E+03</pdfrwt>
<totfact> 0.79338171E+03</totfact>
</mgrwt>
</event>
<event>
 6    1  0.5258538E-006  0.1407397E+03  0.7546771E-02  0.1225825E+00
         -2   -1    0    0    0  501 -0.00000000000E+00  0.00000000000E+00  0.13149223135E+03  0.13149223135E+03  0.00000000000E+00 0.  1.
          2   -1    0    0  501    0  0.00000000000E+00 -0.00000000000E+00 -0.14688666411E+03  0.14688666411E+03  0.00000000000E+00 0. -1.
          5    1    1    2  502    0 -0.28877709383E+02  0.18978591081E+02  0.95766395889E+00  0.34887191617E+02  0.47000000000E+01 0. -1.
         -5    1    1    2    0  502  0.85793231563E+02 -0.49677258157E+02 -0.73108626691E+02  0.12326909530E+03  0.47000000000E+01 0. -1.
        -11    1    1    2    0    0  0.11155993352E+02  0.23621218654E+02  0.43154880183E+02  0.50445632536E+02  0.00000000000E+00 0.  1.
         11    1    1    2    0    0 -0.68071515532E+02  0.70774484216E+01  0.13601649790E+02  0.69776976002E+02  0.00000000000E+00 0. -1.
<mgrwt>
<rscale>  0 0.13110532E+03</rscale>
<asrwt>0</asrwt>
<pdfrwt beam="2">  1        2 0.22597948E-01 0.14073965E+03</pdfrwt>
<pdfrwt beam="1">  1       -2 0.20229574E-01 0.14073965E+03</pdfrwt>
<totfact> 0.47618584E+03</totfact>
</mgrwt>
</event>
<event>
 6    1  0.5258538E-006  0.1521672E+03  0.7546771E-02  0.1206248E+00
         -2   -1    0    0    0  501 -0.00000000000E+00  0.00000000000E+00  0.16997551918E+03  0.16997551918E+03  0.00000000000E+00 0.  1.
          2   -1    0    0  501    0  0.00000000000E+00 -0.00000000000E+00 -0.12536708982E+03  0.12536708982E+03  0.00000000000E+00 0. -1.
          5    1    1    2  502    0  0.62583641716E+01 -0.84695746755E+02 -0.31495489058E+01  0.85114900569E+02  0.47000000000E+01 0. -1.
         -5    1    1    2    0  502 -0.63302180921E+02  0.19306510288E+02 -0.16027280609E+02  0.68255924084E+02  0.47000000000E+01 0. -1.
        -11    1    1    2    0    0 -0.15637701874E+02  0.18354823353E+02 -0.11982127750E+02  0.26925984581E+02  0.00000000000E+00 0. -1.
         11    1    1    2    0    0  0.72681518623E+02  0.47034413115E+02  0.75767386625E+02  0.11504579976E+03  0.00000000000E+00 0.  1.
<mgrwt>
<rscale>  0 0.14539572E+03</rscale>
<asrwt>0</asrwt>
<pdfrwt beam="2">  1        2 0.19287245E-01 0.15216721E+03</pdfrwt>
<pdfrwt beam="1">  1       -2 0.26150080E-01 0.15216721E+03</pdfrwt>
<totfact> 0.36696875E+03</totfact>
</mgrwt>
</event>
<event>
 6    1  0.5258538E-006  0.1612559E+03  0.7546771E-02  0.1196180E+00
         -1   -1    0    0    0  501 -0.00000000000E+00  0.00000000000E+00  0.25541152023E+02  0.25541152023E+02  0.00000000000E+00 0.  1.
          1   -1    0    0  501    0  0.00000000000E+00 -0.00000000000E+00 -0.13032547092E+04  0.13032547092E+04  0.00000000000E+00 0. -1.
          5    1    1    2  502    0 -0.49758334129E+02  0.43050280916E+02 -0.23024935797E+03  0.23951216117E+03  0.47000000000E+01 0. -1.
         -5    1    1    2    0  502 -0.52093976420E+02 -0.44512199936E+02 -0.84180878477E+03  0.84460596637E+03  0.47000000000E+01 0. -1.
        -11    1    1    2    0    0  0.55405037334E+02 -0.36275562918E+02 -0.14531059838E+03  0.15968971360E+03  0.00000000000E+00 0. -1.
         11    1    1    2    0    0  0.46447273215E+02  0.37737481939E+02 -0.60344816056E+02  0.84988020080E+02  0.00000000000E+00 0.  1.
<mgrwt>
<rscale>  0 0.15354741E+03</rscale>
<asrwt>0</asrwt>
<pdfrwt beam="2">  1        1 0.20050074E+00 0.16125586E+03</pdfrwt>
<pdfrwt beam="1">  1       -1 0.39294076E-02 0.16125586E+03</pdfrwt>
<totfact> 0.24409499E+03</totfact>
</mgrwt>
</event>
<event>
 6    1  0.5258538E-006  0.1473903E+03  0.7546771E-02  0.1214206E+00
         -1   -1    0    0    0  501 -0.00000000000E+00  0.00000000000E+00  0.31173750010E+02  0.31173750010E+02  0.00000000000E+00 0.  1.
          1   -1    0    0  501    0  0.00000000000E+00 -0.00000000000E+00 -0.57305325957E+03  0.57305325957E+03  0.00000000000E+00 0. -1.
          5    1    1    2  502    0  0.27161476960E+02 -0.75805563375E+01 -0.20527658204E+03  0.20725775209E+03  0.47000000000E+01 0. -1.
         -5    1    1    2    0  502 -0.73556189365E+02 -0.55246735060E+02 -0.13352169599E+03  0.16221235473E+03  0.47000000000E+01 0. -1.
        -11    1    1    2    0    0  0.61598380652E+02  0.70870825329E+02 -0.13438525013E+03  0.16394032400E+03  0.00000000000E+00 0.  1.
         11    1    1    2    0    0 -0.15203668246E+02 -0.80435339308E+01 -0.68695981398E+02  0.70816578755E+02  0.00000000000E+00 0. -1.
<mgrwt>
<rscale>  0 0.13934985E+03</rscale>
<asrwt>0</asrwt>
<pdfrwt beam="2">  1        1 0.88162034E-01 0.14739025E+03</pdfrwt>
<pdfrwt beam="1">  1       -1 0.47959619E-02 0.14739025E+03</pdfrwt>
<totfact> 0.67839227E+03</totfact>
</mgrwt>
</event>
<event>
 6    1  0.5258538E-006  0.2525114E+03  0.7546771E-02  0.1119520E+00
         -2   -1    0    0    0  501 -0.00000000000E+00  0.00000000000E+00  0.27252126784E+03  0.27252126784E+03  0.00000000000E+00 0.  1.
          2   -1    0    0  501    0  0.00000000000E+00 -0.00000000000E+00 -0.29765057207E+03  0.29765057207E+03  0.00000000000E+00 0. -1.
          5    1    1    2  502    0  0.50995833850E+02 -0.18409128057E+03 -0.20243852139E+03  0.27837675836E+03  0.47000000000E+01 0. -1.
         -5    1    1    2    0  502  0.20967486078E+02  0.11017075880E+02  0.21449551616E+02  0.32298369895E+02  0.47000000000E+01 0.  1.
        -11    1    1    2    0    0 -0.69153897037E+02  0.16128093524E+03  0.16757190136E+03  0.24263994657E+03  0.00000000000E+00 0.  1.
         11    1    1    2    0    0 -0.28094228908E+01  0.11793269451E+02 -0.11712235808E+02  0.16856765079E+02  0.00000000000E+00 0. -1.
<mgrwt>
<rscale>  0 0.24041014E+03</rscale>
<asrwt>0</asrwt>
<pdfrwt beam="2">  1        2 0.45792395E-01 0.25251144E+03</pdfrwt>
<pdfrwt beam="1">  1       -2 0.41926349E-01 0.25251144E+03</pdfrwt>
<totfact> 0.60189088E+02</totfact>
</mgrwt>
</event>
<event>
 6    1  0.5258538E-006  0.1371388E+03  0.7546771E-02  0.1231353E+00
         -2   -1    0    0    0  501 -0.00000000000E+00  0.00000000000E+00  0.12847406701E+03  0.12847406701E+03  0.00000000000E+00 0.  1.
          2   -1    0    0  501    0  0.00000000000E+00 -0.00000000000E+00 -0.13897601561E+03  0.13897601561E+03  0.00000000000E+00 0. -1.
          5    1    1    2  502    0  0.68353522673E+01 -0.47070022954E+02 -0.29198320958E+02  0.56008401586E+02  0.47000000000E+01 0. -1.
         -5    1    1    2    0  502 -0.26952172261E+02  0.84483496294E+02 -0.35683809765E+02  0.95704258082E+02  0.47000000000E+01 0.  1.
        -11    1    1    2    0    0  0.27669995063E+02  0.17560614872E+02  0.50382258468E+02  0.60103043099E+02  0.00000000000E+00 0.  1.
         11    1    1    2    0    0 -0.75531750690E+01 -0.54974088212E+02  0.39979236519E+01  0.55634379855E+02  0.00000000000E+00 0. -1.
<mgrwt>
<rscale>  0 0.12740810E+03</rscale>
<asrwt>0</asrwt>
<pdfrwt beam="2">  1        2 0.21380925E-01 0.13713876E+03</pdfrwt>
<pdfrwt beam="1">  1       -2 0.19765241E-01 0.13713876E+03</pdfrwt>
<totfact> 0.52609145E+03</totfact>
</mgrwt>
</event>
<event>
 6    1  0.5258538E-006  0.1973266E+03  0.7546771E-02  0.1156465E+00
          2   -1    0    0  501    0  0.00000000000E+00  0.00000000000E+00  0.16630075578E+03  0.16630075578E+03  0.00000000000E+00 0. -1.
         -2   -1    0    0    0  501 -0.00000000000E+00 -0.00000000000E+00 -0.31759342534E+03  0.31759342534E+03  0.00000000000E+00 0.  1.
          5    1    1    2  502    0 -0.29378032925E+02 -0.35629343847E+02  0.40309174288E+02  0.61477137973E+02  0.47000000000E+01 0. -1.
         -5    1    1    2    0  502 -0.11458525370E+03  0.86509001318E+02  0.21155805244E+02  0.14520070857E+03  0.47000000000E+01 0. -1.
        -11    1    1    2    0    0  0.50861414199E+02 -0.26640431537E+02 -0.18300044219E+02  0.60261825937E+02  0.00000000000E+00 0. -1.
         11    1    1    2    0    0  0.93101872422E+02 -0.24239225934E+02 -0.19445760488E+03  0.21695450863E+03  0.00000000000E+00 0.  1.
<mgrwt>
<rscale>  0 0.19222994E+03</rscale>
<asrwt>0</asrwt>
<pdfrwt beam="1">  1        2 0.25584732E-01 0.19732660E+03</pdfrwt>
<pdfrwt beam="2">  1       -2 0.48860526E-01 0.19732660E+03</pdfrwt>
<totfact> 0.83965364E+02</totfact>
</mgrwt>
</event>
<event>
 6    1  0.5258538E-006  0.1727154E+03  0.7546771E-02  0.1182227E+00
          1   -1    0    0  501    0  0.00000000000E+00  0.00000000000E+00  0.48042423047E+03  0.48042423047E+03  0.00000000000E+00 0. -1.
         -1   -1    0    0    0  501 -0.00000000000E+00 -0.00000000000E+00 -0.56107183422E+02  0.56107183422E+02  0.00000000000E+00 0.  1.
          5    1    1    2  502    0  0.51146922602E+02 -0.20363124985E+02  0.13452199889E+03  0.14542669196E+03  0.47000000000E+01 0.  1.
         -5    1    1    2    0  502  0.28469938555E+02  0.10905780846E+03  0.15514541465E+03  0.19182370207E+03  0.47000000000E+01 0.  1.
        -11    1    1    2    0    0 -0.42882989298E+02  0.66482165674E+01  0.28329423476E+02  0.51823795588E+02  0.00000000000E+00 0.  1.
         11    1    1    2    0    0 -0.36733871859E+02 -0.95342900040E+02  0.10632021004E+03  0.14745722428E+03  0.00000000000E+00 0. -1.
<mgrwt>
<rscale>  0 0.16586731E+03</rscale>
<asrwt>0</asrwt>
<pdfrwt beam="1">  1        1 0.73911417E-01 0.17271542E+03</pdfrwt>
<pdfrwt beam="2">  1       -1 0.86318747E-02 0.17271542E+03</pdfrwt>
<totfact> 0.35748415E+03</totfact>
</mgrwt>
</event>
<event>
 6    1  0.5258538E-006  0.1584270E+03  0.7546771E-02  0.1198465E+00
          2   -1    0    0  501    0  0.00000000000E+00  0.00000000000E+00  0.58478263594E+03  0.58478263594E+03  0.00000000000E+00 0. -1.
         -2   -1    0    0    0  501 -0.00000000000E+00 -0.00000000000E+00 -0.44730970410E+02  0.44730970410E+02  0.00000000000E+00 0.  1.
          5    1    1    2  502    0  0.51467099525E+02 -0.37180036712E+02  0.84063194464E+02  0.10545106982E+03  0.47000000000E+01 0.  1.
         -5    1    1    2    0  502 -0.37620216726E+02 -0.59166951355E+02  0.34125960416E+03  0.34841959800E+03  0.47000000000E+01 0.  1.
        -11    1    1    2    0    0  0.36327986498E+02  0.57593801085E+02  0.72525513173E+02  0.99482252625E+02  0.00000000000E+00 0.  1.
         11    1    1    2    0    0 -0.50174869296E+02  0.38753186982E+02  0.42203353726E+02  0.76160685894E+02  0.00000000000E+00 0. -1.
<mgrwt>
<rscale>  0 0.15164595E+03</rscale>
<asrwt>0</asrwt>
<pdfrwt beam="1">  1        2 0.89966554E-01 0.15842696E+03</pdfrwt>
<pdfrwt beam="2">  1       -2 0.68816882E-02 0.15842696E+03</pdfrwt>
<totfact> 0.60428771E+03</totfact>
</mgrwt>
</event>
<event>
 6    1  0.5258538E-006  0.1298528E+03  0.7546771E-02  0.1237312E+00
          2   -1    0    0  501    0  0.00000000000E+00  0.00000000000E+00  0.22226554805E+03  0.22226554805E+03  0.00000000000E+00 0. -1.
         -2   -1    0    0    0  501 -0.00000000000E+00 -0.00000000000E+00 -0.11006613235E+03  0.11006613235E+03  0.00000000000E+00 0.  1.
          5    1    1    2  502    0  0.33774025490E+02  0.52802778493E+01  0.14687720190E+03  0.15087600395E+03  0.47000000000E+01 0. -1.
         -5    1    1    2    0  502 -0.10437871508E+02  0.56473810955E+02  0.20930503652E+02  0.61305925232E+02  0.47000000000E+01 0.  1.
        -11    1    1    2    0    0 -0.53124419730E+02 -0.46697610633E+02 -0.25463716793E+02  0.75174940528E+02  0.00000000000E+00 0.  1.
         11    1    1    2    0    0  0.29788265748E+02 -0.15056478172E+02 -0.30144573057E+02  0.44974810683E+02  0.00000000000E+00 0. -1.
<mgrwt>
<rscale>  0 0.12357559E+03</rscale>
<asrwt>0</asrwt>
<pdfrwt beam="1">  1        2 0.34194700E-01 0.12985278E+03</pdfrwt>
<pdfrwt beam="2">  1       -2 0.16933251E-01 0.12985278E+03</pdfrwt>
<totfact> 0.40618950E+03</totfact>
</mgrwt>
</event>
<event>
 6    1  0.1045197E-005  0.2439765E+03  0.7546771E-02  0.1117172E+00
         -1   -1    0    0    0  501 -0.00000000000E+00  0.00000000000E+00  0.65381815534E+02  0.65381815534E+02  0.00000000000E+00 0.  1.
          1   -1    0    0  501    0  0.00000000000E+00 -0.00000000000E+00 -0.22760359291E+03  0.22760359291E+03  0.00000000000E+00 0. -1.
          5    1    1    2  502    0  0.43935188557E+01 -0.23014221101E+02 -0.10117169269E+03  0.10395556158E+03  0.47000000000E+01 0.  1.
         -5    1    1    2    0  502 -0.38534676811E+02  0.61490010938E+02 -0.14938325750E+02  0.74237364839E+02  0.47000000000E+01 0.  1.
        -11    1    1    2    0    0 -0.91620455680E+01 -0.27095025281E+02  0.20032103363E+02  0.34919459318E+02  0.00000000000E+00 0.  1.
         11    1    1    2    0    0  0.43303203523E+02 -0.11380764556E+02 -0.66143862299E+02  0.79873022712E+02  0.00000000000E+00 0. -1.
<mgrwt>
<rscale>  0 0.24397652E+03</rscale>
<asrwt>0</asrwt>
<pdfrwt beam="2">  1        1 0.35015938E-01 0.24397652E+03</pdfrwt>
<pdfrwt beam="1">  1       -1 0.10058741E-01 0.24397652E+03</pdfrwt>
<totfact> 0.74031973E+03</totfact>
</mgrwt>
</event>
<event>
 6    1  0.5258538E-006  0.1807910E+03  0.7546771E-02  0.1172978E+00
          1   -1    0    0  501    0  0.00000000000E+00  0.00000000000E+00  0.73179549600E+03  0.73179549600E+03  0.00000000000E+00 0. -1.
         -1   -1    0    0    0  501 -0.00000000000E+00 -0.00000000000E+00 -0.44519181497E+02  0.44519181497E+02  0.00000000000E+00 0.  1.
          5    1    1    2  502    0  0.28185486115E+02 -0.14797229213E+02  0.34773560367E+02  0.47377949729E+02  0.47000000000E+01 0.  1.
         -5    1    1    2    0  502 -0.89567573215E+02 -0.10050532857E+03  0.46362344768E+03  0.48279650214E+03  0.47000000000E+01 0.  1.
        -11    1    1    2    0    0  0.82835310617E+02  0.76441632287E+02  0.12453848584E+03  0.16797275460E+03  0.00000000000E+00 0. -1.
         11    1    1    2    0    0 -0.21453223516E+02  0.38860925496E+02  0.64340820616E+02  0.78167471029E+02  0.00000000000E+00 0.  1.
<mgrwt>
<rscale>  0 0.17475452E+03</rscale>
<asrwt>0</asrwt>
<pdfrwt beam="1">  1        1 0.11258391E+00 0.18079096E+03</pdfrwt>
<pdfrwt beam="2">  1       -1 0.68491054E-02 0.18079096E+03</pdfrwt>
<totfact> 0.28497427E+03</totfact>
</mgrwt>
</event>
<event>
 6    1  0.5258538E-006  0.1468529E+03  0.7546771E-02  0.1213872E+00
         -2   -1    0    0    0  501 -0.00000000000E+00  0.00000000000E+00  0.35939854207E+03  0.35939854207E+03  0.00000000000E+00 0.  1.
          2   -1    0    0  501    0  0.00000000000E+00 -0.00000000000E+00 -0.57344793185E+02  0.57344793185E+02  0.00000000000E+00 0. -1.
          5    1    1    2  502    0  0.28913971564E+02  0.14861996246E+02 -0.17680526126E+02  0.37303990244E+02  0.47000000000E+01 0. -1.
         -5    1    1    2    0  502  0.88987681557E+01 -0.81839674456E+02  0.10515101130E+03  0.13362539268E+03  0.47000000000E+01 0. -1.
        -11    1    1    2    0    0 -0.66143415170E+01 -0.22022136556E+02  0.65358957846E+02  0.69285766091E+02  0.00000000000E+00 0. -1.
         11    1    1    2    0    0 -0.31198398203E+02  0.88999814766E+02  0.14922430586E+03  0.17652818624E+03  0.00000000000E+00 0.  1.
<mgrwt>
<rscale>  0 0.13959701E+03</rscale>
<asrwt>0</asrwt>
<pdfrwt beam="2">  1        2 0.88222761E-02 0.14685288E+03</pdfrwt>
<pdfrwt beam="1">  1       -2 0.55292082E-01 0.14685288E+03</pdfrwt>
<totfact> 0.22740368E+03</totfact>
</mgrwt>
</event>
<event>
 6    1  0.7074132E-006  0.2412839E+03  0.7546771E-02  0.1121575E+00
         -1   -1    0    0    0  501 -0.00000000000E+00  0.00000000000E+00  0.26622041893E+03  0.26622041893E+03  0.00000000000E+00 0.  1.
          1   -1    0    0  501    0  0.00000000000E+00 -0.00000000000E+00 -0.22804034593E+03  0.22804034593E+03  0.00000000000E+00 0. -1.
          5    1    1    2  502    0  0.12419747024E+03 -0.50852514918E+02  0.25683191225E+02  0.13672127194E+03  0.47000000000E+01 0.  1.
         -5    1    1    2    0  502  0.62387797790E+02 -0.37341771469E+02 -0.84601652764E+02  0.11165202578E+03  0.47000000000E+01 0.  1.
        -11    1    1    2    0    0 -0.54080967716E+02  0.25009915255E+02  0.77544854028E+02  0.97792900133E+02  0.00000000000E+00 0.  1.
         11    1    1    2    0    0 -0.13250430032E+03  0.63184371132E+02  0.19553680506E+02  0.14809456702E+03  0.00000000000E+00 0. -1.
<mgrwt>
<rscale>  0 0.23734337E+03</rscale>
<asrwt>0</asrwt>
<pdfrwt beam="2">  1        1 0.35083130E-01 0.24128388E+03</pdfrwt>
<pdfrwt beam="1">  1       -1 0.40956988E-01 0.24128388E+03</pdfrwt>
<totfact> 0.73602361E+02</totfact>
</mgrwt>
</event>
<event>
 6    1  0.5258538E-006  0.1321951E+03  0.7546771E-02  0.1241330E+00
          1   -1    0    0  501    0  0.00000000000E+00  0.00000000000E+00  0.10473231388E+04  0.10473231388E+04  0.00000000000E+00 0. -1.
         -1   -1    0    0    0  501 -0.00000000000E+00 -0.00000000000E+00 -0.12232689870E+02  0.12232689870E+02  0.00000000000E+00 0.  1.
          5    1    1    2  502    0 -0.43976596911E+02 -0.38191313336E+02  0.32695635113E+03  0.33213711481E+03  0.47000000000E+01 0. -1.
         -5    1    1    2    0  502  0.55233434400E+02  0.41772395338E+02  0.22702869438E+03  0.23740215534E+03  0.47000000000E+01 0.  1.
        -11    1    1    2    0    0 -0.35895047993E+02 -0.36183148508E+02  0.30523333387E+03  0.30945930720E+03  0.00000000000E+00 0. -1.
         11    1    1    2    0    0  0.24638210503E+02  0.32602066506E+02  0.17587206958E+03  0.18055725135E+03  0.00000000000E+00 0.  1.
<mgrwt>
<rscale>  0 0.12107725E+03</rscale>
<asrwt>0</asrwt>
<pdfrwt beam="1">  1        1 0.16112657E+00 0.13219512E+03</pdfrwt>
<pdfrwt beam="2">  1       -1 0.18819531E-02 0.13219512E+03</pdfrwt>
<totfact> 0.10642199E+04</totfact>
</mgrwt>
</event>
<event>
 6    1  0.5354060E-006  0.1948389E+03  0.7546771E-02  0.1158582E+00
          2   -1    0    0  501    0  0.00000000000E+00  0.00000000000E+00  0.60366403933E+03  0.60366403933E+03  0.00000000000E+00 0. -1.
         -2   -1    0    0    0  501 -0.00000000000E+00 -0.00000000000E+00 -0.57374637770E+02  0.57374637770E+02  0.00000000000E+00 0.  1.
          5    1    1    2  502    0  0.28528775532E+02  0.87783207657E+02  0.28941566964E+03  0.30381458559E+03  0.47000000000E+01 0.  1.
         -5    1    1    2    0  502  0.48271046375E+02  0.40430481686E+02  0.28999823037E+02  0.69482353901E+02  0.47000000000E+01 0.  1.
        -11    1    1    2    0    0 -0.27111665134E+02 -0.88231063480E+02  0.19555304641E+03  0.21624235688E+03  0.00000000000E+00 0. -1.
         11    1    1    2    0    0 -0.49688156773E+02 -0.39982625863E+02  0.32320862471E+02  0.71499380733E+02  0.00000000000E+00 0.  1.
<mgrwt>
<rscale>  0 0.18986575E+03</rscale>
<asrwt>0</asrwt>
<pdfrwt beam="1">  1        2 0.92871386E-01 0.19483885E+03</pdfrwt>
<pdfrwt beam="2">  1       -2 0.88268678E-02 0.19483885E+03</pdfrwt>
<totfact> 0.39955350E+03</totfact>
</mgrwt>
</event>
<event>
 6    1  0.5258538E-006  0.2998044E+03  0.7546771E-02  0.1085338E+00
         -1   -1    0    0    0  501 -0.00000000000E+00  0.00000000000E+00  0.19654797911E+03  0.19654797911E+03  0.00000000000E+00 0.  1.
          1   -1    0    0  501    0  0.00000000000E+00 -0.00000000000E+00 -0.11432663787E+03  0.11432663787E+03  0.00000000000E+00 0. -1.
          5    1    1    2  502    0  0.47687135020E+02  0.29662446301E+02 -0.82745955938E+02  0.10011446844E+03  0.47000000000E+01 0.  1.
         -5    1    1    2    0  502 -0.12696935453E+02  0.16582156231E+02  0.38979808483E+02  0.44471288991E+02  0.47000000000E+01 0.  1.
        -11    1    1    2    0    0 -0.42786060200E+02  0.96823884625E+01  0.87715305878E+02  0.98073291365E+02  0.00000000000E+00 0.  1.
         11    1    1    2    0    0  0.77958606336E+01 -0.55926990995E+02  0.38272182819E+02  0.68215568182E+02  0.00000000000E+00 0. -1.
<mgrwt>
<rscale>  0 0.29980440E+03</rscale>
<asrwt>0</asrwt>
<pdfrwt beam="2">  1        1 0.17588713E-01 0.29980440E+03</pdfrwt>
<pdfrwt beam="1">  1       -1 0.30238151E-01 0.29980440E+03</pdfrwt>
<totfact> 0.30406640E+03</totfact>
</mgrwt>
</event>
<event>
 6    1  0.5258538E-006  0.1661046E+03  0.7546771E-02  0.1188934E+00
          2   -1    0    0  501    0  0.00000000000E+00  0.00000000000E+00  0.13058389417E+03  0.13058389417E+03  0.00000000000E+00 0. -1.
         -2   -1    0    0    0  501 -0.00000000000E+00 -0.00000000000E+00 -0.18212423949E+03  0.18212423949E+03  0.00000000000E+00 0.  1.
          5    1    1    2  502    0  0.64593378553E+02  0.78218091598E+02  0.24551142053E+02  0.10447594452E+03  0.47000000000E+01 0.  1.
         -5    1    1    2    0  502 -0.30739700470E+02  0.25802461884E+02 -0.48850169729E+02  0.63396571727E+02  0.47000000000E+01 0.  1.
        -11    1    1    2    0    0  0.20622508584E+02  0.28498638328E+01  0.32409882263E+01  0.21069256960E+02  0.00000000000E+00 0. -1.
         11    1    1    2    0    0 -0.54476186668E+02 -0.10687041731E+03 -0.30482305873E+02  0.12376636046E+03  0.00000000000E+00 0.  1.
<mgrwt>
<rscale>  0 0.15979010E+03</rscale>
<asrwt>0</asrwt>
<pdfrwt beam="1">  1        2 0.20089830E-01 0.16610460E+03</pdfrwt>
<pdfrwt beam="2">  1       -2 0.28019114E-01 0.16610460E+03</pdfrwt>
<totfact> 0.31137808E+03</totfact>
</mgrwt>
</event>
<event>
 6    1  0.5258538E-006  0.3372519E+03  0.7546771E-02  0.1069227E+00
          1   -1    0    0  501    0  0.00000000000E+00  0.00000000000E+00  0.17030259321E+04  0.17030259321E+04  0.00000000000E+00 0. -1.
         -1   -1    0    0    0  501 -0.00000000000E+00 -0.00000000000E+00 -0.66744875030E+02  0.66744875030E+02  0.00000000000E+00 0.  1.
          5    1    1    2  502    0 -0.15997635903E+02  0.13725642839E+02  0.72240971667E+02  0.75400037223E+02  0.47000000000E+01 0. -1.
         -5    1    1    2    0  502  0.23656114085E+03  0.20867873378E+03  0.92044856672E+03  0.97301369018E+03  0.47000000000E+01 0. -1.
        -11    1    1    2    0    0 -0.49133662728E+02 -0.56904361360E+01  0.95034291770E+02  0.10713549593E+03  0.00000000000E+00 0.  1.
         11    1    1    2    0    0 -0.17142984222E+03 -0.21671394048E+03  0.54855722686E+03  0.61422158375E+03  0.00000000000E+00 0. -1.
<mgrwt>
<rscale>  0 0.33435185E+03</rscale>
<asrwt>0</asrwt>
<pdfrwt beam="1">  1        1 0.26200396E+00 0.33725187E+03</pdfrwt>
<pdfrwt beam="2">  1       -1 0.10268444E-01 0.33725187E+03</pdfrwt>
<totfact> 0.30535439E+02</totfact>
</mgrwt>
</event>
<event>
 6    1  0.5258538E-006  0.1251974E+03  0.7546771E-02  0.1249958E+00
         -3   -1    0    0    0  501 -0.00000000000E+00  0.00000000000E+00  0.30136380223E+03  0.30136380223E+03  0.00000000000E+00 0.  1.
          3   -1    0    0  501    0  0.00000000000E+00 -0.00000000000E+00 -0.39821995022E+02  0.39821995022E+02  0.00000000000E+00 0. -1.
          5    1    1    2  502    0  0.44924594069E+02 -0.33516992026E+01  0.20277146631E+01  0.45339328034E+02  0.47000000000E+01 0. -1.
         -5    1    1    2    0  502 -0.41447111175E+02 -0.15305701620E+02  0.12654628223E+03  0.13412001742E+03  0.47000000000E+01 0.  1.
        -11    1    1    2    0    0  0.12631791283E+02 -0.29683779716E+02  0.20414728491E+02  0.38176564390E+02  0.00000000000E+00 0. -1.
         11    1    1    2    0    0 -0.16109274177E+02  0.48341180538E+02  0.11255308182E+03  0.12354988741E+03  0.00000000000E+00 0.  1.
<mgrwt>
<rscale>  0 0.11593483E+03</rscale>
<asrwt>0</asrwt>
<pdfrwt beam="2">  1        3 0.61264610E-02 0.12519738E+03</pdfrwt>
<pdfrwt beam="1">  1       -3 0.46363660E-01 0.12519738E+03</pdfrwt>
<totfact> 0.17314964E+03</totfact>
</mgrwt>
</event>
<event>
 6    1  0.5258538E-006  0.1505114E+03  0.7546771E-02  0.1208878E+00
          2   -1    0    0  501    0  0.00000000000E+00  0.00000000000E+00  0.19762524125E+04  0.19762524125E+04  0.00000000000E+00 0. -1.
         -2   -1    0    0    0  501 -0.00000000000E+00 -0.00000000000E+00 -0.17240512594E+02  0.17240512594E+02  0.00000000000E+00 0.  1.
          5    1    1    2  502    0 -0.40003520768E+02  0.64726968075E+02  0.65832212568E+03  0.66272164083E+03  0.47000000000E+01 0. -1.
         -5    1    1    2    0  502 -0.43044951688E+02 -0.53186691065E+02  0.10387836696E+04  0.10410452892E+04  0.47000000000E+01 0. -1.
        -11    1    1    2    0    0  0.70159717900E+02 -0.14034721262E+02  0.26640705490E+03  0.27584792607E+03  0.00000000000E+00 0. -1.
         11    1    1    2    0    0  0.12888754556E+02  0.24944442514E+01 -0.45009502449E+01  0.13878069003E+02  0.00000000000E+00 0.  1.
<mgrwt>
<rscale>  0 0.14335987E+03</rscale>
<asrwt>0</asrwt>
<pdfrwt beam="1">  1        2 0.30403865E+00 0.15051137E+03</pdfrwt>
<pdfrwt beam="2">  1       -2 0.26523881E-02 0.15051137E+03</pdfrwt>
<totfact> 0.38838324E+03</totfact>
</mgrwt>
</event>
<event>
 6    1  0.5258538E-006  0.3213801E+03  0.7546771E-02  0.1083313E+00
         -1   -1    0    0    0  501 -0.00000000000E+00  0.00000000000E+00  0.45566397003E+02  0.45566397003E+02  0.00000000000E+00 0.  1.
          1   -1    0    0  501    0  0.00000000000E+00 -0.00000000000E+00 -0.20185251921E+04  0.20185251921E+04  0.00000000000E+00 0. -1.
          5    1    1    2  502    0  0.15466778830E+03 -0.20484207443E+02 -0.76910649236E+03  0.78478571221E+03  0.47000000000E+01 0. -1.
         -5    1    1    2    0  502  0.40820334171E+02  0.15770322691E+03 -0.62689921385E+03  0.64773553383E+03  0.47000000000E+01 0.  1.
        -11    1    1    2    0    0 -0.11746061848E+03 -0.13142837250E+03 -0.35765303662E+03  0.39873062160E+03  0.00000000000E+00 0.  1.
         11    1    1    2    0    0 -0.78027503991E+02 -0.57906469676E+01 -0.21930005226E+03  0.23283972147E+03  0.00000000000E+00 0. -1.
<mgrwt>
<rscale>  0 0.30388718E+03</rscale>
<asrwt>0</asrwt>
<pdfrwt beam="2">  1        1 0.31054231E+00 0.32138013E+03</pdfrwt>
<pdfrwt beam="1">  1       -1 0.70102154E-02 0.32138013E+03</pdfrwt>
<totfact> 0.34322133E+02</totfact>
</mgrwt>
</event>
<event>
 6    1  0.5258538E-006  0.5620485E+03  0.7546771E-02  0.1030713E+00
          2   -1    0    0  501    0  0.00000000000E+00  0.00000000000E+00  0.13861798294E+04  0.13861798294E+04  0.00000000000E+00 0. -1.
         -2   -1    0    0    0  501 -0.00000000000E+00 -0.00000000000E+00 -0.13786631960E+03  0.13786631960E+03  0.00000000000E+00 0.  1.
          5    1    1    2  502    0  0.50140752292E+02 -0.66419809190E+02  0.11758808990E+04  0.11788314828E+04  0.47000000000E+01 0. -1.
         -5    1    1    2    0  502  0.11682584658E+03 -0.27888708465E+02 -0.46347530352E+01  0.12028977273E+03  0.47000000000E+01 0.  1.
        -11    1    1    2    0    0 -0.10104439753E+03  0.65682569707E+01  0.43039013288E+02  0.11002485599E+03  0.00000000000E+00 0. -1.
         11    1    1    2    0    0 -0.65922201342E+02  0.87740260685E+02  0.34028350515E+02  0.11490003748E+03  0.00000000000E+00 0.  1.
<mgrwt>
<rscale>  0 0.44010899E+03</rscale>
<asrwt>0</asrwt>
<pdfrwt beam="1">  1        2 0.21325843E+00 0.56204849E+03</pdfrwt>
<pdfrwt beam="2">  1       -2 0.21210204E-01 0.56204849E+03</pdfrwt>
<totfact> 0.29084532E+02</totfact>
</mgrwt>
</event>
<event>
 6    1  0.5258538E-006  0.1736520E+03  0.7546771E-02  0.1177869E+00
          4   -1    0    0  501    0  0.00000000000E+00  0.00000000000E+00  0.17820010442E+03  0.17820010442E+03  0.00000000000E+00 0. -1.
         -4   -1    0    0    0  501 -0.00000000000E+00 -0.00000000000E+00 -0.15695177603E+03  0.15695177603E+03  0.00000000000E+00 0.  1.
          5    1    1    2  502    0  0.10414989647E+03  0.34864121829E+02  0.63530754654E+02  0.12696832169E+03  0.47000000000E+01 0. -1.
         -5    1    1    2    0  502  0.24106066928E+02 -0.19679885635E+02 -0.37135940083E+02  0.48678212859E+02  0.47000000000E+01 0.  1.
        -11    1    1    2    0    0 -0.13078665875E+03 -0.26192368120E+02 -0.25902062580E+02  0.13587533662E+03  0.00000000000E+00 0.  1.
         11    1    1    2    0    0  0.25306953480E+01  0.11008131926E+02  0.20755576392E+02  0.23630009285E+02  0.00000000000E+00 0. -1.
<mgrwt>
<rscale>  0 0.16997972E+03</rscale>
<asrwt>0</asrwt>
<pdfrwt beam="1">  1        4 0.27415401E-01 0.17365201E+03</pdfrwt>
<pdfrwt beam="2">  1       -4 0.24146427E-01 0.17365201E+03</pdfrwt>
<totfact> 0.35008401E+02</totfact>
</mgrwt>
</event>
<event>
 6    1  0.5258538E-006  0.1354026E+03  0.7546771E-02  0.1232446E+00
         -1   -1    0    0    0  501 -0.00000000000E+00  0.00000000000E+00  0.25861643583E+03  0.25861643583E+03  0.00000000000E+00 0.  1.
          1   -1    0    0  501    0  0.00000000000E+00 -0.00000000000E+00 -0.55493168622E+02  0.55493168622E+02  0.00000000000E+00 0. -1.
          5    1    1    2  502    0  0.26289383899E+01  0.26990697731E+02 -0.11828488856E+02  0.29956839447E+02  0.47000000000E+01 0.  1.
         -5    1    1    2    0  502 -0.64956105461E+01 -0.78891625863E+02  0.11771052784E+03  0.14192934845E+03  0.47000000000E+01 0.  1.
        -11    1    1    2    0    0 -0.63133231996E+01 -0.22927422933E+02  0.74993249167E+01  0.24935208970E+02  0.00000000000E+00 0. -1.
         11    1    1    2    0    0  0.10179995356E+02  0.74828351066E+02  0.89741903307E+02  0.11728820758E+03  0.00000000000E+00 0.  1.
<mgrwt>
<rscale>  0 0.12669382E+03</rscale>
<asrwt>0</asrwt>
<pdfrwt beam="2">  1        1 0.85374107E-02 0.13540257E+03</pdfrwt>
<pdfrwt beam="1">  1       -1 0.39787143E-01 0.13540257E+03</pdfrwt>
<totfact> 0.47346258E+03</totfact>
</mgrwt>
</event>
<event>
 6    1  0.5258538E-006  0.1518337E+03  0.7546771E-02  0.1207087E+00
          2   -1    0    0  501    0  0.00000000000E+00  0.00000000000E+00  0.63814663009E+03  0.63814663009E+03  0.00000000000E+00 0. -1.
         -2   -1    0    0    0  501 -0.00000000000E+00 -0.00000000000E+00 -0.30254857567E+02  0.30254857567E+02  0.00000000000E+00 0.  1.
          5    1    1    2  502    0 -0.25473120552E+02 -0.75578669290E+02  0.31496516606E+03  0.32494024213E+03  0.47000000000E+01 0. -1.
         -5    1    1    2    0  502 -0.41278673572E+02  0.21046533644E+02  0.40976817253E+02  0.62032854379E+02  0.47000000000E+01 0. -1.
        -11    1    1    2    0    0  0.79366056142E+02  0.58166705212E+02  0.24932689563E+03  0.26804148438E+03  0.00000000000E+00 0. -1.
         11    1    1    2    0    0 -0.12614262019E+02 -0.36345695663E+01  0.26228935801E+01  0.13386906773E+02  0.00000000000E+00 0.  1.
<mgrwt>
<rscale>  0 0.14474180E+03</rscale>
<asrwt>0</asrwt>
<pdfrwt beam="1">  1        2 0.98176394E-01 0.15183373E+03</pdfrwt>
<pdfrwt beam="2">  1       -2 0.46545940E-02 0.15183373E+03</pdfrwt>
<totfact> 0.98665625E+03</totfact>
</mgrwt>
</event>
<event>
 6    1  0.5258538E-006  0.1252338E+03  0.7546771E-02  0.1250358E+00
         -2   -1    0    0    0  501 -0.00000000000E+00  0.00000000000E+00  0.11895038254E+02  0.11895038254E+02  0.00000000000E+00 0.  1.
          2   -1    0    0  501    0  0.00000000000E+00 -0.00000000000E+00 -0.11985922524E+04  0.11985922524E+04  0.00000000000E+00 0. -1.
          5    1    1    2  502    0 -0.38730429113E+02 -0.52870265166E+02 -0.49475569121E+03  0.49909978468E+03  0.47000000000E+01 0. -1.
         -5    1    1    2    0  502  0.38236191710E+02  0.45338429704E+02 -0.42806304986E+03  0.43217779237E+03  0.47000000000E+01 0. -1.
        -11    1    1    2    0    0  0.39084352880E+02  0.12921245158E+02 -0.67967379399E+02  0.79461373502E+02  0.00000000000E+00 0. -1.
         11    1    1    2    0    0 -0.38590115477E+02 -0.53894096956E+01 -0.19591109372E+03  0.19974834015E+03  0.00000000000E+00 0.  1.
<mgrwt>
<rscale>  0 0.11570365E+03</rscale>
<asrwt>0</asrwt>
<pdfrwt beam="2">  1        2 0.18439891E+00 0.12523377E+03</pdfrwt>
<pdfrwt beam="1">  1       -2 0.18300049E-02 0.12523377E+03</pdfrwt>
<totfact> 0.16859669E+04</totfact>
</mgrwt>
</event>
<event>
 6    1  0.5258538E-006  0.1276539E+03  0.7546771E-02  0.1245519E+00
          3   -1    0    0  501    0  0.00000000000E+00  0.00000000000E+00  0.68056859349E+02  0.68056859349E+02  0.00000000000E+00 0. -1.
         -3   -1    0    0    0  501 -0.00000000000E+00 -0.00000000000E+00 -0.28180268205E+03  0.28180268205E+03  0.00000000000E+00 0.  1.
          5    1    1    2  502    0  0.45254037168E+02 -0.60063399243E+02 -0.41448650352E+01  0.75463963021E+02  0.47000000000E+01 0. -1.
         -5    1    1    2    0  502 -0.23376716613E+02  0.46275500127E+02 -0.94989289725E+01  0.52917033583E+02  0.47000000000E+01 0. -1.
        -11    1    1    2    0    0 -0.57234094526E+02  0.12941384531E+02 -0.13901744063E+03  0.15089423385E+03  0.00000000000E+00 0.  1.
         11    1    1    2    0    0  0.35356773971E+02  0.84651458500E+00 -0.61084588054E+02  0.70584310936E+02  0.00000000000E+00 0. -1.
<mgrwt>
<rscale>  0 0.11854353E+03</rscale>
<asrwt>0</asrwt>
<pdfrwt beam="1">  1        3 0.10470286E-01 0.12765394E+03</pdfrwt>
<pdfrwt beam="2">  1       -3 0.43354259E-01 0.12765394E+03</pdfrwt>
<totfact> 0.82932440E+02</totfact>
</mgrwt>
</event>
<event>
 6    1  0.5258538E-006  0.1257978E+03  0.7546771E-02  0.1249763E+00
         -2   -1    0    0    0  501 -0.00000000000E+00  0.00000000000E+00  0.27805077746E+02  0.27805077746E+02  0.00000000000E+00 0.  1.
          2   -1    0    0  501    0  0.00000000000E+00 -0.00000000000E+00 -0.50828193006E+03  0.50828193006E+03  0.00000000000E+00 0. -1.
          5    1    1    2  502    0 -0.35194415222E+02 -0.20516944703E+02 -0.30595765973E+03  0.30869365305E+03  0.47000000000E+01 0. -1.
         -5    1    1    2    0  502  0.43268475944E+02  0.32147902276E+02 -0.74885846673E+02  0.92388466073E+02  0.47000000000E+01 0. -1.
        -11    1    1    2    0    0  0.39015408161E+02 -0.11230356573E+01 -0.25739646148E+02  0.46754600489E+02  0.00000000000E+00 0. -1.
         11    1    1    2    0    0 -0.47089468883E+02 -0.10507921916E+02 -0.73893699764E+02  0.88250288201E+02  0.00000000000E+00 0.  1.
<mgrwt>
<rscale>  0 0.11604767E+03</rscale>
<asrwt>0</asrwt>
<pdfrwt beam="2">  1        2 0.78197225E-01 0.12579781E+03</pdfrwt>
<pdfrwt beam="1">  1       -2 0.42777040E-02 0.12579781E+03</pdfrwt>
<totfact> 0.14272665E+04</totfact>
</mgrwt>
</event>
<event>
 6    1  0.5258538E-006  0.1265082E+03  0.7546771E-02  0.1247403E+00
         -4   -1    0    0    0  501 -0.00000000000E+00  0.00000000000E+00  0.59338476453E+03  0.59338476453E+03  0.00000000000E+00 0. -1.
          4   -1    0    0  501    0  0.00000000000E+00 -0.00000000000E+00 -0.21083260621E+02  0.21083260621E+02  0.00000000000E+00 0.  1.
          5    1    1    2  502    0 -0.50029042712E+02  0.34203650440E+02  0.12282013254E+03  0.13703893525E+03  0.47000000000E+01 0.  1.
         -5    1    1    2    0  502  0.62409714158E+02 -0.19174958049E+02  0.15254886944E+03  0.16599969580E+03  0.47000000000E+01 0.  1.
        -11    1    1    2    0    0 -0.16210593367E+02  0.33416739842E+02  0.68868736934E+02  0.78245541508E+02  0.00000000000E+00 0.  1.
         11    1    1    2    0    0  0.38299219200E+01 -0.48445432233E+02  0.22806376499E+03  0.23318385259E+03  0.00000000000E+00 0. -1.
<mgrwt>
<rscale>  0 0.11742718E+03</rscale>
<asrwt>0</asrwt>
<pdfrwt beam="2">  1        4 0.32435790E-02 0.12650820E+03</pdfrwt>
<pdfrwt beam="1">  1       -4 0.91289951E-01 0.12650820E+03</pdfrwt>
<totfact> 0.82196267E+02</totfact>
</mgrwt>
</event>
<event>
 6    1  0.5258538E-006  0.2767271E+03  0.7546771E-02  0.1097490E+00
         -1   -1    0    0    0  501 -0.00000000000E+00  0.00000000000E+00  0.25337660775E+03  0.25337660775E+03  0.00000000000E+00 0.  1.
          1   -1    0    0  501    0  0.00000000000E+00 -0.00000000000E+00 -0.75557402813E+02  0.75557402813E+02  0.00000000000E+00 0. -1.
          5    1    1    2  502    0  0.11109275344E+03 -0.81637065526E+01  0.39360849427E+02  0.11823541110E+03  0.47000000000E+01 0. -1.
         -5    1    1    2    0  502 -0.34573601370E+02 -0.91152007670E+01  0.11967545665E+02  0.37996485969E+02  0.47000000000E+01 0. -1.
        -11    1    1    2    0    0 -0.21831884508E+02  0.35094942351E+02  0.10224776537E+03  0.11028550078E+03  0.00000000000E+00 0.  1.
         11    1    1    2    0    0 -0.54687267558E+02 -0.17816035031E+02  0.24243044478E+02  0.62416612714E+02  0.00000000000E+00 0. -1.
<mgrwt>
<rscale>  0 0.27672715E+03</rscale>
<asrwt>0</asrwt>
<pdfrwt beam="2">  1        1 0.11624216E-01 0.27672715E+03</pdfrwt>
<pdfrwt beam="1">  1       -1 0.38981016E-01 0.27672715E+03</pdfrwt>
<totfact> 0.33708865E+03</totfact>
</mgrwt>
</event>
<event>
 6    1  0.5258538E-006  0.1714514E+03  0.7546771E-02  0.1182874E+00
         -1   -1    0    0    0  501 -0.00000000000E+00  0.00000000000E+00  0.51946626950E+02  0.51946626950E+02  0.00000000000E+00 0.  1.
          1   -1    0    0  501    0  0.00000000000E+00 -0.00000000000E+00 -0.51506449689E+03  0.51506449689E+03  0.00000000000E+00 0. -1.
          5    1    1    2  502    0  0.48408507259E+02  0.88288967735E+02 -0.30643367264E+03  0.32258643978E+03  0.47000000000E+01 0.  1.
         -5    1    1    2    0  502  0.30001099736E+02 -0.97407208650E+00 -0.21876337817E+01  0.30461295825E+02  0.47000000000E+01 0.  1.
        -11    1    1    2    0    0 -0.10003152413E+02 -0.10606122899E+02  0.11605226808E+02  0.18634220950E+02  0.00000000000E+00 0.  1.
         11    1    1    2    0    0 -0.68406454581E+02 -0.76708772749E+02 -0.16610179032E+03  0.19532916729E+03  0.00000000000E+00 0. -1.
<mgrwt>
<rscale>  0 0.16526807E+03</rscale>
<asrwt>0</asrwt>
<pdfrwt beam="2">  1        1 0.79240689E-01 0.17145143E+03</pdfrwt>
<pdfrwt beam="1">  1       -1 0.79917890E-02 0.17145143E+03</pdfrwt>
<totfact> 0.36667392E+03</totfact>
</mgrwt>
</event>
<event>
 6    1  0.5258538E-006  0.1300377E+03  0.7546771E-02  0.1241535E+00
         -2   -1    0    0    0  501 -0.00000000000E+00  0.00000000000E+00  0.39839231268E+03  0.39839231268E+03  0.00000000000E+00 0.  1.
          2   -1    0    0  501    0  0.00000000000E+00 -0.00000000000E+00 -0.40687449582E+02  0.40687449582E+02  0.00000000000E+00 0. -1.
          5    1    1    2  502    0  0.30253223739E+02  0.28656633378E+02 -0.28321854749E+01  0.42030601444E+02  0.47000000000E+01 0. -1.
         -5    1    1    2    0  502 -0.63243623964E+02 -0.14619434425E+02  0.10417610457E+03  0.12283417521E+03  0.47000000000E+01 0. -1.
        -11    1    1    2    0    0 -0.29455738851E+02 -0.17619424489E+02  0.10388185895E+03  0.10940532569E+03  0.00000000000E+00 0. -1.
         11    1    1    2    0    0  0.62446139076E+02  0.35822255354E+01  0.15247908505E+03  0.16480965992E+03  0.00000000000E+00 0.  1.
<mgrwt>
<rscale>  0 0.12095184E+03</rscale>
<asrwt>0</asrwt>
<pdfrwt beam="2">  1        2 0.62596079E-02 0.13003770E+03</pdfrwt>
<pdfrwt beam="1">  1       -2 0.61291122E-01 0.13003770E+03</pdfrwt>
<totfact> 0.28233410E+03</totfact>
</mgrwt>
</event>
<event>
 6    1  0.5258538E-006  0.1817145E+03  0.7546771E-02  0.1171955E+00
          2   -1    0    0  501    0  0.00000000000E+00  0.00000000000E+00  0.70722245730E+02  0.70722245730E+02  0.00000000000E+00 0. -1.
         -2   -1    0    0    0  501 -0.00000000000E+00 -0.00000000000E+00 -0.42847590727E+03  0.42847590727E+03  0.00000000000E+00 0.  1.
          5    1    1    2  502    0  0.41691355473E+01 -0.54668480472E+02 -0.13348189516E+03  0.14437981432E+03  0.47000000000E+01 0. -1.
         -5    1    1    2    0  502 -0.46701244106E+02 -0.70175453846E+02 -0.58948238165E+01  0.84631196797E+02  0.47000000000E+01 0. -1.
        -11    1    1    2    0    0 -0.16167154223E+01  0.11058958025E+03 -0.13263118295E+03  0.17269539577E+03  0.00000000000E+00 0. -1.
         11    1    1    2    0    0  0.44148823981E+02  0.14254354069E+02 -0.85745759615E+02  0.97491746116E+02  0.00000000000E+00 0.  1.
<mgrwt>
<rscale>  0 0.17577591E+03</rscale>
<asrwt>0</asrwt>
<pdfrwt beam="1">  1        2 0.10880346E-01 0.18171454E+03</pdfrwt>
<pdfrwt beam="2">  1       -2 0.65919369E-01 0.18171454E+03</pdfrwt>
<totfact> 0.12327342E+03</totfact>
</mgrwt>
</event>
<event>
 6    1  0.5258538E-006  0.2615587E+03  0.7546771E-02  0.1106210E+00
         -2   -1    0    0    0  501 -0.00000000000E+00  0.00000000000E+00  0.10536371407E+02  0.10536371407E+02  0.00000000000E+00 0.  1.
          2   -1    0    0  501    0  0.00000000000E+00 -0.00000000000E+00 -0.16232574263E+04  0.16232574263E+04  0.00000000000E+00 0. -1.
          5    1    1    2  502    0 -0.27868100665E+02  0.26075186849E+01 -0.56874898631E+02  0.63563151925E+02  0.47000000000E+01 0. -1.
         -5    1    1    2    0  502  0.18854438330E+02 -0.60934951099E+02 -0.10439662995E+04  0.10459236505E+04  0.47000000000E+01 0. -1.
        -11    1    1    2    0    0  0.52917297523E+02  0.36086336928E+02 -0.27353728896E+03  0.28093613605E+03  0.00000000000E+00 0.  1.
         11    1    1    2    0    0 -0.43903635187E+02  0.22241095487E+02 -0.23834256780E+03  0.24337085926E+03  0.00000000000E+00 0. -1.
<mgrwt>
<rscale>  0 0.26155874E+03</rscale>
<asrwt>0</asrwt>
<pdfrwt beam="2">  1        2 0.24973199E+00 0.26155874E+03</pdfrwt>
<pdfrwt beam="1">  1       -2 0.16209797E-02 0.26155874E+03</pdfrwt>
<totfact> 0.12333506E+04</totfact>
</mgrwt>
</event>
<event>
 6    1  0.5258538E-006  0.2757686E+03  0.7546771E-02  0.1099929E+00
          2   -1    0    0  501    0  0.00000000000E+00  0.00000000000E+00  0.34082494162E+03  0.34082494162E+03  0.00000000000E+00 0. -1.
         -2   -1    0    0    0  501 -0.00000000000E+00 -0.00000000000E+00 -0.48653457604E+03  0.48653457604E+03  0.00000000000E+00 0.  1.
          5    1    1    2  502    0 -0.79538770381E+02  0.18540774457E+02  0.32713858434E+02  0.88104840076E+02  0.47000000000E+01 0. -1.
         -5    1    1    2    0  502 -0.84947679379E+02  0.16415286467E+03  0.20407907373E+03  0.27537724951E+03  0.47000000000E+01 0.  1.
        -11    1    1    2    0    0  0.55565150683E+02 -0.63998248797E+02 -0.21677228776E+03  0.23275198509E+03  0.00000000000E+00 0.  1.
         11    1    1    2    0    0  0.10892129908E+03 -0.11869539033E+03 -0.16573027882E+03  0.23112544299E+03  0.00000000000E+00 0. -1.
<mgrwt>
<rscale>  0 0.27237397E+03</rscale>
<asrwt>0</asrwt>
<pdfrwt beam="1">  1        2 0.52434607E-01 0.27576863E+03</pdfrwt>
<pdfrwt beam="2">  1       -2 0.74851473E-01 0.27576863E+03</pdfrwt>
<totfact> 0.15816815E+02</totfact>
</mgrwt>
</event>
<event>
 6    1  0.5258538E-006  0.1523396E+03  0.7546771E-02  0.1201947E+00
          2   -1    0    0  501    0  0.00000000000E+00  0.00000000000E+00  0.29519815611E+03  0.29519815611E+03  0.00000000000E+00 0. -1.
         -2   -1    0    0    0  501 -0.00000000000E+00 -0.00000000000E+00 -0.72265934646E+02  0.72265934646E+02  0.00000000000E+00 0.  1.
          5    1    1    2  502    0 -0.85840315965E+02  0.54502578496E+02  0.47609310373E+02  0.11237360607E+03  0.47000000000E+01 0.  1.
         -5    1    1    2    0  502  0.26528531678E+02  0.92512037943E+01  0.84835224731E+02  0.89489961001E+02  0.47000000000E+01 0.  1.
        -11    1    1    2    0    0  0.76650631636E+02 -0.73584582231E+02  0.97758422231E+02  0.14438392982E+03  0.00000000000E+00 0. -1.
         11    1    1    2    0    0 -0.17338847349E+02  0.98307999415E+01 -0.72707358751E+01  0.21216593860E+02  0.00000000000E+00 0.  1.
<mgrwt>
<rscale>  0 0.14880671E+03</rscale>
<asrwt>0</asrwt>
<pdfrwt beam="1">  1        2 0.45415100E-01 0.15233957E+03</pdfrwt>
<pdfrwt beam="2">  1       -2 0.11117836E-01 0.15233957E+03</pdfrwt>
<totfact> 0.59909395E+03</totfact>
</mgrwt>
</event>
<event>
 6    1  0.5258538E-006  0.1390711E+03  0.7546771E-02  0.1225908E+00
         -1   -1    0    0    0  501 -0.00000000000E+00  0.00000000000E+00  0.54236464132E+03  0.54236464132E+03  0.00000000000E+00 0.  1.
          1   -1    0    0  501    0  0.00000000000E+00 -0.00000000000E+00 -0.28993438284E+02  0.28993438284E+02  0.00000000000E+00 0. -1.
          5    1    1    2  502    0  0.34483343428E+00  0.99496551400E+02  0.17171678438E+03  0.19851555780E+03  0.47000000000E+01 0.  1.
         -5    1    1    2    0  502 -0.44486354438E+01 -0.38686577208E+02  0.78404506739E+02  0.87668684776E+02  0.47000000000E+01 0.  1.
        -11    1    1    2    0    0  0.83585045043E+01  0.17265532741E+02  0.13464773212E+02  0.23436367808E+02  0.00000000000E+00 0. -1.
         11    1    1    2    0    0 -0.42547024948E+01 -0.78075506933E+02  0.24978513870E+03  0.26173746922E+03  0.00000000000E+00 0.  1.
<mgrwt>
<rscale>  0 0.13104845E+03</rscale>
<asrwt>0</asrwt>
<pdfrwt beam="2">  1        1 0.44605294E-02 0.13907106E+03</pdfrwt>
<pdfrwt beam="1">  1       -1 0.83440707E-01 0.13907106E+03</pdfrwt>
<totfact> 0.28166629E+03</totfact>
</mgrwt>
</event>
<event>
 6    1  0.5258538E-006  0.1476310E+03  0.7546771E-02  0.1213011E+00
          3   -1    0    0  501    0  0.00000000000E+00  0.00000000000E+00  0.74964156341E+03  0.74964156341E+03  0.00000000000E+00 0. -1.
         -3   -1    0    0    0  501 -0.00000000000E+00 -0.00000000000E+00 -0.25107671348E+02  0.25107671348E+02  0.00000000000E+00 0.  1.
          5    1    1    2  502    0  0.44465408525E+02  0.20601134397E+02  0.52436195757E+02  0.71925127175E+02  0.47000000000E+01 0.  1.
         -5    1    1    2    0  502 -0.48784289577E+01  0.47195295774E+02  0.42890773782E+03  0.43154968726E+03  0.47000000000E+01 0.  1.
        -11    1    1    2    0    0 -0.37577548107E+02  0.11369386763E+02  0.10354342880E+03  0.11073651938E+03  0.00000000000E+00 0.  1.
         11    1    1    2    0    0 -0.20094314604E+01 -0.79165816934E+02  0.13964652969E+03  0.16053790095E+03  0.00000000000E+00 0. -1.
<mgrwt>
<rscale>  0 0.14023642E+03</rscale>
<asrwt>0</asrwt>
<pdfrwt beam="1">  1        3 0.11532945E+00 0.14763098E+03</pdfrwt>
<pdfrwt beam="2">  1       -3 0.38627192E-02 0.14763098E+03</pdfrwt>
<totfact> 0.52476135E+02</totfact>
</mgrwt>
</event>
<event>
 6    1  0.5258538E-006  0.1395591E+03  0.7546771E-02  0.1224590E+00
          1   -1    0    0  501    0  0.00000000000E+00  0.00000000000E+00  0.12331956241E+04  0.12331956241E+04  0.00000000000E+00 0. -1.
         -1   -1    0    0    0  501 -0.00000000000E+00 -0.00000000000E+00 -0.12935704224E+02  0.12935704224E+02  0.00000000000E+00 0.  1.
          5    1    1    2  502    0  0.48820437345E+02 -0.70444778539E+02  0.29325664196E+03  0.30556087770E+03  0.47000000000E+01 0. -1.
         -5    1    1    2    0  502 -0.78368123729E+01  0.22450683633E+02  0.45205395863E+03  0.45270334695E+03  0.47000000000E+01 0. -1.
        -11    1    1    2    0    0 -0.44917339998E+02  0.73236930614E+02  0.37277538316E+03  0.38254764635E+03  0.00000000000E+00 0.  1.
         11    1    1    2    0    0  0.39337150262E+01 -0.25242835708E+02  0.10217393611E+03  0.10531945732E+03  0.00000000000E+00 0. -1.
<mgrwt>
<rscale>  0 0.13195020E+03</rscale>
<asrwt>0</asrwt>
<pdfrwt beam="1">  1        1 0.18972231E+00 0.13955910E+03</pdfrwt>
<pdfrwt beam="2">  1       -1 0.19901093E-02 0.13955910E+03</pdfrwt>
<totfact> 0.73081798E+03</totfact>
</mgrwt>
</event>
<event>
 6    1  0.5258538E-006  0.1299122E+03  0.7546771E-02  0.1253219E+00
          2   -1    0    0  501    0  0.00000000000E+00  0.00000000000E+00  0.15362373857E+03  0.15362373857E+03  0.00000000000E+00 0. -1.
         -2   -1    0    0    0  501 -0.00000000000E+00 -0.00000000000E+00 -0.18246475033E+03  0.18246475033E+03  0.00000000000E+00 0.  1.
          5    1    1    2  502    0 -0.39224112766E+01  0.12353465236E+02  0.12456342640E+03  0.12532410228E+03  0.47000000000E+01 0.  1.
         -5    1    1    2    0  502  0.32138894083E+02 -0.33742399853E+02 -0.99949387804E+01  0.47889945312E+02  0.47000000000E+01 0.  1.
        -11    1    1    2    0    0  0.58940446832E+01  0.27858265375E+02 -0.11359982135E+03  0.11711422682E+03  0.00000000000E+00 0.  1.
         11    1    1    2    0    0 -0.34110527489E+02 -0.64693307576E+01 -0.29809678035E+02  0.45760214495E+02  0.00000000000E+00 0. -1.
<mgrwt>
<rscale>  0 0.11406687E+03</rscale>
<asrwt>0</asrwt>
<pdfrwt beam="1">  1        2 0.23634421E-01 0.12991215E+03</pdfrwt>
<pdfrwt beam="2">  1       -2 0.28071500E-01 0.12991215E+03</pdfrwt>
<totfact> 0.25551242E+03</totfact>
</mgrwt>
</event>
<event>
 6    1  0.5258538E-006  0.1384456E+03  0.7546771E-02  0.1226332E+00
         -3   -1    0    0    0  501 -0.00000000000E+00  0.00000000000E+00  0.28720625752E+02  0.28720625752E+02  0.00000000000E+00 0.  1.
          3   -1    0    0  501    0  0.00000000000E+00 -0.00000000000E+00 -0.66836444510E+03  0.66836444510E+03  0.00000000000E+00 0. -1.
          5    1    1    2  502    0  0.99963788698E+01 -0.39707089945E+02 -0.13349309819E+03  0.13971069339E+03  0.47000000000E+01 0.  1.
         -5    1    1    2    0  502  0.79726224763E+01  0.96439549232E+02 -0.36871993140E+03  0.38123565833E+03  0.47000000000E+01 0.  1.
        -11    1    1    2    0    0 -0.32737997317E+02 -0.75476124653E+02 -0.12384018984E+03  0.14867687945E+03  0.00000000000E+00 0.  1.
         11    1    1    2    0    0  0.14768995971E+02  0.18743665366E+02 -0.13590599906E+02  0.27461839690E+02  0.00000000000E+00 0. -1.
<mgrwt>
<rscale>  0 0.13076033E+03</rscale>
<asrwt>0</asrwt>
<pdfrwt beam="2">  1        3 0.10282531E+00 0.13844556E+03</pdfrwt>
<pdfrwt beam="1">  1       -3 0.44185575E-02 0.13844556E+03</pdfrwt>
<totfact> 0.54893259E+02</totfact>
</mgrwt>
</event>
<event>
 6    1  0.5258538E-006  0.1533481E+03  0.7546771E-02  0.1205386E+00
         -1   -1    0    0    0  501 -0.00000000000E+00  0.00000000000E+00  0.18652674045E+02  0.18652674045E+02  0.00000000000E+00 0. -1.
          1   -1    0    0  501    0  0.00000000000E+00 -0.00000000000E+00 -0.10490298187E+04  0.10490298187E+04  0.00000000000E+00 0.  1.
          5    1    1    2  502    0  0.21622551874E+02  0.10945399741E+03 -0.36630517507E+03  0.38294814738E+03  0.47000000000E+01 0. -1.
         -5    1    1    2    0  502 -0.30349634944E+02 -0.21048362488E+02 -0.21735841389E+03  0.22052415739E+03  0.47000000000E+01 0. -1.
        -11    1    1    2    0    0  0.11578623565E+02  0.16746848826E+02 -0.56083110204E+02  0.59664367250E+02  0.00000000000E+00 0. -1.
         11    1    1    2    0    0 -0.28515404951E+01 -0.10515248374E+03 -0.39063044551E+03  0.40454582074E+03  0.00000000000E+00 0.  1.
<mgrwt>
<rscale>  0 0.14607078E+03</rscale>
<asrwt>0</asrwt>
<pdfrwt beam="2">  1        1 0.16138925E+00 0.15334809E+03</pdfrwt>
<pdfrwt beam="1">  1       -1 0.28696414E-02 0.15334809E+03</pdfrwt>
<totfact> 0.58007801E+03</totfact>
</mgrwt>
</event>
<event>
 6    1  0.5258538E-006  0.1703642E+03  0.7546771E-02  0.1184240E+00
          1   -1    0    0  501    0  0.00000000000E+00  0.00000000000E+00  0.81709187900E+03  0.81709187900E+03  0.00000000000E+00 0. -1.
         -1   -1    0    0    0  501 -0.00000000000E+00 -0.00000000000E+00 -0.31144212577E+02  0.31144212577E+02  0.00000000000E+00 0.  1.
          5    1    1    2  502    0 -0.19109123875E+02  0.11615168208E+02  0.19689550565E+02  0.30163540064E+02  0.47000000000E+01 0.  1.
         -5    1    1    2    0  502  0.54481834036E+02 -0.12184007555E+03  0.45376546880E+03  0.47301000510E+03  0.47000000000E+01 0.  1.
        -11    1    1    2    0    0 -0.16572448853E+02  0.11685795613E+03  0.29768366516E+03  0.32022803199E+03  0.00000000000E+00 0.  1.
         11    1    1    2    0    0 -0.18800261308E+02 -0.66330487859E+01  0.14808981898E+02  0.24834514416E+02  0.00000000000E+00 0. -1.
<mgrwt>
<rscale>  0 0.16401265E+03</rscale>
<asrwt>0</asrwt>
<pdfrwt beam="1">  1        1 0.12570643E+00 0.17036420E+03</pdfrwt>
<pdfrwt beam="2">  1       -1 0.47914179E-02 0.17036420E+03</pdfrwt>
<totfact> 0.41156930E+03</totfact>
</mgrwt>
</event>
<event>
 6    1  0.5258538E-006  0.1254288E+03  0.7546771E-02  0.1249464E+00
         -1   -1    0    0    0  501 -0.00000000000E+00  0.00000000000E+00  0.33386446710E+03  0.33386446710E+03  0.00000000000E+00 0.  1.
          1   -1    0    0  501    0  0.00000000000E+00 -0.00000000000E+00 -0.36419628533E+02  0.36419628533E+02  0.00000000000E+00 0. -1.
          5    1    1    2  502    0  0.50566084586E+02 -0.34919282584E+02  0.49890304555E+02  0.79293238647E+02  0.47000000000E+01 0. -1.
         -5    1    1    2    0  502 -0.54599098087E+02  0.25346333937E+02  0.92510947861E+02  0.11047109862E+03  0.47000000000E+01 0. -1.
        -11    1    1    2    0    0 -0.38180481639E+02  0.20645118678E+01  0.11737926788E+03  0.12345000573E+03  0.00000000000E+00 0.  1.
         11    1    1    2    0    0  0.42213495140E+02  0.75084367795E+01  0.37664318267E+02  0.57069752631E+02  0.00000000000E+00 0. -1.
<mgrwt>
<rscale>  0 0.11622152E+03</rscale>
<asrwt>0</asrwt>
<pdfrwt beam="2">  1        1 0.56030200E-02 0.12542881E+03</pdfrwt>
<pdfrwt beam="1">  1       -1 0.51363762E-01 0.12542881E+03</pdfrwt>
<totfact> 0.52606481E+03</totfact>
</mgrwt>
</event>
<event>
 6    1  0.5258538E-006  0.1487647E+03  0.7546771E-02  0.1209002E+00
          2   -1    0    0  501    0  0.00000000000E+00  0.00000000000E+00  0.66095705858E+03  0.66095705858E+03  0.00000000000E+00 0.  1.
         -2   -1    0    0    0  501 -0.00000000000E+00 -0.00000000000E+00 -0.33107755490E+02  0.33107755490E+02  0.00000000000E+00 0. -1.
          5    1    1    2  502    0 -0.64634931995E+02 -0.86643471568E+01  0.39534552499E+03  0.40071550940E+03  0.47000000000E+01 0. -1.
         -5    1    1    2    0  502 -0.43857508331E+01  0.50407704010E+02  0.61703774147E+02  0.79935081022E+02  0.47000000000E+01 0. -1.
        -11    1    1    2    0    0 -0.15413321915E+02 -0.60102180300E+01 -0.30941754463E+01  0.16830541730E+02  0.00000000000E+00 0. -1.
         11    1    1    2    0    0  0.84434004743E+02 -0.35733138824E+02  0.17389417940E+03  0.19658368192E+03  0.00000000000E+00 0.  1.
<mgrwt>
<rscale>  0 0.14326525E+03</rscale>
<asrwt>0</asrwt>
<pdfrwt beam="1">  1        2 0.10168569E+00 0.14876467E+03</pdfrwt>
<pdfrwt beam="2">  1       -2 0.50935013E-02 0.14876467E+03</pdfrwt>
<totfact> 0.82605899E+03</totfact>
</mgrwt>
</event>
<event>
 6    1  0.5258538E-006  0.1329258E+03  0.7546771E-02  0.1237078E+00
         -2   -1    0    0    0  501 -0.00000000000E+00  0.00000000000E+00  0.10694882940E+02  0.10694882940E+02  0.00000000000E+00 0.  1.
          2   -1    0    0  501    0  0.00000000000E+00 -0.00000000000E+00 -0.13586694506E+04  0.13586694506E+04  0.00000000000E+00 0. -1.
          5    1    1    2  502    0  0.20988244368E+02  0.57750374244E+02 -0.29500328117E+03  0.30137126278E+03  0.47000000000E+01 0.  1.
         -5    1    1    2    0  502 -0.55144254967E+02 -0.28093830677E+02 -0.64588681493E+03  0.64886209619E+03  0.47000000000E+01 0.  1.
        -11    1    1    2    0    0  0.61289426621E+02 -0.24607201568E+01 -0.24751132794E+03  0.25499864003E+03  0.00000000000E+00 0.  1.
         11    1    1    2    0    0 -0.27133416021E+02 -0.27195823410E+02 -0.15957314363E+03  0.16413233454E+03  0.00000000000E+00 0. -1.
<mgrwt>
<rscale>  0 0.12372322E+03</rscale>
<asrwt>0</asrwt>
<pdfrwt beam="2">  1        2 0.20902617E+00 0.13292578E+03</pdfrwt>
<pdfrwt beam="1">  1       -2 0.16453658E-02 0.13292578E+03</pdfrwt>
<totfact> 0.16165712E+04</totfact>
</mgrwt>
</event>
<event>
 6    1  0.5258538E-006  0.2949971E+03  0.7546771E-02  0.1089438E+00
         -1   -1    0    0    0  501 -0.00000000000E+00  0.00000000000E+00  0.99895814875E+02  0.99895814875E+02  0.00000000000E+00 0.  1.
          1   -1    0    0  501    0  0.00000000000E+00 -0.00000000000E+00 -0.16859335813E+04  0.16859335813E+04  0.00000000000E+00 0. -1.
          5    1    1    2  502    0 -0.22104901761E+03 -0.12640459153E+03 -0.12461835618E+04  0.12719419596E+04  0.47000000000E+01 0.  1.
         -5    1    1    2    0  502  0.10820647748E+02 -0.38528178665E+02 -0.19023332174E+03  0.19445388571E+03  0.47000000000E+01 0.  1.
        -11    1    1    2    0    0  0.40401826900E+02  0.85751621473E+02 -0.47305704385E+02  0.10594091688E+03  0.00000000000E+00 0.  1.
         11    1    1    2    0    0  0.16982654296E+03  0.79181148717E+02 -0.10231517852E+03  0.21349263398E+03  0.00000000000E+00 0. -1.
<mgrwt>
<rscale>  0 0.29175111E+03</rscale>
<asrwt>0</asrwt>
<pdfrwt beam="2">  1        1 0.25937438E+00 0.29499714E+03</pdfrwt>
<pdfrwt beam="1">  1       -1 0.15368588E-01 0.29499714E+03</pdfrwt>
<totfact> 0.16698135E+02</totfact>
</mgrwt>
</event>
<event>
 6    1  0.5258538E-006  0.1441435E+03  0.7546771E-02  0.1218668E+00
          2   -1    0    0  501    0  0.00000000000E+00  0.00000000000E+00  0.21563728541E+03  0.21563728541E+03  0.00000000000E+00 0. -1.
         -2   -1    0    0    0  501 -0.00000000000E+00 -0.00000000000E+00 -0.77924755533E+02  0.77924755533E+02  0.00000000000E+00 0.  1.
          5    1    1    2  502    0 -0.67477301877E+02 -0.28794062292E+02  0.31859874969E+02  0.80121320040E+02  0.47000000000E+01 0. -1.
         -5    1    1    2    0  502  0.76308227218E+01  0.68442416564E+02  0.54158681791E+02  0.87737373188E+02  0.47000000000E+01 0. -1.
        -11    1    1    2    0    0  0.56203054396E+02  0.14682740817E+02  0.14852187232E+02  0.59957932477E+02  0.00000000000E+00 0. -1.
         11    1    1    2    0    0  0.36434247589E+01 -0.54331095089E+02  0.36841785881E+02  0.65745415235E+02  0.00000000000E+00 0.  1.
<mgrwt>
<rscale>  0 0.13610545E+03</rscale>
<asrwt>0</asrwt>
<pdfrwt beam="1">  1        2 0.33174967E-01 0.14414350E+03</pdfrwt>
<pdfrwt beam="2">  1       -2 0.11988424E-01 0.14414350E+03</pdfrwt>
<totfact> 0.74040948E+03</totfact>
</mgrwt>
</event>
<event>
 6    1  0.5258538E-006  0.1423603E+03  0.7546771E-02  0.1220991E+00
          4   -1    0    0  501    0  0.00000000000E+00  0.00000000000E+00  0.38470736374E+03  0.38470736374E+03  0.00000000000E+00 0. -1.
         -4   -1    0    0    0  501 -0.00000000000E+00 -0.00000000000E+00 -0.56038163990E+02  0.56038163990E+02  0.00000000000E+00 0.  1.
          5    1    1    2  502    0 -0.46371511500E+02  0.13911985921E+02  0.23959249623E+02  0.54221730640E+02  0.47000000000E+01 0.  1.
         -5    1    1    2    0  502  0.51277183169E+01  0.40293590689E+02  0.26245710440E+03  0.26562320794E+03  0.47000000000E+01 0.  1.
        -11    1    1    2    0    0  0.61716158533E+02 -0.26896402353E+02  0.52379782546E+02  0.85299134246E+02  0.00000000000E+00 0. -1.
         11    1    1    2    0    0 -0.20472365349E+02 -0.27309174256E+02 -0.10126936823E+02  0.35601454900E+02  0.00000000000E+00 0.  1.
<mgrwt>
<rscale>  0 0.13445501E+03</rscale>
<asrwt>0</asrwt>
<pdfrwt beam="1">  1        4 0.59185746E-01 0.14236031E+03</pdfrwt>
<pdfrwt beam="2">  1       -4 0.86212563E-02 0.14236031E+03</pdfrwt>
<totfact> 0.44606817E+02</totfact>
</mgrwt>
</event>
<event>
 6    1  0.5258538E-006  0.1607896E+03  0.7546771E-02  0.1204596E+00
          2   -1    0    0  501    0  0.00000000000E+00  0.00000000000E+00  0.51979217009E+03  0.51979217009E+03  0.00000000000E+00 0. -1.
         -2   -1    0    0    0  501 -0.00000000000E+00 -0.00000000000E+00 -0.76586501032E+02  0.76586501032E+02  0.00000000000E+00 0.  1.
          5    1    1    2  502    0 -0.23226552692E+02 -0.38684171323E+01  0.41976182678E+03  0.42044799753E+03  0.47000000000E+01 0. -1.
         -5    1    1    2    0  502 -0.18231892526E+02 -0.48395589583E+02  0.36928696122E+02  0.63720903897E+02  0.47000000000E+01 0.  1.
        -11    1    1    2    0    0  0.57288282422E+02  0.61818744063E+02 -0.27883325795E+02  0.88774907929E+02  0.00000000000E+00 0.  1.
         11    1    1    2    0    0 -0.15829837204E+02 -0.95547373485E+01  0.14398471952E+02  0.23434861771E+02  0.00000000000E+00 0. -1.
<mgrwt>
<rscale>  0 0.14669367E+03</rscale>
<asrwt>0</asrwt>
<pdfrwt beam="1">  1        2 0.79968024E-01 0.16078959E+03</pdfrwt>
<pdfrwt beam="2">  1       -2 0.11782539E-01 0.16078959E+03</pdfrwt>
<totfact> 0.29750343E+03</totfact>
</mgrwt>
</event>
<event>
 6    1  0.5258538E-006  0.3020143E+03  0.7546771E-02  0.1103697E+00
         -1   -1    0    0    0  501 -0.00000000000E+00  0.00000000000E+00  0.28045413874E+03  0.28045413874E+03  0.00000000000E+00 0.  1.
          1   -1    0    0  501    0  0.00000000000E+00 -0.00000000000E+00 -0.20853275263E+03  0.20853275263E+03  0.00000000000E+00 0. -1.
          5    1    1    2  502    0  0.51419026858E+02 -0.83524639390E+02  0.66823521975E+02  0.11877606997E+03  0.47000000000E+01 0. -1.
         -5    1    1    2    0  502 -0.18759364075E+03  0.66395740287E+01 -0.12085998800E+02  0.18815849532E+03  0.47000000000E+01 0.  1.
        -11    1    1    2    0    0  0.10531996557E+03  0.97354535642E+02  0.20483415025E+02  0.14487846993E+03  0.00000000000E+00 0. -1.
         11    1    1    2    0    0  0.30854648321E+02 -0.20469470281E+02 -0.32995520892E+01  0.37173856143E+02  0.00000000000E+00 0.  1.
<mgrwt>
<rscale>  0 0.26581767E+03</rscale>
<asrwt>0</asrwt>
<pdfrwt beam="2">  1        1 0.32081962E-01 0.30201429E+03</pdfrwt>
<pdfrwt beam="1">  1       -1 0.43146791E-01 0.30201429E+03</pdfrwt>
<totfact> 0.75091847E+02</totfact>
</mgrwt>
</event>
<event>
 6    1  0.5258538E-006  0.3487527E+03  0.7546771E-02  0.1063128E+00
         -1   -1    0    0    0  501 -0.00000000000E+00  0.00000000000E+00  0.15242193457E+02  0.15242193457E+02  0.00000000000E+00 0.  1.
          1   -1    0    0  501    0  0.00000000000E+00 -0.00000000000E+00 -0.19949306248E+04  0.19949306248E+04  0.00000000000E+00 0. -1.
          5    1    1    2  502    0 -0.11834039455E+03 -0.28090474748E+02 -0.64006667272E+03  0.65153738134E+03  0.47000000000E+01 0. -1.
         -5    1    1    2    0  502 -0.35935120450E+01 -0.21893676705E+01 -0.72003666161E+03  0.72006429624E+03  0.47000000000E+01 0. -1.
        -11    1    1    2    0    0  0.34552033694E+02  0.52194105252E+02 -0.30412075066E+03  0.31049556944E+03  0.00000000000E+00 0.  1.
         11    1    1    2    0    0  0.87381872898E+02 -0.21914262833E+02 -0.31546434630E+03  0.32807557119E+03  0.00000000000E+00 0. -1.
<mgrwt>
<rscale>  0 0.34875274E+03</rscale>
<asrwt>0</asrwt>
<pdfrwt beam="2">  1        1 0.30691233E+00 0.34875274E+03</pdfrwt>
<pdfrwt beam="1">  1       -1 0.23449534E-02 0.34875274E+03</pdfrwt>
<totfact> 0.18377594E+03</totfact>
</mgrwt>
</event>
<event>
 6    1  0.5258538E-006  0.3116823E+03  0.7546771E-02  0.1079542E+00
         -1   -1    0    0    0  501 -0.00000000000E+00  0.00000000000E+00  0.54139523375E+03  0.54139523375E+03  0.00000000000E+00 0.  1.
          1   -1    0    0  501    0  0.00000000000E+00 -0.00000000000E+00 -0.44859021970E+02  0.44859021970E+02  0.00000000000E+00 0. -1.
          5    1    1    2  502    0  0.13246654705E+02 -0.22713433882E+02  0.14114511655E+03  0.14365029713E+03  0.47000000000E+01 0. -1.
         -5    1    1    2    0  502  0.86602768579E+02  0.16018693366E+02  0.36336668870E+02  0.95389106125E+02  0.47000000000E+01 0. -1.
        -11    1    1    2    0    0 -0.62644428103E+02 -0.24547997734E+02  0.26967878795E+03  0.27794527741E+03  0.00000000000E+00 0.  1.
         11    1    1    2    0    0 -0.37204995181E+02  0.31242738250E+02  0.49375638412E+02  0.69269575056E+02  0.00000000000E+00 0. -1.
<mgrwt>
<rscale>  0 0.31168228E+03</rscale>
<asrwt>0</asrwt>
<pdfrwt beam="2">  1        1 0.69013884E-02 0.31168228E+03</pdfrwt>
<pdfrwt beam="1">  1       -1 0.83291570E-01 0.31168228E+03</pdfrwt>
<totfact> 0.15992425E+03</totfact>
</mgrwt>
</event>
<event>
 6    1  0.5258538E-006  0.3802454E+03  0.7546771E-02  0.1050843E+00
         -1   -1    0    0    0  501 -0.00000000000E+00  0.00000000000E+00  0.65083601321E+02  0.65083601321E+02  0.00000000000E+00 0.  1.
          1   -1    0    0  501    0  0.00000000000E+00 -0.00000000000E+00 -0.55538790238E+03  0.55538790238E+03  0.00000000000E+00 0. -1.
          5    1    1    2  502    0 -0.22503675707E+02  0.20300670230E+02 -0.15843818039E+03  0.16137930363E+03  0.47000000000E+01 0.  1.
         -5    1    1    2    0  502 -0.10604093443E+03 -0.89824406472E+02 -0.17472014558E+03  0.22329873050E+03  0.47000000000E+01 0.  1.
        -11    1    1    2    0    0  0.61043669565E+02  0.67759546210E+02 -0.13834376983E+03  0.16570058644E+03  0.00000000000E+00 0. -1.
         11    1    1    2    0    0  0.67500940568E+02  0.17641900318E+01 -0.18802205261E+02  0.70092883138E+02  0.00000000000E+00 0.  1.
<mgrwt>
<rscale>  0 0.38024542E+03</rscale>
<asrwt>0</asrwt>
<pdfrwt beam="2">  1        1 0.85444297E-01 0.38024542E+03</pdfrwt>
<pdfrwt beam="1">  1       -1 0.10012861E-01 0.38024542E+03</pdfrwt>
<totfact> 0.23907267E+03</totfact>
</mgrwt>
</event>
<event>
 6    1  0.5258538E-006  0.2101746E+03  0.7546771E-02  0.1145024E+00
          1   -1    0    0  501    0  0.00000000000E+00  0.00000000000E+00  0.19767111747E+03  0.19767111747E+03  0.00000000000E+00 0. -1.
         -1   -1    0    0    0  501 -0.00000000000E+00 -0.00000000000E+00 -0.28701235201E+03  0.28701235201E+03  0.00000000000E+00 0.  1.
          5    1    1    2  502    0  0.39799386996E+02 -0.14903413527E+03  0.31286327041E+02  0.15746773937E+03  0.47000000000E+01 0.  1.
         -5    1    1    2    0  502 -0.39907891340E+02 -0.19945948475E+02  0.51820137059E+02  0.68541208456E+02  0.47000000000E+01 0.  1.
        -11    1    1    2    0    0 -0.10269945008E+02  0.17827683890E+03 -0.16349284979E+03  0.24211157550E+03  0.00000000000E+00 0.  1.
         11    1    1    2    0    0  0.10378449351E+02 -0.92967551512E+01 -0.89548488468E+01  0.16562946150E+02  0.00000000000E+00 0. -1.
<mgrwt>
<rscale>  0 0.20569111E+03</rscale>
<asrwt>0</asrwt>
<pdfrwt beam="1">  1        1 0.30410941E-01 0.21017459E+03</pdfrwt>
<pdfrwt beam="2">  1       -1 0.44155746E-01 0.21017459E+03</pdfrwt>
<totfact> 0.76938275E+02</totfact>
</mgrwt>
</event>
<event>
 6    1  0.5258538E-006  0.1411616E+03  0.7546771E-02  0.1222959E+00
         -3   -1    0    0    0  501 -0.00000000000E+00  0.00000000000E+00  0.33640117760E+02  0.33640117760E+02  0.00000000000E+00 0.  1.
          3   -1    0    0  501    0  0.00000000000E+00 -0.00000000000E+00 -0.65691407308E+03  0.65691407308E+03  0.00000000000E+00 0. -1.
          5    1    1    2  502    0 -0.87417937446E+01 -0.11682988657E+02 -0.38282311355E+03  0.38312992242E+03  0.47000000000E+01 0. -1.
         -5    1    1    2    0  502 -0.21976352484E+02  0.69958349569E+02 -0.13631520509E+03  0.15485817990E+03  0.47000000000E+01 0. -1.
        -11    1    1    2    0    0 -0.18614908154E+02  0.13861082506E+01 -0.61321774623E+02  0.64099891924E+02  0.00000000000E+00 0. -1.
         11    1    1    2    0    0  0.49333054383E+02 -0.59661469163E+02 -0.42813862061E+02  0.88466196606E+02  0.00000000000E+00 0.  1.
<mgrwt>
<rscale>  0 0.13307789E+03</rscale>
<asrwt>0</asrwt>
<pdfrwt beam="2">  1        3 0.10106370E+00 0.14116162E+03</pdfrwt>
<pdfrwt beam="1">  1       -3 0.51754029E-02 0.14116162E+03</pdfrwt>
<totfact> 0.44604817E+02</totfact>
</mgrwt>
</event>
<event>
 6    1  0.5258538E-006  0.1343858E+03  0.7546771E-02  0.1233507E+00
         -1   -1    0    0    0  501 -0.00000000000E+00  0.00000000000E+00  0.16721126714E+02  0.16721126714E+02  0.00000000000E+00 0.  1.
          1   -1    0    0  501    0  0.00000000000E+00 -0.00000000000E+00 -0.85685467016E+03  0.85685467016E+03  0.00000000000E+00 0. -1.
          5    1    1    2  502    0  0.75393830522E+02  0.34992042231E+02 -0.23778940537E+03  0.25194158848E+03  0.47000000000E+01 0. -1.
         -5    1    1    2    0  502 -0.26163477437E+02 -0.31786261971E+02 -0.27781121451E+03  0.28088441557E+03  0.47000000000E+01 0. -1.
        -11    1    1    2    0    0 -0.57265845503E+02 -0.37215083299E+02 -0.19634296129E+03  0.20788193268E+03  0.00000000000E+00 0.  1.
         11    1    1    2    0    0  0.80354924182E+01  0.34009303038E+02 -0.12818996227E+03  0.13286786014E+03  0.00000000000E+00 0. -1.
<mgrwt>
<rscale>  0 0.12600471E+03</rscale>
<asrwt>0</asrwt>
<pdfrwt beam="2">  1        1 0.13182383E+00 0.13438583E+03</pdfrwt>
<pdfrwt beam="1">  1       -1 0.25724804E-02 0.13438583E+03</pdfrwt>
<totfact> 0.94192503E+03</totfact>
</mgrwt>
</event>
<event>
 6    1  0.5258538E-006  0.3864569E+03  0.7546771E-02  0.1048573E+00
         -1   -1    0    0    0  501 -0.00000000000E+00  0.00000000000E+00  0.56893475411E+02  0.56893475411E+02  0.00000000000E+00 0.  1.
          1   -1    0    0  501    0  0.00000000000E+00 -0.00000000000E+00 -0.65626574772E+03  0.65626574772E+03  0.00000000000E+00 0. -1.
          5    1    1    2  502    0  0.12931919348E+03  0.46934267391E+02 -0.44914956501E+03  0.46976983833E+03  0.47000000000E+01 0.  1.
         -5    1    1    2    0  502 -0.14929767287E+02 -0.26815477065E+02 -0.66867854305E+02  0.73724946259E+02  0.47000000000E+01 0.  1.
        -11    1    1    2    0    0 -0.54628208575E+02 -0.85001211521E+01  0.11961232677E+02  0.56564691451E+02  0.00000000000E+00 0.  1.
         11    1    1    2    0    0 -0.59761217615E+02 -0.11618669173E+02 -0.95316085670E+02  0.11309974709E+03  0.00000000000E+00 0. -1.
<mgrwt>
<rscale>  0 0.38645693E+03</rscale>
<asrwt>0</asrwt>
<pdfrwt beam="2">  1        1 0.10096395E+00 0.38645693E+03</pdfrwt>
<pdfrwt beam="1">  1       -1 0.87528431E-02 0.38645693E+03</pdfrwt>
<totfact> 0.23289674E+03</totfact>
</mgrwt>
</event>
<event>
 6    1  0.5258538E-006  0.1561518E+03  0.7546771E-02  0.1200891E+00
          1   -1    0    0  501    0  0.00000000000E+00  0.00000000000E+00  0.65894330660E+03  0.65894330660E+03  0.00000000000E+00 0.  1.
         -1   -1    0    0    0  501 -0.00000000000E+00 -0.00000000000E+00 -0.36492655339E+02  0.36492655339E+02  0.00000000000E+00 0. -1.
          5    1    1    2  502    0 -0.10551049921E+03  0.11342679150E+02  0.23595943545E+03  0.25876643328E+03  0.47000000000E+01 0.  1.
         -5    1    1    2    0  502  0.20963597255E+02  0.28784506310E+02  0.22685072834E+03  0.22967664915E+03  0.47000000000E+01 0.  1.
        -11    1    1    2    0    0  0.11259014760E+02  0.27479653873E+02  0.54670747565E+02  0.62215652610E+02  0.00000000000E+00 0. -1.
         11    1    1    2    0    0  0.73287887198E+02 -0.67606839333E+02  0.10496973990E+03  0.14477722690E+03  0.00000000000E+00 0.  1.
<mgrwt>
<rscale>  0 0.14966046E+03</rscale>
<asrwt>0</asrwt>
<pdfrwt beam="1">  1        1 0.10137588E+00 0.15615184E+03</pdfrwt>
<pdfrwt beam="2">  1       -1 0.56142552E-02 0.15615184E+03</pdfrwt>
<totfact> 0.44419984E+03</totfact>
</mgrwt>
</event>
<event>
 6    1  0.5258538E-006  0.2852156E+03  0.7546771E-02  0.1094842E+00
         -1   -1    0    0    0  501 -0.00000000000E+00  0.00000000000E+00  0.31968688393E+03  0.31968688393E+03  0.00000000000E+00 0.  1.
          1   -1    0    0  501    0  0.00000000000E+00 -0.00000000000E+00 -0.25027023867E+03  0.25027023867E+03  0.00000000000E+00 0. -1.
          5    1    1    2  502    0  0.13513784062E+02 -0.36493609902E+02  0.43965809756E+02  0.58902362863E+02  0.47000000000E+01 0. -1.
         -5    1    1    2    0  502  0.21178340441E+02 -0.21743594929E+03 -0.60768098034E+02  0.22680777298E+03  0.47000000000E+01 0. -1.
        -11    1    1    2    0    0 -0.26288387985E+02  0.98757184082E+02  0.78123542732E+02  0.12863649824E+03  0.00000000000E+00 0.  1.
         11    1    1    2    0    0 -0.84037365189E+01  0.15517237511E+03  0.80953908041E+01  0.15561048852E+03  0.00000000000E+00 0. -1.
<mgrwt>
<rscale>  0 0.28155574E+03</rscale>
<asrwt>0</asrwt>
<pdfrwt beam="2">  1        1 0.38503113E-01 0.28521565E+03</pdfrwt>
<pdfrwt beam="1">  1       -1 0.49182598E-01 0.28521565E+03</pdfrwt>
<totfact> 0.46914926E+02</totfact>
</mgrwt>
</event>
<event>
 6    1  0.5258538E-006  0.1314063E+03  0.7546771E-02  0.1239672E+00
         -2   -1    0    0    0  501 -0.00000000000E+00  0.00000000000E+00  0.23125815289E+02  0.23125815289E+02  0.00000000000E+00 0.  1.
          2   -1    0    0  501    0  0.00000000000E+00 -0.00000000000E+00 -0.58166237001E+03  0.58166237001E+03  0.00000000000E+00 0. -1.
          5    1    1    2  502    0  0.47448799004E+02 -0.33085293958E+02 -0.84418726473E+02  0.10244333352E+03  0.47000000000E+01 0.  1.
         -5    1    1    2    0  502 -0.11361965219E+02  0.51544259082E+02 -0.27936550146E+03  0.28434675715E+03  0.47000000000E+01 0.  1.
        -11    1    1    2    0    0 -0.24744523426E+02 -0.51792230711E+02 -0.83648730615E+02  0.10144869016E+03  0.00000000000E+00 0.  1.
         11    1    1    2    0    0 -0.11342310359E+02  0.33333265588E+02 -0.11110359617E+03  0.11654940447E+03  0.00000000000E+00 0. -1.
<mgrwt>
<rscale>  0 0.12210010E+03</rscale>
<asrwt>0</asrwt>
<pdfrwt beam="2">  1        2 0.89486512E-01 0.13140628E+03</pdfrwt>
<pdfrwt beam="1">  1       -2 0.35578180E-02 0.13140628E+03</pdfrwt>
<totfact> 0.16200797E+04</totfact>
</mgrwt>
</event>
<event>
 6    1  0.5258538E-006  0.2193394E+03  0.7546771E-02  0.1137870E+00
         -1   -1    0    0    0  501 -0.00000000000E+00  0.00000000000E+00  0.33400335744E+03  0.33400335744E+03  0.00000000000E+00 0.  1.
          1   -1    0    0  501    0  0.00000000000E+00 -0.00000000000E+00 -0.13264510913E+03  0.13264510913E+03  0.00000000000E+00 0. -1.
          5    1    1    2  502    0 -0.13415876250E+03  0.71564381652E+02  0.28430629194E+02  0.15475924836E+03  0.47000000000E+01 0.  1.
         -5    1    1    2    0  502 -0.40496608811E+02 -0.27101731318E+02  0.70569787580E+02  0.85887508316E+02  0.47000000000E+01 0.  1.
        -11    1    1    2    0    0  0.86698308889E+02 -0.23060298705E+02  0.10151305862E+03  0.13547426033E+03  0.00000000000E+00 0.  1.
         11    1    1    2    0    0  0.87957062420E+02 -0.21402351629E+02  0.84477292208E+00  0.90527449572E+02  0.00000000000E+00 0. -1.
<mgrwt>
<rscale>  0 0.21473498E+03</rscale>
<asrwt>0</asrwt>
<pdfrwt beam="2">  1        1 0.20406940E-01 0.21933942E+03</pdfrwt>
<pdfrwt beam="1">  1       -1 0.51385132E-01 0.21933942E+03</pdfrwt>
<totfact> 0.96894188E+02</totfact>
</mgrwt>
</event>
<event>
 6    1  0.5258538E-006  0.2385878E+03  0.7546771E-02  0.1123492E+00
         -2   -1    0    0    0  501 -0.00000000000E+00  0.00000000000E+00  0.60991909915E+02  0.60991909915E+02  0.00000000000E+00 0.  1.
          2   -1    0    0  501    0  0.00000000000E+00 -0.00000000000E+00 -0.92655515599E+03  0.92655515599E+03  0.00000000000E+00 0. -1.
          5    1    1    2  502    0 -0.21030975633E+02 -0.29290344349E+02 -0.24039138755E+02  0.43591242243E+02  0.47000000000E+01 0.  1.
         -5    1    1    2    0  502 -0.17825620513E+03 -0.10502537949E+02 -0.54198850005E+03  0.57066557821E+03  0.47000000000E+01 0.  1.
        -11    1    1    2    0    0  0.97819981732E+02  0.44858363411E+02 -0.21766170628E+03  0.24281194364E+03  0.00000000000E+00 0. -1.
         11    1    1    2    0    0  0.10146719903E+03 -0.50654811125E+01 -0.81873900985E+02  0.13047830180E+03  0.00000000000E+00 0.  1.
<mgrwt>
<rscale>  0 0.23452963E+03</rscale>
<asrwt>0</asrwt>
<pdfrwt beam="2">  1        2 0.14254694E+00 0.23858783E+03</pdfrwt>
<pdfrwt beam="1">  1       -2 0.93833711E-02 0.23858783E+03</pdfrwt>
<totfact> 0.21404171E+03</totfact>
</mgrwt>
</event>
<event>
 6    1  0.5258538E-006  0.1627978E+03  0.7546771E-02  0.1201972E+00
          2   -1    0    0  501    0  0.00000000000E+00  0.00000000000E+00  0.11143845510E+04  0.11143845510E+04  0.00000000000E+00 0. -1.
         -2   -1    0    0    0  501 -0.00000000000E+00 -0.00000000000E+00 -0.27132341723E+02  0.27132341723E+02  0.00000000000E+00 0.  1.
          5    1    1    2  502    0  0.20562283031E+02 -0.10638829630E+03  0.78316594222E+03  0.79064041139E+03  0.47000000000E+01 0. -1.
         -5    1    1    2    0  502 -0.23790923673E+02  0.39513563087E+02  0.16454975452E+03  0.17095625589E+03  0.47000000000E+01 0.  1.
        -11    1    1    2    0    0  0.20437792462E+02  0.82122440309E+02  0.81480666467E+02  0.11747722150E+03  0.00000000000E+00 0.  1.
         11    1    1    2    0    0 -0.17209151821E+02 -0.15247707099E+02  0.58055846092E+02  0.62443003961E+02  0.00000000000E+00 0. -1.
<mgrwt>
<rscale>  0 0.14878652E+03</rscale>
<asrwt>0</asrwt>
<pdfrwt beam="1">  1        2 0.17144374E+00 0.16279775E+03</pdfrwt>
<pdfrwt beam="2">  1       -2 0.41742073E-02 0.16279775E+03</pdfrwt>
<totfact> 0.56748561E+03</totfact>
</mgrwt>
</event>
<event>
 6    1  0.5258538E-006  0.2031628E+03  0.7546771E-02  0.1151073E+00
         -2   -1    0    0    0  501 -0.00000000000E+00  0.00000000000E+00  0.50389984299E+02  0.50389984299E+02  0.00000000000E+00 0.  1.
          2   -1    0    0  501    0  0.00000000000E+00 -0.00000000000E+00 -0.10782733599E+04  0.10782733599E+04  0.00000000000E+00 0. -1.
          5    1    1    2  502    0 -0.44212895881E+02 -0.17344605147E+03 -0.77311963846E+03  0.79358325228E+03  0.47000000000E+01 0.  1.
         -5    1    1    2    0  502 -0.64757166384E+01  0.21529742414E+02 -0.70150975798E+02  0.73815405708E+02  0.47000000000E+01 0.  1.
        -11    1    1    2    0    0  0.75975256152E+02  0.13084465504E+03 -0.14278403500E+03  0.20803808294E+03  0.00000000000E+00 0.  1.
         11    1    1    2    0    0 -0.25286643633E+02  0.21071654015E+02 -0.41828726377E+02  0.53226603305E+02  0.00000000000E+00 0. -1.
<mgrwt>
<rscale>  0 0.19842683E+03</rscale>
<asrwt>0</asrwt>
<pdfrwt beam="2">  1        2 0.16588819E+00 0.20316275E+03</pdfrwt>
<pdfrwt beam="1">  1       -2 0.77523061E-02 0.20316275E+03</pdfrwt>
<totfact> 0.23302523E+03</totfact>
</mgrwt>
</event>
<event>
 6    1  0.5258538E-006  0.1529985E+03  0.7546771E-02  0.1207974E+00
          4   -1    0    0  501    0  0.00000000000E+00  0.00000000000E+00  0.62238242201E+02  0.62238242201E+02  0.00000000000E+00 0. -1.
         -4   -1    0    0    0  501 -0.00000000000E+00 -0.00000000000E+00 -0.31212611483E+03  0.31212611483E+03  0.00000000000E+00 0.  1.
          5    1    1    2  502    0  0.99939086214E+02  0.44383503734E+01 -0.10710812864E+03  0.14663478826E+03  0.47000000000E+01 0.  1.
         -5    1    1    2    0  502 -0.16505537258E+02 -0.33086083573E+02  0.45624456083E+01  0.37550334170E+02  0.47000000000E+01 0.  1.
        -11    1    1    2    0    0  0.24593371050E+01 -0.20713535917E+02 -0.20632793591E+02  0.29339582147E+02  0.00000000000E+00 0.  1.
         11    1    1    2    0    0 -0.85892886061E+02  0.49361269117E+02 -0.12670939600E+03  0.16083965245E+03  0.00000000000E+00 0. -1.
<mgrwt>
<rscale>  0 0.14405572E+03</rscale>
<asrwt>0</asrwt>
<pdfrwt beam="1">  1        4 0.95751142E-02 0.15299850E+03</pdfrwt>
<pdfrwt beam="2">  1       -4 0.48019402E-01 0.15299850E+03</pdfrwt>
<totfact> 0.58377140E+02</totfact>
</mgrwt>
</event>
<event>
 6    1  0.5258538E-006  0.3288561E+03  0.7546771E-02  0.1072919E+00
         -2   -1    0    0    0  501 -0.00000000000E+00  0.00000000000E+00  0.10576720719E+03  0.10576720719E+03  0.00000000000E+00 0.  1.
          2   -1    0    0  501    0  0.00000000000E+00 -0.00000000000E+00 -0.98821805474E+03  0.98821805474E+03  0.00000000000E+00 0. -1.
          5    1    1    2  502    0  0.10467483596E+03  0.63036820790E+02 -0.25532422511E+03  0.28309541146E+03  0.47000000000E+01 0. -1.
         -5    1    1    2    0  502  0.96354687624E+02  0.16523735834E+03 -0.18193956415E+03  0.26402974344E+03  0.47000000000E+01 0. -1.
        -11    1    1    2    0    0 -0.14430196130E+03 -0.11785938345E+03 -0.20865773032E+03  0.27973547991E+03  0.00000000000E+00 0.  1.
         11    1    1    2    0    0 -0.56727562289E+02 -0.11041479568E+03 -0.23652932797E+03  0.26712462713E+03  0.00000000000E+00 0. -1.
<mgrwt>
<rscale>  0 0.32600305E+03</rscale>
<asrwt>0</asrwt>
<pdfrwt beam="2">  1        2 0.15203354E+00 0.32885607E+03</pdfrwt>
<pdfrwt beam="1">  1       -2 0.16271878E-01 0.32885607E+03</pdfrwt>
<totfact> 0.79758245E+02</totfact>
</mgrwt>
</event>
<event>
 6    1  0.5258538E-006  0.1839029E+03  0.7546771E-02  0.1168731E+00
         -2   -1    0    0    0  501 -0.00000000000E+00  0.00000000000E+00  0.53699880563E+02  0.53699880563E+02  0.00000000000E+00 0.  1.
          2   -1    0    0  501    0  0.00000000000E+00 -0.00000000000E+00 -0.58903507052E+03  0.58903507052E+03  0.00000000000E+00 0. -1.
          5    1    1    2  502    0  0.72009430010E+02 -0.45336344583E+02 -0.27566686323E+03  0.28853951486E+03  0.47000000000E+01 0. -1.
         -5    1    1    2    0  502  0.62789167261E+02  0.40332214431E+02 -0.67201737197E+02  0.10053522034E+03  0.47000000000E+01 0. -1.
        -11    1    1    2    0    0 -0.70870554115E+02 -0.43590959796E+02 -0.11617117867E+03  0.14289349170E+03  0.00000000000E+00 0.  1.
         11    1    1    2    0    0 -0.63928043157E+02  0.48595089948E+02 -0.76295410858E+02  0.11076672419E+03  0.00000000000E+00 0. -1.
<mgrwt>
<rscale>  0 0.17904491E+03</rscale>
<asrwt>0</asrwt>
<pdfrwt beam="2">  1        2 0.90620780E-01 0.18390289E+03</pdfrwt>
<pdfrwt beam="1">  1       -2 0.82615201E-02 0.18390289E+03</pdfrwt>
<totfact> 0.45479983E+03</totfact>
</mgrwt>
</event>
<event>
 6    1  0.5258538E-006  0.1281297E+03  0.7546771E-02  0.1245880E+00
          1   -1    0    0  501    0  0.00000000000E+00  0.00000000000E+00  0.26622514983E+03  0.26622514983E+03  0.00000000000E+00 0. -1.
         -1   -1    0    0    0  501 -0.00000000000E+00 -0.00000000000E+00 -0.49192703099E+02  0.49192703099E+02  0.00000000000E+00 0.  1.
          5    1    1    2  502    0  0.14281956532E+02  0.22389144527E+02 -0.11891768366E+02  0.29474603134E+02  0.47000000000E+01 0.  1.
         -5    1    1    2    0  502 -0.30605210657E+02  0.54597998592E+00  0.17612793809E+03  0.17882985654E+03  0.47000000000E+01 0.  1.
        -11    1    1    2    0    0 -0.13835943688E+02 -0.40409344031E+02 -0.13321690509E+01  0.42733161563E+02  0.00000000000E+00 0.  1.
         11    1    1    2    0    0  0.30159197813E+02  0.17474219518E+02  0.54128446065E+02  0.64380231702E+02  0.00000000000E+00 0. -1.
<mgrwt>
<rscale>  0 0.11832837E+03</rscale>
<asrwt>0</asrwt>
<pdfrwt beam="1">  1        1 0.40957715E-01 0.12812973E+03</pdfrwt>
<pdfrwt beam="2">  1       -1 0.75681083E-02 0.12812973E+03</pdfrwt>
<totfact> 0.90110253E+03</totfact>
</mgrwt>
</event>
<event>
 6    1  0.5258538E-006  0.1492802E+03  0.7546771E-02  0.1210424E+00
          2   -1    0    0  501    0  0.00000000000E+00  0.00000000000E+00  0.41788706600E+03  0.41788706600E+03  0.00000000000E+00 0. -1.
         -2   -1    0    0    0  501 -0.00000000000E+00 -0.00000000000E+00 -0.44642390211E+02  0.44642390211E+02  0.00000000000E+00 0.  1.
          5    1    1    2  502    0 -0.55349048743E+02  0.33931884159E+02  0.12518935030E+03  0.14110050811E+03  0.47000000000E+01 0.  1.
         -5    1    1    2    0  502 -0.11600176323E+02 -0.80601718697E+02  0.99535710181E+02  0.12868818419E+03  0.47000000000E+01 0.  1.
        -11    1    1    2    0    0  0.30691828046E+02  0.70743497826E+02  0.11170149098E+03  0.13573449776E+03  0.00000000000E+00 0. -1.
         11    1    1    2    0    0  0.36257397020E+02 -0.24073663288E+02  0.36818124317E+02  0.57006266156E+02  0.00000000000E+00 0.  1.
<mgrwt>
<rscale>  0 0.14218088E+03</rscale>
<asrwt>0</asrwt>
<pdfrwt beam="1">  1        2 0.64290315E-01 0.14928023E+03</pdfrwt>
<pdfrwt beam="2">  1       -2 0.68680603E-02 0.14928023E+03</pdfrwt>
<totfact> 0.87504605E+03</totfact>
</mgrwt>
</event>
<event>
 6    1  0.5258538E-006  0.1328414E+03  0.7546771E-02  0.1236037E+00
          1   -1    0    0  501    0  0.00000000000E+00  0.00000000000E+00  0.54577254688E+03  0.54577254688E+03  0.00000000000E+00 0. -1.
         -1   -1    0    0    0  501 -0.00000000000E+00 -0.00000000000E+00 -0.25286599288E+02  0.25286599288E+02  0.00000000000E+00 0.  1.
          5    1    1    2  502    0 -0.20295748543E+02 -0.76027366518E+02  0.21763497841E+03  0.23147170819E+03  0.47000000000E+01 0. -1.
         -5    1    1    2    0  502  0.35817557803E+02  0.33820185280E+02  0.74358418741E+02  0.89319464939E+02  0.47000000000E+01 0. -1.
        -11    1    1    2    0    0  0.30328035759E+02 -0.83734119049E+00  0.32625870306E+02  0.44552646458E+02  0.00000000000E+00 0.  1.
         11    1    1    2    0    0 -0.45849845018E+02  0.43044522428E+02  0.19586668014E+03  0.20571532658E+03  0.00000000000E+00 0. -1.
<mgrwt>
<rscale>  0 0.12438289E+03</rscale>
<asrwt>0</asrwt>
<pdfrwt beam="1">  1        1 0.83964998E-01 0.13284138E+03</pdfrwt>
<pdfrwt beam="2">  1       -1 0.38902465E-02 0.13284138E+03</pdfrwt>
<totfact> 0.97934992E+03</totfact>
</mgrwt>
</event>
<event>
 6    1  0.5258538E-006  0.2838614E+03  0.7546771E-02  0.1093598E+00
          1   -1    0    0  501    0  0.00000000000E+00  0.00000000000E+00  0.11583640708E+03  0.11583640708E+03  0.00000000000E+00 0. -1.
         -1   -1    0    0    0  501 -0.00000000000E+00 -0.00000000000E+00 -0.17390322418E+03  0.17390322418E+03  0.00000000000E+00 0.  1.
          5    1    1    2  502    0  0.96512077086E+01  0.99396527500E+02 -0.31716192780E+02  0.10488480526E+03  0.47000000000E+01 0. -1.
         -5    1    1    2    0  502  0.38855064003E+02 -0.24694803822E+02  0.17009124151E+02  0.49304661432E+02  0.47000000000E+01 0. -1.
        -11    1    1    2    0    0  0.12095897201E+02 -0.63465354934E+02 -0.97268735990E+01  0.65335855975E+02  0.00000000000E+00 0. -1.
         11    1    1    2    0    0 -0.60602168913E+02 -0.11236368743E+02 -0.33632874870E+02  0.70214308596E+02  0.00000000000E+00 0.  1.
<mgrwt>
<rscale>  0 0.28386141E+03</rscale>
<asrwt>0</asrwt>
<pdfrwt beam="1">  1        1 0.17820986E-01 0.28386141E+03</pdfrwt>
<pdfrwt beam="2">  1       -1 0.26754342E-01 0.28386141E+03</pdfrwt>
<totfact> 0.36725226E+03</totfact>
</mgrwt>
</event>
<event>
 6    1  0.5258538E-006  0.3391606E+03  0.7546771E-02  0.1068336E+00
          1   -1    0    0  501    0  0.00000000000E+00  0.00000000000E+00  0.23564176534E+03  0.23564176534E+03  0.00000000000E+00 0. -1.
         -1   -1    0    0    0  501 -0.00000000000E+00 -0.00000000000E+00 -0.51110481611E+03  0.51110481611E+03  0.00000000000E+00 0.  1.
          5    1    1    2  502    0 -0.19271999864E+03  0.14621951134E+03 -0.48658108870E+02  0.24680122554E+03  0.47000000000E+01 0.  1.
         -5    1    1    2    0  502 -0.12993768736E+02  0.92710707006E+02  0.11287836217E+02  0.94411961456E+02  0.47000000000E+01 0.  1.
        -11    1    1    2    0    0  0.64828492558E+02 -0.24581648340E+02 -0.31379168211E+02  0.76102845414E+02  0.00000000000E+00 0.  1.
         11    1    1    2    0    0  0.14088527481E+03 -0.21434857000E+03 -0.20671360991E+03  0.32943054904E+03  0.00000000000E+00 0. -1.
<mgrwt>
<rscale>  0 0.33640764E+03</rscale>
<asrwt>0</asrwt>
<pdfrwt beam="1">  1        1 0.36252580E-01 0.33916058E+03</pdfrwt>
<pdfrwt beam="2">  1       -1 0.78631509E-01 0.33916058E+03</pdfrwt>
<totfact> 0.20153588E+02</totfact>
</mgrwt>
</event>
<event>
 6    1  0.5258538E-006  0.1332650E+03  0.7546771E-02  0.1236651E+00
          1   -1    0    0  501    0  0.00000000000E+00  0.00000000000E+00  0.53040027138E+03  0.53040027138E+03  0.00000000000E+00 0. -1.
         -1   -1    0    0    0  501 -0.00000000000E+00 -0.00000000000E+00 -0.31314723640E+02  0.31314723640E+02  0.00000000000E+00 0.  1.
          5    1    1    2  502    0  0.55082985252E+01  0.39825223117E+02  0.33833884540E+03  0.34075160169E+03  0.47000000000E+01 0. -1.
         -5    1    1    2    0  502  0.51357892408E+02  0.17286192774E+01  0.59215072526E+02  0.78543847955E+02  0.47000000000E+01 0.  1.
        -11    1    1    2    0    0 -0.57956481923E+02 -0.94574648489E+01  0.34539901164E+02  0.68127837267E+02  0.00000000000E+00 0. -1.
         11    1    1    2    0    0  0.10902909892E+01 -0.32096377545E+02  0.66991728650E+02  0.74291708107E+02  0.00000000000E+00 0.  1.
<mgrwt>
<rscale>  0 0.12399360E+03</rscale>
<asrwt>0</asrwt>
<pdfrwt beam="1">  1        1 0.81600035E-01 0.13326499E+03</pdfrwt>
<pdfrwt beam="2">  1       -1 0.48176502E-02 0.13326499E+03</pdfrwt>
<totfact> 0.74272281E+03</totfact>
</mgrwt>
</event>
<event>
 6    1  0.5258538E-006  0.1424955E+03  0.7546771E-02  0.1219352E+00
          2   -1    0    0  501    0  0.00000000000E+00  0.00000000000E+00  0.55268369040E+03  0.55268369040E+03  0.00000000000E+00 0. -1.
         -2   -1    0    0    0  501 -0.00000000000E+00 -0.00000000000E+00 -0.30653407540E+02  0.30653407540E+02  0.00000000000E+00 0.  1.
          5    1    1    2  502    0 -0.11927070050E+02 -0.26124169671E+02  0.59780643719E+01  0.29707818745E+02  0.47000000000E+01 0. -1.
         -5    1    1    2    0  502  0.65120591669E+02 -0.16887850470E+02  0.30494150700E+03  0.31230962784E+03  0.47000000000E+01 0. -1.
        -11    1    1    2    0    0 -0.40039528997E+02  0.39974529387E+02  0.21865367733E+03  0.22585516928E+03  0.00000000000E+00 0. -1.
         11    1    1    2    0    0 -0.13153992622E+02  0.30374907544E+01 -0.75429658402E+01  0.15464482069E+02  0.00000000000E+00 0.  1.
<mgrwt>
<rscale>  0 0.13561623E+03</rscale>
<asrwt>0</asrwt>
<pdfrwt beam="1">  1        2 0.85028253E-01 0.14249545E+03</pdfrwt>
<pdfrwt beam="2">  1       -2 0.47159092E-02 0.14249545E+03</pdfrwt>
<totfact> 0.11349253E+04</totfact>
</mgrwt>
</event>
<event>
 6    1  0.5258538E-006  0.1344618E+03  0.7546771E-02  0.1234040E+00
          1   -1    0    0  501    0  0.00000000000E+00  0.00000000000E+00  0.12024487731E+04  0.12024487731E+04  0.00000000000E+00 0. -1.
         -1   -1    0    0    0  501 -0.00000000000E+00 -0.00000000000E+00 -0.25168530165E+02  0.25168530165E+02  0.00000000000E+00 0.  1.
          5    1    1    2  502    0 -0.34557138810E+02 -0.45387235321E+01  0.10640348292E+04  0.10646158949E+04  0.47000000000E+01 0. -1.
         -5    1    1    2    0  502 -0.12182969863E+02 -0.53092128706E+01  0.88111885778E+01  0.16623463543E+02  0.47000000000E+01 0.  1.
        -11    1    1    2    0    0  0.38782875598E+02  0.28699649848E+02  0.93853774439E+01  0.49151466415E+02  0.00000000000E+00 0.  1.
         11    1    1    2    0    0  0.79572330758E+01 -0.18851713445E+02  0.95048847715E+02  0.97226478441E+02  0.00000000000E+00 0. -1.
<mgrwt>
<rscale>  0 0.12566117E+03</rscale>
<asrwt>0</asrwt>
<pdfrwt beam="1">  1        1 0.18499207E+00 0.13446179E+03</pdfrwt>
<pdfrwt beam="2">  1       -1 0.38720825E-02 0.13446179E+03</pdfrwt>
<totfact> 0.29100973E+03</totfact>
</mgrwt>
</event>
<event>
 6    1  0.5258538E-006  0.1399024E+03  0.7546771E-02  0.1224604E+00
         -2   -1    0    0    0  501 -0.00000000000E+00  0.00000000000E+00  0.19212694513E+02  0.19212694513E+02  0.00000000000E+00 0.  1.
          2   -1    0    0  501    0  0.00000000000E+00 -0.00000000000E+00 -0.11029158074E+04  0.11029158074E+04  0.00000000000E+00 0. -1.
          5    1    1    2  502    0  0.65658357166E+02  0.57741599223E+02 -0.40348977161E+03  0.41288157859E+03  0.47000000000E+01 0.  1.
         -5    1    1    2    0  502 -0.54473569934E+01 -0.39910274861E+02 -0.46939809624E+03  0.47114665073E+03  0.47000000000E+01 0.  1.
        -11    1    1    2    0    0 -0.12698495255E+02  0.79941206485E+00  0.69064358045E+01  0.14477213023E+02  0.00000000000E+00 0.  1.
         11    1    1    2    0    0 -0.47512504917E+02 -0.18630736427E+02 -0.21772168086E+03  0.22362305959E+03  0.00000000000E+00 0. -1.
<mgrwt>
<rscale>  0 0.13194107E+03</rscale>
<asrwt>0</asrwt>
<pdfrwt beam="2">  1        2 0.16967942E+00 0.13990240E+03</pdfrwt>
<pdfrwt beam="1">  1       -2 0.29557980E-02 0.13990240E+03</pdfrwt>
<totfact> 0.95487951E+03</totfact>
</mgrwt>
</event>
<event>
 6    1  0.5258538E-006  0.1268302E+03  0.7546771E-02  0.1248072E+00
          1   -1    0    0  501    0  0.00000000000E+00  0.00000000000E+00  0.92252474981E+03  0.92252474981E+03  0.00000000000E+00 0. -1.
         -1   -1    0    0    0  501 -0.00000000000E+00 -0.00000000000E+00 -0.14665352712E+02  0.14665352712E+02  0.00000000000E+00 0.  1.
          5    1    1    2  502    0 -0.87376966733E+01 -0.52064111975E+02  0.32871732633E+03  0.33296274526E+03  0.47000000000E+01 0. -1.
         -5    1    1    2    0  502  0.21275542940E+02  0.69455489064E+02  0.34665613355E+03  0.35421642906E+03  0.47000000000E+01 0. -1.
        -11    1    1    2    0    0  0.34658457498E+02  0.11524136774E+02  0.87324203324E+02  0.94654798561E+02  0.00000000000E+00 0.  1.
         11    1    1    2    0    0 -0.47196303765E+02 -0.28915513863E+02  0.14516173388E+03  0.15535612964E+03  0.00000000000E+00 0. -1.
<mgrwt>
<rscale>  0 0.11703375E+03</rscale>
<asrwt>0</asrwt>
<pdfrwt beam="1">  1        1 0.14192684E+00 0.12683023E+03</pdfrwt>
<pdfrwt beam="2">  1       -1 0.22562088E-02 0.12683023E+03</pdfrwt>
<totfact> 0.10097945E+04</totfact>
</mgrwt>
</event>
<event>
 6    1  0.5258538E-006  0.1313742E+03  0.7546771E-02  0.1238381E+00
          1   -1    0    0  501    0  0.00000000000E+00  0.00000000000E+00  0.38713211972E+03  0.38713211972E+03  0.00000000000E+00 0. -1.
         -1   -1    0    0    0  501 -0.00000000000E+00 -0.00000000000E+00 -0.34902325305E+02  0.34902325305E+02  0.00000000000E+00 0.  1.
          5    1    1    2  502    0  0.43565171018E+02 -0.15555943610E+01  0.96215262002E+02  0.10573462367E+03  0.47000000000E+01 0.  1.
         -5    1    1    2    0  502 -0.80391785993E+02  0.18267155433E+02  0.89791545539E+02  0.12198827761E+03  0.47000000000E+01 0.  1.
        -11    1    1    2    0    0 -0.14542696232E+02 -0.14901344019E+02  0.52949496957E+00  0.20828356445E+02  0.00000000000E+00 0.  1.
         11    1    1    2    0    0  0.51369311206E+02 -0.18102170525E+01  0.16569349190E+03  0.17348318731E+03  0.00000000000E+00 0. -1.
<mgrwt>
<rscale>  0 0.12290432E+03</rscale>
<asrwt>0</asrwt>
<pdfrwt beam="1">  1        1 0.59558785E-01 0.13137423E+03</pdfrwt>
<pdfrwt beam="2">  1       -1 0.53695888E-02 0.13137423E+03</pdfrwt>
<totfact> 0.94653744E+03</totfact>
</mgrwt>
</event>
<event>
 6    1  0.5258538E-006  0.1271932E+03  0.7546771E-02  0.1247182E+00
          1   -1    0    0  501    0  0.00000000000E+00  0.00000000000E+00  0.25624131762E+03  0.25624131762E+03  0.00000000000E+00 0. -1.
         -1   -1    0    0    0  501 -0.00000000000E+00 -0.00000000000E+00 -0.51147050487E+02  0.51147050487E+02  0.00000000000E+00 0.  1.
          5    1    1    2  502    0 -0.37393305963E+02  0.33671495993E+02  0.44773289551E+02  0.67518637652E+02  0.47000000000E+01 0. -1.
         -5    1    1    2    0  502  0.54606442610E+02 -0.49635546613E+02  0.11465698105E+03  0.13643263673E+03  0.47000000000E+01 0. -1.
        -11    1    1    2    0    0 -0.93135935943E+01 -0.20336676295E+02 -0.18677503075E+02  0.29140565360E+02  0.00000000000E+00 0.  1.
         11    1    1    2    0    0 -0.78995430525E+01  0.36300726915E+02  0.64341499605E+02  0.74296528361E+02  0.00000000000E+00 0. -1.
<mgrwt>
<rscale>  0 0.11755707E+03</rscale>
<asrwt>0</asrwt>
<pdfrwt beam="1">  1        1 0.39421740E-01 0.12719320E+03</pdfrwt>
<pdfrwt beam="2">  1       -1 0.78687772E-02 0.12719320E+03</pdfrwt>
<totfact> 0.89033810E+03</totfact>
</mgrwt>
</event>
<event>
 6    1  0.5258538E-006  0.2443346E+03  0.7546771E-02  0.1119609E+00
         -2   -1    0    0    0  501 -0.00000000000E+00  0.00000000000E+00  0.41146448741E+03  0.41146448741E+03  0.00000000000E+00 0.  1.
          2   -1    0    0  501    0  0.00000000000E+00 -0.00000000000E+00 -0.19085670372E+03  0.19085670372E+03  0.00000000000E+00 0. -1.
          5    1    1    2  502    0 -0.18011635948E+02 -0.71893534070E+01 -0.65467865356E+01  0.21001339145E+02  0.47000000000E+01 0.  1.
         -5    1    1    2    0  502  0.21149966866E+03 -0.74272810707E+02 -0.42150629972E+02  0.22813883023E+03  0.47000000000E+01 0.  1.
        -11    1    1    2    0    0 -0.13107011720E+02 -0.12548349507E+02  0.35069657477E+01  0.18481169885E+02  0.00000000000E+00 0. -1.
         11    1    1    2    0    0 -0.18038102099E+03  0.94010513621E+02  0.26579823445E+03  0.33469985187E+03  0.00000000000E+00 0.  1.
<mgrwt>
<rscale>  0 0.24027551E+03</rscale>
<asrwt>0</asrwt>
<pdfrwt beam="2">  1        2 0.29362570E-01 0.24433458E+03</pdfrwt>
<pdfrwt beam="1">  1       -2 0.63302229E-01 0.24433458E+03</pdfrwt>
<totfact> 0.42601750E+02</totfact>
</mgrwt>
</event>
<event>
 6    1  0.5258538E-006  0.2813760E+03  0.7546771E-02  0.1094940E+00
          1   -1    0    0  501    0  0.00000000000E+00  0.00000000000E+00  0.77165558112E+03  0.77165558112E+03  0.00000000000E+00 0. -1.
         -1   -1    0    0    0  501 -0.00000000000E+00 -0.00000000000E+00 -0.25650199267E+02  0.25650199267E+02  0.00000000000E+00 0.  1.
          5    1    1    2  502    0  0.11541422720E+02  0.22746514661E+01  0.48147129247E+03  0.48163790751E+03  0.47000000000E+01 0.  1.
         -5    1    1    2    0  502 -0.54226058529E+02 -0.27015103124E+02  0.11817518664E+03  0.13288245166E+03  0.47000000000E+01 0.  1.
        -11    1    1    2    0    0  0.33264238293E+02 -0.29150100855E+02  0.10583035588E+03  0.11470092482E+03  0.00000000000E+00 0. -1.
         11    1    1    2    0    0  0.94203975165E+01  0.53890552513E+02  0.40528546867E+02  0.68084496405E+02  0.00000000000E+00 0.  1.
<mgrwt>
<rscale>  0 0.28137604E+03</rscale>
<asrwt>0</asrwt>
<pdfrwt beam="1">  1        1 0.11871623E+00 0.28137604E+03</pdfrwt>
<pdfrwt beam="2">  1       -1 0.39461851E-02 0.28137604E+03</pdfrwt>
<totfact> 0.61047236E+03</totfact>
</mgrwt>
</event>
<event>
 6    1  0.5258538E-006  0.2983723E+03  0.7546771E-02  0.1094311E+00
         -2   -1    0    0    0  501 -0.00000000000E+00  0.00000000000E+00  0.33943863890E+03  0.33943863890E+03  0.00000000000E+00 0.  1.
          2   -1    0    0  501    0  0.00000000000E+00 -0.00000000000E+00 -0.36943523459E+03  0.36943523459E+03  0.00000000000E+00 0. -1.
          5    1    1    2  502    0 -0.51025799504E+02 -0.18345431247E+03 -0.18878172321E+03  0.26817857110E+03  0.47000000000E+01 0. -1.
         -5    1    1    2    0  502 -0.10126746214E+03  0.21901597551E+02 -0.56723175128E+02  0.11821331338E+03  0.47000000000E+01 0.  1.
        -11    1    1    2    0    0  0.54974809100E+02  0.52682392438E+01  0.59311805253E+02  0.81042422365E+02  0.00000000000E+00 0. -1.
         11    1    1    2    0    0  0.97318452542E+02  0.15628447568E+03  0.15619649740E+03  0.24143956665E+03  0.00000000000E+00 0.  1.
<mgrwt>
<rscale>  0 0.28253699E+03</rscale>
<asrwt>0</asrwt>
<pdfrwt beam="2">  1        2 0.56836190E-01 0.29837231E+03</pdfrwt>
<pdfrwt beam="1">  1       -2 0.52221329E-01 0.29837231E+03</pdfrwt>
<totfact> 0.30816279E+02</totfact>
</mgrwt>
</event>
<event>
 6    1  0.5258538E-006  0.2644482E+03  0.7546771E-02  0.1106813E+00
         -2   -1    0    0    0  501 -0.00000000000E+00  0.00000000000E+00  0.44231444539E+02  0.44231444539E+02  0.00000000000E+00 0.  1.
          2   -1    0    0  501    0  0.00000000000E+00 -0.00000000000E+00 -0.15883941664E+04  0.15883941664E+04  0.00000000000E+00 0. -1.
          5    1    1    2  502    0  0.24077284711E+03  0.60519723530E+01 -0.97032832839E+03  0.99978364917E+03  0.47000000000E+01 0. -1.
         -5    1    1    2    0  502 -0.78679857775E+01 -0.14019513958E+02 -0.25118620508E+02  0.30190844109E+02  0.47000000000E+01 0. -1.
        -11    1    1    2    0    0 -0.21977483799E+03  0.11903804822E+02 -0.54597947844E+03  0.58867331421E+03  0.00000000000E+00 0. -1.
         11    1    1    2    0    0 -0.13130023343E+02 -0.39362632171E+01 -0.27362945020E+01  0.13977803430E+02  0.00000000000E+00 0.  1.
<mgrwt>
<rscale>  0 0.26055014E+03</rscale>
<asrwt>0</asrwt>
<pdfrwt beam="2">  1        2 0.24436834E+00 0.26444816E+03</pdfrwt>
<pdfrwt beam="1">  1       -2 0.68048373E-02 0.26444816E+03</pdfrwt>
<totfact> 0.14918271E+03</totfact>
</mgrwt>
</event>
<event>
 6    1  0.9749975E-006  0.2475472E+03  0.7546771E-02  0.1117086E+00
          1   -1    0    0  501    0  0.00000000000E+00  0.00000000000E+00  0.10264598525E+04  0.10264598525E+04  0.00000000000E+00 0. -1.
         -1   -1    0    0    0  501 -0.00000000000E+00 -0.00000000000E+00 -0.57801479802E+02  0.57801479802E+02  0.00000000000E+00 0.  1.
          5    1    1    2  502    0  0.66577138934E+02  0.90253055105E+02  0.45682977731E+03  0.47041860595E+03  0.47000000000E+01 0.  1.
         -5    1    1    2    0  502  0.71997353489E+02  0.72387400789E+02  0.12219128155E+03  0.15929957310E+03  0.47000000000E+01 0.  1.
        -11    1    1    2    0    0 -0.10835840753E+03 -0.89325662931E+02  0.31821118606E+03  0.34782032355E+03  0.00000000000E+00 0.  1.
         11    1    1    2    0    0 -0.30216084888E+02 -0.73314792963E+02  0.71426127806E+02  0.10672282973E+03  0.00000000000E+00 0. -1.
<mgrwt>
<rscale>  0 0.24410875E+03</rscale>
<asrwt>0</asrwt>
<pdfrwt beam="1">  1        1 0.15791689E+00 0.24754716E+03</pdfrwt>
<pdfrwt beam="2">  1       -1 0.88925362E-02 0.24754716E+03</pdfrwt>
<totfact> 0.11192986E+03</totfact>
</mgrwt>
</event>
<event>
 6    1  0.5258538E-006  0.1381630E+03  0.7546771E-02  0.1227299E+00
         -2   -1    0    0    0  501 -0.00000000000E+00  0.00000000000E+00  0.62374754715E+02  0.62374754715E+02  0.00000000000E+00 0.  1.
          2   -1    0    0  501    0  0.00000000000E+00 -0.00000000000E+00 -0.26026562210E+03  0.26026562210E+03  0.00000000000E+00 0. -1.
          5    1    1    2  502    0 -0.33659493977E+02 -0.15543372841E+02  0.32718490597E+02  0.49670389580E+02  0.47000000000E+01 0.  1.
         -5    1    1    2    0  502 -0.18407742238E+02 -0.11809343936E+02 -0.10288521298E+03  0.10528894827E+03  0.47000000000E+01 0.  1.
        -11    1    1    2    0    0  0.74630081425E+02  0.34438753765E+02 -0.81452037239E+02  0.11571564797E+03  0.00000000000E+00 0.  1.
         11    1    1    2    0    0 -0.22562845211E+02 -0.70860369874E+01 -0.46272107762E+02  0.51965390991E+02  0.00000000000E+00 0. -1.
<mgrwt>
<rscale>  0 0.13010535E+03</rscale>
<asrwt>0</asrwt>
<pdfrwt beam="2">  1        2 0.40040866E-01 0.13816305E+03</pdfrwt>
<pdfrwt beam="1">  1       -2 0.95961159E-02 0.13816305E+03</pdfrwt>
<totfact> 0.85848575E+03</totfact>
</mgrwt>
</event>
<event>
 6    1  0.5258538E-006  0.1317387E+03  0.7546771E-02  0.1238190E+00
         -2   -1    0    0    0  501 -0.00000000000E+00  0.00000000000E+00  0.58648865705E+02  0.58648865705E+02  0.00000000000E+00 0.  1.
          2   -1    0    0  501    0  0.00000000000E+00 -0.00000000000E+00 -0.23896813383E+03  0.23896813383E+03  0.00000000000E+00 0. -1.
          5    1    1    2  502    0 -0.18554086972E+02  0.24646528135E+02 -0.79243483223E+02  0.85166455402E+02  0.47000000000E+01 0.  1.
         -5    1    1    2    0  502  0.60150845945E+02 -0.23383941474E+02  0.69931164486E+01  0.65083996992E+02  0.47000000000E+01 0.  1.
        -11    1    1    2    0    0  0.10907085625E+02  0.18783531328E+02 -0.83059456729E+02  0.85852541710E+02  0.00000000000E+00 0. -1.
         11    1    1    2    0    0 -0.52503844598E+02 -0.20046117988E+02 -0.25009444624E+02  0.61514005433E+02  0.00000000000E+00 0.  1.
<mgrwt>
<rscale>  0 0.12302432E+03</rscale>
<asrwt>0</asrwt>
<pdfrwt beam="2">  1        2 0.36764328E-01 0.13173869E+03</pdfrwt>
<pdfrwt beam="1">  1       -2 0.90229024E-02 0.13173869E+03</pdfrwt>
<totfact> 0.10315604E+04</totfact>
</mgrwt>
</event>
<event>
 6    1  0.5258538E-006  0.1999121E+03  0.7546771E-02  0.1181087E+00
          1   -1    0    0  501    0  0.00000000000E+00  0.00000000000E+00  0.15344008202E+03  0.15344008202E+03  0.00000000000E+00 0. -1.
         -1   -1    0    0    0  501 -0.00000000000E+00 -0.00000000000E+00 -0.34351501582E+03  0.34351501582E+03  0.00000000000E+00 0.  1.
          5    1    1    2  502    0 -0.41269615477E+02 -0.86820028049E+02  0.10485669925E+03  0.14233030531E+03  0.47000000000E+01 0. -1.
         -5    1    1    2    0  502  0.13373076516E+02  0.63787200804E+02 -0.29000640236E+02  0.71489672653E+02  0.47000000000E+01 0.  1.
        -11    1    1    2    0    0 -0.20434793200E+01 -0.25818161121E+02 -0.26932107309E+02  0.37364309916E+02  0.00000000000E+00 0. -1.
         11    1    1    2    0    0  0.29940018281E+02  0.48850988366E+02 -0.23899888550E+03  0.24577080996E+03  0.00000000000E+00 0.  1.
<mgrwt>
<rscale>  0 0.16693079E+03</rscale>
<asrwt>0</asrwt>
<pdfrwt beam="1">  1        1 0.23606167E-01 0.19991208E+03</pdfrwt>
<pdfrwt beam="2">  1       -1 0.52848464E-01 0.19991208E+03</pdfrwt>
<totfact> 0.76248995E+02</totfact>
</mgrwt>
</event>
<event>
 6    1  0.5258538E-006  0.1585791E+03  0.7546771E-02  0.1197947E+00
         -1   -1    0    0    0  501 -0.00000000000E+00  0.00000000000E+00  0.11661116242E+03  0.11661116242E+03  0.00000000000E+00 0.  1.
          1   -1    0    0  501    0  0.00000000000E+00 -0.00000000000E+00 -0.20341145162E+03  0.20341145162E+03  0.00000000000E+00 0. -1.
          5    1    1    2  502    0 -0.49496421366E+02 -0.81292844439E+02 -0.77435262461E+02  0.12278734527E+03  0.47000000000E+01 0.  1.
         -5    1    1    2    0  502  0.57493545447E+02 -0.15963670609E+02 -0.18930385681E+02  0.62775760046E+02  0.47000000000E+01 0.  1.
        -11    1    1    2    0    0  0.18667713245E+02  0.32173807159E+01  0.29155821071E+02  0.34769195544E+02  0.00000000000E+00 0.  1.
         11    1    1    2    0    0 -0.26664837325E+02  0.94039134333E+02 -0.19590462131E+02  0.99690313181E+02  0.00000000000E+00 0. -1.
<mgrwt>
<rscale>  0 0.15207467E+03</rscale>
<asrwt>0</asrwt>
<pdfrwt beam="2">  1        1 0.31294069E-01 0.15857909E+03</pdfrwt>
<pdfrwt beam="1">  1       -1 0.17940179E-01 0.15857909E+03</pdfrwt>
<totfact> 0.33609270E+03</totfact>
</mgrwt>
</event>
<event>
 6    1  0.5258538E-006  0.1458932E+03  0.7546771E-02  0.1215496E+00
         -2   -1    0    0    0  501 -0.00000000000E+00  0.00000000000E+00  0.70686149323E+02  0.70686149323E+02  0.00000000000E+00 0. -1.
          2   -1    0    0  501    0  0.00000000000E+00 -0.00000000000E+00 -0.42917584232E+03  0.42917584232E+03  0.00000000000E+00 0.  1.
          5    1    1    2  502    0 -0.67960165510E+02  0.83415236335E+02 -0.25385569356E+03  0.27575621280E+03  0.47000000000E+01 0.  1.
         -5    1    1    2    0  502  0.34146804539E+02 -0.16202124840E+02 -0.98707361386E+02  0.10580050237E+03  0.47000000000E+01 0.  1.
        -11    1    1    2    0    0  0.64075318761E+02 -0.55197210950E+02  0.27236513259E+01  0.84615582770E+02  0.00000000000E+00 0. -1.
         11    1    1    2    0    0 -0.30261957790E+02 -0.12015900546E+02 -0.86502893774E+01  0.33689693699E+02  0.00000000000E+00 0.  1.
<mgrwt>
<rscale>  0 0.13840152E+03</rscale>
<asrwt>0</asrwt>
<pdfrwt beam="2">  1        2 0.66027050E-01 0.14589318E+03</pdfrwt>
<pdfrwt beam="1">  1       -2 0.10874793E-01 0.14589318E+03</pdfrwt>
<totfact> 0.41515608E+03</totfact>
</mgrwt>
</event>
<event>
 6    1  0.5258538E-006  0.1466702E+03  0.7546771E-02  0.1214206E+00
          3   -1    0    0  501    0  0.00000000000E+00  0.00000000000E+00  0.23282336771E+03  0.23282336771E+03  0.00000000000E+00 0. -1.
         -3   -1    0    0    0  501 -0.00000000000E+00 -0.00000000000E+00 -0.83128628813E+02  0.83128628813E+02  0.00000000000E+00 0.  1.
          5    1    1    2  502    0  0.60098595651E+02  0.53422756096E+00  0.88411030216E+02  0.10700806915E+03  0.47000000000E+01 0.  1.
         -5    1    1    2    0  502 -0.31049244656E+02 -0.71535056458E+02  0.39207800397E+02  0.87410877516E+02  0.47000000000E+01 0.  1.
        -11    1    1    2    0    0  0.10277886495E+01  0.83140483862E+02  0.15733896407E+01  0.83161721731E+02  0.00000000000E+00 0.  1.
         11    1    1    2    0    0 -0.30077139645E+02 -0.12139654964E+02  0.20502518645E+02  0.38371328133E+02  0.00000000000E+00 0. -1.
<mgrwt>
<rscale>  0 0.13935055E+03</rscale>
<asrwt>0</asrwt>
<pdfrwt beam="1">  1        3 0.35818979E-01 0.14667025E+03</pdfrwt>
<pdfrwt beam="2">  1       -3 0.12789020E-01 0.14667025E+03</pdfrwt>
<totfact> 0.87548849E+02</totfact>
</mgrwt>
</event>
<event>
 6    1  0.5258538E-006  0.1307611E+03  0.7546771E-02  0.1240212E+00
          1   -1    0    0  501    0  0.00000000000E+00  0.00000000000E+00  0.29073080739E+03  0.29073080739E+03  0.00000000000E+00 0. -1.
         -1   -1    0    0    0  501 -0.00000000000E+00 -0.00000000000E+00 -0.85391332523E+02  0.85391332523E+02  0.00000000000E+00 0.  1.
          5    1    1    2  502    0 -0.53915730280E+02 -0.37677474109E+02  0.55873546419E+02  0.86431714181E+02  0.47000000000E+01 0. -1.
         -5    1    1    2    0  502  0.31727767248E+02  0.63389246585E+01  0.18292765356E+03  0.18582639645E+03  0.47000000000E+01 0. -1.
        -11    1    1    2    0    0  0.39416537345E+02  0.26431585965E+01  0.17246601433E+02  0.43105625672E+02  0.00000000000E+00 0. -1.
         11    1    1    2    0    0 -0.17228574312E+02  0.28695390854E+02 -0.50708326541E+02  0.60758403613E+02  0.00000000000E+00 0.  1.
<mgrwt>
<rscale>  0 0.12176607E+03</rscale>
<asrwt>0</asrwt>
<pdfrwt beam="1">  1        1 0.44727816E-01 0.13076110E+03</pdfrwt>
<pdfrwt beam="2">  1       -1 0.13137128E-01 0.13076110E+03</pdfrwt>
<totfact> 0.34908357E+03</totfact>
</mgrwt>
</event>
<event>
 6    1  0.5258538E-006  0.2127346E+03  0.7546771E-02  0.1171999E+00
         -2   -1    0    0    0  501 -0.00000000000E+00  0.00000000000E+00  0.10062629409E+03  0.10062629409E+03  0.00000000000E+00 0.  1.
          2   -1    0    0  501    0  0.00000000000E+00 -0.00000000000E+00 -0.25324174120E+03  0.25324174120E+03  0.00000000000E+00 0. -1.
          5    1    1    2  502    0  0.18472179847E+02  0.77558213215E+02  0.27024430573E+01  0.79911770497E+02  0.47000000000E+01 0.  1.
         -5    1    1    2    0  502  0.22392703173E+02 -0.98996992855E+02 -0.14110936536E+03  0.17388438901E+03  0.47000000000E+01 0. -1.
        -11    1    1    2    0    0 -0.48180554224E+02 -0.23444960405E+02 -0.77123851754E+01  0.54134211538E+02  0.00000000000E+00 0. -1.
         11    1    1    2    0    0  0.73156712041E+01  0.44883740045E+02 -0.64961396361E+01  0.45937664239E+02  0.00000000000E+00 0.  1.
<mgrwt>
<rscale>  0 0.17573209E+03</rscale>
<asrwt>0</asrwt>
<pdfrwt beam="2">  1        2 0.38960268E-01 0.21273461E+03</pdfrwt>
<pdfrwt beam="1">  1       -2 0.15480968E-01 0.21273461E+03</pdfrwt>
<totfact> 0.41990930E+03</totfact>
</mgrwt>
</event>
<event>
 6    1  0.5258538E-006  0.1490226E+03  0.7546771E-02  0.1205917E+00
         -1   -1    0    0    0  501 -0.00000000000E+00  0.00000000000E+00  0.20445014588E+03  0.20445014588E+03  0.00000000000E+00 0.  1.
          1   -1    0    0  501    0  0.00000000000E+00 -0.00000000000E+00 -0.11458149176E+03  0.11458149176E+03  0.00000000000E+00 0. -1.
          5    1    1    2  502    0 -0.28744351547E+02 -0.36086477498E+01 -0.51811393123E+02  0.59546373037E+02  0.47000000000E+01 0.  1.
         -5    1    1    2    0  502  0.19110235122E+01  0.80167983794E+02  0.40394223358E+02  0.89912963009E+02  0.47000000000E+01 0.  1.
        -11    1    1    2    0    0  0.12369873604E+02 -0.58246978764E+02  0.12365615027E+03  0.13724637630E+03  0.00000000000E+00 0.  1.
         11    1    1    2    0    0  0.14463454431E+02 -0.18312357279E+02 -0.22370326383E+02  0.32325925287E+02  0.00000000000E+00 0. -1.
<mgrwt>
<rscale>  0 0.14565444E+03</rscale>
<asrwt>0</asrwt>
<pdfrwt beam="2">  1        1 0.17627922E-01 0.14902262E+03</pdfrwt>
<pdfrwt beam="1">  1       -1 0.31453869E-01 0.14902262E+03</pdfrwt>
<totfact> 0.27558758E+03</totfact>
</mgrwt>
</event>
<event>
 6    1  0.5258538E-006  0.2599903E+03  0.7546771E-02  0.1107149E+00
          1   -1    0    0  501    0  0.00000000000E+00  0.00000000000E+00  0.24897265246E+03  0.24897265246E+03  0.00000000000E+00 0. -1.
         -1   -1    0    0    0  501 -0.00000000000E+00 -0.00000000000E+00 -0.67873885620E+02  0.67873885620E+02  0.00000000000E+00 0.  1.
          5    1    1    2  502    0 -0.93863188328E+02 -0.37851421622E+02  0.64127716486E+02  0.11990613939E+03  0.47000000000E+01 0. -1.
         -5    1    1    2    0  502  0.21831109944E+02  0.35511478398E+02  0.40711012614E+02  0.58456299981E+02  0.47000000000E+01 0. -1.
        -11    1    1    2    0    0  0.39340229317E+02  0.89525178249E+00  0.93538671296E+02  0.10147875712E+03  0.00000000000E+00 0. -1.
         11    1    1    2    0    0  0.32691849066E+02  0.14446914412E+01 -0.17278633555E+02  0.37005341591E+02  0.00000000000E+00 0.  1.
<mgrwt>
<rscale>  0 0.25999032E+03</rscale>
<asrwt>0</asrwt>
<pdfrwt beam="1">  1        1 0.38303484E-01 0.25999032E+03</pdfrwt>
<pdfrwt beam="2">  1       -1 0.10442136E-01 0.25999032E+03</pdfrwt>
<totfact> 0.62599370E+03</totfact>
</mgrwt>
</event>
<event>
 6    1  0.5258538E-006  0.3656469E+03  0.7546771E-02  0.1056370E+00
         -2   -1    0    0    0  501 -0.00000000000E+00  0.00000000000E+00  0.37141956019E+02  0.37141956019E+02  0.00000000000E+00 0.  1.
          2   -1    0    0  501    0  0.00000000000E+00 -0.00000000000E+00 -0.89990972015E+03  0.89990972015E+03  0.00000000000E+00 0. -1.
          5    1    1    2  502    0  0.10849886552E+03  0.11571272242E+03 -0.47866001539E+03  0.50428061462E+03  0.47000000000E+01 0.  1.
         -5    1    1    2    0  502 -0.29317859167E+02  0.30582519007E+01 -0.64680524655E+02  0.71235876077E+02  0.47000000000E+01 0.  1.
        -11    1    1    2    0    0 -0.78273509289E+02 -0.66249241903E+02 -0.27228008384E+03  0.29095042252E+03  0.00000000000E+00 0. -1.
         11    1    1    2    0    0 -0.90749705837E+00 -0.52521732420E+02 -0.47147140239E+02  0.70584762945E+02  0.00000000000E+00 0.  1.
<mgrwt>
<rscale>  0 0.36564686E+03</rscale>
<asrwt>0</asrwt>
<pdfrwt beam="2">  1        2 0.13844765E+00 0.36564686E+03</pdfrwt>
<pdfrwt beam="1">  1       -2 0.57141468E-02 0.36564686E+03</pdfrwt>
<totfact> 0.48704456E+03</totfact>
</mgrwt>
</event>
<event>
 6    1  0.5258538E-006  0.2416917E+03  0.7546771E-02  0.1118671E+00
         -2   -1    0    0    0  501 -0.00000000000E+00  0.00000000000E+00  0.27471831312E+02  0.27471831312E+02  0.00000000000E+00 0. -1.
          2   -1    0    0  501    0  0.00000000000E+00 -0.00000000000E+00 -0.53158907137E+03  0.53158907137E+03  0.00000000000E+00 0.  1.
          5    1    1    2  502    0  0.25474172159E+02  0.34528196589E+02 -0.29714618099E+02  0.52403991600E+02  0.47000000000E+01 0. -1.
         -5    1    1    2    0  502  0.31171874479E+01 -0.64097933779E+01 -0.33683317103E+03  0.33694135605E+03  0.47000000000E+01 0. -1.
        -11    1    1    2    0    0 -0.43991492091E+02 -0.38716386719E+02 -0.13911806769E+03  0.15095710230E+03  0.00000000000E+00 0.  1.
         11    1    1    2    0    0  0.15400132484E+02  0.10597983508E+02  0.15486167654E+01  0.18758452731E+02  0.00000000000E+00 0. -1.
<mgrwt>
<rscale>  0 0.24169175E+03</rscale>
<asrwt>0</asrwt>
<pdfrwt beam="2">  1        2 0.81782925E-01 0.24169175E+03</pdfrwt>
<pdfrwt beam="1">  1       -2 0.42264360E-02 0.24169175E+03</pdfrwt>
<totfact> 0.14481381E+04</totfact>
</mgrwt>
</event>
<event>
 6    1  0.5258538E-006  0.1526932E+03  0.7546771E-02  0.1205783E+00
         -3   -1    0    0    0  501 -0.00000000000E+00  0.00000000000E+00  0.11959886575E+03  0.11959886575E+03  0.00000000000E+00 0.  1.
          3   -1    0    0  501    0  0.00000000000E+00 -0.00000000000E+00 -0.17672298072E+03  0.17672298072E+03  0.00000000000E+00 0. -1.
          5    1    1    2  502    0 -0.18290286572E+02  0.73358818772E+02 -0.10676505130E+03  0.13090804809E+03  0.47000000000E+01 0.  1.
         -5    1    1    2    0  502 -0.87047245090E+01  0.10076257092E+02  0.35050137908E+02  0.37787634923E+02  0.47000000000E+01 0.  1.
        -11    1    1    2    0    0 -0.78209935875E+01  0.17166498009E+02 -0.46900538868E+01  0.19438446441E+02  0.00000000000E+00 0. -1.
         11    1    1    2    0    0  0.34816004668E+02 -0.10060157387E+03  0.19280852307E+02  0.10818771701E+03  0.00000000000E+00 0.  1.
<mgrwt>
<rscale>  0 0.14575902E+03</rscale>
<asrwt>0</asrwt>
<pdfrwt beam="2">  1        3 0.27188151E-01 0.15269317E+03</pdfrwt>
<pdfrwt beam="1">  1       -3 0.18399826E-01 0.15269317E+03</pdfrwt>
<totfact> 0.78798640E+02</totfact>
</mgrwt>
</event>
<event>
 6    1  0.5258538E-006  0.1287994E+03  0.7546771E-02  0.1244787E+00
          1   -1    0    0  501    0  0.00000000000E+00  0.00000000000E+00  0.34789604258E+03  0.34789604258E+03  0.00000000000E+00 0. -1.
         -1   -1    0    0    0  501 -0.00000000000E+00 -0.00000000000E+00 -0.42896441153E+02  0.42896441153E+02  0.00000000000E+00 0.  1.
          5    1    1    2  502    0  0.51341308470E+02 -0.43120923412E+02  0.16807251508E+03  0.18101327110E+03  0.47000000000E+01 0. -1.
         -5    1    1    2    0  502 -0.22092192043E+02  0.53391519109E+02  0.84057751281E+02  0.10211030708E+03  0.47000000000E+01 0. -1.
        -11    1    1    2    0    0  0.24836065870E+02  0.36901685068E+01 -0.67203067421E+01  0.25992499576E+02  0.00000000000E+00 0.  1.
         11    1    1    2    0    0 -0.54085182297E+02 -0.13960764203E+02  0.59589641809E+02  0.81676405970E+02  0.00000000000E+00 0. -1.
<mgrwt>
<rscale>  0 0.11898162E+03</rscale>
<asrwt>0</asrwt>
<pdfrwt beam="1">  1        1 0.53522466E-01 0.12879942E+03</pdfrwt>
<pdfrwt beam="2">  1       -1 0.65994527E-02 0.12879942E+03</pdfrwt>
<totfact> 0.79484750E+03</totfact>
</mgrwt>
</event>
<event>
 6    1  0.5258538E-006  0.1550539E+03  0.7546771E-02  0.1203843E+00
         -1   -1    0    0    0  501 -0.00000000000E+00  0.00000000000E+00  0.69536229941E+02  0.69536229941E+02  0.00000000000E+00 0.  1.
          1   -1    0    0  501    0  0.00000000000E+00 -0.00000000000E+00 -0.36418117285E+03  0.36418117285E+03  0.00000000000E+00 0. -1.
          5    1    1    2  502    0  0.39336755666E+02 -0.39986479077E+02 -0.19576273602E+02  0.59595464118E+02  0.47000000000E+01 0. -1.
         -5    1    1    2    0  502  0.22519806327E+02 -0.27764931455E+02 -0.24054542751E+03  0.24323286330E+03  0.47000000000E+01 0. -1.
        -11    1    1    2    0    0 -0.48824222377E+02  0.86875486880E+02 -0.39533814236E+02  0.10721043503E+03  0.00000000000E+00 0.  1.
         11    1    1    2    0    0 -0.13032339616E+02 -0.19124076348E+02  0.50105724396E+01  0.23678640337E+02  0.00000000000E+00 0. -1.
<mgrwt>
<rscale>  0 0.14729001E+03</rscale>
<asrwt>0</asrwt>
<pdfrwt beam="2">  1        1 0.56027874E-01 0.15505385E+03</pdfrwt>
<pdfrwt beam="1">  1       -1 0.10697881E-01 0.15505385E+03</pdfrwt>
<totfact> 0.36504618E+03</totfact>
</mgrwt>
</event>
<event>
 6    1  0.5258538E-006  0.1317679E+03  0.7546771E-02  0.1238872E+00
          2   -1    0    0  501    0  0.00000000000E+00  0.00000000000E+00  0.27368826720E+03  0.27368826720E+03  0.00000000000E+00 0. -1.
         -2   -1    0    0    0  501 -0.00000000000E+00 -0.00000000000E+00 -0.48614313244E+02  0.48614313244E+02  0.00000000000E+00 0.  1.
          5    1    1    2  502    0 -0.73694749876E+02  0.11870276921E+02  0.12798555041E+03  0.14823700869E+03  0.47000000000E+01 0. -1.
         -5    1    1    2    0  502  0.33135512631E+02 -0.21575022452E+02  0.70543676236E+01  0.40438816671E+02  0.47000000000E+01 0. -1.
        -11    1    1    2    0    0  0.25423777175E+02  0.23400968081E+02 -0.63261564308E+01  0.35128250855E+02  0.00000000000E+00 0.  1.
         11    1    1    2    0    0  0.15135460069E+02 -0.13696222549E+02  0.96360192360E+02  0.98498504229E+02  0.00000000000E+00 0. -1.
<mgrwt>
<rscale>  0 0.12259783E+03</rscale>
<asrwt>0</asrwt>
<pdfrwt beam="1">  1        2 0.42105886E-01 0.13176793E+03</pdfrwt>
<pdfrwt beam="2">  1       -2 0.74791253E-02 0.13176793E+03</pdfrwt>
<totfact> 0.11936498E+04</totfact>
</mgrwt>
</event>
<event>
 6    1  0.5258538E-006  0.2839940E+03  0.7546771E-02  0.1093527E+00
         -2   -1    0    0    0  501 -0.00000000000E+00  0.00000000000E+00  0.26954471920E+03  0.26954471920E+03  0.00000000000E+00 0.  1.
          2   -1    0    0  501    0  0.00000000000E+00 -0.00000000000E+00 -0.74804438550E+02  0.74804438550E+02  0.00000000000E+00 0. -1.
          5    1    1    2  502    0  0.34361885023E+02 -0.11457844527E+02  0.52148065391E+02  0.63667354803E+02  0.47000000000E+01 0.  1.
         -5    1    1    2    0  502 -0.24972435691E+02  0.98566694536E+02  0.14197431396E+02  0.10277486499E+03  0.47000000000E+01 0.  1.
        -11    1    1    2    0    0 -0.30124757754E+02 -0.47818646526E+02  0.12007205450E+03  0.13270803388E+03  0.00000000000E+00 0.  1.
         11    1    1    2    0    0  0.20735308422E+02 -0.39290203484E+02  0.83227293623E+01  0.45198904071E+02  0.00000000000E+00 0. -1.
<mgrwt>
<rscale>  0 0.28399395E+03</rscale>
<asrwt>0</asrwt>
<pdfrwt beam="2">  1        2 0.11508375E-01 0.28399395E+03</pdfrwt>
<pdfrwt beam="1">  1       -2 0.41468418E-01 0.28399395E+03</pdfrwt>
<totfact> 0.29816675E+03</totfact>
</mgrwt>
</event>
<event>
 6    1  0.5258538E-006  0.1406581E+03  0.7546771E-02  0.1223479E+00
         -4   -1    0    0    0  501 -0.00000000000E+00  0.00000000000E+00  0.59007312364E+02  0.59007312364E+02  0.00000000000E+00 0.  1.
          4   -1    0    0  501    0  0.00000000000E+00 -0.00000000000E+00 -0.27407161954E+03  0.27407161954E+03  0.00000000000E+00 0. -1.
          5    1    1    2  502    0  0.89473314262E+02  0.32605218531E+02 -0.92622810219E+02  0.13292723278E+03  0.47000000000E+01 0.  1.
         -5    1    1    2    0  502 -0.25141380557E+02 -0.37297820799E+02 -0.48840551362E+02  0.66563547907E+02  0.47000000000E+01 0.  1.
        -11    1    1    2    0    0 -0.43925938542E+02 -0.37553448161E+02 -0.17347675130E+02  0.60338141983E+02  0.00000000000E+00 0.  1.
         11    1    1    2    0    0 -0.20405995163E+02  0.42246050430E+02 -0.56253270467E+02  0.73250009240E+02  0.00000000000E+00 0. -1.
<mgrwt>
<rscale>  0 0.13271703E+03</rscale>
<asrwt>0</asrwt>
<pdfrwt beam="2">  1        4 0.42164865E-01 0.14065806E+03</pdfrwt>
<pdfrwt beam="1">  1       -4 0.90780481E-02 0.14065806E+03</pdfrwt>
<totfact> 0.81519677E+02</totfact>
</mgrwt>
</event>
<event>
 6    1  0.5258538E-006  0.1463978E+03  0.7546771E-02  0.1213677E+00
          3   -1    0    0  501    0  0.00000000000E+00  0.00000000000E+00  0.66949249637E+02  0.66949249637E+02  0.00000000000E+00 0. -1.
         -3   -1    0    0    0  501 -0.00000000000E+00 -0.00000000000E+00 -0.29753526950E+03  0.29753526950E+03  0.00000000000E+00 0.  1.
          5    1    1    2  502    0 -0.39704900827E+02 -0.70777072660E+00 -0.72938074355E+01  0.40648120695E+02  0.47000000000E+01 0. -1.
         -5    1    1    2    0  502  0.84853524839E+02 -0.60681039512E+02 -0.60508785298E+02  0.12068849296E+03  0.47000000000E+01 0. -1.
        -11    1    1    2    0    0 -0.44178914854E+02  0.85851170338E+02 -0.12203665194E+03  0.15561216014E+03  0.00000000000E+00 0.  1.
         11    1    1    2    0    0 -0.96970915741E+00 -0.24462360099E+02 -0.40746775191E+02  0.47535745349E+02  0.00000000000E+00 0. -1.
<mgrwt>
<rscale>  0 0.13974161E+03</rscale>
<asrwt>0</asrwt>
<pdfrwt beam="1">  1        3 0.10299885E-01 0.14639778E+03</pdfrwt>
<pdfrwt beam="2">  1       -3 0.45774657E-01 0.14639778E+03</pdfrwt>
<totfact> 0.78231880E+02</totfact>
</mgrwt>
</event>
<event>
 6    1  0.5258538E-006  0.1324388E+03  0.7546771E-02  0.1236482E+00
         -1   -1    0    0    0  501 -0.00000000000E+00  0.00000000000E+00  0.20361601180E+02  0.20361601180E+02  0.00000000000E+00 0.  1.
          1   -1    0    0  501    0  0.00000000000E+00 -0.00000000000E+00 -0.67553086295E+03  0.67553086295E+03  0.00000000000E+00 0. -1.
          5    1    1    2  502    0 -0.36470618326E+02  0.45575142863E+02 -0.35369804237E+03  0.35851303299E+03  0.47000000000E+01 0. -1.
         -5    1    1    2    0  502  0.27380435815E+02 -0.27598624671E+01 -0.11925796224E+02  0.30358190358E+02  0.47000000000E+01 0. -1.
        -11    1    1    2    0    0 -0.30138447971E+02 -0.53447106816E+02 -0.18084901727E+03  0.19097456982E+03  0.00000000000E+00 0.  1.
         11    1    1    2    0    0  0.39228630482E+02  0.10631826421E+02 -0.10869640591E+03  0.11604667096E+03  0.00000000000E+00 0. -1.
<mgrwt>
<rscale>  0 0.12410049E+03</rscale>
<asrwt>0</asrwt>
<pdfrwt beam="2">  1        1 0.10392783E+00 0.13243880E+03</pdfrwt>
<pdfrwt beam="1">  1       -1 0.31325539E-02 0.13243880E+03</pdfrwt>
<totfact> 0.10041198E+04</totfact>
</mgrwt>
</event>
<event>
 6    1  0.5258538E-006  0.2572601E+03  0.7546771E-02  0.1108801E+00
          2   -1    0    0  501    0  0.00000000000E+00  0.00000000000E+00  0.60946895189E+03  0.60946895189E+03  0.00000000000E+00 0. -1.
         -2   -1    0    0    0  501 -0.00000000000E+00 -0.00000000000E+00 -0.27147709782E+02  0.27147709782E+02  0.00000000000E+00 0.  1.
          5    1    1    2  502    0 -0.63076861841E+02  0.33886680000E+02  0.86025098603E+02  0.11202412763E+03  0.47000000000E+01 0.  1.
         -5    1    1    2    0  502  0.47550231674E+01 -0.19665413587E+01  0.28516296953E+03  0.28524811432E+03  0.47000000000E+01 0.  1.
        -11    1    1    2    0    0  0.16643931348E+02 -0.49099120229E+02  0.50006782598E+02  0.72030704313E+02  0.00000000000E+00 0.  1.
         11    1    1    2    0    0  0.41677907325E+02  0.17178981588E+02  0.16112639137E+03  0.16731371541E+03  0.00000000000E+00 0. -1.
<mgrwt>
<rscale>  0 0.25726007E+03</rscale>
<asrwt>0</asrwt>
<pdfrwt beam="1">  1        2 0.93764443E-01 0.25726007E+03</pdfrwt>
<pdfrwt beam="2">  1       -2 0.41765712E-02 0.25726007E+03</pdfrwt>
<totfact> 0.12644033E+04</totfact>
</mgrwt>
</event>
<event>
 6    1  0.5258538E-006  0.1458332E+03  0.7546771E-02  0.1215426E+00
          2   -1    0    0  501    0  0.00000000000E+00  0.00000000000E+00  0.81585821667E+03  0.81585821667E+03  0.00000000000E+00 0.  1.
         -2   -1    0    0    0  501 -0.00000000000E+00 -0.00000000000E+00 -0.22183543154E+02  0.22183543154E+02  0.00000000000E+00 0. -1.
          5    1    1    2  502    0  0.66717723962E+00  0.46226380075E+02  0.49698007360E+03  0.49914788079E+03  0.47000000000E+01 0. -1.
         -5    1    1    2    0  502 -0.12609494459E+02  0.27923078521E+02  0.17486854973E+02  0.35589011807E+02  0.47000000000E+01 0. -1.
        -11    1    1    2    0    0  0.16207198068E+02  0.18180064282E+02  0.81453396123E+02  0.85016726275E+02  0.00000000000E+00 0.  1.
         11    1    1    2    0    0 -0.42648808488E+01 -0.92329522878E+02  0.19775434882E+03  0.21828814095E+03  0.00000000000E+00 0. -1.
<mgrwt>
<rscale>  0 0.13845260E+03</rscale>
<asrwt>0</asrwt>
<pdfrwt beam="1">  1        2 0.12551663E+00 0.14583321E+03</pdfrwt>
<pdfrwt beam="2">  1       -2 0.34128534E-02 0.14583321E+03</pdfrwt>
<totfact> 0.11619982E+04</totfact>
</mgrwt>
</event>
<event>
 6    1  0.5258538E-006  0.5526225E+03  0.7546771E-02  0.1061943E+00
          2   -1    0    0  501    0  0.00000000000E+00  0.00000000000E+00  0.34083497597E+04  0.34083497597E+04  0.00000000000E+00 0. -1.
         -2   -1    0    0    0  501 -0.00000000000E+00 -0.00000000000E+00 -0.31355617373E+02  0.31355617373E+02  0.00000000000E+00 0.  1.
          5    1    1    2  502    0  0.19614694712E+02 -0.66514657717E+02  0.30347387228E+04  0.30355345727E+04  0.47000000000E+01 0. -1.
         -5    1    1    2    0  502 -0.24193345848E+02  0.78549426055E+02  0.45856220888E+02  0.94234883727E+02  0.47000000000E+01 0.  1.
        -11    1    1    2    0    0  0.27341314296E+02  0.29193763048E+02  0.94487602002E+02  0.10260472796E+03  0.00000000000E+00 0.  1.
         11    1    1    2    0    0 -0.22762663159E+02 -0.41228531386E+02  0.20191159664E+03  0.20733119276E+03  0.00000000000E+00 0. -1.
<mgrwt>
<rscale>  0 0.35164116E+03</rscale>
<asrwt>0</asrwt>
<pdfrwt beam="1">  1        2 0.52436121E+00 0.55262251E+03</pdfrwt>
<pdfrwt beam="2">  1       -2 0.48239438E-02 0.55262251E+03</pdfrwt>
<totfact> 0.22632307E+02</totfact>
</mgrwt>
</event>
<event>
 6    1  0.5258538E-006  0.2669387E+03  0.7546771E-02  0.1103045E+00
          2   -1    0    0  501    0  0.00000000000E+00  0.00000000000E+00  0.10975626905E+03  0.10975626905E+03  0.00000000000E+00 0. -1.
         -2   -1    0    0    0  501 -0.00000000000E+00 -0.00000000000E+00 -0.16230573281E+03  0.16230573281E+03  0.00000000000E+00 0.  1.
          5    1    1    2  502    0  0.12932131664E+02  0.13086577459E+02  0.43930693359E+02  0.47859109457E+02  0.47000000000E+01 0. -1.
         -5    1    1    2    0  502 -0.78881689508E+02  0.22955783702E+02 -0.53829030959E+02  0.98330786221E+02  0.47000000000E+01 0. -1.
        -11    1    1    2    0    0  0.38340928284E+02 -0.57094352829E+02 -0.55985685684E+02  0.88680262225E+02  0.00000000000E+00 0.  1.
         11    1    1    2    0    0  0.27608629559E+02  0.21051991668E+02  0.13334559522E+02  0.37191843958E+02  0.00000000000E+00 0. -1.
<mgrwt>
<rscale>  0 0.26693873E+03</rscale>
<asrwt>0</asrwt>
<pdfrwt beam="1">  1        2 0.16885580E-01 0.26693873E+03</pdfrwt>
<pdfrwt beam="2">  1       -2 0.24970113E-01 0.26693873E+03</pdfrwt>
<totfact> 0.47831887E+03</totfact>
</mgrwt>
</event>
<event>
 6    1  0.5258538E-006  0.1619118E+03  0.7546771E-02  0.1193809E+00
         -1   -1    0    0    0  501 -0.00000000000E+00  0.00000000000E+00  0.19349422822E+03  0.19349422822E+03  0.00000000000E+00 0.  1.
          1   -1    0    0  501    0  0.00000000000E+00 -0.00000000000E+00 -0.11727472482E+03  0.11727472482E+03  0.00000000000E+00 0. -1.
          5    1    1    2  502    0 -0.27954537664E+02 -0.20646801703E+02  0.63677508728E+02  0.72695678787E+02  0.47000000000E+01 0. -1.
         -5    1    1    2    0  502 -0.73287592775E+02  0.39119849560E+02 -0.37589383444E+02  0.91304357136E+02  0.47000000000E+01 0. -1.
        -11    1    1    2    0    0  0.41773721440E+02  0.16088260600E+02 -0.19559796673E+02  0.48851423500E+02  0.00000000000E+00 0. -1.
         11    1    1    2    0    0  0.59468408999E+02 -0.34561308457E+02  0.69691174789E+02  0.97917493608E+02  0.00000000000E+00 0.  1.
<mgrwt>
<rscale>  0 0.15555460E+03</rscale>
<asrwt>0</asrwt>
<pdfrwt beam="2">  1        1 0.18042265E-01 0.16191177E+03</pdfrwt>
<pdfrwt beam="1">  1       -1 0.29768343E-01 0.16191177E+03</pdfrwt>
<totfact> 0.29470569E+03</totfact>
</mgrwt>
</event>
<event>
 6    1  0.5258538E-006  0.1800873E+03  0.7546771E-02  0.1240997E+00
          2   -1    0    0  501    0  0.00000000000E+00  0.00000000000E+00  0.10324008774E+03  0.10324008774E+03  0.00000000000E+00 0. -1.
         -2   -1    0    0    0  501 -0.00000000000E+00 -0.00000000000E+00 -0.23629235517E+03  0.23629235517E+03  0.00000000000E+00 0.  1.
          5    1    1    2  502    0 -0.63176973651E+02  0.10603611449E+02  0.56794558486E+02  0.85740763053E+02  0.47000000000E+01 0. -1.
         -5    1    1    2    0  502  0.76531588376E+02 -0.44200584403E+02 -0.35995987612E+02  0.95543585892E+02  0.47000000000E+01 0.  1.
        -11    1    1    2    0    0 -0.32177255900E+01  0.17978264235E+02 -0.83575905566E+02  0.85548253834E+02  0.00000000000E+00 0.  1.
         11    1    1    2    0    0 -0.10136889136E+02  0.15618708720E+02 -0.70274932734E+02  0.72699840125E+02  0.00000000000E+00 0. -1.
<mgrwt>
<rscale>  0 0.12128206E+03</rscale>
<asrwt>0</asrwt>
<pdfrwt beam="1">  1        2 0.15883091E-01 0.18008730E+03</pdfrwt>
<pdfrwt beam="2">  1       -2 0.36352670E-01 0.18008730E+03</pdfrwt>
<totfact> 0.25478220E+03</totfact>
</mgrwt>
</event>
<event>
 6    1  0.5258538E-006  0.1970274E+03  0.7546771E-02  0.1156663E+00
          2   -1    0    0  501    0  0.00000000000E+00  0.00000000000E+00  0.13893422220E+04  0.13893422220E+04  0.00000000000E+00 0. -1.
         -2   -1    0    0    0  501 -0.00000000000E+00 -0.00000000000E+00 -0.25919433659E+02  0.25919433659E+02  0.00000000000E+00 0.  1.
          5    1    1    2  502    0 -0.13919706018E+02 -0.61331063090E+02  0.62536785809E+03  0.62853982010E+03  0.47000000000E+01 0.  1.
         -5    1    1    2    0  502  0.13572829410E+02 -0.90974391756E+02  0.20266395560E+03  0.22261026606E+03  0.47000000000E+01 0.  1.
        -11    1    1    2    0    0 -0.17155681634E+02  0.92857064376E+02  0.17907419526E+03  0.20244584270E+03  0.00000000000E+00 0. -1.
         11    1    1    2    0    0  0.17502558241E+02  0.59448390470E+02  0.35631677940E+03  0.36166572682E+03  0.00000000000E+00 0.  1.
<mgrwt>
<rscale>  0 0.19200769E+03</rscale>
<asrwt>0</asrwt>
<pdfrwt beam="1">  1        2 0.21374490E+00 0.19702737E+03</pdfrwt>
<pdfrwt beam="2">  1       -2 0.39876063E-02 0.19702737E+03</pdfrwt>
<totfact> 0.43015772E+03</totfact>
</mgrwt>
</event>
<event>
 6    1  0.5258538E-006  0.1881487E+03  0.7546771E-02  0.1165215E+00
         -1   -1    0    0    0  501 -0.00000000000E+00  0.00000000000E+00  0.29158020359E+02  0.29158020359E+02  0.00000000000E+00 0.  1.
          1   -1    0    0  501    0  0.00000000000E+00 -0.00000000000E+00 -0.13571580659E+04  0.13571580659E+04  0.00000000000E+00 0. -1.
          5    1    1    2  502    0 -0.29170901525E+02 -0.14114534661E+03 -0.77738299945E+03  0.79064490652E+03  0.47000000000E+01 0.  1.
         -5    1    1    2    0  502  0.43653751235E+02  0.12724450989E+01 -0.22875323302E+03  0.23293218054E+03  0.47000000000E+01 0.  1.
        -11    1    1    2    0    0 -0.13544422500E+02  0.44137020458E+02 -0.28756963314E+02  0.54392011314E+02  0.00000000000E+00 0.  1.
         11    1    1    2    0    0 -0.93842721027E+00  0.95735881057E+02 -0.29310684980E+03  0.30834698793E+03  0.00000000000E+00 0. -1.
<mgrwt>
<rscale>  0 0.18269986E+03</rscale>
<asrwt>0</asrwt>
<pdfrwt beam="2">  1        1 0.20879357E+00 0.18814870E+03</pdfrwt>
<pdfrwt beam="1">  1       -1 0.44858489E-02 0.18814870E+03</pdfrwt>
<totfact> 0.18482987E+03</totfact>
</mgrwt>
</event>
<event>
 6    1  0.5258538E-006  0.1920850E+03  0.7546771E-02  0.1162293E+00
          2   -1    0    0  501    0  0.00000000000E+00  0.00000000000E+00  0.26255374469E+04  0.26255374469E+04  0.00000000000E+00 0. -1.
         -2   -1    0    0    0  501 -0.00000000000E+00 -0.00000000000E+00 -0.14787766252E+02  0.14787766252E+02  0.00000000000E+00 0.  1.
          5    1    1    2  502    0  0.34959169536E+02 -0.12684770416E+03  0.17645396607E+04  0.17694447682E+04  0.47000000000E+01 0.  1.
         -5    1    1    2    0  502 -0.32072078536E+02 -0.18988152863E+02  0.14709990726E+03  0.15182108183E+03  0.47000000000E+01 0.  1.
        -11    1    1    2    0    0  0.30523908907E+02  0.19237724412E+02  0.11860777450E+03  0.12397420388E+03  0.00000000000E+00 0.  1.
         11    1    1    2    0    0 -0.33410999907E+02  0.12659813261E+03  0.58050233816E+03  0.59508515921E+03  0.00000000000E+00 0. -1.
<mgrwt>
<rscale>  0 0.18581332E+03</rscale>
<asrwt>0</asrwt>
<pdfrwt beam="1">  1        2 0.40392847E+00 0.19208495E+03</pdfrwt>
<pdfrwt beam="2">  1       -2 0.22750431E-02 0.19208495E+03</pdfrwt>
<totfact> 0.22023092E+03</totfact>
</mgrwt>
</event>
<event>
 6    1  0.5258538E-006  0.1341226E+03  0.7546771E-02  0.1234679E+00
          2   -1    0    0  501    0  0.00000000000E+00  0.00000000000E+00  0.35337790133E+03  0.35337790133E+03  0.00000000000E+00 0. -1.
         -2   -1    0    0    0  501 -0.00000000000E+00 -0.00000000000E+00 -0.80870905485E+02  0.80870905485E+02  0.00000000000E+00 0.  1.
          5    1    1    2  502    0 -0.37117525505E+02  0.31919979024E+01  0.11963841267E+02  0.39409682162E+02  0.47000000000E+01 0. -1.
         -5    1    1    2    0  502 -0.21443855898E+01  0.25485138184E+02  0.28802843194E+03  0.28919985868E+03  0.47000000000E+01 0. -1.
        -11    1    1    2    0    0  0.68555298182E+01 -0.16282816795E+02 -0.57257254905E+02  0.59920961701E+02  0.00000000000E+00 0.  1.
         11    1    1    2    0    0  0.32406381277E+02 -0.12394319291E+02  0.29771977542E+02  0.45718304266E+02  0.00000000000E+00 0. -1.
<mgrwt>
<rscale>  0 0.12524996E+03</rscale>
<asrwt>0</asrwt>
<pdfrwt beam="1">  1        2 0.54365830E-01 0.13412258E+03</pdfrwt>
<pdfrwt beam="2">  1       -2 0.12441678E-01 0.13412258E+03</pdfrwt>
<totfact> 0.41067600E+03</totfact>
</mgrwt>
</event>
<event>
 6    1  0.5258538E-006  0.1364126E+03  0.7546771E-02  0.1229878E+00
         -3   -1    0    0    0  501 -0.00000000000E+00  0.00000000000E+00  0.83001646538E+03  0.83001646538E+03  0.00000000000E+00 0.  1.
          3   -1    0    0  501    0  0.00000000000E+00 -0.00000000000E+00 -0.21139580726E+02  0.21139580726E+02  0.00000000000E+00 0. -1.
          5    1    1    2  502    0 -0.27984251141E+02  0.66242298603E+02  0.74568101880E+02  0.10369981800E+03  0.47000000000E+01 0.  1.
         -5    1    1    2    0  502 -0.11996157450E+02 -0.29019280488E+02  0.20421341418E+03  0.20666696632E+03  0.47000000000E+01 0.  1.
        -11    1    1    2    0    0 -0.21684238178E+02  0.14811961289E+02  0.13862142903E+03  0.14108685612E+03  0.00000000000E+00 0. -1.
         11    1    1    2    0    0  0.61664646769E+02 -0.52034979404E+02  0.39147393955E+03  0.39970240566E+03  0.00000000000E+00 0.  1.
<mgrwt>
<rscale>  0 0.12838100E+03</rscale>
<asrwt>0</asrwt>
<pdfrwt beam="2">  1        3 0.32522438E-02 0.13641264E+03</pdfrwt>
<pdfrwt beam="1">  1       -3 0.12769482E+00 0.13641264E+03</pdfrwt>
<totfact> 0.53171296E+02</totfact>
</mgrwt>
</event>
<event>
 6    1  0.5258538E-006  0.3476456E+03  0.7546771E-02  0.1063586E+00
         -2   -1    0    0    0  501 -0.00000000000E+00  0.00000000000E+00  0.22373366121E+02  0.22373366121E+02  0.00000000000E+00 0.  1.
          2   -1    0    0  501    0  0.00000000000E+00 -0.00000000000E+00 -0.13504615810E+04  0.13504615810E+04  0.00000000000E+00 0. -1.
          5    1    1    2  502    0 -0.15071254767E+02  0.25975721854E+02 -0.91116275301E+02  0.96052831665E+02  0.47000000000E+01 0.  1.
         -5    1    1    2    0  502  0.14367722522E+03 -0.22231580406E+02 -0.75087164348E+03  0.76483181366E+03  0.47000000000E+01 0.  1.
        -11    1    1    2    0    0 -0.54194967243E+02  0.14679277650E+02 -0.74589961293E+02  0.93360794729E+02  0.00000000000E+00 0.  1.
         11    1    1    2    0    0 -0.74411003210E+02 -0.18423419098E+02 -0.41151033484E+03  0.41858950709E+03  0.00000000000E+00 0. -1.
<mgrwt>
<rscale>  0 0.34764563E+03</rscale>
<asrwt>0</asrwt>
<pdfrwt beam="2">  1        2 0.20776323E+00 0.34764563E+03</pdfrwt>
<pdfrwt beam="1">  1       -2 0.34420578E-02 0.34764563E+03</pdfrwt>
<totfact> 0.56900384E+03</totfact>
</mgrwt>
</event>
<event>
 6    1  0.5258538E-006  0.1343493E+03  0.7546771E-02  0.1233651E+00
          4   -1    0    0  501    0  0.00000000000E+00  0.00000000000E+00  0.22910455827E+03  0.22910455827E+03  0.00000000000E+00 0. -1.
         -4   -1    0    0    0  501 -0.00000000000E+00 -0.00000000000E+00 -0.10437067157E+03  0.10437067157E+03  0.00000000000E+00 0.  1.
          5    1    1    2  502    0 -0.31562670988E+02 -0.20954075504E+02  0.93918652968E+02  0.10138086040E+03  0.47000000000E+01 0. -1.
         -5    1    1    2    0  502  0.69586591849E+02  0.52228527509E+02  0.79163315973E+02  0.11772439614E+03  0.47000000000E+01 0. -1.
        -11    1    1    2    0    0  0.18300315833E+02 -0.36644424177E+02 -0.39866502471E+02  0.57158143796E+02  0.00000000000E+00 0.  1.
         11    1    1    2    0    0 -0.56324236694E+02  0.53699721718E+01 -0.84815797654E+01  0.57211829507E+02  0.00000000000E+00 0. -1.
<mgrwt>
<rscale>  0 0.12591200E+03</rscale>
<asrwt>0</asrwt>
<pdfrwt beam="1">  1        4 0.35246855E-01 0.13434934E+03</pdfrwt>
<pdfrwt beam="2">  1       -4 0.16057026E-01 0.13434934E+03</pdfrwt>
<totfact> 0.43197963E+02</totfact>
</mgrwt>
</event>
<event>
 6    1  0.5258538E-006  0.2627824E+03  0.7546771E-02  0.1105483E+00
         -2   -1    0    0    0  501 -0.00000000000E+00  0.00000000000E+00  0.11602258453E+02  0.11602258453E+02  0.00000000000E+00 0.  1.
          2   -1    0    0  501    0  0.00000000000E+00 -0.00000000000E+00 -0.14879555378E+04  0.14879555378E+04  0.00000000000E+00 0. -1.
          5    1    1    2  502    0 -0.51552631590E+02 -0.38283734806E+02 -0.96622576533E+03  0.96836854439E+03  0.47000000000E+01 0.  1.
         -5    1    1    2    0  502 -0.12743309176E+02  0.23663392343E+02 -0.44564172927E+02  0.52253263770E+02  0.47000000000E+01 0.  1.
        -11    1    1    2    0    0  0.25792621998E+02  0.48891332019E+02 -0.16577112584E+03  0.17474463614E+03  0.00000000000E+00 0.  1.
         11    1    1    2    0    0  0.38503318769E+02 -0.34270989556E+02 -0.29979221525E+03  0.30419135195E+03  0.00000000000E+00 0. -1.
<mgrwt>
<rscale>  0 0.26278238E+03</rscale>
<asrwt>0</asrwt>
<pdfrwt beam="2">  1        2 0.22891615E+00 0.26278238E+03</pdfrwt>
<pdfrwt beam="1">  1       -2 0.17849635E-02 0.26278238E+03</pdfrwt>
<totfact> 0.12639505E+04</totfact>
</mgrwt>
</event>
<event>
 6    1  0.5258538E-006  0.1515667E+03  0.7546771E-02  0.1207620E+00
          2   -1    0    0  501    0  0.00000000000E+00  0.00000000000E+00  0.71564523486E+02  0.71564523486E+02  0.00000000000E+00 0.  1.
         -2   -1    0    0    0  501 -0.00000000000E+00 -0.00000000000E+00 -0.27707378894E+03  0.27707378894E+03  0.00000000000E+00 0. -1.
          5    1    1    2  502    0  0.10122478163E+03 -0.39163045370E+02 -0.92260583915E+02  0.14252826345E+03  0.47000000000E+01 0. -1.
         -5    1    1    2    0  502 -0.23992290234E+02  0.19633909841E+01  0.13799779481E+02  0.28142651058E+02  0.47000000000E+01 0. -1.
        -11    1    1    2    0    0 -0.16791704824E+02 -0.23862034174E+02 -0.64300096607E+01  0.29878136656E+02  0.00000000000E+00 0.  1.
         11    1    1    2    0    0 -0.60440786574E+02  0.61061688559E+02 -0.12061845136E+03  0.14808926125E+03  0.00000000000E+00 0. -1.
<mgrwt>
<rscale>  0 0.14432882E+03</rscale>
<asrwt>0</asrwt>
<pdfrwt beam="1">  1        2 0.11009927E-01 0.15156670E+03</pdfrwt>
<pdfrwt beam="2">  1       -2 0.42626736E-01 0.15156670E+03</pdfrwt>
<totfact> 0.28946407E+03</totfact>
</mgrwt>
</event>
<event>
 6    1  0.5258538E-006  0.1252184E+03  0.7546771E-02  0.1253674E+00
         -2   -1    0    0    0  501 -0.00000000000E+00  0.00000000000E+00  0.14548552573E+02  0.14548552573E+02  0.00000000000E+00 0.  1.
          2   -1    0    0  501    0  0.00000000000E+00 -0.00000000000E+00 -0.79426076959E+03  0.79426076959E+03  0.00000000000E+00 0. -1.
          5    1    1    2  502    0 -0.52204729405E+02  0.18147806988E+02 -0.35112648908E+03  0.35548077023E+03  0.47000000000E+01 0. -1.
         -5    1    1    2    0  502  0.57448213218E+02 -0.23304079124E+02 -0.18870874200E+03  0.19868683050E+03  0.47000000000E+01 0. -1.
        -11    1    1    2    0    0  0.34245396676E+02  0.17974097395E+02 -0.16013464503E+03  0.16473894473E+03  0.00000000000E+00 0. -1.
         11    1    1    2    0    0 -0.39488880489E+02 -0.12817825260E+02 -0.79742340910E+02  0.89902776712E+02  0.00000000000E+00 0.  1.
<mgrwt>
<rscale>  0 0.11380916E+03</rscale>
<asrwt>0</asrwt>
<pdfrwt beam="2">  1        2 0.12219398E+00 0.12521842E+03</pdfrwt>
<pdfrwt beam="1">  1       -2 0.22382386E-02 0.12521842E+03</pdfrwt>
<totfact> 0.22053107E+04</totfact>
</mgrwt>
</event>
<event>
 6    1  0.5258538E-006  0.1312045E+03  0.7546771E-02  0.1239923E+00
          1   -1    0    0  501    0  0.00000000000E+00  0.00000000000E+00  0.43727475209E+02  0.43727475209E+02  0.00000000000E+00 0. -1.
         -1   -1    0    0    0  501 -0.00000000000E+00 -0.00000000000E+00 -0.36685630911E+03  0.36685630911E+03  0.00000000000E+00 0.  1.
          5    1    1    2  502    0 -0.43507752178E+02 -0.39618686772E+02 -0.11691308289E+03  0.13097069821E+03  0.47000000000E+01 0. -1.
         -5    1    1    2    0  502  0.16150825891E+02  0.10734075012E+02  0.22948722332E+02  0.30410580396E+02  0.47000000000E+01 0. -1.
        -11    1    1    2    0    0  0.14821711561E+02 -0.31855587985E+02 -0.98166595222E+02  0.10426476892E+03  0.00000000000E+00 0. -1.
         11    1    1    2    0    0  0.12535214726E+02  0.60740199745E+02 -0.13099787812E+03  0.14493773679E+03  0.00000000000E+00 0.  1.
<mgrwt>
<rscale>  0 0.12194487E+03</rscale>
<asrwt>0</asrwt>
<pdfrwt beam="1">  1        1 0.67273040E-02 0.13120448E+03</pdfrwt>
<pdfrwt beam="2">  1       -1 0.56439431E-01 0.13120448E+03</pdfrwt>
<totfact> 0.34597610E+03</totfact>
</mgrwt>
</event>
<event>
 6    1  0.5258538E-006  0.1495420E+03  0.7546771E-02  0.1210287E+00
          1   -1    0    0  501    0  0.00000000000E+00  0.00000000000E+00  0.81364605269E+03  0.81364605269E+03  0.00000000000E+00 0. -1.
         -1   -1    0    0    0  501 -0.00000000000E+00 -0.00000000000E+00 -0.28579808315E+02  0.28579808315E+02  0.00000000000E+00 0.  1.
          5    1    1    2  502    0 -0.23114916261E+02 -0.36244044554E+02  0.59084734857E+02  0.73219027667E+02  0.47000000000E+01 0. -1.
         -5    1    1    2    0  502  0.50673343801E+02 -0.41016624119E+02  0.55389190038E+03  0.55773513296E+03  0.47000000000E+01 0. -1.
        -11    1    1    2    0    0 -0.31489443145E+01  0.66872597595E+02  0.17218684061E+03  0.18474352015E+03  0.00000000000E+00 0. -1.
         11    1    1    2    0    0 -0.24409483226E+02  0.10388071078E+02 -0.97231477316E-01  0.26528180225E+02  0.00000000000E+00 0.  1.
<mgrwt>
<rscale>  0 0.14228505E+03</rscale>
<asrwt>0</asrwt>
<pdfrwt beam="1">  1        1 0.12517630E+00 0.14954196E+03</pdfrwt>
<pdfrwt beam="2">  1       -1 0.43968942E-02 0.14954196E+03</pdfrwt>
<totfact> 0.46816976E+03</totfact>
</mgrwt>
</event>
<event>
 6    1  0.5258538E-006  0.2813045E+03  0.7546771E-02  0.1096972E+00
          2   -1    0    0  501    0  0.00000000000E+00  0.00000000000E+00  0.23054691843E+03  0.23054691843E+03  0.00000000000E+00 0. -1.
         -2   -1    0    0    0  501 -0.00000000000E+00 -0.00000000000E+00 -0.37543842139E+03  0.37543842139E+03  0.00000000000E+00 0.  1.
          5    1    1    2  502    0  0.14283960318E+03  0.11256145870E+03  0.62251402476E+02  0.19227730321E+03  0.47000000000E+01 0. -1.
         -5    1    1    2    0  502  0.11748157275E+02  0.86460192351E+02 -0.26449077590E+02  0.91296373236E+02  0.47000000000E+01 0. -1.
        -11    1    1    2    0    0 -0.10735095462E+03 -0.18651566252E+03 -0.16470434038E+03  0.27099785896E+03  0.00000000000E+00 0.  1.
         11    1    1    2    0    0 -0.47236805834E+02 -0.12505988528E+02 -0.15989487459E+02  0.51413804408E+02  0.00000000000E+00 0. -1.
<mgrwt>
<rscale>  0 0.27766297E+03</rscale>
<asrwt>0</asrwt>
<pdfrwt beam="1">  1        2 0.35468756E-01 0.28130450E+03</pdfrwt>
<pdfrwt beam="2">  1       -2 0.57759758E-01 0.28130450E+03</pdfrwt>
<totfact> 0.41898037E+02</totfact>
</mgrwt>
</event>
<event>
 6    1  0.5258538E-006  0.1400454E+03  0.7546771E-02  0.1226246E+00
         -3   -1    0    0    0  501 -0.00000000000E+00  0.00000000000E+00  0.69543962870E+02  0.69543962870E+02  0.00000000000E+00 0.  1.
          3   -1    0    0  501    0  0.00000000000E+00 -0.00000000000E+00 -0.22542174697E+03  0.22542174697E+03  0.00000000000E+00 0. -1.
          5    1    1    2  502    0  0.91481512601E+02  0.14447329326E+02 -0.52382445755E+02  0.10650635237E+03  0.47000000000E+01 0. -1.
         -5    1    1    2    0  502 -0.31197375254E+02 -0.33265744073E+02 -0.10637345491E+02  0.47065157713E+02  0.47000000000E+01 0. -1.
        -11    1    1    2    0    0 -0.14434850717E+02 -0.28208627675E+02 -0.55968761770E+01  0.32177890134E+02  0.00000000000E+00 0.  1.
         11    1    1    2    0    0 -0.45849286630E+02  0.47027042422E+02 -0.87261116678E+02  0.10921630962E+03  0.00000000000E+00 0. -1.
<mgrwt>
<rscale>  0 0.13081885E+03</rscale>
<asrwt>0</asrwt>
<pdfrwt beam="2">  1        3 0.34680268E-01 0.14004540E+03</pdfrwt>
<pdfrwt beam="1">  1       -3 0.10699071E-01 0.14004540E+03</pdfrwt>
<totfact> 0.12459498E+03</totfact>
</mgrwt>
</event>
<event>
 6    1  0.5258538E-006  0.1310871E+03  0.7546771E-02  0.1238728E+00
         -1   -1    0    0    0  501 -0.00000000000E+00  0.00000000000E+00  0.25175937441E+02  0.25175937441E+02  0.00000000000E+00 0.  1.
          1   -1    0    0  501    0  0.00000000000E+00 -0.00000000000E+00 -0.54879589074E+03  0.54879589074E+03  0.00000000000E+00 0. -1.
          5    1    1    2  502    0 -0.84502559831E+01  0.43899608696E+02 -0.16087466410E+03  0.16703691215E+03  0.47000000000E+01 0.  1.
         -5    1    1    2    0  502  0.28841455264E+02 -0.77756823288E+02 -0.18275329798E+03  0.20074563764E+03  0.47000000000E+01 0.  1.
        -11    1    1    2    0    0  0.13058102218E+02 -0.10898431416E+02  0.73283906459E+00  0.17024303039E+02  0.00000000000E+00 0.  1.
         11    1    1    2    0    0 -0.33449301499E+02  0.44755646007E+02 -0.18072483027E+03  0.18916497534E+03  0.00000000000E+00 0. -1.
<mgrwt>
<rscale>  0 0.12268767E+03</rscale>
<asrwt>0</asrwt>
<pdfrwt beam="2">  1        1 0.84430136E-01 0.13108710E+03</pdfrwt>
<pdfrwt beam="1">  1       -1 0.38732212E-02 0.13108710E+03</pdfrwt>
<totfact> 0.97755215E+03</totfact>
</mgrwt>
</event>
<event>
 6    1  0.5258538E-006  0.1352064E+03  0.7546771E-02  0.1232405E+00
          2   -1    0    0  501    0  0.00000000000E+00  0.00000000000E+00  0.14912797943E+03  0.14912797943E+03  0.00000000000E+00 0. -1.
         -2   -1    0    0    0  501 -0.00000000000E+00 -0.00000000000E+00 -0.13782076316E+03  0.13782076316E+03  0.00000000000E+00 0.  1.
          5    1    1    2  502    0 -0.35780109974E+02 -0.43124942726E+02 -0.71388213823E+01  0.56683593090E+02  0.47000000000E+01 0. -1.
         -5    1    1    2    0  502  0.45587725205E+02 -0.74961487120E+01  0.91700933779E+02  0.10278902758E+03  0.47000000000E+01 0. -1.
        -11    1    1    2    0    0 -0.44900728880E+02  0.13985765750E+02 -0.57650051978E+02  0.74398962295E+02  0.00000000000E+00 0.  1.
         11    1    1    2    0    0  0.35093113649E+02  0.36635325688E+02 -0.15604844149E+02  0.53077159633E+02  0.00000000000E+00 0. -1.
<mgrwt>
<rscale>  0 0.12672021E+03</rscale>
<asrwt>0</asrwt>
<pdfrwt beam="1">  1        2 0.22942766E-01 0.13520638E+03</pdfrwt>
<pdfrwt beam="2">  1       -2 0.21203194E-01 0.13520638E+03</pdfrwt>
<totfact> 0.43120792E+03</totfact>
</mgrwt>
</event>
<event>
 6    1  0.5258538E-006  0.1323977E+03  0.7546771E-02  0.1241819E+00
         -3   -1    0    0    0  501 -0.00000000000E+00  0.00000000000E+00  0.42209918617E+02  0.42209918617E+02  0.00000000000E+00 0.  1.
          3   -1    0    0  501    0  0.00000000000E+00 -0.00000000000E+00 -0.30841312568E+03  0.30841312568E+03  0.00000000000E+00 0. -1.
          5    1    1    2  502    0  0.45806840676E+02 -0.20531339568E+02 -0.16330531504E+02  0.52996026420E+02  0.47000000000E+01 0. -1.
         -5    1    1    2    0  502 -0.35797605067E+02 -0.21940522718E+02 -0.17267552437E+03  0.17776889993E+03  0.47000000000E+01 0. -1.
        -11    1    1    2    0    0 -0.44422517432E+02  0.31849458319E+02 -0.37668731089E+02  0.66382839289E+02  0.00000000000E+00 0.  1.
         11    1    1    2    0    0  0.34413281823E+02  0.10622403967E+02 -0.39528420099E+02  0.53475278657E+02  0.00000000000E+00 0. -1.
<mgrwt>
<rscale>  0 0.12077798E+03</rscale>
<asrwt>0</asrwt>
<pdfrwt beam="2">  1        3 0.47448174E-01 0.13239774E+03</pdfrwt>
<pdfrwt beam="1">  1       -3 0.64938336E-02 0.13239774E+03</pdfrwt>
<totfact> 0.15226106E+03</totfact>
</mgrwt>
</event>
<event>
 6    1  0.5258538E-006  0.2999332E+03  0.7546771E-02  0.1085274E+00
         -2   -1    0    0    0  501 -0.00000000000E+00  0.00000000000E+00  0.44857873776E+02  0.44857873776E+02  0.00000000000E+00 0.  1.
          2   -1    0    0  501    0  0.00000000000E+00 -0.00000000000E+00 -0.50136100178E+03  0.50136100178E+03  0.00000000000E+00 0. -1.
          5    1    1    2  502    0  0.26963635825E+02 -0.87014049312E+01 -0.30151712812E+02  0.41640940073E+02  0.47000000000E+01 0. -1.
         -5    1    1    2    0  502 -0.11755877590E+03  0.59986496449E+02 -0.22824061689E+03  0.26369360012E+03  0.47000000000E+01 0. -1.
        -11    1    1    2    0    0  0.90737014148E+02 -0.54105324158E+01 -0.13851215461E+03  0.16567467088E+03  0.00000000000E+00 0. -1.
         11    1    1    2    0    0 -0.14187407709E+00 -0.45874559102E+02 -0.59598643693E+02  0.75209664479E+02  0.00000000000E+00 0.  1.
<mgrwt>
<rscale>  0 0.29993325E+03</rscale>
<asrwt>0</asrwt>
<pdfrwt beam="2">  1        2 0.77132465E-01 0.29993325E+03</pdfrwt>
<pdfrwt beam="1">  1       -2 0.69012111E-02 0.29993325E+03</pdfrwt>
<totfact> 0.73829680E+03</totfact>
</mgrwt>
</event>
<event>
 6    1  0.5258538E-006  0.1458667E+03  0.7546771E-02  0.1217401E+00
         -1   -1    0    0    0  501 -0.00000000000E+00  0.00000000000E+00  0.19244656671E+03  0.19244656671E+03  0.00000000000E+00 0.  1.
          1   -1    0    0  501    0  0.00000000000E+00 -0.00000000000E+00 -0.90662276295E+02  0.90662276295E+02  0.00000000000E+00 0. -1.
          5    1    1    2  502    0  0.84797994941E+02  0.36876949460E+02 -0.42866935083E+01  0.92688052567E+02  0.47000000000E+01 0.  1.
         -5    1    1    2    0  502 -0.38148756152E+02  0.22073958860E+02  0.34757392033E+02  0.56327200859E+02  0.47000000000E+01 0.  1.
        -11    1    1    2    0    0 -0.43899597772E+02  0.89992232970E+01  0.20941329825E+02  0.49464128409E+02  0.00000000000E+00 0.  1.
         11    1    1    2    0    0 -0.27496410172E+01 -0.67950131616E+02  0.50372262067E+02  0.84629461171E+02  0.00000000000E+00 0. -1.
<mgrwt>
<rscale>  0 0.13701611E+03</rscale>
<asrwt>0</asrwt>
<pdfrwt beam="2">  1        1 0.13948043E-01 0.14586666E+03</pdfrwt>
<pdfrwt beam="1">  1       -1 0.29607164E-01 0.14586666E+03</pdfrwt>
<totfact> 0.41274257E+03</totfact>
</mgrwt>
</event>
<event>
 6    1  0.5258538E-006  0.1949188E+03  0.7546771E-02  0.1163004E+00
         -1   -1    0    0    0  501 -0.00000000000E+00  0.00000000000E+00  0.63176473240E+03  0.63176473240E+03  0.00000000000E+00 0.  1.
          1   -1    0    0  501    0  0.00000000000E+00 -0.00000000000E+00 -0.54716170272E+02  0.54716170272E+02  0.00000000000E+00 0. -1.
          5    1    1    2  502    0  0.38606783706E+02 -0.16137035115E+03  0.19290888730E+03  0.25449322737E+03  0.47000000000E+01 0. -1.
         -5    1    1    2    0  502  0.16079216254E+02  0.20917476366E+02  0.15928604174E+02  0.31175189555E+02  0.47000000000E+01 0. -1.
        -11    1    1    2    0    0 -0.57100862799E+02  0.87576638377E+02  0.22407311314E+03  0.24726288876E+03  0.00000000000E+00 0. -1.
         11    1    1    2    0    0  0.24148628395E+01  0.52876236412E+02  0.14413795751E+03  0.15354959699E+03  0.00000000000E+00 0.  1.
<mgrwt>
<rscale>  0 0.18504926E+03</rscale>
<asrwt>0</asrwt>
<pdfrwt beam="2">  1        1 0.84178728E-02 0.19491882E+03</pdfrwt>
<pdfrwt beam="1">  1       -1 0.97194569E-01 0.19491882E+03</pdfrwt>
<totfact> 0.86624186E+02</totfact>
</mgrwt>
</event>
<event>
 6    1  0.5258538E-006  0.1622995E+03  0.7546771E-02  0.1193438E+00
         -2   -1    0    0    0  501 -0.00000000000E+00  0.00000000000E+00  0.50390470895E+02  0.50390470895E+02  0.00000000000E+00 0.  1.
          2   -1    0    0  501    0  0.00000000000E+00 -0.00000000000E+00 -0.47197438126E+03  0.47197438126E+03  0.00000000000E+00 0. -1.
          5    1    1    2  502    0 -0.72856196026E+01 -0.68894498135E+02 -0.56305107736E+02  0.89397356132E+02  0.47000000000E+01 0. -1.
         -5    1    1    2    0  502 -0.67394600791E+02 -0.27805456468E+01 -0.22974583243E+03  0.23948904186E+03  0.47000000000E+01 0. -1.
        -11    1    1    2    0    0 -0.15293947011E+02  0.26847108033E+02 -0.96203047443E+01  0.32360814085E+02  0.00000000000E+00 0.  1.
         11    1    1    2    0    0  0.89974167405E+02  0.44827935749E+02 -0.12591266545E+03  0.16111764008E+03  0.00000000000E+00 0. -1.
<mgrwt>
<rscale>  0 0.15587149E+03</rscale>
<asrwt>0</asrwt>
<pdfrwt beam="2">  1        2 0.72611442E-01 0.16229948E+03</pdfrwt>
<pdfrwt beam="1">  1       -2 0.77523803E-02 0.16229948E+03</pdfrwt>
<totfact> 0.63949931E+03</totfact>
</mgrwt>
</event>
<event>
 6    1  0.5258538E-006  0.1268556E+03  0.7546771E-02  0.1247095E+00
          3   -1    0    0  501    0  0.00000000000E+00  0.00000000000E+00  0.26787312896E+03  0.26787312896E+03  0.00000000000E+00 0. -1.
         -3   -1    0    0    0  501 -0.00000000000E+00 -0.00000000000E+00 -0.54204171761E+02  0.54204171761E+02  0.00000000000E+00 0.  1.
          5    1    1    2  502    0 -0.36227701280E+02  0.57439435243E+02  0.15156769342E+03  0.16615231190E+03  0.47000000000E+01 0.  1.
         -5    1    1    2    0  502  0.20537558517E+02 -0.42519445174E+02  0.32972152321E+02  0.57783625332E+02  0.47000000000E+01 0.  1.
        -11    1    1    2    0    0  0.26492450712E+02  0.33830509286E+02  0.70456904821E+01  0.43543025362E+02  0.00000000000E+00 0. -1.
         11    1    1    2    0    0 -0.10802307950E+02 -0.48750499354E+02  0.22083420975E+02  0.54598338127E+02  0.00000000000E+00 0.  1.
<mgrwt>
<rscale>  0 0.11760859E+03</rscale>
<asrwt>0</asrwt>
<pdfrwt beam="1">  1        3 0.41211250E-01 0.12685562E+03</pdfrwt>
<pdfrwt beam="2">  1       -3 0.83391035E-02 0.12685562E+03</pdfrwt>
<totfact> 0.13287223E+03</totfact>
</mgrwt>
</event>
<event>
 6    1  0.5258538E-006  0.3364637E+03  0.7546771E-02  0.1068312E+00
         -2   -1    0    0    0  501 -0.00000000000E+00  0.00000000000E+00  0.36224598612E+02  0.36224598612E+02  0.00000000000E+00 0. -1.
          2   -1    0    0  501    0  0.00000000000E+00 -0.00000000000E+00 -0.78129119005E+03  0.78129119005E+03  0.00000000000E+00 0.  1.
          5    1    1    2  502    0  0.17842928408E+02 -0.29517556935E+01 -0.16423874558E+03  0.16529833183E+03  0.47000000000E+01 0.  1.
         -5    1    1    2    0  502 -0.86701175203E+02 -0.10580933949E+03 -0.22602379227E+03  0.26423768614E+03  0.47000000000E+01 0.  1.
        -11    1    1    2    0    0  0.88221307377E+02  0.67188377409E+02 -0.24134026059E+03  0.26559818998E+03  0.00000000000E+00 0.  1.
         11    1    1    2    0    0 -0.19363060581E+02  0.41572717776E+02 -0.11346379300E+03  0.12238158072E+03  0.00000000000E+00 0. -1.
<mgrwt>
<rscale>  0 0.33646373E+03</rscale>
<asrwt>0</asrwt>
<pdfrwt beam="2">  1        2 0.12019865E+00 0.33646373E+03</pdfrwt>
<pdfrwt beam="1">  1       -2 0.55730150E-02 0.33646373E+03</pdfrwt>
<totfact> 0.60844571E+03</totfact>
</mgrwt>
</event>
<event>
 6    1  0.5258538E-006  0.1983325E+03  0.7546771E-02  0.1158257E+00
          2   -1    0    0  501    0  0.00000000000E+00  0.00000000000E+00  0.16935076689E+04  0.16935076689E+04  0.00000000000E+00 0. -1.
         -2   -1    0    0    0  501 -0.00000000000E+00 -0.00000000000E+00 -0.22013184506E+02  0.22013184506E+02  0.00000000000E+00 0.  1.
          5    1    1    2  502    0 -0.18450845199E+02 -0.31107692510E+02  0.83303251781E+03  0.83383055110E+03  0.47000000000E+01 0. -1.
         -5    1    1    2    0  502 -0.10286797882E+03 -0.18856050564E+02  0.33678343624E+03  0.35267909583E+03  0.47000000000E+01 0.  1.
        -11    1    1    2    0    0  0.82573918649E+02  0.70300656306E+02  0.44138634271E+03  0.45451351778E+03  0.00000000000E+00 0.  1.
         11    1    1    2    0    0  0.38744905371E+02 -0.20336913232E+02  0.60292187685E+02  0.74497688741E+02  0.00000000000E+00 0. -1.
<mgrwt>
<rscale>  0 0.19022678E+03</rscale>
<asrwt>0</asrwt>
<pdfrwt beam="1">  1        2 0.26053954E+00 0.19833249E+03</pdfrwt>
<pdfrwt beam="2">  1       -2 0.33866451E-02 0.19833249E+03</pdfrwt>
<totfact> 0.37944142E+03</totfact>
</mgrwt>
</event>
<event>
 6    1  0.5258538E-006  0.1272277E+03  0.7546771E-02  0.1248290E+00
         -2   -1    0    0    0  501 -0.00000000000E+00  0.00000000000E+00  0.40369037939E+02  0.40369037939E+02  0.00000000000E+00 0.  1.
          2   -1    0    0  501    0  0.00000000000E+00 -0.00000000000E+00 -0.29813487615E+03  0.29813487615E+03  0.00000000000E+00 0. -1.
          5    1    1    2  502    0 -0.27657504649E+02 -0.61572608448E+02 -0.14420885002E+03  0.15929345906E+03  0.47000000000E+01 0.  1.
         -5    1    1    2    0  502  0.25934646955E+02  0.37939853222E+02 -0.25364470035E+02  0.52701847362E+02  0.47000000000E+01 0.  1.
        -11    1    1    2    0    0 -0.22893744701E+01  0.55189124393E+02 -0.37858684832E+02  0.66965369437E+02  0.00000000000E+00 0.  1.
         11    1    1    2    0    0  0.40122321641E+01 -0.31556369167E+02 -0.50333833323E+02  0.59543238230E+02  0.00000000000E+00 0. -1.
<mgrwt>
<rscale>  0 0.11690641E+03</rscale>
<asrwt>0</asrwt>
<pdfrwt beam="2">  1        2 0.45866902E-01 0.12722774E+03</pdfrwt>
<pdfrwt beam="1">  1       -2 0.62106215E-02 0.12722774E+03</pdfrwt>
<totfact> 0.14436673E+04</totfact>
</mgrwt>
</event>
<event>
 6    1  0.5258538E-006  0.3777959E+03  0.7546771E-02  0.1051751E+00
         -1   -1    0    0    0  501 -0.00000000000E+00  0.00000000000E+00  0.30140272469E+02  0.30140272469E+02  0.00000000000E+00 0.  1.
          1   -1    0    0  501    0  0.00000000000E+00 -0.00000000000E+00 -0.11838789359E+04  0.11838789359E+04  0.00000000000E+00 0. -1.
          5    1    1    2  502    0 -0.10789075567E+02 -0.18000690628E+02 -0.26729099483E+03  0.26815479658E+03  0.47000000000E+01 0. -1.
         -5    1    1    2    0  502  0.14829206556E+03  0.21745331977E+02 -0.55697755510E+03  0.57680974598E+03  0.47000000000E+01 0. -1.
        -11    1    1    2    0    0 -0.68560374914E+02 -0.48475050733E+02 -0.15901833716E+03  0.17982543509E+03  0.00000000000E+00 0. -1.
         11    1    1    2    0    0 -0.68942615080E+02  0.44730409385E+02 -0.17045177629E+03  0.18922923067E+03  0.00000000000E+00 0.  1.
<mgrwt>
<rscale>  0 0.37779589E+03</rscale>
<asrwt>0</asrwt>
<pdfrwt beam="2">  1        1 0.18213521E+00 0.37779589E+03</pdfrwt>
<pdfrwt beam="1">  1       -1 0.46369652E-02 0.37779589E+03</pdfrwt>
<totfact> 0.23189950E+03</totfact>
</mgrwt>
</event>
<event>
 6    1  0.5258538E-006  0.4236207E+03  0.7546771E-02  0.1035894E+00
         -1   -1    0    0    0  501 -0.00000000000E+00  0.00000000000E+00  0.49073095215E+02  0.49073095215E+02  0.00000000000E+00 0.  1.
          1   -1    0    0  501    0  0.00000000000E+00 -0.00000000000E+00 -0.91422025029E+03  0.91422025029E+03  0.00000000000E+00 0. -1.
          5    1    1    2  502    0  0.16227466726E+03  0.82773652776E+02 -0.40056920530E+03  0.44007081642E+03  0.47000000000E+01 0. -1.
         -5    1    1    2    0  502 -0.14997575913E+02  0.14014038930E+02 -0.14843099168E+03  0.14991721003E+03  0.47000000000E+01 0. -1.
        -11    1    1    2    0    0 -0.89192604924E+02 -0.46727858972E+02 -0.91951807726E+02  0.13635962937E+03  0.00000000000E+00 0. -1.
         11    1    1    2    0    0 -0.58084486421E+02 -0.50059832733E+02 -0.22419515037E+03  0.23694568969E+03  0.00000000000E+00 0.  1.
<mgrwt>
<rscale>  0 0.42362067E+03</rscale>
<asrwt>0</asrwt>
<pdfrwt beam="2">  1        1 0.14064926E+00 0.42362067E+03</pdfrwt>
<pdfrwt beam="1">  1       -1 0.75497075E-02 0.42362067E+03</pdfrwt>
<totfact> 0.17529822E+03</totfact>
</mgrwt>
</event>
<event>
 6    1  0.5258538E-006  0.1864942E+03  0.7546771E-02  0.1166765E+00
         -1   -1    0    0    0  501 -0.00000000000E+00  0.00000000000E+00  0.50427929850E+02  0.50427929850E+02  0.00000000000E+00 0.  1.
          1   -1    0    0  501    0  0.00000000000E+00 -0.00000000000E+00 -0.69555302720E+03  0.69555302720E+03  0.00000000000E+00 0. -1.
          5    1    1    2  502    0 -0.37463538731E+02 -0.14429825910E+03 -0.44974056486E+03  0.47382926250E+03  0.47000000000E+01 0.  1.
         -5    1    1    2    0  502 -0.15349030109E+02  0.16369745390E+02 -0.16271503792E+02  0.28114286850E+02  0.47000000000E+01 0.  1.
        -11    1    1    2    0    0  0.19097731725E+02  0.12798959126E+03 -0.15811037639E+03  0.20431580935E+03  0.00000000000E+00 0.  1.
         11    1    1    2    0    0  0.33714837115E+02 -0.61077545588E-01 -0.21002652306E+02  0.39721598357E+02  0.00000000000E+00 0. -1.
<mgrwt>
<rscale>  0 0.18107637E+03</rscale>
<asrwt>0</asrwt>
<pdfrwt beam="2">  1        1 0.10700815E+00 0.18649418E+03</pdfrwt>
<pdfrwt beam="1">  1       -1 0.77581435E-02 0.18649418E+03</pdfrwt>
<totfact> 0.25429737E+03</totfact>
</mgrwt>
</event>
<event>
 6    1  0.5258538E-006  0.1467759E+03  0.7546771E-02  0.1215069E+00
         -1   -1    0    0    0  501 -0.00000000000E+00  0.00000000000E+00  0.19285731842E+02  0.19285731842E+02  0.00000000000E+00 0.  1.
          1   -1    0    0  501    0  0.00000000000E+00 -0.00000000000E+00 -0.10028376117E+04  0.10028376117E+04  0.00000000000E+00 0. -1.
          5    1    1    2  502    0  0.14576395959E+02  0.16992715433E+02 -0.21677986342E+02  0.31515849803E+02  0.47000000000E+01 0.  1.
         -5    1    1    2    0  502  0.29649231039E+02 -0.79946852123E+02 -0.68057495723E+03  0.68591175706E+03  0.47000000000E+01 0.  1.
        -11    1    1    2    0    0 -0.39544620886E+02  0.85165215777E+02 -0.23691240985E+03  0.25484187442E+03  0.00000000000E+00 0.  1.
         11    1    1    2    0    0 -0.46810061127E+01 -0.22211079088E+02 -0.44386526436E+02  0.49853862252E+02  0.00000000000E+00 0. -1.
<mgrwt>
<rscale>  0 0.13871467E+03</rscale>
<asrwt>0</asrwt>
<pdfrwt beam="2">  1        1 0.15428275E+00 0.14677593E+03</pdfrwt>
<pdfrwt beam="1">  1       -1 0.29670349E-02 0.14677593E+03</pdfrwt>
<totfact> 0.59584373E+03</totfact>
</mgrwt>
</event>
<event>
 6    1  0.5258538E-006  0.1572888E+03  0.7546771E-02  0.1199561E+00
          2   -1    0    0  501    0  0.00000000000E+00  0.00000000000E+00  0.93600933996E+03  0.93600933996E+03  0.00000000000E+00 0.  1.
         -2   -1    0    0    0  501 -0.00000000000E+00 -0.00000000000E+00 -0.25122539951E+02  0.25122539951E+02  0.00000000000E+00 0. -1.
          5    1    1    2  502    0 -0.93307061194E+02  0.41266107914E+02  0.63359007333E+03  0.64176909426E+03  0.47000000000E+01 0. -1.
         -5    1    1    2    0  502  0.49854783973E+00 -0.18846166026E+02  0.12297614727E+02  0.22994517864E+02  0.47000000000E+01 0. -1.
        -11    1    1    2    0    0  0.11422157222E+02  0.14141842991E+02  0.15772929002E+01  0.18246787435E+02  0.00000000000E+00 0. -1.
         11    1    1    2    0    0  0.81386356132E+02 -0.36561784879E+02  0.26342181905E+03  0.27812148035E+03  0.00000000000E+00 0.  1.
<mgrwt>
<rscale>  0 0.15074469E+03</rscale>
<asrwt>0</asrwt>
<pdfrwt beam="1">  1        2 0.14400141E+00 0.15728876E+03</pdfrwt>
<pdfrwt beam="2">  1       -2 0.38650069E-02 0.15728876E+03</pdfrwt>
<totfact> 0.81184625E+03</totfact>
</mgrwt>
</event>
<event>
 6    1  0.5258538E-006  0.3762739E+03  0.7546771E-02  0.1052320E+00
         -1   -1    0    0    0  501 -0.00000000000E+00  0.00000000000E+00  0.18049027537E+02  0.18049027537E+02  0.00000000000E+00 0.  1.
          1   -1    0    0  501    0  0.00000000000E+00 -0.00000000000E+00 -0.19610754517E+04  0.19610754517E+04  0.00000000000E+00 0. -1.
          5    1    1    2  502    0  0.79878917796E+02 -0.10708420327E+03 -0.13246901567E+04  0.13314179544E+04  0.47000000000E+01 0. -1.
         -5    1    1    2    0  502 -0.34022908674E+02 -0.65038290085E+01 -0.17553465235E+03  0.17898145793E+03  0.47000000000E+01 0. -1.
        -11    1    1    2    0    0  0.12765201948E+02  0.60339958855E+02 -0.29146978997E+03  0.29792364707E+03  0.00000000000E+00 0. -1.
         11    1    1    2    0    0 -0.58621211070E+02  0.53248073425E+02 -0.15133182511E+03  0.17080141978E+03  0.00000000000E+00 0.  1.
<mgrwt>
<rscale>  0 0.37627386E+03</rscale>
<asrwt>0</asrwt>
<pdfrwt beam="2">  1        1 0.30170388E+00 0.37627386E+03</pdfrwt>
<pdfrwt beam="1">  1       -1 0.27767738E-02 0.37627386E+03</pdfrwt>
<totfact> 0.15031496E+03</totfact>
</mgrwt>
</event>
<event>
 6    1  0.5258538E-006  0.3290114E+03  0.7546771E-02  0.1071575E+00
         -1   -1    0    0    0  501 -0.00000000000E+00  0.00000000000E+00  0.92298446586E+02  0.92298446586E+02  0.00000000000E+00 0.  1.
          1   -1    0    0  501    0  0.00000000000E+00 -0.00000000000E+00 -0.29320240662E+03  0.29320240662E+03  0.00000000000E+00 0. -1.
          5    1    1    2  502    0  0.20195332834E+02  0.62521159585E+00 -0.47751669894E-01  0.20744508623E+02  0.47000000000E+01 0. -1.
         -5    1    1    2    0  502 -0.56981210714E+02 -0.24062213963E+02 -0.24632230592E+03  0.25401302508E+03  0.47000000000E+01 0.  1.
        -11    1    1    2    0    0  0.33857091836E+02 -0.25719700695E+02 -0.17042012299E+01  0.42552437924E+02  0.00000000000E+00 0. -1.
         11    1    1    2    0    0  0.29287860437E+01  0.49156703062E+02  0.47170298784E+02  0.68190881583E+02  0.00000000000E+00 0.  1.
<mgrwt>
<rscale>  0 0.32901141E+03</rscale>
<asrwt>0</asrwt>
<pdfrwt beam="2">  1        1 0.45108062E-01 0.32901141E+03</pdfrwt>
<pdfrwt beam="1">  1       -1 0.14199761E-01 0.32901141E+03</pdfrwt>
<totfact> 0.31688186E+03</totfact>
</mgrwt>
</event>
<event>
 6    1  0.5258538E-006  0.1783758E+03  0.7546771E-02  0.1198066E+00
          2   -1    0    0  501    0  0.00000000000E+00  0.00000000000E+00  0.48207445283E+03  0.48207445283E+03  0.00000000000E+00 0. -1.
         -2   -1    0    0    0  501 -0.00000000000E+00 -0.00000000000E+00 -0.64096486790E+02  0.64096486790E+02  0.00000000000E+00 0.  1.
          5    1    1    2  502    0  0.11506629600E+02  0.38452500174E+02  0.41378267356E+03  0.41575135385E+03  0.47000000000E+01 0. -1.
         -5    1    1    2    0  502 -0.24741199639E+02 -0.26219405299E+02  0.16900597871E+01  0.36394099465E+02  0.47000000000E+01 0.  1.
        -11    1    1    2    0    0 -0.37301766290E+02 -0.16927525774E+02 -0.91002523092E+01  0.41961619240E+02  0.00000000000E+00 0. -1.
         11    1    1    2    0    0  0.50536336329E+02  0.46944308987E+01  0.11605485002E+02  0.52063867059E+02  0.00000000000E+00 0.  1.
<mgrwt>
<rscale>  0 0.15197591E+03</rscale>
<asrwt>0</asrwt>
<pdfrwt beam="1">  1        2 0.74165298E-01 0.17837578E+03</pdfrwt>
<pdfrwt beam="2">  1       -2 0.98609982E-02 0.17837578E+03</pdfrwt>
<totfact> 0.43089837E+03</totfact>
</mgrwt>
</event>
<event>
 6    1  0.5258538E-006  0.1397238E+03  0.7546771E-02  0.1225776E+00
         -1   -1    0    0    0  501 -0.00000000000E+00  0.00000000000E+00  0.13419764298E+02  0.13419764298E+02  0.00000000000E+00 0. -1.
          1   -1    0    0  501    0  0.00000000000E+00 -0.00000000000E+00 -0.13388954607E+04  0.13388954607E+04  0.00000000000E+00 0.  1.
          5    1    1    2  502    0  0.82486944221E+02  0.18243418327E+02 -0.88801599020E+03  0.89203778347E+03  0.47000000000E+01 0.  1.
         -5    1    1    2    0  502 -0.30321310841E+02  0.16094518112E+02 -0.10051923702E+03  0.10632319792E+03  0.47000000000E+01 0.  1.
        -11    1    1    2    0    0 -0.69428314209E+02 -0.49277434422E+02 -0.25168817316E+03  0.26569812356E+03  0.00000000000E+00 0. -1.
         11    1    1    2    0    0  0.17262680829E+02  0.14939497984E+02 -0.85252296053E+02  0.88256120081E+02  0.00000000000E+00 0.  1.
<mgrwt>
<rscale>  0 0.13113828E+03</rscale>
<asrwt>0</asrwt>
<pdfrwt beam="2">  1        1 0.20598396E+00 0.13972385E+03</pdfrwt>
<pdfrwt beam="1">  1       -1 0.20645787E-02 0.13972385E+03</pdfrwt>
<totfact> 0.58863714E+03</totfact>
</mgrwt>
</event>
<event>
 6    1  0.5258538E-006  0.1246054E+03  0.7546771E-02  0.1248691E+00
         -3   -1    0    0    0  501 -0.00000000000E+00  0.00000000000E+00  0.45722812428E+03  0.45722812428E+03  0.00000000000E+00 0.  1.
          3   -1    0    0  501    0  0.00000000000E+00 -0.00000000000E+00 -0.48752986208E+02  0.48752986208E+02  0.00000000000E+00 0. -1.
          5    1    1    2  502    0  0.10043558210E+02  0.59524515204E+02  0.53209514694E+01  0.60781933963E+02  0.47000000000E+01 0. -1.
         -5    1    1    2    0  502 -0.33383106831E+02 -0.48010519392E+02  0.43558439915E+02  0.73067567920E+02  0.47000000000E+01 0.  1.
        -11    1    1    2    0    0  0.46310009396E+02 -0.38394952122E+02  0.21299139669E+03  0.22132357394E+03  0.00000000000E+00 0.  1.
         11    1    1    2    0    0 -0.22970460775E+02  0.26880956310E+02  0.14660435000E+03  0.15080803467E+03  0.00000000000E+00 0. -1.
<mgrwt>
<rscale>  0 0.11667168E+03</rscale>
<asrwt>0</asrwt>
<pdfrwt beam="2">  1        3 0.75004597E-02 0.12460535E+03</pdfrwt>
<pdfrwt beam="1">  1       -3 0.70342786E-01 0.12460535E+03</pdfrwt>
<totfact> 0.53429331E+02</totfact>
</mgrwt>
</event>
<event>
 6    1  0.5258538E-006  0.2537606E+03  0.7546771E-02  0.1113381E+00
         -2   -1    0    0    0  501 -0.00000000000E+00  0.00000000000E+00  0.33659301560E+03  0.33659301560E+03  0.00000000000E+00 0.  1.
          2   -1    0    0  501    0  0.00000000000E+00 -0.00000000000E+00 -0.18328598055E+03  0.18328598055E+03  0.00000000000E+00 0. -1.
          5    1    1    2  502    0 -0.82728834545E+01  0.77833104245E+01  0.49669026491E+02  0.51167594378E+02  0.47000000000E+01 0.  1.
         -5    1    1    2    0  502  0.10260223337E+03  0.19189800415E+03  0.63858077512E+02  0.22683034707E+03  0.47000000000E+01 0.  1.
        -11    1    1    2    0    0 -0.86176064059E+02 -0.12552893732E+03 -0.93626666421E+01  0.15254995132E+03  0.00000000000E+00 0. -1.
         11    1    1    2    0    0 -0.81532858527E+01 -0.74152377258E+02  0.49142597694E+02  0.89331103382E+02  0.00000000000E+00 0.  1.
<mgrwt>
<rscale>  0 0.24987919E+03</rscale>
<asrwt>0</asrwt>
<pdfrwt beam="2">  1        2 0.28197843E-01 0.25376062E+03</pdfrwt>
<pdfrwt beam="1">  1       -2 0.51783541E-01 0.25376062E+03</pdfrwt>
<totfact> 0.67347194E+02</totfact>
</mgrwt>
</event>
<event>
 6    1  0.5258538E-006  0.1261759E+03  0.7546771E-02  0.1261276E+00
          2   -1    0    0  501    0  0.00000000000E+00  0.00000000000E+00  0.12237815557E+03  0.12237815557E+03  0.00000000000E+00 0. -1.
         -2   -1    0    0    0  501 -0.00000000000E+00 -0.00000000000E+00 -0.13219511152E+03  0.13219511152E+03  0.00000000000E+00 0.  1.
          5    1    1    2  502    0  0.53383776128E+02  0.12209831953E+02 -0.12030079716E+01  0.54976765803E+02  0.47000000000E+01 0. -1.
         -5    1    1    2    0  502 -0.25566932801E+02 -0.45838916247E+02  0.73516071460E+02  0.90452070504E+02  0.47000000000E+01 0.  1.
        -11    1    1    2    0    0  0.79733669577E+01  0.32577597752E+02 -0.54182493931E+02  0.63722971561E+02  0.00000000000E+00 0. -1.
         11    1    1    2    0    0 -0.35790210285E+02  0.10514865416E+01 -0.27947525508E+02  0.45421459226E+02  0.00000000000E+00 0.  1.
<mgrwt>
<rscale>  0 0.10961979E+03</rscale>
<asrwt>0</asrwt>
<pdfrwt beam="1">  1        2 0.18827409E-01 0.12617594E+03</pdfrwt>
<pdfrwt beam="2">  1       -2 0.20337709E-01 0.12617594E+03</pdfrwt>
<totfact> 0.57545326E+03</totfact>
</mgrwt>
</event>
<event>
 6    1  0.5258538E-006  0.1268460E+03  0.7546771E-02  0.1247468E+00
          2   -1    0    0  501    0  0.00000000000E+00  0.00000000000E+00  0.10217770652E+03  0.10217770652E+03  0.00000000000E+00 0. -1.
         -2   -1    0    0    0  501 -0.00000000000E+00 -0.00000000000E+00 -0.17127084642E+03  0.17127084642E+03  0.00000000000E+00 0.  1.
          5    1    1    2  502    0  0.11841750551E+02  0.50767135837E+02  0.88859715732E+01  0.53090296929E+02  0.47000000000E+01 0.  1.
         -5    1    1    2    0  502 -0.16087744919E+02 -0.71929959696E+02  0.28312442595E+02  0.79097528685E+02  0.47000000000E+01 0.  1.
        -11    1    1    2    0    0  0.37520790698E+02  0.38990687771E+02 -0.51335631069E+02  0.74588407173E+02  0.00000000000E+00 0. -1.
         11    1    1    2    0    0 -0.33274796329E+02 -0.17827863912E+02 -0.54955922999E+02  0.66672320157E+02  0.00000000000E+00 0.  1.
<mgrwt>
<rscale>  0 0.11738877E+03</rscale>
<asrwt>0</asrwt>
<pdfrwt beam="1">  1        2 0.15719647E-01 0.12684597E+03</pdfrwt>
<pdfrwt beam="2">  1       -2 0.26349361E-01 0.12684597E+03</pdfrwt>
<totfact> 0.45318000E+03</totfact>
</mgrwt>
</event>
<event>
 6    1  0.5258538E-006  0.1744571E+03  0.7546771E-02  0.1197986E+00
         -4   -1    0    0    0  501 -0.00000000000E+00  0.00000000000E+00  0.15031952502E+03  0.15031952502E+03  0.00000000000E+00 0.  1.
          4   -1    0    0  501    0  0.00000000000E+00 -0.00000000000E+00 -0.18806552230E+03  0.18806552230E+03  0.00000000000E+00 0. -1.
          5    1    1    2  502    0  0.99543545311E+01  0.49894873641E+02 -0.11094621938E+03  0.12214639243E+03  0.47000000000E+01 0. -1.
         -5    1    1    2    0  502  0.29818111890E+01 -0.87619176827E+02 -0.62442689304E+01  0.88017567793E+02  0.47000000000E+01 0.  1.
        -11    1    1    2    0    0  0.33156498555E+02  0.35339339082E+02  0.62431303027E+02  0.79030942553E+02  0.00000000000E+00 0. -1.
         11    1    1    2    0    0 -0.46092664275E+02  0.23849641041E+01  0.17013188011E+02  0.49190144542E+02  0.00000000000E+00 0.  1.
<mgrwt>
<rscale>  0 0.15204197E+03</rscale>
<asrwt>0</asrwt>
<pdfrwt beam="2">  1        4 0.28933157E-01 0.17445710E+03</pdfrwt>
<pdfrwt beam="1">  1       -4 0.23126081E-01 0.17445710E+03</pdfrwt>
<totfact> 0.34275277E+02</totfact>
</mgrwt>
</event>
<event>
 6    1  0.5378605E-006  0.1278562E+03  0.7546771E-02  0.1245862E+00
          1   -1    0    0  501    0  0.00000000000E+00  0.00000000000E+00  0.20042835845E+03  0.20042835845E+03  0.00000000000E+00 0. -1.
         -1   -1    0    0    0  501 -0.00000000000E+00 -0.00000000000E+00 -0.61990664062E+02  0.61990664062E+02  0.00000000000E+00 0.  1.
          5    1    1    2  502    0  0.11008459577E+02 -0.52566905360E+01 -0.30585903697E+02  0.33262689047E+02  0.47000000000E+01 0. -1.
         -5    1    1    2    0  502  0.15652620739E+02  0.19172582639E+01  0.12399021644E+03  0.12507735282E+03  0.47000000000E+01 0. -1.
        -11    1    1    2    0    0 -0.31803117122E+02  0.14856873197E+02 -0.18241611427E+02  0.39559086534E+02  0.00000000000E+00 0.  1.
         11    1    1    2    0    0  0.51420368059E+01 -0.11517440925E+02  0.63274993076E+02  0.64519894116E+02  0.00000000000E+00 0. -1.
<mgrwt>
<rscale>  0 0.11833929E+03</rscale>
<asrwt>0</asrwt>
<pdfrwt beam="1">  1        1 0.30835132E-01 0.12785618E+03</pdfrwt>
<pdfrwt beam="2">  1       -1 0.95370254E-02 0.12785618E+03</pdfrwt>
<totfact> 0.90234827E+03</totfact>
</mgrwt>
</event>
<event>
 6    1  0.5258538E-006  0.1575208E+03  0.7546771E-02  0.1199659E+00
         -1   -1    0    0    0  501 -0.00000000000E+00  0.00000000000E+00  0.80541837387E+02  0.80541837387E+02  0.00000000000E+00 0.  1.
          1   -1    0    0  501    0  0.00000000000E+00 -0.00000000000E+00 -0.26934038073E+03  0.26934038073E+03  0.00000000000E+00 0. -1.
          5    1    1    2  502    0  0.47192528046E+02 -0.50435957437E+02 -0.65336174757E+02  0.95193624986E+02  0.47000000000E+01 0.  1.
         -5    1    1    2    0  502 -0.78137515037E+02 -0.40287537225E+02 -0.69805125318E+02  0.11235391596E+03  0.47000000000E+01 0.  1.
        -11    1    1    2    0    0  0.12841482327E+02  0.14917345249E+02 -0.60956612747E+02  0.64055753022E+02  0.00000000000E+00 0. -1.
         11    1    1    2    0    0  0.18103504663E+02  0.75806149413E+02  0.72993694834E+01  0.78278924142E+02  0.00000000000E+00 0.  1.
<mgrwt>
<rscale>  0 0.15066414E+03</rscale>
<asrwt>0</asrwt>
<pdfrwt beam="2">  1        1 0.41436982E-01 0.15752083E+03</pdfrwt>
<pdfrwt beam="1">  1       -1 0.12391052E-01 0.15752083E+03</pdfrwt>
<totfact> 0.42408511E+03</totfact>
</mgrwt>
</event>
<event>
 6    1  0.5258538E-006  0.1914465E+03  0.7546771E-02  0.1162000E+00
         -1   -1    0    0    0  501 -0.00000000000E+00  0.00000000000E+00  0.34581669518E+02  0.34581669518E+02  0.00000000000E+00 0.  1.
          1   -1    0    0  501    0  0.00000000000E+00 -0.00000000000E+00 -0.10002330104E+04  0.10002330104E+04  0.00000000000E+00 0. -1.
          5    1    1    2  502    0 -0.61826359514E+02  0.11975721654E+02 -0.29201255759E+03  0.29876301717E+03  0.47000000000E+01 0.  1.
         -5    1    1    2    0  502  0.74025854015E+01  0.12243746241E+03 -0.33249019140E+03  0.35442565913E+03  0.47000000000E+01 0.  1.
        -11    1    1    2    0    0 -0.21914663637E+02 -0.80319500468E+01 -0.43285771302E+02  0.49177461312E+02  0.00000000000E+00 0. -1.
         11    1    1    2    0    0  0.76338437750E+02 -0.12638123402E+03 -0.29786282061E+03  0.33244854233E+03  0.00000000000E+00 0.  1.
<mgrwt>
<rscale>  0 0.18612835E+03</rscale>
<asrwt>0</asrwt>
<pdfrwt beam="2">  1        1 0.15388197E+00 0.19144650E+03</pdfrwt>
<pdfrwt beam="1">  1       -1 0.53202578E-02 0.19144650E+03</pdfrwt>
<totfact> 0.25471967E+03</totfact>
</mgrwt>
</event>
<event>
 6    1  0.5258538E-006  0.1287415E+03  0.7546771E-02  0.1241367E+00
         -3   -1    0    0    0  501 -0.00000000000E+00  0.00000000000E+00  0.61138439571E+02  0.61138439571E+02  0.00000000000E+00 0.  1.
          3   -1    0    0  501    0  0.00000000000E+00 -0.00000000000E+00 -0.25202073603E+03  0.25202073603E+03  0.00000000000E+00 0. -1.
          5    1    1    2  502    0 -0.13850855812E+01  0.62855065056E+02 -0.16485344311E+03  0.17649766392E+03  0.47000000000E+01 0. -1.
         -5    1    1    2    0  502 -0.25296729536E+01 -0.32288944495E+02 -0.72867468217E-01  0.32727213317E+02  0.47000000000E+01 0. -1.
        -11    1    1    2    0    0  0.30267561682E+02 -0.55453446422E+02 -0.24175099691E+02  0.67643517467E+02  0.00000000000E+00 0. -1.
         11    1    1    2    0    0 -0.26352803147E+02  0.24887325861E+02 -0.17808861907E+01  0.36290780893E+02  0.00000000000E+00 0.  1.
<mgrwt>
<rscale>  0 0.12105497E+03</rscale>
<asrwt>0</asrwt>
<pdfrwt beam="2">  1        3 0.38772420E-01 0.12874145E+03</pdfrwt>
<pdfrwt beam="1">  1       -3 0.94059139E-02 0.12874145E+03</pdfrwt>
<totfact> 0.12301280E+03</totfact>
</mgrwt>
</event>
<event>
 6    1  0.5258538E-006  0.1324799E+03  0.7546771E-02  0.1236769E+00
         -2   -1    0    0    0  501 -0.00000000000E+00  0.00000000000E+00  0.39115712443E+03  0.39115712443E+03  0.00000000000E+00 0.  1.
          2   -1    0    0  501    0  0.00000000000E+00 -0.00000000000E+00 -0.35485464323E+02  0.35485464323E+02  0.00000000000E+00 0. -1.
          5    1    1    2  502    0 -0.55814537652E+02 -0.10936934845E+02  0.36283809076E+02  0.67627538460E+02  0.47000000000E+01 0.  1.
         -5    1    1    2    0  502  0.52023245860E+02 -0.32777108532E+02  0.13920395986E+03  0.15225173035E+03  0.47000000000E+01 0.  1.
        -11    1    1    2    0    0  0.46599078461E+02  0.27197687094E+02  0.11524425448E+03  0.12724946557E+03  0.00000000000E+00 0. -1.
         11    1    1    2    0    0 -0.42807786670E+02  0.16516356283E+02  0.64939636695E+02  0.79513854381E+02  0.00000000000E+00 0.  1.
<mgrwt>
<rscale>  0 0.12391882E+03</rscale>
<asrwt>0</asrwt>
<pdfrwt beam="2">  1        2 0.54593025E-02 0.13247994E+03</pdfrwt>
<pdfrwt beam="1">  1       -2 0.60178016E-01 0.13247994E+03</pdfrwt>
<totfact> 0.35017560E+03</totfact>
</mgrwt>
</event>
<event>
 6    1  0.5258538E-006  0.1462368E+03  0.7546771E-02  0.1239903E+00
          2   -1    0    0  501    0  0.00000000000E+00  0.00000000000E+00  0.49978438718E+03  0.49978438718E+03  0.00000000000E+00 0. -1.
         -2   -1    0    0    0  501 -0.00000000000E+00 -0.00000000000E+00 -0.23859566305E+02  0.23859566305E+02  0.00000000000E+00 0.  1.
          5    1    1    2  502    0  0.75820893610E+02 -0.58433190102E+01  0.19140001609E+03  0.20600730192E+03  0.47000000000E+01 0. -1.
         -5    1    1    2    0  502 -0.54309960551E+02 -0.43656706808E+02  0.15630693960E+03  0.17119996855E+03  0.47000000000E+01 0.  1.
        -11    1    1    2    0    0  0.10601614329E+02  0.32858751757E+02  0.60066907727E+02  0.69282935830E+02  0.00000000000E+00 0. -1.
         11    1    1    2    0    0 -0.32112547388E+02  0.16641274062E+02  0.68150957453E+02  0.77153747180E+02  0.00000000000E+00 0.  1.
<mgrwt>
<rscale>  0 0.12195675E+03</rscale>
<asrwt>0</asrwt>
<pdfrwt beam="1">  1        2 0.76889898E-01 0.14623679E+03</pdfrwt>
<pdfrwt beam="2">  1       -2 0.36707029E-02 0.14623679E+03</pdfrwt>
<totfact> 0.18474377E+04</totfact>
</mgrwt>
</event>
<event>
 6    1  0.5258538E-006  0.3956578E+03  0.7546771E-02  0.1045294E+00
          1   -1    0    0  501    0  0.00000000000E+00  0.00000000000E+00  0.13416718392E+04  0.13416718392E+04  0.00000000000E+00 0. -1.
         -1   -1    0    0    0  501 -0.00000000000E+00 -0.00000000000E+00 -0.29169785444E+02  0.29169785444E+02  0.00000000000E+00 0.  1.
          5    1    1    2  502    0  0.12437265149E+03  0.79993989210E+02  0.65538762440E+03  0.67187991707E+03  0.47000000000E+01 0. -1.
         -5    1    1    2    0  502 -0.29069457824E+02  0.37059385402E+02  0.25636514561E+03  0.26069831091E+03  0.47000000000E+01 0. -1.
        -11    1    1    2    0    0 -0.55748572300E+02 -0.26516685102E+02  0.25371767956E+03  0.26112008506E+03  0.00000000000E+00 0. -1.
         11    1    1    2    0    0 -0.39554621366E+02 -0.90536689510E+02  0.14703160422E+03  0.17714331164E+03  0.00000000000E+00 0.  1.
<mgrwt>
<rscale>  0 0.39565783E+03</rscale>
<asrwt>0</asrwt>
<pdfrwt beam="1">  1        1 0.20641100E+00 0.39565783E+03</pdfrwt>
<pdfrwt beam="2">  1       -1 0.44876604E-02 0.39565783E+03</pdfrwt>
<totfact> 0.18898025E+03</totfact>
</mgrwt>
</event>
<event>
 6    1  0.5258538E-006  0.1355354E+03  0.7546771E-02  0.1231828E+00
          2   -1    0    0  501    0  0.00000000000E+00  0.00000000000E+00  0.75309174400E+03  0.75309174400E+03  0.00000000000E+00 0. -1.
         -2   -1    0    0    0  501 -0.00000000000E+00 -0.00000000000E+00 -0.23081024533E+02  0.23081024533E+02  0.00000000000E+00 0.  1.
          5    1    1    2  502    0  0.16062454178E+02 -0.38525268336E+02  0.25242440992E+03  0.25589523531E+03  0.47000000000E+01 0. -1.
         -5    1    1    2    0  502 -0.61319767473E+02  0.64861478357E+02  0.30990560324E+03  0.32253790193E+03  0.47000000000E+01 0. -1.
        -11    1    1    2    0    0  0.87481189313E+01 -0.56375470726E+02  0.10099635468E+03  0.11599563329E+03  0.00000000000E+00 0. -1.
         11    1    1    2    0    0  0.36509194364E+02  0.30039260705E+02  0.66684351627E+02  0.81743997998E+02  0.00000000000E+00 0.  1.
<mgrwt>
<rscale>  0 0.12709702E+03</rscale>
<asrwt>0</asrwt>
<pdfrwt beam="1">  1        2 0.11586025E+00 0.13553542E+03</pdfrwt>
<pdfrwt beam="2">  1       -2 0.35509274E-02 0.13553542E+03</pdfrwt>
<totfact> 0.12041376E+04</totfact>
</mgrwt>
</event>
<event>
 6    1  0.5258538E-006  0.2244825E+03  0.7546771E-02  0.1130585E+00
         -4   -1    0    0    0  501 -0.00000000000E+00  0.00000000000E+00  0.15243007153E+03  0.15243007153E+03  0.00000000000E+00 0.  1.
          4   -1    0    0  501    0  0.00000000000E+00 -0.00000000000E+00 -0.82648396467E+02  0.82648396467E+02  0.00000000000E+00 0. -1.
          5    1    1    2  502    0  0.28620264984E+02  0.28655386825E+02  0.38811195812E+02  0.56290760185E+02  0.47000000000E+01 0. -1.
         -5    1    1    2    0  502 -0.56307170025E+02 -0.47551339694E+02  0.23459909684E+02  0.77486028839E+02  0.47000000000E+01 0.  1.
        -11    1    1    2    0    0  0.19935348037E+02  0.25121499369E+01  0.50660470326E+02  0.54499653689E+02  0.00000000000E+00 0.  1.
         11    1    1    2    0    0  0.77515570036E+01  0.16383802933E+02 -0.43149900763E+02  0.46802025280E+02  0.00000000000E+00 0. -1.
<mgrwt>
<rscale>  0 0.22448252E+03</rscale>
<asrwt>0</asrwt>
<pdfrwt beam="2">  1        4 0.12715138E-01 0.22448252E+03</pdfrwt>
<pdfrwt beam="1">  1       -4 0.23450780E-01 0.22448252E+03</pdfrwt>
<totfact> 0.15430706E+03</totfact>
</mgrwt>
</event>
<event>
 6    1  0.5258538E-006  0.3617091E+03  0.7546771E-02  0.1057909E+00
         -1   -1    0    0    0  501 -0.00000000000E+00  0.00000000000E+00  0.16202261911E+03  0.16202261911E+03  0.00000000000E+00 0.  1.
          1   -1    0    0  501    0  0.00000000000E+00 -0.00000000000E+00 -0.20187528839E+03  0.20187528839E+03  0.00000000000E+00 0. -1.
          5    1    1    2  502    0 -0.96067541019E+02 -0.12356139760E+03 -0.40823250745E+02  0.16181785815E+03  0.47000000000E+01 0.  1.
         -5    1    1    2    0  502 -0.59519409723E+00  0.25330602549E+02 -0.23986656861E+02  0.35205729489E+02  0.47000000000E+01 0.  1.
        -11    1    1    2    0    0  0.31156457780E+02  0.20357630082E+02  0.49755744331E+02  0.62135272252E+02  0.00000000000E+00 0.  1.
         11    1    1    2    0    0  0.65506277336E+02  0.77873164970E+02 -0.24798506007E+02  0.10473904760E+03  0.00000000000E+00 0. -1.
<mgrwt>
<rscale>  0 0.36170907E+03</rscale>
<asrwt>0</asrwt>
<pdfrwt beam="2">  1        1 0.31057737E-01 0.36170907E+03</pdfrwt>
<pdfrwt beam="1">  1       -1 0.24926557E-01 0.36170907E+03</pdfrwt>
<totfact> 0.20360232E+03</totfact>
</mgrwt>
</event>
<event>
 6    1  0.5258538E-006  0.2012390E+03  0.7546771E-02  0.1152956E+00
         -3   -1    0    0    0  501 -0.00000000000E+00  0.00000000000E+00  0.38200485845E+03  0.38200485845E+03  0.00000000000E+00 0.  1.
          3   -1    0    0  501    0  0.00000000000E+00 -0.00000000000E+00 -0.10314850143E+03  0.10314850143E+03  0.00000000000E+00 0. -1.
          5    1    1    2  502    0 -0.90016648483E+02 -0.89319683560E+02  0.10261467777E+03  0.16319578723E+03  0.47000000000E+01 0. -1.
         -5    1    1    2    0  502 -0.58583378919E+02  0.36495141749E+02  0.10670698065E+03  0.12717066240E+03  0.47000000000E+01 0. -1.
        -11    1    1    2    0    0  0.24503184919E+02 -0.22274697739E+02  0.29407531400E+02  0.44287369910E+02  0.00000000000E+00 0.  1.
         11    1    1    2    0    0  0.12409684248E+03  0.75099239549E+02  0.40127167197E+02  0.15049954034E+03  0.00000000000E+00 0. -1.
<mgrwt>
<rscale>  0 0.19623380E+03</rscale>
<asrwt>0</asrwt>
<pdfrwt beam="2">  1        3 0.15869000E-01 0.20123896E+03</pdfrwt>
<pdfrwt beam="1">  1       -3 0.58769977E-01 0.20123896E+03</pdfrwt>
<totfact> 0.23642861E+02</totfact>
</mgrwt>
</event>
<event>
 6    1  0.5258538E-006  0.1561792E+03  0.7546771E-02  0.1198061E+00
          2   -1    0    0  501    0  0.00000000000E+00  0.00000000000E+00  0.63829328646E+03  0.63829328646E+03  0.00000000000E+00 0.  1.
         -2   -1    0    0    0  501 -0.00000000000E+00 -0.00000000000E+00 -0.49533348058E+02  0.49533348058E+02  0.00000000000E+00 0. -1.
          5    1    1    2  502    0  0.47230243702E+02 -0.25380808979E+02  0.38033501725E+03  0.38412458491E+03  0.47000000000E+01 0.  1.
         -5    1    1    2    0  502  0.40340347156E+02  0.58524743177E+02  0.11526244888E+03  0.13549911916E+03  0.47000000000E+01 0.  1.
        -11    1    1    2    0    0 -0.17738375964E+02 -0.61186623008E+02  0.53197436131E+02  0.82996506119E+02  0.00000000000E+00 0. -1.
         11    1    1    2    0    0 -0.69832214893E+02  0.28042688810E+02  0.39965036139E+02  0.85206424325E+02  0.00000000000E+00 0.  1.
<mgrwt>
<rscale>  0 0.15197962E+03</rscale>
<asrwt>0</asrwt>
<pdfrwt beam="1">  1        2 0.98198961E-01 0.15617921E+03</pdfrwt>
<pdfrwt beam="2">  1       -2 0.76205155E-02 0.15617921E+03</pdfrwt>
<totfact> 0.46670175E+03</totfact>
</mgrwt>
</event>
<event>
 6    1  0.5258538E-006  0.1635316E+03  0.7546771E-02  0.1191815E+00
         -2   -1    0    0    0  501 -0.00000000000E+00  0.00000000000E+00  0.56382811963E+03  0.56382811963E+03  0.00000000000E+00 0. -1.
          2   -1    0    0  501    0  0.00000000000E+00 -0.00000000000E+00 -0.42612011656E+02  0.42612011656E+02  0.00000000000E+00 0.  1.
          5    1    1    2  502    0 -0.26507862554E+02 -0.21631930562E+02  0.18724493612E+03  0.19040315990E+03  0.47000000000E+01 0.  1.
         -5    1    1    2    0  502 -0.75947876708E+02 -0.32600900720E+01  0.30807566686E+02  0.82157801387E+02  0.47000000000E+01 0.  1.
        -11    1    1    2    0    0 -0.16657147278E+01  0.24497614118E+02  0.12611324780E+03  0.12848135652E+03  0.00000000000E+00 0. -1.
         11    1    1    2    0    0  0.10412145399E+03  0.39440651628E+00  0.17705035736E+03  0.20539781347E+03  0.00000000000E+00 0.  1.
<mgrwt>
<rscale>  0 0.15726865E+03</rscale>
<asrwt>0</asrwt>
<pdfrwt beam="2">  1        2 0.65556945E-02 0.16353160E+03</pdfrwt>
<pdfrwt beam="1">  1       -2 0.86742782E-01 0.16353160E+03</pdfrwt>
<totfact> 0.12787006E+03</totfact>
</mgrwt>
</event>
<event>
 6    1  0.5258538E-006  0.2196510E+03  0.7546771E-02  0.1145901E+00
          1   -1    0    0  501    0  0.00000000000E+00  0.00000000000E+00  0.11001064553E+04  0.11001064553E+04  0.00000000000E+00 0. -1.
         -1   -1    0    0    0  501 -0.00000000000E+00 -0.00000000000E+00 -0.37920580294E+02  0.37920580294E+02  0.00000000000E+00 0.  1.
          5    1    1    2  502    0  0.12480153257E+03 -0.11443665336E+03  0.62849184245E+03  0.65091877849E+03  0.47000000000E+01 0. -1.
         -5    1    1    2    0  502 -0.38183722997E+01  0.49431967426E+02  0.15733450399E+03  0.16502828702E+03  0.47000000000E+01 0.  1.
        -11    1    1    2    0    0 -0.60718844002E+02  0.79261302636E+02  0.20185361102E+03  0.22519771845E+03  0.00000000000E+00 0.  1.
         11    1    1    2    0    0 -0.60264316264E+02 -0.14256616700E+02  0.74505917577E+02  0.96882251669E+02  0.00000000000E+00 0. -1.
<mgrwt>
<rscale>  0 0.20461678E+03</rscale>
<asrwt>0</asrwt>
<pdfrwt beam="1">  1        1 0.16924712E+00 0.21965101E+03</pdfrwt>
<pdfrwt beam="2">  1       -1 0.58339363E-02 0.21965101E+03</pdfrwt>
<totfact> 0.18787490E+03</totfact>
</mgrwt>
</event>
<event>
 6    1  0.5258538E-006  0.1662014E+03  0.7546771E-02  0.1188579E+00
         -1   -1    0    0    0  501 -0.00000000000E+00  0.00000000000E+00  0.10067520451E+03  0.10067520451E+03  0.00000000000E+00 0.  1.
          1   -1    0    0  501    0  0.00000000000E+00 -0.00000000000E+00 -0.24382446218E+03  0.24382446218E+03  0.00000000000E+00 0. -1.
          5    1    1    2  502    0 -0.40883175216E+02 -0.14335810109E+02 -0.10065747489E+03  0.10968576351E+03  0.47000000000E+01 0. -1.
         -5    1    1    2    0  502 -0.24428680328E+01 -0.86256976274E+02 -0.35695123004E+01  0.86493149892E+02  0.47000000000E+01 0. -1.
        -11    1    1    2    0    0 -0.26757029304E+01  0.43664947010E+02  0.25654151791E+02  0.50714125130E+02  0.00000000000E+00 0.  1.
         11    1    1    2    0    0  0.46001746179E+02  0.56927839372E+02 -0.64576422270E+02  0.97606628158E+02  0.00000000000E+00 0. -1.
<mgrwt>
<rscale>  0 0.16010434E+03</rscale>
<asrwt>0</asrwt>
<pdfrwt beam="2">  1        1 0.37511456E-01 0.16620139E+03</pdfrwt>
<pdfrwt beam="1">  1       -1 0.15488493E-01 0.16620139E+03</pdfrwt>
<totfact> 0.33932723E+03</totfact>
</mgrwt>
</event>
<event>
 6    1  0.5258538E-006  0.1551464E+03  0.7546771E-02  0.1201973E+00
         -4   -1    0    0    0  501 -0.00000000000E+00  0.00000000000E+00  0.99140220714E+02  0.99140220714E+02  0.00000000000E+00 0. -1.
          4   -1    0    0  501    0  0.00000000000E+00 -0.00000000000E+00 -0.21013380429E+03  0.21013380429E+03  0.00000000000E+00 0.  1.
          5    1    1    2  502    0  0.81668677968E+02 -0.52043351773E+02 -0.35544837585E+02  0.10326571989E+03  0.47000000000E+01 0. -1.
         -5    1    1    2    0  502 -0.45274745514E+02 -0.32354419953E+02 -0.43922649683E+02  0.71048576531E+02  0.47000000000E+01 0. -1.
        -11    1    1    2    0    0  0.22450405052E+02  0.26336228656E+02 -0.38779124857E+02  0.51975361004E+02  0.00000000000E+00 0.  1.
         11    1    1    2    0    0 -0.58844337506E+02  0.58061543069E+02  0.72530285492E+01  0.82984367583E+02  0.00000000000E+00 0. -1.
<mgrwt>
<rscale>  0 0.14878566E+03</rscale>
<asrwt>0</asrwt>
<pdfrwt beam="2">  1        4 0.32328278E-01 0.15514636E+03</pdfrwt>
<pdfrwt beam="1">  1       -4 0.15252342E-01 0.15514636E+03</pdfrwt>
<totfact> 0.57368655E+02</totfact>
</mgrwt>
</event>
<event>
 6    1  0.5258538E-006  0.3259394E+03  0.7546771E-02  0.1074434E+00
         -1   -1    0    0    0  501 -0.00000000000E+00  0.00000000000E+00  0.43778654061E+02  0.43778654061E+02  0.00000000000E+00 0.  1.
          1   -1    0    0  501    0  0.00000000000E+00 -0.00000000000E+00 -0.24139234865E+04  0.24139234865E+04  0.00000000000E+00 0. -1.
          5    1    1    2  502    0 -0.66173152157E+02  0.11589567882E+03 -0.62250887996E+03  0.63667110038E+03  0.47000000000E+01 0.  1.
         -5    1    1    2    0  502 -0.39440653079E+02  0.16600726922E+03 -0.35838888265E+03  0.39696178627E+03  0.47000000000E+01 0.  1.
        -11    1    1    2    0    0  0.11718577526E+03 -0.23177534244E+03 -0.10966846538E+04  0.11270179879E+04  0.00000000000E+00 0. -1.
         11    1    1    2    0    0 -0.11571970021E+02 -0.50127605600E+02 -0.29256241608E+03  0.29705126601E+03  0.00000000000E+00 0.  1.
<mgrwt>
<rscale>  0 0.32265397E+03</rscale>
<asrwt>0</asrwt>
<pdfrwt beam="2">  1        1 0.37137279E+00 0.32593945E+03</pdfrwt>
<pdfrwt beam="1">  1       -1 0.67351785E-02 0.32593945E+03</pdfrwt>
<totfact> 0.20032125E+02</totfact>
</mgrwt>
</event>
<event>
 6    1  0.5258538E-006  0.2231506E+03  0.7546771E-02  0.1138244E+00
         -2   -1    0    0    0  501 -0.00000000000E+00  0.00000000000E+00  0.60124541214E+02  0.60124541214E+02  0.00000000000E+00 0.  1.
          2   -1    0    0  501    0  0.00000000000E+00 -0.00000000000E+00 -0.16092681310E+04  0.16092681310E+04  0.00000000000E+00 0. -1.
          5    1    1    2  502    0  0.17808396105E+03 -0.84674590931E+01 -0.99383958276E+03  0.10097152080E+04  0.47000000000E+01 0. -1.
         -5    1    1    2    0  502 -0.13012509350E+02  0.33015102341E+02 -0.43202488325E+03  0.43350537728E+03  0.47000000000E+01 0.  1.
        -11    1    1    2    0    0 -0.29178325031E+02  0.31029008517E+02 -0.32232212427E+02  0.53414319607E+02  0.00000000000E+00 0. -1.
         11    1    1    2    0    0 -0.13589312667E+03 -0.55576651764E+02 -0.91046911342E+02  0.17275776730E+03  0.00000000000E+00 0.  1.
<mgrwt>
<rscale>  0 0.21424961E+03</rscale>
<asrwt>0</asrwt>
<pdfrwt beam="2">  1        2 0.24757970E+00 0.22315058E+03</pdfrwt>
<pdfrwt beam="1">  1       -2 0.92499299E-02 0.22315058E+03</pdfrwt>
<totfact> 0.90263774E+02</totfact>
</mgrwt>
</event>
<event>
 6    1  0.5258538E-006  0.1486873E+03  0.7546771E-02  0.1212121E+00
          2   -1    0    0  501    0  0.00000000000E+00  0.00000000000E+00  0.10785520381E+04  0.10785520381E+04  0.00000000000E+00 0. -1.
         -2   -1    0    0    0  501 -0.00000000000E+00 -0.00000000000E+00 -0.18559917245E+02  0.18559917245E+02  0.00000000000E+00 0.  1.
          5    1    1    2  502    0  0.83364779043E+02  0.67027237892E+02  0.65586927530E+03  0.66455167842E+03  0.47000000000E+01 0.  1.
         -5    1    1    2    0  502 -0.10814118459E+02 -0.32127415347E+02  0.97013838178E+02  0.10287317810E+03  0.47000000000E+01 0.  1.
        -11    1    1    2    0    0  0.64785960710E+01  0.95145248993E+01  0.23732209241E+01  0.11752896182E+02  0.00000000000E+00 0.  1.
         11    1    1    2    0    0 -0.79029256655E+02 -0.44414347444E+02  0.30473578649E+03  0.31793420268E+03  0.00000000000E+00 0. -1.
<mgrwt>
<rscale>  0 0.14090178E+03</rscale>
<asrwt>0</asrwt>
<pdfrwt beam="1">  1        2 0.16593103E+00 0.14868735E+03</pdfrwt>
<pdfrwt beam="2">  1       -2 0.28553727E-02 0.14868735E+03</pdfrwt>
<totfact> 0.10408982E+04</totfact>
</mgrwt>
</event>
<event>
 6    1  0.5258538E-006  0.1390204E+03  0.7546771E-02  0.1225691E+00
          2   -1    0    0  501    0  0.00000000000E+00  0.00000000000E+00  0.41903862295E+03  0.41903862295E+03  0.00000000000E+00 0. -1.
         -2   -1    0    0    0  501 -0.00000000000E+00 -0.00000000000E+00 -0.37789475628E+02  0.37789475628E+02  0.00000000000E+00 0.  1.
          5    1    1    2  502    0 -0.15499901813E+02  0.77039216661E+01 -0.65373384241E+01  0.19089896776E+02  0.47000000000E+01 0.  1.
         -5    1    1    2    0  502  0.75785403125E+02  0.41873688584E+00  0.24990140357E+03  0.26118270267E+03  0.47000000000E+01 0.  1.
        -11    1    1    2    0    0 -0.10832900615E+02 -0.10877092190E+02 -0.11495212376E+02  0.19178184946E+02  0.00000000000E+00 0.  1.
         11    1    1    2    0    0 -0.49452600697E+02  0.27544336381E+01  0.14938029455E+03  0.15737731419E+03  0.00000000000E+00 0. -1.
<mgrwt>
<rscale>  0 0.13119688E+03</rscale>
<asrwt>0</asrwt>
<pdfrwt beam="1">  1        2 0.64467477E-01 0.13902036E+03</pdfrwt>
<pdfrwt beam="2">  1       -2 0.58137658E-02 0.13902036E+03</pdfrwt>
<totfact> 0.11190549E+04</totfact>
</mgrwt>
</event>
<event>
 6    1  0.5258538E-006  0.1262046E+03  0.7546771E-02  0.1249322E+00
          2   -1    0    0  501    0  0.00000000000E+00  0.00000000000E+00  0.46685485086E+03  0.46685485086E+03  0.00000000000E+00 0. -1.
         -2   -1    0    0    0  501 -0.00000000000E+00 -0.00000000000E+00 -0.25269354535E+02  0.25269354535E+02  0.00000000000E+00 0.  1.
          5    1    1    2  502    0 -0.42052766672E+02  0.48370121042E+02  0.76499169403E+02  0.99911544446E+02  0.47000000000E+01 0. -1.
         -5    1    1    2    0  502  0.30138716896E+02 -0.35695550342E+02  0.17902719598E+03  0.18508198581E+03  0.47000000000E+01 0. -1.
        -11    1    1    2    0    0 -0.82852651498E+01  0.15134153820E+02 -0.66804983735E+00  0.17266572359E+02  0.00000000000E+00 0.  1.
         11    1    1    2    0    0  0.20199314925E+02 -0.27808724520E+02  0.18672718078E+03  0.18986410278E+03  0.00000000000E+00 0. -1.
<mgrwt>
<rscale>  0 0.11630372E+03</rscale>
<asrwt>0</asrwt>
<pdfrwt beam="1">  1        2 0.71823817E-01 0.12620455E+03</pdfrwt>
<pdfrwt beam="2">  1       -2 0.38875934E-02 0.12620455E+03</pdfrwt>
<totfact> 0.18052550E+04</totfact>
</mgrwt>
</event>
<event>
 6    1  0.5258538E-006  0.1607230E+03  0.7546771E-02  0.1195276E+00
          2   -1    0    0  501    0  0.00000000000E+00  0.00000000000E+00  0.15877532551E+04  0.15877532551E+04  0.00000000000E+00 0. -1.
         -2   -1    0    0    0  501 -0.00000000000E+00 -0.00000000000E+00 -0.16933033099E+02  0.16933033099E+02  0.00000000000E+00 0.  1.
          5    1    1    2  502    0 -0.22998273944E+02  0.10829379149E+03  0.62893857047E+03  0.63862530588E+03  0.47000000000E+01 0. -1.
         -5    1    1    2    0  502 -0.29403883849E+02 -0.21914310583E+02  0.54670022567E+03  0.54794895030E+03  0.47000000000E+01 0. -1.
        -11    1    1    2    0    0  0.22172153498E+02  0.76974432146E+01  0.22355483243E+02  0.32413309825E+02  0.00000000000E+00 0. -1.
         11    1    1    2    0    0  0.30230004295E+02 -0.94076924124E+02  0.37282594266E+03  0.38569872223E+03  0.00000000000E+00 0.  1.
<mgrwt>
<rscale>  0 0.15430905E+03</rscale>
<asrwt>0</asrwt>
<pdfrwt beam="1">  1        2 0.24426961E+00 0.16072301E+03</pdfrwt>
<pdfrwt beam="2">  1       -2 0.26050833E-02 0.16072301E+03</pdfrwt>
<totfact> 0.63274679E+03</totfact>
</mgrwt>
</event>
<event>
 6    1  0.5258538E-006  0.1608215E+03  0.7546771E-02  0.1206429E+00
         -1   -1    0    0    0  501 -0.00000000000E+00  0.00000000000E+00  0.82190527345E+02  0.82190527345E+02  0.00000000000E+00 0.  1.
          1   -1    0    0  501    0  0.00000000000E+00 -0.00000000000E+00 -0.26968429886E+03  0.26968429886E+03  0.00000000000E+00 0. -1.
          5    1    1    2  502    0 -0.53290730966E+02  0.11077983561E+03 -0.10550171396E+03  0.16206410963E+03  0.47000000000E+01 0. -1.
         -5    1    1    2    0  502  0.17735179116E+02 -0.16044415101E+02 -0.79076034059E+02  0.82747018054E+02  0.47000000000E+01 0. -1.
        -11    1    1    2    0    0  0.41301132916E+02 -0.68152199110E+02 -0.45307956050E+01  0.79818756771E+02  0.00000000000E+00 0. -1.
         11    1    1    2    0    0 -0.57455810665E+01 -0.26583221395E+02  0.16147721094E+01  0.27244941741E+02  0.00000000000E+00 0.  1.
<mgrwt>
<rscale>  0 0.14525406E+03</rscale>
<asrwt>0</asrwt>
<pdfrwt beam="2">  1        1 0.41489893E-01 0.16082146E+03</pdfrwt>
<pdfrwt beam="1">  1       -1 0.12644696E-01 0.16082146E+03</pdfrwt>
<totfact> 0.41072818E+03</totfact>
</mgrwt>
</event>
<event>
 6    1  0.5258538E-006  0.1440285E+03  0.7546771E-02  0.1218750E+00
         -2   -1    0    0    0  501 -0.00000000000E+00  0.00000000000E+00  0.17964224447E+03  0.17964224447E+03  0.00000000000E+00 0.  1.
          2   -1    0    0  501    0  0.00000000000E+00 -0.00000000000E+00 -0.93715383770E+02  0.93715383770E+02  0.00000000000E+00 0. -1.
          5    1    1    2  502    0  0.45025031441E+02  0.26639113995E+01 -0.63305943958E+01  0.45787730951E+02  0.47000000000E+01 0. -1.
         -5    1    1    2    0  502 -0.66120058609E+02  0.65713679733E+02  0.43392686899E+02  0.10293281853E+03  0.47000000000E+01 0. -1.
        -11    1    1    2    0    0  0.54196959261E+02 -0.30515739513E+02  0.38921919389E+02  0.73371905796E+02  0.00000000000E+00 0.  1.
         11    1    1    2    0    0 -0.33101932093E+02 -0.37861851620E+02  0.99428488070E+01  0.51265172962E+02  0.00000000000E+00 0. -1.
<mgrwt>
<rscale>  0 0.13604673E+03</rscale>
<asrwt>0</asrwt>
<pdfrwt beam="2">  1        2 0.14417751E-01 0.14402848E+03</pdfrwt>
<pdfrwt beam="1">  1       -2 0.27637268E-01 0.14402848E+03</pdfrwt>
<totfact> 0.46466633E+03</totfact>
</mgrwt>
</event>
<event>
 6    1  0.5258538E-006  0.1640662E+03  0.7546771E-02  0.1191593E+00
          1   -1    0    0  501    0  0.00000000000E+00  0.00000000000E+00  0.10204616697E+04  0.10204616697E+04  0.00000000000E+00 0. -1.
         -1   -1    0    0    0  501 -0.00000000000E+00 -0.00000000000E+00 -0.23714382085E+02  0.23714382085E+02  0.00000000000E+00 0.  1.
          5    1    1    2  502    0  0.37794800611E+02 -0.91226338384E+01  0.23052033909E+03  0.23382340801E+03  0.47000000000E+01 0.  1.
         -5    1    1    2    0  502 -0.84929834570E+02 -0.86108652133E+02  0.42291904515E+03  0.43989815358E+03  0.47000000000E+01 0.  1.
        -11    1    1    2    0    0  0.29953662064E+01  0.81220282254E+02  0.13948307708E+03  0.16143492577E+03  0.00000000000E+00 0.  1.
         11    1    1    2    0    0  0.44139667753E+02  0.14011003718E+02  0.20382482629E+03  0.20901956441E+03  0.00000000000E+00 0. -1.
<mgrwt>
<rscale>  0 0.15746097E+03</rscale>
<asrwt>0</asrwt>
<pdfrwt beam="1">  1        1 0.15699407E+00 0.16406619E+03</pdfrwt>
<pdfrwt beam="2">  1       -1 0.36483673E-02 0.16406619E+03</pdfrwt>
<totfact> 0.42905562E+03</totfact>
</mgrwt>
</event>
<event>
 6    1  0.5258538E-006  0.1949081E+03  0.7546771E-02  0.1165116E+00
         -3   -1    0    0    0  501 -0.00000000000E+00  0.00000000000E+00  0.24304969283E+03  0.24304969283E+03  0.00000000000E+00 0.  1.
          3   -1    0    0  501    0  0.00000000000E+00 -0.00000000000E+00 -0.12702167123E+03  0.12702167123E+03  0.00000000000E+00 0. -1.
          5    1    1    2  502    0 -0.61696738684E+02 -0.15089742144E+02  0.37958463426E+02  0.74142584443E+02  0.47000000000E+01 0. -1.
         -5    1    1    2    0  502  0.75843054175E+01  0.12296814731E+03 -0.56707714548E+01  0.12342177518E+03  0.47000000000E+01 0.  1.
        -11    1    1    2    0    0  0.61372255463E+02 -0.28136685426E+02  0.56158886734E+02  0.87818263287E+02  0.00000000000E+00 0.  1.
         11    1    1    2    0    0 -0.72598221965E+01 -0.79741719737E+02  0.27581442891E+02  0.84688741146E+02  0.00000000000E+00 0. -1.
<mgrwt>
<rscale>  0 0.18280419E+03</rscale>
<asrwt>0</asrwt>
<pdfrwt beam="2">  1        3 0.19541796E-01 0.19490814E+03</pdfrwt>
<pdfrwt beam="1">  1       -3 0.37392260E-01 0.19490814E+03</pdfrwt>
<totfact> 0.40272587E+02</totfact>
</mgrwt>
</event>
<event>
 6    1  0.5258538E-006  0.1690784E+03  0.7546771E-02  0.1185394E+00
          1   -1    0    0  501    0  0.00000000000E+00  0.00000000000E+00  0.41172875010E+03  0.41172875010E+03  0.00000000000E+00 0. -1.
         -1   -1    0    0    0  501 -0.00000000000E+00 -0.00000000000E+00 -0.82028437396E+02  0.82028437396E+02  0.00000000000E+00 0.  1.
          5    1    1    2  502    0  0.89436050873E+02  0.35354903379E+02  0.25529148662E+03  0.27284539492E+03  0.47000000000E+01 0.  1.
         -5    1    1    2    0  502  0.23372969373E+02 -0.50730703703E+02  0.45442696660E+02  0.72159744146E+02  0.47000000000E+01 0.  1.
        -11    1    1    2    0    0 -0.77010849810E+02 -0.36418108587E+00 -0.26010728976E+02  0.81285679170E+02  0.00000000000E+00 0.  1.
         11    1    1    2    0    0 -0.35798170436E+02  0.15739981409E+02  0.54976858394E+02  0.67466369253E+02  0.00000000000E+00 0. -1.
<mgrwt>
<rscale>  0 0.16296084E+03</rscale>
<asrwt>0</asrwt>
<pdfrwt beam="1">  1        1 0.63342884E-01 0.16907838E+03</pdfrwt>
<pdfrwt beam="2">  1       -1 0.12619760E-01 0.16907838E+03</pdfrwt>
<totfact> 0.24289433E+03</totfact>
</mgrwt>
</event>
<event>
 6    1  0.5258538E-006  0.1354529E+03  0.7546771E-02  0.1231817E+00
         -1   -1    0    0    0  501 -0.00000000000E+00  0.00000000000E+00  0.42746947099E+02  0.42746947099E+02  0.00000000000E+00 0.  1.
          1   -1    0    0  501    0  0.00000000000E+00 -0.00000000000E+00 -0.34695090028E+03  0.34695090028E+03  0.00000000000E+00 0. -1.
          5    1    1    2  502    0  0.95981146527E+01 -0.49221599233E+02 -0.19189810565E+02  0.53900171294E+02  0.47000000000E+01 0.  1.
         -5    1    1    2    0  502  0.41635703907E+02  0.59129568917E+02 -0.12096504636E+03  0.14101230514E+03  0.47000000000E+01 0.  1.
        -11    1    1    2    0    0 -0.23028024904E+02 -0.43156604761E+02 -0.39652661075E+02  0.62969167025E+02  0.00000000000E+00 0. -1.
         11    1    1    2    0    0 -0.28205793656E+02  0.33248635077E+02 -0.12439643517E+03  0.13181620391E+03  0.00000000000E+00 0.  1.
<mgrwt>
<rscale>  0 0.12710406E+03</rscale>
<asrwt>0</asrwt>
<pdfrwt beam="2">  1        1 0.53377062E-01 0.13545291E+03</pdfrwt>
<pdfrwt beam="1">  1       -1 0.65764533E-02 0.13545291E+03</pdfrwt>
<totfact> 0.80451431E+03</totfact>
</mgrwt>
</event>
<event>
 6    1  0.5258538E-006  0.2598244E+03  0.7546771E-02  0.1107249E+00
          2   -1    0    0  501    0  0.00000000000E+00  0.00000000000E+00  0.58983723785E+03  0.58983723785E+03  0.00000000000E+00 0. -1.
         -2   -1    0    0    0  501 -0.00000000000E+00 -0.00000000000E+00 -0.28613279871E+02  0.28613279871E+02  0.00000000000E+00 0.  1.
          5    1    1    2  502    0 -0.13844999760E+02  0.71371869642E+01  0.26826701768E+00  0.16272228591E+02  0.47000000000E+01 0. -1.
         -5    1    1    2    0  502  0.64857659944E+02 -0.16607983745E+00  0.42561299942E+03  0.43055203972E+03  0.47000000000E+01 0. -1.
        -11    1    1    2    0    0 -0.40057133018E+02  0.40010898675E+02  0.82682235815E+02  0.10020877226E+03  0.00000000000E+00 0.  1.
         11    1    1    2    0    0 -0.10955527165E+02 -0.46982005802E+02  0.52660455729E+02  0.71417477148E+02  0.00000000000E+00 0. -1.
<mgrwt>
<rscale>  0 0.25982439E+03</rscale>
<asrwt>0</asrwt>
<pdfrwt beam="1">  1        2 0.90744182E-01 0.25982439E+03</pdfrwt>
<pdfrwt beam="2">  1       -2 0.44020435E-02 0.25982439E+03</pdfrwt>
<totfact> 0.12137843E+04</totfact>
</mgrwt>
</event>
<event>
 6    1  0.5258538E-006  0.2949492E+03  0.7546771E-02  0.1087793E+00
         -3   -1    0    0    0  501 -0.00000000000E+00  0.00000000000E+00  0.31455317714E+02  0.31455317714E+02  0.00000000000E+00 0.  1.
          3   -1    0    0  501    0  0.00000000000E+00 -0.00000000000E+00 -0.69141760848E+03  0.69141760848E+03  0.00000000000E+00 0. -1.
          5    1    1    2  502    0 -0.33712043714E+02 -0.16366064946E+01 -0.16677039857E+03  0.17021643931E+03  0.47000000000E+01 0.  1.
         -5    1    1    2    0  502  0.86350206835E+02 -0.76697263997E+02 -0.26638440429E+03  0.29038176488E+03  0.47000000000E+01 0.  1.
        -11    1    1    2    0    0 -0.59504472071E+02  0.70699026526E+01 -0.96378923043E+02  0.11348860087E+03  0.00000000000E+00 0.  1.
         11    1    1    2    0    0  0.68663089510E+01  0.71263967839E+02 -0.13042856486E+03  0.14878612114E+03  0.00000000000E+00 0. -1.
<mgrwt>
<rscale>  0 0.29494922E+03</rscale>
<asrwt>0</asrwt>
<pdfrwt beam="2">  1        3 0.10637194E+00 0.29494922E+03</pdfrwt>
<pdfrwt beam="1">  1       -3 0.48392798E-02 0.29494922E+03</pdfrwt>
<totfact> 0.48189882E+02</totfact>
</mgrwt>
</event>
<event>
 6    1  0.5258538E-006  0.2849674E+03  0.7546771E-02  0.1093006E+00
          1   -1    0    0  501    0  0.00000000000E+00  0.00000000000E+00  0.29246331780E+03  0.29246331780E+03  0.00000000000E+00 0. -1.
         -1   -1    0    0    0  501 -0.00000000000E+00 -0.00000000000E+00 -0.69415909879E+02  0.69415909879E+02  0.00000000000E+00 0.  1.
          5    1    1    2  502    0 -0.18076309355E+02 -0.23044303347E+02  0.89124479503E+02  0.93931122229E+02  0.47000000000E+01 0.  1.
         -5    1    1    2    0  502  0.74950147844E+02  0.73500765921E+02  0.98795629083E+02  0.14423090369E+03  0.47000000000E+01 0.  1.
        -11    1    1    2    0    0 -0.49430092938E+02 -0.17985867969E+02 -0.22454903700E+02  0.57193078555E+02  0.00000000000E+00 0.  1.
         11    1    1    2    0    0 -0.74437455514E+01 -0.32470594605E+02  0.57582203032E+02  0.66524123202E+02  0.00000000000E+00 0. -1.
<mgrwt>
<rscale>  0 0.28496742E+03</rscale>
<asrwt>0</asrwt>
<pdfrwt beam="1">  1        1 0.44994356E-01 0.28496742E+03</pdfrwt>
<pdfrwt beam="2">  1       -1 0.10679371E-01 0.28496742E+03</pdfrwt>
<totfact> 0.49548451E+03</totfact>
</mgrwt>
</event>
<event>
 6    1  0.5258538E-006  0.1315917E+03  0.7546771E-02  0.1237725E+00
         -2   -1    0    0    0  501 -0.00000000000E+00  0.00000000000E+00  0.16861973470E+02  0.16861973470E+02  0.00000000000E+00 0.  1.
          2   -1    0    0  501    0  0.00000000000E+00 -0.00000000000E+00 -0.80545975139E+03  0.80545975139E+03  0.00000000000E+00 0. -1.
          5    1    1    2  502    0  0.47375924070E+02  0.15542403923E+01 -0.80790261016E+02  0.93787259901E+02  0.47000000000E+01 0. -1.
         -5    1    1    2    0  502 -0.53161315848E+02  0.39181254310E+02 -0.36756437876E+03  0.37347952919E+03  0.47000000000E+01 0. -1.
        -11    1    1    2    0    0  0.92438802845E+01  0.29106526175E+02 -0.12783856328E+03  0.13143567799E+03  0.00000000000E+00 0. -1.
         11    1    1    2    0    0 -0.34584885066E+01 -0.69842020877E+02 -0.21240457487E+03  0.22361925778E+03  0.00000000000E+00 0.  1.
<mgrwt>
<rscale>  0 0.12331578E+03</rscale>
<asrwt>0</asrwt>
<pdfrwt beam="2">  1        2 0.12391685E+00 0.13159168E+03</pdfrwt>
<pdfrwt beam="1">  1       -2 0.25941505E-02 0.13159168E+03</pdfrwt>
<totfact> 0.17549097E+04</totfact>
</mgrwt>
</event>
<event>
 6    1  0.5258538E-006  0.2748792E+03  0.7546771E-02  0.1098519E+00
         -1   -1    0    0    0  501 -0.00000000000E+00  0.00000000000E+00  0.20081153953E+02  0.20081153953E+02  0.00000000000E+00 0.  1.
          1   -1    0    0  501    0  0.00000000000E+00 -0.00000000000E+00 -0.94066538314E+03  0.94066538314E+03  0.00000000000E+00 0. -1.
          5    1    1    2  502    0  0.24514447881E+02  0.20525104626E+02 -0.71641537427E+02  0.78592862015E+02  0.47000000000E+01 0. -1.
         -5    1    1    2    0  502 -0.52736396307E+02 -0.77616865596E+02 -0.62632164335E+03  0.63332961107E+03  0.47000000000E+01 0. -1.
        -11    1    1    2    0    0  0.29618409785E+02  0.92064072242E+01 -0.18588377375E+03  0.18845366931E+03  0.00000000000E+00 0. -1.
         11    1    1    2    0    0 -0.13964613581E+01  0.47885353745E+02 -0.36737274658E+02  0.60370394706E+02  0.00000000000E+00 0.  1.
<mgrwt>
<rscale>  0 0.27487922E+03</rscale>
<asrwt>0</asrwt>
<pdfrwt beam="2">  1        1 0.14471772E+00 0.27487922E+03</pdfrwt>
<pdfrwt beam="1">  1       -1 0.30894090E-02 0.27487922E+03</pdfrwt>
<totfact> 0.64033231E+03</totfact>
</mgrwt>
</event>
<event>
 6    1  0.5258538E-006  0.1256988E+03  0.7546771E-02  0.1250538E+00
         -1   -1    0    0    0  501 -0.00000000000E+00  0.00000000000E+00  0.19875031542E+02  0.19875031542E+02  0.00000000000E+00 0.  1.
          1   -1    0    0  501    0  0.00000000000E+00 -0.00000000000E+00 -0.69674580667E+03  0.69674580667E+03  0.00000000000E+00 0. -1.
          5    1    1    2  502    0 -0.43987801547E+02  0.14382095570E+02 -0.86178777592E+02  0.97931828663E+02  0.47000000000E+01 0.  1.
         -5    1    1    2    0  502  0.51351892792E+02 -0.34206580814E+01 -0.44137170088E+03  0.44438697790E+03  0.47000000000E+01 0.  1.
        -11    1    1    2    0    0  0.37055038000E+02 -0.90092284012E+01 -0.35480145885E+02  0.52087261298E+02  0.00000000000E+00 0. -1.
         11    1    1    2    0    0 -0.44419129244E+02 -0.19522090871E+01 -0.11384015077E+03  0.12221477035E+03  0.00000000000E+00 0.  1.
<mgrwt>
<rscale>  0 0.11559949E+03</rscale>
<asrwt>0</asrwt>
<pdfrwt beam="2">  1        1 0.10719166E+00 0.12569877E+03</pdfrwt>
<pdfrwt beam="1">  1       -1 0.30576971E-02 0.12569877E+03</pdfrwt>
<totfact> 0.99203346E+03</totfact>
</mgrwt>
</event>
<event>
 6    1  0.5258538E-006  0.1271174E+03  0.7546771E-02  0.1246270E+00
          1   -1    0    0  501    0  0.00000000000E+00  0.00000000000E+00  0.99585709211E+03  0.99585709211E+03  0.00000000000E+00 0. -1.
         -1   -1    0    0    0  501 -0.00000000000E+00 -0.00000000000E+00 -0.15592751531E+02  0.15592751531E+02  0.00000000000E+00 0.  1.
          5    1    1    2  502    0  0.48346750521E+02 -0.33511229935E+02  0.56905796450E+03  0.57210966412E+03  0.47000000000E+01 0. -1.
         -5    1    1    2    0  502 -0.29398061223E+02  0.46689228038E+02  0.20643262015E+03  0.21373031296E+03  0.47000000000E+01 0. -1.
        -11    1    1    2    0    0 -0.31739797333E+02  0.30141184403E+02  0.62237882838E+02  0.76088499736E+02  0.00000000000E+00 0. -1.
         11    1    1    2    0    0  0.12791108036E+02 -0.43319182506E+02  0.14253587309E+03  0.14952136682E+03  0.00000000000E+00 0.  1.
<mgrwt>
<rscale>  0 0.11809668E+03</rscale>
<asrwt>0</asrwt>
<pdfrwt beam="1">  1        1 0.15320873E+00 0.12711736E+03</pdfrwt>
<pdfrwt beam="2">  1       -1 0.23988856E-02 0.12711736E+03</pdfrwt>
<totfact> 0.81522492E+03</totfact>
</mgrwt>
</event>
<event>
 6    1  0.5258538E-006  0.3986103E+03  0.7546771E-02  0.1044262E+00
         -2   -1    0    0    0  501 -0.00000000000E+00  0.00000000000E+00  0.73029275126E+02  0.73029275126E+02  0.00000000000E+00 0.  1.
          2   -1    0    0  501    0  0.00000000000E+00 -0.00000000000E+00 -0.54392633948E+03  0.54392633948E+03  0.00000000000E+00 0. -1.
          5    1    1    2  502    0 -0.10181379999E+03  0.10985872460E+03 -0.36604185577E+03  0.39552966945E+03  0.47000000000E+01 0. -1.
         -5    1    1    2    0  502 -0.31817490655E+01 -0.27792587603E+02 -0.34112336808E+02  0.44365447989E+02  0.47000000000E+01 0. -1.
        -11    1    1    2    0    0  0.57733160489E+02  0.59046259914E+01 -0.46323689105E+02  0.74255414620E+02  0.00000000000E+00 0. -1.
         11    1    1    2    0    0  0.47262388567E+02 -0.87970762988E+02 -0.24419182661E+02  0.10280508254E+03  0.00000000000E+00 0.  1.
<mgrwt>
<rscale>  0 0.39861032E+03</rscale>
<asrwt>0</asrwt>
<pdfrwt beam="2">  1        2 0.83680973E-01 0.39861032E+03</pdfrwt>
<pdfrwt beam="1">  1       -2 0.11235273E-01 0.39861032E+03</pdfrwt>
<totfact> 0.31290667E+03</totfact>
</mgrwt>
</event>
<event>
 6    1  0.5258538E-006  0.1406283E+03  0.7546771E-02  0.1224195E+00
          2   -1    0    0  501    0  0.00000000000E+00  0.00000000000E+00  0.51617057029E+03  0.51617057029E+03  0.00000000000E+00 0. -1.
         -2   -1    0    0    0  501 -0.00000000000E+00 -0.00000000000E+00 -0.32430731357E+02  0.32430731357E+02  0.00000000000E+00 0.  1.
          5    1    1    2  502    0  0.57617710553E+02  0.48948587446E+02  0.96887109032E+02  0.12298360329E+03  0.47000000000E+01 0. -1.
         -5    1    1    2    0  502  0.41312869685E+01 -0.30498781384E+02  0.24096063879E+03  0.24296370643E+03  0.47000000000E+01 0. -1.
        -11    1    1    2    0    0 -0.54647457222E+02 -0.10111568977E+02  0.15730636939E+03  0.16683489520E+03  0.00000000000E+00 0. -1.
         11    1    1    2    0    0 -0.71015402993E+01 -0.83382370841E+01 -0.11414278277E+02  0.15819096715E+02  0.00000000000E+00 0.  1.
<mgrwt>
<rscale>  0 0.13222207E+03</rscale>
<asrwt>0</asrwt>
<pdfrwt beam="1">  1        2 0.79410851E-01 0.14062835E+03</pdfrwt>
<pdfrwt beam="2">  1       -2 0.49893437E-02 0.14062835E+03</pdfrwt>
<totfact> 0.11242161E+04</totfact>
</mgrwt>
</event>
<event>
 6    1  0.5258538E-006  0.1557412E+03  0.7546771E-02  0.1201993E+00
         -2   -1    0    0    0  501 -0.00000000000E+00  0.00000000000E+00  0.36399057368E+03  0.36399057368E+03  0.00000000000E+00 0.  1.
          2   -1    0    0  501    0  0.00000000000E+00 -0.00000000000E+00 -0.56116206562E+02  0.56116206562E+02  0.00000000000E+00 0. -1.
          5    1    1    2  502    0  0.53295564503E+02  0.64602782001E+02  0.63135676482E+02  0.10498638142E+03  0.47000000000E+01 0. -1.
         -5    1    1    2    0  502 -0.62405761850E+02  0.27849403247E+02  0.93412341607E+02  0.11583619442E+03  0.47000000000E+01 0. -1.
        -11    1    1    2    0    0 -0.15008922094E+02 -0.16362773579E+02  0.10430750738E+03  0.10664456947E+03  0.00000000000E+00 0.  1.
         11    1    1    2    0    0  0.24119119442E+02 -0.76089411670E+02  0.47018841647E+02  0.92639634934E+02  0.00000000000E+00 0. -1.
<mgrwt>
<rscale>  0 0.14876928E+03</rscale>
<asrwt>0</asrwt>
<pdfrwt beam="2">  1        2 0.86332628E-02 0.15574122E+03</pdfrwt>
<pdfrwt beam="1">  1       -2 0.55998548E-01 0.15574122E+03</pdfrwt>
<totfact> 0.22843139E+03</totfact>
</mgrwt>
</event>
<event>
 6    1  0.5258538E-006  0.1508975E+03  0.7546771E-02  0.1208779E+00
         -1   -1    0    0    0  501 -0.00000000000E+00  0.00000000000E+00  0.19572408424E+03  0.19572408424E+03  0.00000000000E+00 0.  1.
          1   -1    0    0  501    0  0.00000000000E+00 -0.00000000000E+00 -0.11629349857E+03  0.11629349857E+03  0.00000000000E+00 0. -1.
          5    1    1    2  502    0  0.61415475635E+02 -0.99395248614E+02 -0.18517709650E+02  0.11839033603E+03  0.47000000000E+01 0.  1.
         -5    1    1    2    0  502 -0.10508825077E+02  0.31908249841E+02 -0.34166892076E+01  0.34093042949E+02  0.47000000000E+01 0.  1.
        -11    1    1    2    0    0  0.25118237556E+02  0.71047067849E+01  0.21121670348E+02  0.33578678871E+02  0.00000000000E+00 0. -1.
         11    1    1    2    0    0 -0.76024888114E+02  0.60382291988E+02  0.80243314172E+02  0.12595552496E+03  0.00000000000E+00 0.  1.
<mgrwt>
<rscale>  0 0.14343572E+03</rscale>
<asrwt>0</asrwt>
<pdfrwt beam="2">  1        1 0.17891307E-01 0.15089752E+03</pdfrwt>
<pdfrwt beam="1">  1       -1 0.30111398E-01 0.15089752E+03</pdfrwt>
<totfact> 0.29123882E+03</totfact>
</mgrwt>
</event>
<event>
 6    1  0.5258538E-006  0.1281283E+03  0.7546771E-02  0.1245309E+00
         -3   -1    0    0    0  501 -0.00000000000E+00  0.00000000000E+00  0.82939825434E+02  0.82939825434E+02  0.00000000000E+00 0.  1.
          3   -1    0    0  501    0  0.00000000000E+00 -0.00000000000E+00 -0.16509656594E+03  0.16509656594E+03  0.00000000000E+00 0. -1.
          5    1    1    2  502    0  0.46264735812E+02  0.52649099650E+01 -0.61000650072E+02  0.76885072451E+02  0.47000000000E+01 0. -1.
         -5    1    1    2    0  502 -0.72734601092E+02  0.42967833784E+01 -0.23924302093E+02  0.76832589271E+02  0.47000000000E+01 0. -1.
        -11    1    1    2    0    0  0.86728594480E+01 -0.49657842607E+02  0.13835456463E+01  0.50428504062E+02  0.00000000000E+00 0.  1.
         11    1    1    2    0    0  0.17797005832E+02  0.40096149263E+02  0.13846660125E+01  0.43890225589E+02  0.00000000000E+00 0. -1.
<mgrwt>
<rscale>  0 0.11866882E+03</rscale>
<asrwt>0</asrwt>
<pdfrwt beam="2">  1        3 0.25399471E-01 0.12812834E+03</pdfrwt>
<pdfrwt beam="1">  1       -3 0.12759973E-01 0.12812834E+03</pdfrwt>
<totfact> 0.16249926E+03</totfact>
</mgrwt>
</event>
<event>
 6    1  0.5258538E-006  0.3971630E+03  0.7546771E-02  0.1044766E+00
         -2   -1    0    0    0  501 -0.00000000000E+00  0.00000000000E+00  0.12622977836E+03  0.12622977836E+03  0.00000000000E+00 0.  1.
          2   -1    0    0  501    0  0.00000000000E+00 -0.00000000000E+00 -0.31240343112E+03  0.31240343112E+03  0.00000000000E+00 0. -1.
          5    1    1    2  502    0  0.57419648185E+02 -0.11145744155E+02 -0.26312490447E+03  0.26958866624E+03  0.47000000000E+01 0. -1.
         -5    1    1    2    0  502 -0.26330865877E+02  0.15374434670E+01 -0.99269405585E+01  0.28571180919E+02  0.47000000000E+01 0.  1.
        -11    1    1    2    0    0  0.11041743114E+02  0.49052362647E+02  0.55088114943E+02  0.74583877481E+02  0.00000000000E+00 0.  1.
         11    1    1    2    0    0 -0.42130525421E+02 -0.39444061959E+02  0.31790077334E+02  0.65889484844E+02  0.00000000000E+00 0. -1.
<mgrwt>
<rscale>  0 0.39716302E+03</rscale>
<asrwt>0</asrwt>
<pdfrwt beam="2">  1        2 0.48062066E-01 0.39716302E+03</pdfrwt>
<pdfrwt beam="1">  1       -2 0.19419966E-01 0.39716302E+03</pdfrwt>
<totfact> 0.23279214E+03</totfact>
</mgrwt>
</event>
<event>
 6    1  0.5258538E-006  0.2046708E+03  0.7546771E-02  0.1149887E+00
         -1   -1    0    0    0  501 -0.00000000000E+00  0.00000000000E+00  0.42124492538E+03  0.42124492538E+03  0.00000000000E+00 0. -1.
          1   -1    0    0  501    0  0.00000000000E+00 -0.00000000000E+00 -0.19626686390E+03  0.19626686390E+03  0.00000000000E+00 0.  1.
          5    1    1    2  502    0 -0.11682673452E+03 -0.61561968884E+01 -0.13765552219E+03  0.18071391050E+03  0.47000000000E+01 0.  1.
         -5    1    1    2    0  502 -0.45104174802E+02 -0.46687149089E+00  0.26160640516E+02  0.52355263973E+02  0.47000000000E+01 0.  1.
        -11    1    1    2    0    0  0.11421000367E+03 -0.17922973863E+02  0.14419841423E+03  0.18481975164E+03  0.00000000000E+00 0.  1.
         11    1    1    2    0    0  0.47720905648E+02  0.24546042243E+02  0.19227452892E+03  0.19962286316E+03  0.00000000000E+00 0. -1.
<mgrwt>
<rscale>  0 0.19982429E+03</rscale>
<asrwt>0</asrwt>
<pdfrwt beam="2">  1        1 0.30194902E-01 0.20467079E+03</pdfrwt>
<pdfrwt beam="1">  1       -1 0.64806911E-01 0.20467079E+03</pdfrwt>
<totfact> 0.37844288E+02</totfact>
</mgrwt>
</event>
<event>
 6    1  0.5258538E-006  0.1323626E+03  0.7546771E-02  0.1251439E+00
          2   -1    0    0  501    0  0.00000000000E+00  0.00000000000E+00  0.17859700565E+04  0.17859700565E+04  0.00000000000E+00 0. -1.
         -2   -1    0    0    0  501 -0.00000000000E+00 -0.00000000000E+00 -0.11407621761E+02  0.11407621761E+02  0.00000000000E+00 0.  1.
          5    1    1    2  502    0  0.27683139093E+02 -0.40135642948E+01  0.94078709718E+02  0.98261683837E+02  0.47000000000E+01 0. -1.
         -5    1    1    2    0  502 -0.51401280170E+02 -0.32467861935E+02  0.15249270834E+04  0.15261457838E+04  0.47000000000E+01 0. -1.
        -11    1    1    2    0    0 -0.15733998376E+02  0.31010173583E+02  0.58436823242E+02  0.68000381478E+02  0.00000000000E+00 0. -1.
         11    1    1    2    0    0  0.39452139453E+02  0.54712526470E+01  0.97119818365E+02  0.10496982915E+03  0.00000000000E+00 0.  1.
<mgrwt>
<rscale>  0 0.11508172E+03</rscale>
<asrwt>0</asrwt>
<pdfrwt beam="1">  1        2 0.27476440E+00 0.13236262E+03</pdfrwt>
<pdfrwt beam="2">  1       -2 0.17550202E-02 0.13236262E+03</pdfrwt>
<totfact> 0.88456935E+03</totfact>
</mgrwt>
</event>
<event>
 6    1  0.5258538E-006  0.1420839E+03  0.7546771E-02  0.1221485E+00
          1   -1    0    0  501    0  0.00000000000E+00  0.00000000000E+00  0.94419653998E+03  0.94419653998E+03  0.00000000000E+00 0. -1.
         -1   -1    0    0    0  501 -0.00000000000E+00 -0.00000000000E+00 -0.19336649410E+02  0.19336649410E+02  0.00000000000E+00 0.  1.
          5    1    1    2  502    0 -0.30289154201E+02 -0.50899386734E+02  0.12452859586E+03  0.13797696046E+03  0.47000000000E+01 0.  1.
         -5    1    1    2    0  502  0.36256825399E+02 -0.16385019088E+02  0.54453770241E+03  0.54600954716E+03  0.47000000000E+01 0.  1.
        -11    1    1    2    0    0 -0.24153901827E+02  0.59724131921E+02  0.25119112789E+03  0.25932097030E+03  0.00000000000E+00 0. -1.
         11    1    1    2    0    0  0.18186230629E+02  0.75602739004E+01  0.46024644158E+01  0.20225711475E+02  0.00000000000E+00 0.  1.
<mgrwt>
<rscale>  0 0.13410729E+03</rscale>
<asrwt>0</asrwt>
<pdfrwt beam="1">  1        1 0.14526097E+00 0.14208389E+03</pdfrwt>
<pdfrwt beam="2">  1       -1 0.29748699E-02 0.14208389E+03</pdfrwt>
<totfact> 0.65519102E+03</totfact>
</mgrwt>
</event>
<event>
 6    1  0.5258538E-006  0.2147918E+03  0.7546771E-02  0.1149895E+00
          2   -1    0    0  501    0  0.00000000000E+00  0.00000000000E+00  0.11742126392E+03  0.11742126392E+03  0.00000000000E+00 0. -1.
         -2   -1    0    0    0  501 -0.00000000000E+00 -0.00000000000E+00 -0.30928850092E+03  0.30928850092E+03  0.00000000000E+00 0.  1.
          5    1    1    2  502    0 -0.57300076172E+02 -0.71115327893E+02 -0.84182709032E+01  0.91834883762E+02  0.47000000000E+01 0. -1.
         -5    1    1    2    0  502  0.48972354639E+02  0.10776952480E+03 -0.65188461007E+02  0.13521903506E+03  0.47000000000E+01 0.  1.
        -11    1    1    2    0    0 -0.58509552934E+02 -0.22177458773E+02  0.54453927786E+00  0.62573988087E+02  0.00000000000E+00 0.  1.
         11    1    1    2    0    0  0.66837274467E+02 -0.14476738137E+02 -0.11880504437E+03  0.13708185793E+03  0.00000000000E+00 0. -1.
<mgrwt>
<rscale>  0 0.19981467E+03</rscale>
<asrwt>0</asrwt>
<pdfrwt beam="1">  1        2 0.18064810E-01 0.21479183E+03</pdfrwt>
<pdfrwt beam="2">  1       -2 0.47582846E-01 0.21479183E+03</pdfrwt>
<totfact> 0.13160651E+03</totfact>
</mgrwt>
</event>
<event>
 6    1  0.5258538E-006  0.1538966E+03  0.7546771E-02  0.1204600E+00
          3   -1    0    0  501    0  0.00000000000E+00  0.00000000000E+00  0.30162266466E+03  0.30162266466E+03  0.00000000000E+00 0. -1.
         -3   -1    0    0    0  501 -0.00000000000E+00 -0.00000000000E+00 -0.67132071509E+02  0.67132071509E+02  0.00000000000E+00 0.  1.
          5    1    1    2  502    0 -0.21927109241E+02 -0.69644307633E+02  0.17713166166E+03  0.19164770614E+03  0.47000000000E+01 0. -1.
         -5    1    1    2    0  502  0.72393309788E+01 -0.18931631420E+02 -0.19597119207E+02  0.28582366285E+02  0.47000000000E+01 0. -1.
        -11    1    1    2    0    0  0.76754739694E+00  0.85458279225E+02  0.93504839273E+02  0.12667620765E+03  0.00000000000E+00 0. -1.
         11    1    1    2    0    0  0.13920230866E+02  0.31176598278E+01 -0.16548788579E+02  0.21848456092E+02  0.00000000000E+00 0.  1.
<mgrwt>
<rscale>  0 0.14669006E+03</rscale>
<asrwt>0</asrwt>
<pdfrwt beam="1">  1        3 0.46403486E-01 0.15389657E+03</pdfrwt>
<pdfrwt beam="2">  1       -3 0.10328011E-01 0.15389657E+03</pdfrwt>
<totfact> 0.76405774E+02</totfact>
</mgrwt>
</event>
<event>
 6    1  0.5258538E-006  0.1350209E+03  0.7546771E-02  0.1230866E+00
          2   -1    0    0  501    0  0.00000000000E+00  0.00000000000E+00  0.88487887601E+03  0.88487887601E+03  0.00000000000E+00 0. -1.
         -2   -1    0    0    0  501 -0.00000000000E+00 -0.00000000000E+00 -0.17059392285E+02  0.17059392285E+02  0.00000000000E+00 0.  1.
          5    1    1    2  502    0  0.48732659554E+02  0.51864720201E+02  0.49086536459E+03  0.49601987608E+03  0.47000000000E+01 0.  1.
         -5    1    1    2    0  502 -0.96846910217E-02 -0.36663391912E+02  0.54790488020E+02  0.66093055443E+02  0.47000000000E+01 0.  1.
        -11    1    1    2    0    0 -0.12036786578E+01  0.16442718537E+02  0.45245118177E+01  0.17096287387E+02  0.00000000000E+00 0.  1.
         11    1    1    2    0    0 -0.47519296205E+02 -0.31644046826E+02  0.31763911930E+03  0.32272904939E+03  0.00000000000E+00 0. -1.
<mgrwt>
<rscale>  0 0.12772800E+03</rscale>
<asrwt>0</asrwt>
<pdfrwt beam="1">  1        2 0.13613518E+00 0.13502088E+03</pdfrwt>
<pdfrwt beam="2">  1       -2 0.26245226E-02 0.13502088E+03</pdfrwt>
<totfact> 0.15338922E+04</totfact>
</mgrwt>
</event>
<event>
 6    1  0.5258538E-006  0.2002663E+03  0.7546771E-02  0.1181926E+00
          2   -1    0    0  501    0  0.00000000000E+00  0.00000000000E+00  0.83784053125E+03  0.83784053125E+03  0.00000000000E+00 0. -1.
         -2   -1    0    0    0  501 -0.00000000000E+00 -0.00000000000E+00 -0.40543384047E+02  0.40543384047E+02  0.00000000000E+00 0.  1.
          5    1    1    2  502    0  0.14276739836E+02 -0.67182803958E+01  0.74757124012E+03  0.74775250561E+03  0.47000000000E+01 0. -1.
         -5    1    1    2    0  502  0.14915543048E+02  0.12610798243E+02 -0.55311271536E+01  0.20837202891E+02  0.47000000000E+01 0.  1.
        -11    1    1    2    0    0  0.21124314082E+02 -0.31742295234E+02  0.18965278137E+02  0.42585111564E+02  0.00000000000E+00 0. -1.
         11    1    1    2    0    0 -0.50316596965E+02  0.25849777386E+02  0.36291756099E+02  0.67209095231E+02  0.00000000000E+00 0.  1.
<mgrwt>
<rscale>  0 0.16614792E+03</rscale>
<asrwt>0</asrwt>
<pdfrwt beam="1">  1        2 0.12889853E+00 0.20026635E+03</pdfrwt>
<pdfrwt beam="2">  1       -2 0.62374443E-02 0.20026635E+03</pdfrwt>
<totfact> 0.46012210E+03</totfact>
</mgrwt>
</event>
<event>
 6    1  0.5258538E-006  0.1535047E+03  0.7546771E-02  0.1205219E+00
          2   -1    0    0  501    0  0.00000000000E+00  0.00000000000E+00  0.15869478259E+04  0.15869478259E+04  0.00000000000E+00 0. -1.
         -2   -1    0    0    0  501 -0.00000000000E+00 -0.00000000000E+00 -0.19129483472E+02  0.19129483472E+02  0.00000000000E+00 0.  1.
          5    1    1    2  502    0  0.59141689116E+02  0.83227580679E+02  0.74592101247E+03  0.75289097246E+03  0.47000000000E+01 0. -1.
         -5    1    1    2    0  502 -0.46951961352E+02  0.50357483231E+01  0.56424997012E+03  0.56624196613E+03  0.47000000000E+01 0. -1.
        -11    1    1    2    0    0  0.23779592782E+02 -0.80731852435E+02  0.13663513397E+03  0.16047510980E+03  0.00000000000E+00 0.  1.
         11    1    1    2    0    0 -0.35969320546E+02 -0.75314765667E+01  0.12101222583E+03  0.12646926093E+03  0.00000000000E+00 0. -1.
<mgrwt>
<rscale>  0 0.14620194E+03</rscale>
<asrwt>0</asrwt>
<pdfrwt beam="1">  1        2 0.24414572E+00 0.15350474E+03</pdfrwt>
<pdfrwt beam="2">  1       -2 0.29429987E-02 0.15350474E+03</pdfrwt>
<totfact> 0.52875362E+03</totfact>
</mgrwt>
</event>
<event>
 6    1  0.5258538E-006  0.1942480E+03  0.7546771E-02  0.1159094E+00
          2   -1    0    0  501    0  0.00000000000E+00  0.00000000000E+00  0.39159824073E+03  0.39159824073E+03  0.00000000000E+00 0. -1.
         -2   -1    0    0    0  501 -0.00000000000E+00 -0.00000000000E+00 -0.91929542771E+02  0.91929542771E+02  0.00000000000E+00 0.  1.
          5    1    1    2  502    0 -0.46078123091E+02 -0.39969815694E+02  0.17227134001E+03  0.18281215546E+03  0.47000000000E+01 0. -1.
         -5    1    1    2    0  502 -0.96884663496E+02 -0.10941732067E+01  0.40015089795E+02  0.10493394421E+03  0.47000000000E+01 0. -1.
        -11    1    1    2    0    0  0.12118596406E+03  0.60550240707E+02  0.42050147598E+02  0.14184704596E+03  0.00000000000E+00 0.  1.
         11    1    1    2    0    0  0.21776822531E+02 -0.19486251807E+02  0.45332120558E+02  0.53934637881E+02  0.00000000000E+00 0. -1.
<mgrwt>
<rscale>  0 0.18929997E+03</rscale>
<asrwt>0</asrwt>
<pdfrwt beam="1">  1        2 0.60245882E-01 0.19424801E+03</pdfrwt>
<pdfrwt beam="2">  1       -2 0.14143007E-01 0.19424801E+03</pdfrwt>
<totfact> 0.30380366E+03</totfact>
</mgrwt>
</event>
<event>
 6    1  0.5258538E-006  0.1662134E+03  0.7546771E-02  0.1188443E+00
          1   -1    0    0  501    0  0.00000000000E+00  0.00000000000E+00  0.15768880160E+04  0.15768880160E+04  0.00000000000E+00 0. -1.
         -1   -1    0    0    0  501 -0.00000000000E+00 -0.00000000000E+00 -0.15804867040E+02  0.15804867040E+02  0.00000000000E+00 0.  1.
          5    1    1    2  502    0 -0.11044312993E+03  0.29915081699E+01  0.80450021815E+03  0.81206485275E+03  0.47000000000E+01 0. -1.
         -5    1    1    2    0  502  0.10278769058E+02 -0.47365664372E+02  0.18516654397E+03  0.19146252443E+03  0.47000000000E+01 0. -1.
        -11    1    1    2    0    0  0.79873384205E+02 -0.56429051337E+01  0.43773659456E+03  0.44499991696E+03  0.00000000000E+00 0.  1.
         11    1    1    2    0    0  0.20290976665E+02  0.50017061335E+02  0.13367979233E+03  0.14416558895E+03  0.00000000000E+00 0. -1.
<mgrwt>
<rscale>  0 0.16022531E+03</rscale>
<asrwt>0</asrwt>
<pdfrwt beam="1">  1        1 0.24259803E+00 0.16621341E+03</pdfrwt>
<pdfrwt beam="2">  1       -1 0.24315192E-02 0.16621341E+03</pdfrwt>
<totfact> 0.32572861E+03</totfact>
</mgrwt>
</event>
<event>
 6    1  0.5258538E-006  0.1666338E+03  0.7546771E-02  0.1198445E+00
          1   -1    0    0  501    0  0.00000000000E+00  0.00000000000E+00  0.57754106915E+03  0.57754106915E+03  0.00000000000E+00 0. -1.
         -1   -1    0    0    0  501 -0.00000000000E+00 -0.00000000000E+00 -0.19085743806E+03  0.19085743806E+03  0.00000000000E+00 0.  1.
          5    1    1    2  502    0  0.87223362589E+02 -0.40590464536E+02  0.32310651286E+03  0.33715784055E+03  0.47000000000E+01 0. -1.
         -5    1    1    2    0  502 -0.64046482088E+02 -0.28510295183E+02  0.22370328379E+03  0.23447822495E+03  0.47000000000E+01 0.  1.
        -11    1    1    2    0    0  0.33804794908E+02  0.29905639867E+02 -0.66132904013E+02  0.80066675014E+02  0.00000000000E+00 0.  1.
         11    1    1    2    0    0 -0.56981675409E+02  0.39195119852E+02 -0.93993261539E+02  0.11669576671E+03  0.00000000000E+00 0. -1.
<mgrwt>
<rscale>  0 0.15166239E+03</rscale>
<asrwt>0</asrwt>
<pdfrwt beam="1">  1        1 0.88852471E-01 0.16663384E+03</pdfrwt>
<pdfrwt beam="2">  1       -1 0.29362683E-01 0.16663384E+03</pdfrwt>
<totfact> 0.39950012E+02</totfact>
</mgrwt>
</event>
<event>
 6    1  0.5258538E-006  0.2735985E+03  0.7546771E-02  0.1101165E+00
         -2   -1    0    0    0  501 -0.00000000000E+00  0.00000000000E+00  0.15676320962E+03  0.15676320962E+03  0.00000000000E+00 0.  1.
          2   -1    0    0  501    0  0.00000000000E+00 -0.00000000000E+00 -0.62652800200E+03  0.62652800200E+03  0.00000000000E+00 0. -1.
          5    1    1    2  502    0  0.17580643386E+02  0.28377036188E+02 -0.17427675828E+03  0.17750722149E+03  0.47000000000E+01 0. -1.
         -5    1    1    2    0  502  0.12129963111E+02  0.21317847795E+03 -0.27002974979E+03  0.34428237718E+03  0.47000000000E+01 0. -1.
        -11    1    1    2    0    0 -0.23414587259E+01 -0.14407588141E+03 -0.57737100625E+02  0.15523180996E+03  0.00000000000E+00 0.  1.
         11    1    1    2    0    0 -0.27369147771E+02 -0.97479632724E+02  0.32278816307E+02  0.10626980299E+03  0.00000000000E+00 0. -1.
<mgrwt>
<rscale>  0 0.27020093E+03</rscale>
<asrwt>0</asrwt>
<pdfrwt beam="2">  1        2 0.96388921E-01 0.27359845E+03</pdfrwt>
<pdfrwt beam="1">  1       -2 0.24117418E-01 0.27359845E+03</pdfrwt>
<totfact> 0.72901454E+02</totfact>
</mgrwt>
</event>
<event>
 6    1  0.5258538E-006  0.3360259E+03  0.7546771E-02  0.1109702E+00
         -2   -1    0    0    0  501 -0.00000000000E+00  0.00000000000E+00  0.42882960329E+02  0.42882960329E+02  0.00000000000E+00 0.  1.
          2   -1    0    0  501    0  0.00000000000E+00 -0.00000000000E+00 -0.19456981842E+04  0.19456981842E+04  0.00000000000E+00 0. -1.
          5    1    1    2  502    0 -0.92783045252E+02  0.10141459355E+03 -0.10311159207E+04  0.10402479248E+04  0.47000000000E+01 0. -1.
         -5    1    1    2    0  502  0.81332547083E+02 -0.16692115868E+03 -0.78325958701E+03  0.80498156940E+03  0.47000000000E+01 0.  1.
        -11    1    1    2    0    0 -0.12481553982E+02  0.49052203905E+02 -0.36990223746E+00  0.50616644746E+02  0.00000000000E+00 0.  1.
         11    1    1    2    0    0  0.23932052152E+02  0.16454361225E+02 -0.88069813975E+02  0.92735005565E+02  0.00000000000E+00 0. -1.
<mgrwt>
<rscale>  0 0.25578499E+03</rscale>
<asrwt>0</asrwt>
<pdfrwt beam="2">  1        2 0.29933816E+00 0.33602590E+03</pdfrwt>
<pdfrwt beam="1">  1       -2 0.65973791E-02 0.33602590E+03</pdfrwt>
<totfact> 0.10072960E+03</totfact>
</mgrwt>
</event>
<event>
 6    1  0.5258538E-006  0.1313243E+03  0.7546771E-02  0.1238674E+00
         -1   -1    0    0    0  501 -0.00000000000E+00  0.00000000000E+00  0.10614478725E+03  0.10614478725E+03  0.00000000000E+00 0.  1.
          1   -1    0    0  501    0  0.00000000000E+00 -0.00000000000E+00 -0.12913208313E+03  0.12913208313E+03  0.00000000000E+00 0. -1.
          5    1    1    2  502    0 -0.51386489177E+02 -0.19311739889E+02 -0.69555712786E+02  0.88733318143E+02  0.47000000000E+01 0. -1.
         -5    1    1    2    0  502  0.11161023577E+02  0.21467954462E+02  0.38965361327E+02  0.46106733775E+02  0.47000000000E+01 0. -1.
        -11    1    1    2    0    0  0.41324150024E+02 -0.18495677130E+02  0.42368757419E+02  0.62007153240E+02  0.00000000000E+00 0.  1.
         11    1    1    2    0    0 -0.10986844232E+01  0.16339462556E+02 -0.34765701843E+02  0.38429665217E+02  0.00000000000E+00 0. -1.
<mgrwt>
<rscale>  0 0.12272133E+03</rscale>
<asrwt>0</asrwt>
<pdfrwt beam="2">  1        1 0.19866474E-01 0.13132429E+03</pdfrwt>
<pdfrwt beam="1">  1       -1 0.16329967E-01 0.13132429E+03</pdfrwt>
<totfact> 0.68334549E+03</totfact>
</mgrwt>
</event>
<event>
 6    1  0.5258538E-006  0.1564023E+03  0.7546771E-02  0.1200742E+00
          2   -1    0    0  501    0  0.00000000000E+00  0.00000000000E+00  0.65324869206E+03  0.65324869206E+03  0.00000000000E+00 0. -1.
         -2   -1    0    0    0  501 -0.00000000000E+00 -0.00000000000E+00 -0.40128589454E+02  0.40128589454E+02  0.00000000000E+00 0.  1.
          5    1    1    2  502    0 -0.32666504567E+02 -0.69290502798E+01  0.20679289312E+02  0.39557998747E+02  0.47000000000E+01 0.  1.
         -5    1    1    2    0  502 -0.22352128539E+02 -0.69275662609E+02  0.46490666234E+03  0.47059433673E+03  0.47000000000E+01 0.  1.
        -11    1    1    2    0    0  0.30767142354E+01  0.16443879707E+02 -0.13491763871E+02  0.21491743592E+02  0.00000000000E+00 0.  1.
         11    1    1    2    0    0  0.51941918871E+02  0.59760833182E+02  0.14102591483E+03  0.16173320244E+03  0.00000000000E+00 0. -1.
<mgrwt>
<rscale>  0 0.14978155E+03</rscale>
<asrwt>0</asrwt>
<pdfrwt beam="1">  1        2 0.10049979E+00 0.15640233E+03</pdfrwt>
<pdfrwt beam="2">  1       -2 0.61736296E-02 0.15640233E+03</pdfrwt>
<totfact> 0.62750854E+03</totfact>
</mgrwt>
</event>
<event>
 6    1  0.5258538E-006  0.3688942E+03  0.7546771E-02  0.1055117E+00
          1   -1    0    0  501    0  0.00000000000E+00  0.00000000000E+00  0.10800914294E+03  0.10800914294E+03  0.00000000000E+00 0. -1.
         -1   -1    0    0    0  501 -0.00000000000E+00 -0.00000000000E+00 -0.31498012820E+03  0.31498012820E+03  0.00000000000E+00 0.  1.
          5    1    1    2  502    0  0.90104416982E+01 -0.15136138870E+02  0.14904325235E+02  0.23548241340E+02  0.47000000000E+01 0.  1.
         -5    1    1    2    0  502 -0.15719460831E+03  0.16310132104E+02 -0.10831918637E+03  0.19165411926E+03  0.47000000000E+01 0.  1.
        -11    1    1    2    0    0  0.38986130747E+02 -0.12782645075E+02 -0.84903647548E+02  0.94297103734E+02  0.00000000000E+00 0.  1.
         11    1    1    2    0    0  0.10919803587E+03  0.11608651841E+02 -0.28652476581E+02  0.11348980681E+03  0.00000000000E+00 0. -1.
<mgrwt>
<rscale>  0 0.36889421E+03</rscale>
<asrwt>0</asrwt>
<pdfrwt beam="1">  1        1 0.16616791E-01 0.36889421E+03</pdfrwt>
<pdfrwt beam="2">  1       -1 0.48458481E-01 0.36889421E+03</pdfrwt>
<totfact> 0.14232240E+03</totfact>
</mgrwt>
</event>
<event>
 6    1  0.5258538E-006  0.1899177E+03  0.7546771E-02  0.1163312E+00
          3   -1    0    0  501    0  0.00000000000E+00  0.00000000000E+00  0.59141436959E+03  0.59141436959E+03  0.00000000000E+00 0. -1.
         -3   -1    0    0    0  501 -0.00000000000E+00 -0.00000000000E+00 -0.57033665819E+02  0.57033665819E+02  0.00000000000E+00 0.  1.
          5    1    1    2  502    0  0.59619069711E+02 -0.18433180788E+02  0.17923292778E+03  0.18984400973E+03  0.47000000000E+01 0.  1.
         -5    1    1    2    0  502 -0.16178511639E+02 -0.11779114519E+03  0.16698608068E+03  0.20504374963E+03  0.47000000000E+01 0.  1.
        -11    1    1    2    0    0 -0.47889775896E+02  0.54501329186E+02  0.36481424760E+02  0.81207880596E+02  0.00000000000E+00 0. -1.
         11    1    1    2    0    0  0.44492178250E+01  0.81722996792E+02  0.15168027056E+03  0.17235239546E+03  0.00000000000E+00 0.  1.
<mgrwt>
<rscale>  0 0.18471994E+03</rscale>
<asrwt>0</asrwt>
<pdfrwt beam="1">  1        3 0.90986822E-01 0.18991772E+03</pdfrwt>
<pdfrwt beam="2">  1       -3 0.87744105E-02 0.18991772E+03</pdfrwt>
<totfact> 0.24992890E+02</totfact>
</mgrwt>
</event>
<event>
 6    1  0.5258538E-006  0.2708525E+03  0.7546771E-02  0.1100793E+00
          2   -1    0    0  501    0  0.00000000000E+00  0.00000000000E+00  0.84429747532E+03  0.84429747532E+03  0.00000000000E+00 0. -1.
         -2   -1    0    0    0  501 -0.00000000000E+00 -0.00000000000E+00 -0.21722513502E+02  0.21722513502E+02  0.00000000000E+00 0.  1.
          5    1    1    2  502    0 -0.40442599185E+02  0.77812424375E+02  0.17809543352E+03  0.19857102169E+03  0.47000000000E+01 0. -1.
         -5    1    1    2    0  502  0.13418783836E+02 -0.12803401990E+01  0.34635230191E+03  0.34664637611E+03  0.47000000000E+01 0. -1.
        -11    1    1    2    0    0 -0.16446011376E+02 -0.36877072988E+02  0.43033512824E+02  0.59010787390E+02  0.00000000000E+00 0.  1.
         11    1    1    2    0    0  0.43469826725E+02 -0.39655011188E+02  0.25509371357E+03  0.26179180363E+03  0.00000000000E+00 0. -1.
<mgrwt>
<rscale>  0 0.27085246E+03</rscale>
<asrwt>0</asrwt>
<pdfrwt beam="1">  1        2 0.12989189E+00 0.27085246E+03</pdfrwt>
<pdfrwt beam="2">  1       -2 0.33419258E-02 0.27085246E+03</pdfrwt>
<totfact> 0.11871074E+04</totfact>
</mgrwt>
</event>
<event>
 6    1  0.5258538E-006  0.5873936E+03  0.7546771E-02  0.9931911E-01
          2   -1    0    0  501    0  0.00000000000E+00  0.00000000000E+00  0.24730102599E+04  0.24730102599E+04  0.00000000000E+00 0. -1.
         -2   -1    0    0    0  501 -0.00000000000E+00 -0.00000000000E+00 -0.34879686371E+02  0.34879686371E+02  0.00000000000E+00 0.  1.
          5    1    1    2  502    0  0.12356550342E+02  0.17606938276E+02  0.84586829009E+02  0.87405436065E+02  0.47000000000E+01 0.  1.
         -5    1    1    2    0  502  0.62391191727E+02 -0.11524715893E+03  0.21962190988E+04  0.22001306753E+04  0.47000000000E+01 0.  1.
        -11    1    1    2    0    0 -0.78556642349E+02  0.46367309706E+02  0.56839811469E+02  0.10747947541E+03  0.00000000000E+00 0. -1.
         11    1    1    2    0    0  0.38089002799E+01  0.51272910947E+02  0.10048483425E+03  0.11287435950E+03  0.00000000000E+00 0.  1.
<mgrwt>
<rscale>  0 0.58739364E+03</rscale>
<asrwt>0</asrwt>
<pdfrwt beam="1">  1        2 0.38046298E+00 0.58739364E+03</pdfrwt>
<pdfrwt beam="2">  1       -2 0.53661075E-02 0.58739364E+03</pdfrwt>
<totfact> 0.70142561E+02</totfact>
</mgrwt>
</event>
<event>
 6    1  0.5258538E-006  0.1876652E+03  0.7546771E-02  0.1186902E+00
         -2   -1    0    0    0  501 -0.00000000000E+00  0.00000000000E+00  0.23002565698E+02  0.23002565698E+02  0.00000000000E+00 0.  1.
          2   -1    0    0  501    0  0.00000000000E+00 -0.00000000000E+00 -0.16592977651E+04  0.16592977651E+04  0.00000000000E+00 0. -1.
          5    1    1    2  502    0  0.44385064940E+02 -0.16115918551E+02 -0.13216016014E+04  0.13224532656E+04  0.47000000000E+01 0. -1.
         -5    1    1    2    0  502 -0.53537210577E+02  0.32625846900E+02 -0.17662895925E+03  0.18748482085E+03  0.47000000000E+01 0.  1.
        -11    1    1    2    0    0  0.27925204868E+02  0.36710345505E+02 -0.71601025640E+02  0.85171435391E+02  0.00000000000E+00 0.  1.
         11    1    1    2    0    0 -0.18773059231E+02 -0.53220273854E+02 -0.66463613100E+02  0.87190808967E+02  0.00000000000E+00 0. -1.
<mgrwt>
<rscale>  0 0.16159973E+03</rscale>
<asrwt>0</asrwt>
<pdfrwt beam="2">  1        2 0.25527671E+00 0.18766516E+03</pdfrwt>
<pdfrwt beam="1">  1       -2 0.35388545E-02 0.18766516E+03</pdfrwt>
<totfact> 0.37009755E+03</totfact>
</mgrwt>
</event>
<event>
 6    1  0.5258538E-006  0.1613893E+03  0.7546771E-02  0.1205753E+00
         -1   -1    0    0    0  501 -0.00000000000E+00  0.00000000000E+00  0.28269746642E+02  0.28269746642E+02  0.00000000000E+00 0.  1.
          1   -1    0    0  501    0  0.00000000000E+00 -0.00000000000E+00 -0.69155458027E+03  0.69155458027E+03  0.00000000000E+00 0. -1.
          5    1    1    2  502    0 -0.27442737556E+02  0.74269628416E+02 -0.27991051942E+03  0.29093138440E+03  0.47000000000E+01 0. -1.
         -5    1    1    2    0  502  0.73449874322E+02 -0.32498263313E+02 -0.21045018648E+03  0.22530510901E+03  0.47000000000E+01 0.  1.
        -11    1    1    2    0    0 -0.31938098765E+02 -0.66100634806E+02 -0.90661920532E+02  0.11665727542E+03  0.00000000000E+00 0.  1.
         11    1    1    2    0    0 -0.14069038001E+02  0.24329269702E+02 -0.82262207195E+02  0.86930558074E+02  0.00000000000E+00 0. -1.
<mgrwt>
<rscale>  0 0.14578284E+03</rscale>
<asrwt>0</asrwt>
<pdfrwt beam="2">  1        1 0.10639302E+00 0.16138927E+03</pdfrwt>
<pdfrwt beam="1">  1       -1 0.43491915E-02 0.16138927E+03</pdfrwt>
<totfact> 0.60683337E+03</totfact>
</mgrwt>
</event>
<event>
 6    1  0.5258538E-006  0.3001386E+03  0.7546771E-02  0.1085171E+00
          2   -1    0    0  501    0  0.00000000000E+00  0.00000000000E+00  0.31989115649E+03  0.31989115649E+03  0.00000000000E+00 0. -1.
         -2   -1    0    0    0  501 -0.00000000000E+00 -0.00000000000E+00 -0.70401412881E+02  0.70401412881E+02  0.00000000000E+00 0.  1.
          5    1    1    2  502    0  0.11732254017E+02 -0.35544795399E+02  0.12052503569E+03  0.12629114178E+03  0.47000000000E+01 0. -1.
         -5    1    1    2    0  502  0.88200986320E+02  0.34641374875E+02  0.48780756440E+02  0.10668219645E+03  0.47000000000E+01 0. -1.
        -11    1    1    2    0    0 -0.45837149273E+02  0.36257927205E+02  0.57200535768E+01  0.58723083635E+02  0.00000000000E+00 0.  1.
         11    1    1    2    0    0 -0.54096091064E+02 -0.35354506681E+02  0.74463897899E+02  0.98596147498E+02  0.00000000000E+00 0. -1.
<mgrwt>
<rscale>  0 0.30013856E+03</rscale>
<asrwt>0</asrwt>
<pdfrwt beam="1">  1        2 0.49214023E-01 0.30013856E+03</pdfrwt>
<pdfrwt beam="2">  1       -2 0.10830987E-01 0.30013856E+03</pdfrwt>
<totfact> 0.59351512E+03</totfact>
</mgrwt>
</event>
<event>
 6    1  0.5258538E-006  0.2642032E+03  0.7546771E-02  0.1106761E+00
         -1   -1    0    0    0  501 -0.00000000000E+00  0.00000000000E+00  0.12982150357E+03  0.12982150357E+03  0.00000000000E+00 0.  1.
          1   -1    0    0  501    0  0.00000000000E+00 -0.00000000000E+00 -0.13090232161E+04  0.13090232161E+04  0.00000000000E+00 0. -1.
          5    1    1    2  502    0 -0.32402480688E+02 -0.46251149751E+01 -0.15673690228E+03  0.16018695009E+03  0.47000000000E+01 0.  1.
         -5    1    1    2    0  502  0.35928847563E+02 -0.22816655506E+03 -0.10012278523E+04  0.10275359658E+04  0.47000000000E+01 0.  1.
        -11    1    1    2    0    0  0.21911762135E+02  0.18385110271E+03  0.13982649286E+02  0.18567947590E+03  0.00000000000E+00 0.  1.
         11    1    1    2    0    0 -0.25438129009E+02  0.48940567322E+02 -0.35219607276E+02  0.65442327847E+02  0.00000000000E+00 0. -1.
<mgrwt>
<rscale>  0 0.26063640E+03</rscale>
<asrwt>0</asrwt>
<pdfrwt beam="2">  1        1 0.20138819E+00 0.26420324E+03</pdfrwt>
<pdfrwt beam="1">  1       -1 0.19972539E-01 0.26420324E+03</pdfrwt>
<totfact> 0.19625933E+02</totfact>
</mgrwt>
</event>
<event>
 6    1  0.5258538E-006  0.1258137E+03  0.7546771E-02  0.1249105E+00
         -2   -1    0    0    0  501 -0.00000000000E+00  0.00000000000E+00  0.13156257157E+03  0.13156257157E+03  0.00000000000E+00 0.  1.
          2   -1    0    0  501    0  0.00000000000E+00 -0.00000000000E+00 -0.11772981980E+03  0.11772981980E+03  0.00000000000E+00 0. -1.
          5    1    1    2  502    0 -0.13746517628E+02  0.19913530242E+01  0.38593888517E+02  0.41285717441E+02  0.47000000000E+01 0.  1.
         -5    1    1    2    0  502  0.28021448334E+02 -0.20415445478E+01 -0.90390746112E+02  0.94773131496E+02  0.47000000000E+01 0.  1.
        -11    1    1    2    0    0 -0.46478807336E+02  0.21055394259E+02  0.23439031869E+02  0.56151557180E+02  0.00000000000E+00 0. -1.
         11    1    1    2    0    0  0.32203876630E+02 -0.21005202735E+02  0.42190577493E+02  0.57081985259E+02  0.00000000000E+00 0.  1.
<mgrwt>
<rscale>  0 0.11643043E+03</rscale>
<asrwt>0</asrwt>
<pdfrwt beam="2">  1        2 0.18112280E-01 0.12581374E+03</pdfrwt>
<pdfrwt beam="1">  1       -2 0.20240396E-01 0.12581374E+03</pdfrwt>
<totfact> 0.60618797E+03</totfact>
</mgrwt>
</event>
<event>
 6    1  0.5258538E-006  0.1292226E+03  0.7546771E-02  0.1242631E+00
          2   -1    0    0  501    0  0.00000000000E+00  0.00000000000E+00  0.92809303088E+02  0.92809303088E+02  0.00000000000E+00 0. -1.
         -2   -1    0    0    0  501 -0.00000000000E+00 -0.00000000000E+00 -0.13987717537E+03  0.13987717537E+03  0.00000000000E+00 0.  1.
          5    1    1    2  502    0 -0.30538961292E+02 -0.12085386932E+02 -0.49128517202E+02  0.59282256507E+02  0.47000000000E+01 0.  1.
         -5    1    1    2    0  502  0.60454494700E+02 -0.15566678445E+01  0.36114544230E+02  0.70594046839E+02  0.47000000000E+01 0.  1.
        -11    1    1    2    0    0 -0.30961717379E+02 -0.34167638757E+02 -0.38952419721E+01  0.46273409117E+02  0.00000000000E+00 0.  1.
         11    1    1    2    0    0  0.10461839706E+01  0.47809693534E+02 -0.30158657335E+02  0.56536765993E+02  0.00000000000E+00 0. -1.
<mgrwt>
<rscale>  0 0.12028298E+03</rscale>
<asrwt>0</asrwt>
<pdfrwt beam="1">  1        2 0.14278354E-01 0.12922264E+03</pdfrwt>
<pdfrwt beam="2">  1       -2 0.21519565E-01 0.12922264E+03</pdfrwt>
<totfact> 0.72102578E+03</totfact>
</mgrwt>
</event>
<event>
 6    1  0.6856515E-006  0.2810581E+03  0.7546771E-02  0.1096915E+00
          3   -1    0    0  501    0  0.00000000000E+00  0.00000000000E+00  0.10027170938E+04  0.10027170938E+04  0.00000000000E+00 0. -1.
         -3   -1    0    0    0  501 -0.00000000000E+00 -0.00000000000E+00 -0.84801679767E+02  0.84801679767E+02  0.00000000000E+00 0.  1.
          5    1    1    2  502    0 -0.84434543186E+02  0.79443845719E+02  0.21772708234E+03  0.24671377969E+03  0.47000000000E+01 0.  1.
         -5    1    1    2    0  502 -0.16011389032E+03 -0.19740135667E+02  0.43378478557E+03  0.46283632206E+03  0.47000000000E+01 0.  1.
        -11    1    1    2    0    0  0.21673984100E+03 -0.81514812566E+02  0.24250495211E+03  0.33530504789E+03  0.00000000000E+00 0. -1.
         11    1    1    2    0    0  0.27808592505E+02  0.21811102514E+02  0.23898594003E+02  0.42663623912E+02  0.00000000000E+00 0.  1.
<mgrwt>
<rscale>  0 0.27776671E+03</rscale>
<asrwt>0</asrwt>
<pdfrwt beam="1">  1        3 0.15426416E+00 0.28105806E+03</pdfrwt>
<pdfrwt beam="2">  1       -3 0.13046413E-01 0.28105806E+03</pdfrwt>
<totfact> 0.37646773E+01</totfact>
</mgrwt>
</event>
<event>
 6    1  0.5258538E-006  0.1470198E+03  0.7546771E-02  0.1213987E+00
          1   -1    0    0  501    0  0.00000000000E+00  0.00000000000E+00  0.48948974056E+03  0.48948974056E+03  0.00000000000E+00 0. -1.
         -1   -1    0    0    0  501 -0.00000000000E+00 -0.00000000000E+00 -0.47250239540E+02  0.47250239540E+02  0.00000000000E+00 0.  1.
          5    1    1    2  502    0 -0.64031174768E+01 -0.34891888643E+02  0.15993293519E+03  0.16388739294E+03  0.47000000000E+01 0. -1.
         -5    1    1    2    0  502 -0.44108641889E+02  0.93531521199E+02  0.20811899938E+03  0.23244209096E+03  0.47000000000E+01 0. -1.
        -11    1    1    2    0    0  0.24889359304E+02 -0.79121619436E+02  0.36998715626E+02  0.90821890680E+02  0.00000000000E+00 0.  1.
         11    1    1    2    0    0  0.25622400063E+02  0.20481986880E+02  0.37188850818E+02  0.49588605513E+02  0.00000000000E+00 0. -1.
<mgrwt>
<rscale>  0 0.13951189E+03</rscale>
<asrwt>0</asrwt>
<pdfrwt beam="1">  1        1 0.75306110E-01 0.14701984E+03</pdfrwt>
<pdfrwt beam="2">  1       -1 0.72692680E-02 0.14701984E+03</pdfrwt>
<totfact> 0.44936007E+03</totfact>
</mgrwt>
</event>
<event>
 6    1  0.5258538E-006  0.1454671E+03  0.7546771E-02  0.1215871E+00
         -1   -1    0    0    0  501 -0.00000000000E+00  0.00000000000E+00  0.23540138697E+02  0.23540138697E+02  0.00000000000E+00 0.  1.
          1   -1    0    0  501    0  0.00000000000E+00 -0.00000000000E+00 -0.74093953359E+03  0.74093953359E+03  0.00000000000E+00 0. -1.
          5    1    1    2  502    0  0.93542850974E+02  0.22423770765E+02 -0.20237222876E+03  0.22411983276E+03  0.47000000000E+01 0. -1.
         -5    1    1    2    0  502 -0.19456103002E+02 -0.29243829203E+02 -0.21440998301E+03  0.21731882640E+03  0.47000000000E+01 0. -1.
        -11    1    1    2    0    0 -0.90602936865E+02  0.17296688934E+02 -0.19610769811E+03  0.21671708948E+03  0.00000000000E+00 0.  1.
         11    1    1    2    0    0  0.16516188893E+02 -0.10476630495E+02 -0.10450948501E+03  0.10632392365E+03  0.00000000000E+00 0. -1.
<mgrwt>
<rscale>  0 0.13812766E+03</rscale>
<asrwt>0</asrwt>
<pdfrwt beam="2">  1        1 0.11399069E+00 0.14546710E+03</pdfrwt>
<pdfrwt beam="1">  1       -1 0.36215600E-02 0.14546710E+03</pdfrwt>
<totfact> 0.71528132E+03</totfact>
</mgrwt>
</event>
<event>
 6    1  0.5258538E-006  0.1256298E+03  0.7546771E-02  0.1259991E+00
         -1   -1    0    0    0  501 -0.00000000000E+00  0.00000000000E+00  0.32375525570E+02  0.32375525570E+02  0.00000000000E+00 0.  1.
          1   -1    0    0  501    0  0.00000000000E+00 -0.00000000000E+00 -0.31916523227E+03  0.31916523227E+03  0.00000000000E+00 0. -1.
          5    1    1    2  502    0 -0.21243591795E+02  0.64547543140E+02 -0.12150105404E+03  0.13929203728E+03  0.47000000000E+01 0.  1.
         -5    1    1    2    0  502  0.22965520500E+02 -0.52175517165E+02 -0.86375109752E+02  0.10359753524E+03  0.47000000000E+01 0.  1.
        -11    1    1    2    0    0  0.13522224927E+02 -0.57132458802E+01  0.10278990487E+02  0.17920641475E+02  0.00000000000E+00 0.  1.
         11    1    1    2    0    0 -0.15244153631E+02 -0.66587800939E+01 -0.89192533394E+02  0.90730543840E+02  0.00000000000E+00 0. -1.
<mgrwt>
<rscale>  0 0.11031300E+03</rscale>
<asrwt>0</asrwt>
<pdfrwt beam="2">  1        1 0.49102342E-01 0.12562979E+03</pdfrwt>
<pdfrwt beam="1">  1       -1 0.49808503E-02 0.12562979E+03</pdfrwt>
<totfact> 0.13406161E+04</totfact>
</mgrwt>
</event>
<event>
 6    1  0.5258538E-006  0.1395289E+03  0.7546771E-02  0.1225055E+00
         -3   -1    0    0    0  501 -0.00000000000E+00  0.00000000000E+00  0.82799514005E+02  0.82799514005E+02  0.00000000000E+00 0.  1.
          3   -1    0    0  501    0  0.00000000000E+00 -0.00000000000E+00 -0.21311731429E+03  0.21311731429E+03  0.00000000000E+00 0. -1.
          5    1    1    2  502    0  0.37361650696E+02  0.10744270134E+02 -0.50291133264E+02  0.63738688161E+02  0.47000000000E+01 0.  1.
         -5    1    1    2    0  502 -0.98041585458E+02  0.19642298690E+01 -0.71259725429E+02  0.12130972404E+03  0.47000000000E+01 0.  1.
        -11    1    1    2    0    0  0.43271961337E+02  0.86949421953E+01 -0.46508782981E+02  0.64118106274E+02  0.00000000000E+00 0. -1.
         11    1    1    2    0    0  0.17407973424E+02 -0.21403442198E+02  0.37741841392E+02  0.46750309821E+02  0.00000000000E+00 0.  1.
<mgrwt>
<rscale>  0 0.13163140E+03</rscale>
<asrwt>0</asrwt>
<pdfrwt beam="2">  1        3 0.32787279E-01 0.13952886E+03</pdfrwt>
<pdfrwt beam="1">  1       -3 0.12738387E-01 0.13952886E+03</pdfrwt>
<totfact> 0.10333290E+03</totfact>
</mgrwt>
</event>
<event>
 6    1  0.5258538E-006  0.1419964E+03  0.7546771E-02  0.1221291E+00
          1   -1    0    0  501    0  0.00000000000E+00  0.00000000000E+00  0.29306646761E+03  0.29306646761E+03  0.00000000000E+00 0. -1.
         -1   -1    0    0    0  501 -0.00000000000E+00 -0.00000000000E+00 -0.55695939086E+02  0.55695939086E+02  0.00000000000E+00 0.  1.
          5    1    1    2  502    0 -0.78593807497E+02  0.55358824063E+02  0.11987936954E+03  0.15373593991E+03  0.47000000000E+01 0.  1.
         -5    1    1    2    0  502  0.15096661343E+02 -0.32614944815E+02  0.74819649265E+01  0.37009642097E+02  0.47000000000E+01 0.  1.
        -11    1    1    2    0    0 -0.22413359613E+02 -0.14548787761E+02  0.31946860614E+02  0.41648863341E+02  0.00000000000E+00 0. -1.
         11    1    1    2    0    0  0.85910505767E+02 -0.81950914872E+01  0.78062333440E+02  0.11636796135E+03  0.00000000000E+00 0.  1.
<mgrwt>
<rscale>  0 0.13424367E+03</rscale>
<asrwt>0</asrwt>
<pdfrwt beam="1">  1        1 0.45087148E-01 0.14199636E+03</pdfrwt>
<pdfrwt beam="2">  1       -1 0.85686062E-02 0.14199636E+03</pdfrwt>
<totfact> 0.66828341E+03</totfact>
</mgrwt>
</event>
<event>
 6    1  0.5258538E-006  0.1254417E+03  0.7546771E-02  0.1249410E+00
          1   -1    0    0  501    0  0.00000000000E+00  0.00000000000E+00  0.47825381773E+03  0.47825381773E+03  0.00000000000E+00 0. -1.
         -1   -1    0    0    0  501 -0.00000000000E+00 -0.00000000000E+00 -0.25027513187E+02  0.25027513187E+02  0.00000000000E+00 0.  1.
          5    1    1    2  502    0 -0.40014453113E+02  0.39885029227E+02  0.15444752986E+03  0.16452386300E+03  0.47000000000E+01 0.  1.
         -5    1    1    2    0  502  0.48817437867E+02 -0.45800702145E+02  0.12787468429E+03  0.14441215821E+03  0.47000000000E+01 0.  1.
        -11    1    1    2    0    0 -0.37067663780E+02 -0.27061326764E+02  0.62309282691E+02  0.77387168276E+02  0.00000000000E+00 0.  1.
         11    1    1    2    0    0  0.28264679026E+02  0.32976999682E+02  0.10859480770E+03  0.11695814144E+03  0.00000000000E+00 0. -1.
<mgrwt>
<rscale>  0 0.11625263E+03</rscale>
<asrwt>0</asrwt>
<pdfrwt beam="1">  1        1 0.73577504E-01 0.12544175E+03</pdfrwt>
<pdfrwt beam="2">  1       -1 0.38503870E-02 0.12544175E+03</pdfrwt>
<totfact> 0.11766731E+04</totfact>
</mgrwt>
</event>
<event>
 6    1  0.5258538E-006  0.1281335E+03  0.7546771E-02  0.1245354E+00
         -4   -1    0    0    0  501 -0.00000000000E+00  0.00000000000E+00  0.50990941753E+03  0.50990941753E+03  0.00000000000E+00 0.  1.
          4   -1    0    0  501    0  0.00000000000E+00 -0.00000000000E+00 -0.25257944361E+02  0.25257944361E+02  0.00000000000E+00 0. -1.
          5    1    1    2  502    0 -0.39634563115E+02 -0.51408673462E+01  0.23728643874E+02  0.46716866874E+02  0.47000000000E+01 0. -1.
         -5    1    1    2    0  502  0.67211919107E+02 -0.25345046058E+00  0.20077868830E+03  0.21178214746E+03  0.47000000000E+01 0. -1.
        -11    1    1    2    0    0 -0.55431242380E+02  0.14800518419E+02  0.21702415994E+03  0.22447976295E+03  0.00000000000E+00 0.  1.
         11    1    1    2    0    0  0.27853886388E+02 -0.94062006121E+01  0.43119981048E+02  0.52188584599E+02  0.00000000000E+00 0. -1.
<mgrwt>
<rscale>  0 0.11864241E+03</rscale>
<asrwt>0</asrwt>
<pdfrwt beam="2">  1        4 0.38858380E-02 0.12813352E+03</pdfrwt>
<pdfrwt beam="1">  1       -4 0.78447595E-01 0.12813352E+03</pdfrwt>
<totfact> 0.86932163E+02</totfact>
</mgrwt>
</event>
<event>
 6    1  0.5258538E-006  0.1490631E+03  0.7546771E-02  0.1211347E+00
          1   -1    0    0  501    0  0.00000000000E+00  0.00000000000E+00  0.83609218203E+03  0.83609218203E+03  0.00000000000E+00 0. -1.
         -1   -1    0    0    0  501 -0.00000000000E+00 -0.00000000000E+00 -0.36563392327E+02  0.36563392327E+02  0.00000000000E+00 0.  1.
          5    1    1    2  502    0 -0.28476453037E+01 -0.13828826599E+02  0.66985858586E+01  0.16318902579E+02  0.47000000000E+01 0.  1.
         -5    1    1    2    0  502  0.70513615433E+02  0.58737420140E+02  0.69417513948E+03  0.70023101100E+03  0.47000000000E+01 0.  1.
        -11    1    1    2    0    0 -0.17582643184E+02 -0.51562494759E+01  0.89684830737E+02  0.91537451976E+02  0.00000000000E+00 0. -1.
         11    1    1    2    0    0 -0.50083326946E+02 -0.39752344065E+02  0.89702336210E+01  0.64568208801E+02  0.00000000000E+00 0.  1.
<mgrwt>
<rscale>  0 0.14148354E+03</rscale>
<asrwt>0</asrwt>
<pdfrwt beam="1">  1        1 0.12862955E+00 0.14906307E+03</pdfrwt>
<pdfrwt beam="2">  1       -1 0.56251379E-02 0.14906307E+03</pdfrwt>
<totfact> 0.31160376E+03</totfact>
</mgrwt>
</event>
<event>
 6    1  0.5258538E-006  0.2138911E+03  0.7546771E-02  0.1142658E+00
          2   -1    0    0  501    0  0.00000000000E+00  0.00000000000E+00  0.70492438093E+03  0.70492438093E+03  0.00000000000E+00 0. -1.
         -2   -1    0    0    0  501 -0.00000000000E+00 -0.00000000000E+00 -0.81138952128E+02  0.81138952128E+02  0.00000000000E+00 0.  1.
          5    1    1    2  502    0 -0.31697810941E+02  0.19442113822E+02  0.26162561135E+02  0.45709043016E+02  0.47000000000E+01 0.  1.
         -5    1    1    2    0  502 -0.13581058054E+03 -0.64888997211E+02  0.50263412546E+03  0.52470777565E+03  0.47000000000E+01 0.  1.
        -11    1    1    2    0    0  0.48431239899E+02 -0.21548688326E+02  0.78311558475E+01  0.53584120490E+02  0.00000000000E+00 0.  1.
         11    1    1    2    0    0  0.11907715158E+03  0.66995571715E+02  0.87157586354E+02  0.16206239390E+03  0.00000000000E+00 0. -1.
<mgrwt>
<rscale>  0 0.20862691E+03</rscale>
<asrwt>0</asrwt>
<pdfrwt beam="1">  1        2 0.10844990E+00 0.21389112E+03</pdfrwt>
<pdfrwt beam="2">  1       -2 0.12482916E-01 0.21389112E+03</pdfrwt>
<totfact> 0.19193413E+03</totfact>
</mgrwt>
</event>
<event>
 6    1  0.5258538E-006  0.1383613E+03  0.7546771E-02  0.1226687E+00
          1   -1    0    0  501    0  0.00000000000E+00  0.00000000000E+00  0.82497716647E+03  0.82497716647E+03  0.00000000000E+00 0. -1.
         -1   -1    0    0    0  501 -0.00000000000E+00 -0.00000000000E+00 -0.20090310370E+02  0.20090310370E+02  0.00000000000E+00 0.  1.
          5    1    1    2  502    0 -0.20432430874E+02  0.68808818699E+01  0.49459184425E+03  0.49508384459E+03  0.47000000000E+01 0. -1.
         -5    1    1    2    0  502 -0.29893484690E+02 -0.38282337602E+02  0.64531386379E+02  0.80904558754E+02  0.47000000000E+01 0. -1.
        -11    1    1    2    0    0  0.21862255943E+02  0.62989247042E+02  0.13916223476E+03  0.15431050211E+03  0.00000000000E+00 0.  1.
         11    1    1    2    0    0  0.28463659620E+02 -0.31587791310E+02  0.10660139071E+03  0.11476857139E+03  0.00000000000E+00 0. -1.
<mgrwt>
<rscale>  0 0.13051962E+03</rscale>
<asrwt>0</asrwt>
<pdfrwt beam="1">  1        1 0.12691954E+00 0.13836132E+03</pdfrwt>
<pdfrwt beam="2">  1       -1 0.30908176E-02 0.13836132E+03</pdfrwt>
<totfact> 0.76593159E+03</totfact>
</mgrwt>
</event>
<event>
 6    1  0.5258538E-006  0.2182780E+03  0.7546771E-02  0.1137799E+00
         -1   -1    0    0    0  501 -0.00000000000E+00  0.00000000000E+00  0.63440714431E+02  0.63440714431E+02  0.00000000000E+00 0.  1.
          1   -1    0    0  501    0  0.00000000000E+00 -0.00000000000E+00 -0.96993500670E+03  0.96993500670E+03  0.00000000000E+00 0. -1.
          5    1    1    2  502    0  0.14081330642E+03 -0.48119127967E+02 -0.68978907496E+03  0.70567336330E+03  0.47000000000E+01 0. -1.
         -5    1    1    2    0  502  0.35682607217E+02  0.18658046139E+02 -0.43713158622E+02  0.59617961893E+02  0.47000000000E+01 0. -1.
        -11    1    1    2    0    0 -0.11256735310E+02  0.33264141330E+02 -0.11366970705E+02  0.36911044571E+02  0.00000000000E+00 0.  1.
         11    1    1    2    0    0 -0.16523917833E+03 -0.38030595019E+01 -0.16162508799E+03  0.23117335137E+03  0.00000000000E+00 0. -1.
<mgrwt>
<rscale>  0 0.21482751E+03</rscale>
<asrwt>0</asrwt>
<pdfrwt beam="2">  1        1 0.14922077E+00 0.21827800E+03</pdfrwt>
<pdfrwt beam="1">  1       -1 0.97601099E-02 0.21827800E+03</pdfrwt>
<totfact> 0.10696026E+03</totfact>
</mgrwt>
</event>
<event>
 6    1  0.5258538E-006  0.4077904E+03  0.7546771E-02  0.1041115E+00
          1   -1    0    0  501    0  0.00000000000E+00  0.00000000000E+00  0.97716394192E+02  0.97716394192E+02  0.00000000000E+00 0. -1.
         -1   -1    0    0    0  501 -0.00000000000E+00 -0.00000000000E+00 -0.42544814156E+03  0.42544814156E+03  0.00000000000E+00 0.  1.
          5    1    1    2  502    0  0.85584635669E+01 -0.13637789018E+02  0.18459558397E+02  0.24941569400E+02  0.47000000000E+01 0.  1.
         -5    1    1    2    0  502  0.47600918784E+02  0.15505295974E+03 -0.83185707171E+02  0.18234368558E+03  0.47000000000E+01 0.  1.
        -11    1    1    2    0    0 -0.46177525900E+02 -0.92533162370E+02 -0.23920389648E+03  0.26060171551E+03  0.00000000000E+00 0.  1.
         11    1    1    2    0    0 -0.99818564503E+01 -0.48882008347E+02 -0.23801702115E+02  0.55277565266E+02  0.00000000000E+00 0. -1.
<mgrwt>
<rscale>  0 0.40779043E+03</rscale>
<asrwt>0</asrwt>
<pdfrwt beam="1">  1        1 0.15033292E-01 0.40779043E+03</pdfrwt>
<pdfrwt beam="2">  1       -1 0.65453560E-01 0.40779043E+03</pdfrwt>
<totfact> 0.91394215E+02</totfact>
</mgrwt>
</event>
<event>
 6    1  0.5258538E-006  0.1250483E+03  0.7546771E-02  0.1250623E+00
          1   -1    0    0  501    0  0.00000000000E+00  0.00000000000E+00  0.81684187486E+03  0.81684187486E+03  0.00000000000E+00 0. -1.
         -1   -1    0    0    0  501 -0.00000000000E+00 -0.00000000000E+00 -0.17289455175E+02  0.17289455175E+02  0.00000000000E+00 0.  1.
          5    1    1    2  502    0 -0.12998108931E+02  0.43148180495E+02  0.89922071876E+02  0.10069153552E+03  0.47000000000E+01 0.  1.
         -5    1    1    2    0  502  0.13276168979E+02 -0.39622695754E+02  0.53310412090E+03  0.53476004750E+03  0.47000000000E+01 0.  1.
        -11    1    1    2    0    0 -0.24241679805E+02 -0.34215564755E+02  0.44991754623E+02  0.61503023465E+02  0.00000000000E+00 0.  1.
         11    1    1    2    0    0  0.23963619757E+02  0.30690080014E+02  0.13153447229E+03  0.13717672355E+03  0.00000000000E+00 0. -1.
<mgrwt>
<rscale>  0 0.11555065E+03</rscale>
<asrwt>0</asrwt>
<pdfrwt beam="1">  1        1 0.12566795E+00 0.12504830E+03</pdfrwt>
<pdfrwt beam="2">  1       -1 0.26599168E-02 0.12504830E+03</pdfrwt>
<totfact> 0.96143683E+03</totfact>
</mgrwt>
</event>
<event>
 6    1  0.5258538E-006  0.1698192E+03  0.7546771E-02  0.1184662E+00
         -2   -1    0    0    0  501 -0.00000000000E+00  0.00000000000E+00  0.21116916593E+02  0.21116916593E+02  0.00000000000E+00 0. -1.
          2   -1    0    0  501    0  0.00000000000E+00 -0.00000000000E+00 -0.13658929331E+04  0.13658929331E+04  0.00000000000E+00 0.  1.
          5    1    1    2  502    0  0.25798776619E+02  0.63647800114E+02 -0.76743940546E+03  0.77052057104E+03  0.47000000000E+01 0. -1.
         -5    1    1    2    0  502 -0.49236635357E+02  0.48891556437E+02 -0.20090788738E+03  0.21260456195E+03  0.47000000000E+01 0. -1.
        -11    1    1    2    0    0 -0.26501753527E+02 -0.81305962612E+02 -0.25430136676E+03  0.26829496386E+03  0.00000000000E+00 0. -1.
         11    1    1    2    0    0  0.49939612265E+02 -0.31233393940E+02 -0.12212735686E+03  0.13558975280E+03  0.00000000000E+00 0.  1.
<mgrwt>
<rscale>  0 0.16362637E+03</rscale>
<asrwt>0</asrwt>
<pdfrwt beam="2">  1        2 0.21013743E+00 0.16981916E+03</pdfrwt>
<pdfrwt beam="1">  1       -2 0.32487555E-02 0.16981916E+03</pdfrwt>
<totfact> 0.59897849E+03</totfact>
</mgrwt>
</event>
<event>
 6    1  0.5258538E-006  0.2927924E+03  0.7546771E-02  0.1088900E+00
          1   -1    0    0  501    0  0.00000000000E+00  0.00000000000E+00  0.47591256705E+02  0.47591256705E+02  0.00000000000E+00 0. -1.
         -1   -1    0    0    0  501 -0.00000000000E+00 -0.00000000000E+00 -0.45033154628E+03  0.45033154628E+03  0.00000000000E+00 0.  1.
          5    1    1    2  502    0 -0.43458374927E+02  0.65396322717E+02 -0.30374567849E+01  0.78718647854E+02  0.47000000000E+01 0.  1.
         -5    1    1    2    0  502 -0.13003419755E+01 -0.26036769788E+02 -0.76511519637E+02  0.80967319996E+02  0.47000000000E+01 0.  1.
        -11    1    1    2    0    0 -0.66659871801E+00 -0.46742905124E+02 -0.22487157760E+03  0.22967927626E+03  0.00000000000E+00 0.  1.
         11    1    1    2    0    0  0.45425315620E+02  0.73833521939E+01 -0.98319735556E+02  0.10855755887E+03  0.00000000000E+00 0. -1.
<mgrwt>
<rscale>  0 0.29279238E+03</rscale>
<asrwt>0</asrwt>
<pdfrwt beam="1">  1        1 0.73217316E-02 0.29279238E+03</pdfrwt>
<pdfrwt beam="2">  1       -1 0.69281778E-01 0.29279238E+03</pdfrwt>
<totfact> 0.21486170E+03</totfact>
</mgrwt>
</event>
<event>
 6    1  0.5258538E-006  0.2492293E+03  0.7546771E-02  0.1113793E+00
         -2   -1    0    0    0  501 -0.00000000000E+00  0.00000000000E+00  0.37718568744E+02  0.37718568744E+02  0.00000000000E+00 0.  1.
          2   -1    0    0  501    0  0.00000000000E+00 -0.00000000000E+00 -0.41170210876E+03  0.41170210876E+03  0.00000000000E+00 0. -1.
          5    1    1    2  502    0 -0.90782388062E+02 -0.70878336815E+01 -0.20471120860E+03  0.22409919298E+03  0.47000000000E+01 0. -1.
         -5    1    1    2    0  502  0.39563883731E+02 -0.13321906859E+02 -0.53418709188E+02  0.67958977255E+02  0.47000000000E+01 0. -1.
        -11    1    1    2    0    0  0.24705273832E+02  0.10518073469E+02  0.97834644564E+01  0.28577904076E+02  0.00000000000E+00 0.  1.
         11    1    1    2    0    0  0.26513230499E+02  0.98916670710E+01 -0.12563708668E+03  0.12878460319E+03  0.00000000000E+00 0. -1.
<mgrwt>
<rscale>  0 0.24922933E+03</rscale>
<asrwt>0</asrwt>
<pdfrwt beam="2">  1        2 0.63338783E-01 0.24922933E+03</pdfrwt>
<pdfrwt beam="1">  1       -2 0.58028570E-02 0.24922933E+03</pdfrwt>
<totfact> 0.11896022E+04</totfact>
</mgrwt>
</event>
<event>
 6    1  0.5258538E-006  0.1391991E+03  0.7546771E-02  0.1225418E+00
         -2   -1    0    0    0  501 -0.00000000000E+00  0.00000000000E+00  0.13523754990E+03  0.13523754990E+03  0.00000000000E+00 0.  1.
          2   -1    0    0  501    0  0.00000000000E+00 -0.00000000000E+00 -0.11711230754E+03  0.11711230754E+03  0.00000000000E+00 0. -1.
          5    1    1    2  502    0 -0.33088808336E+02  0.23503598685E+02  0.10314032003E+02  0.42139739492E+02  0.47000000000E+01 0. -1.
         -5    1    1    2    0  502  0.47737007766E+02 -0.82966938757E+02 -0.16109742696E+02  0.97179980690E+02  0.47000000000E+01 0. -1.
        -11    1    1    2    0    0 -0.44483521544E+02  0.90525877825E+00  0.13445417494E+02  0.46479914307E+02  0.00000000000E+00 0. -1.
         11    1    1    2    0    0  0.29835322114E+02  0.58558081293E+02  0.10475535559E+02  0.66550222957E+02  0.00000000000E+00 0.  1.
<mgrwt>
<rscale>  0 0.13138275E+03</rscale>
<asrwt>0</asrwt>
<pdfrwt beam="2">  1        2 0.18017278E-01 0.13919912E+03</pdfrwt>
<pdfrwt beam="1">  1       -2 0.20805777E-01 0.13919912E+03</pdfrwt>
<totfact> 0.58610846E+03</totfact>
</mgrwt>
</event>
<event>
 6    1  0.5258538E-006  0.1267529E+03  0.7546771E-02  0.1248058E+00
          1   -1    0    0  501    0  0.00000000000E+00  0.00000000000E+00  0.27947491100E+03  0.27947491100E+03  0.00000000000E+00 0. -1.
         -1   -1    0    0    0  501 -0.00000000000E+00 -0.00000000000E+00 -0.55660278735E+02  0.55660278735E+02  0.00000000000E+00 0.  1.
          5    1    1    2  502    0  0.27400042110E+02 -0.41913000599E+02  0.49509211291E+02  0.70574173247E+02  0.47000000000E+01 0. -1.
         -5    1    1    2    0  502 -0.45341968984E+02  0.52866447688E+02  0.15558686612E+03  0.17052893699E+03  0.47000000000E+01 0. -1.
        -11    1    1    2    0    0  0.45207826422E+02  0.14022723744E+02  0.29180019250E+02  0.55604477108E+02  0.00000000000E+00 0. -1.
         11    1    1    2    0    0 -0.27265899547E+02 -0.24976170833E+02 -0.10461464399E+02  0.38427602384E+02  0.00000000000E+00 0.  1.
<mgrwt>
<rscale>  0 0.11704222E+03</rscale>
<asrwt>0</asrwt>
<pdfrwt beam="1">  1        1 0.42996140E-01 0.12675294E+03</pdfrwt>
<pdfrwt beam="2">  1       -1 0.85631199E-02 0.12675294E+03</pdfrwt>
<totfact> 0.70405876E+03</totfact>
</mgrwt>
</event>
<event>
 6    1  0.5258538E-006  0.1405097E+03  0.7546771E-02  0.1223715E+00
          2   -1    0    0  501    0  0.00000000000E+00  0.00000000000E+00  0.16106749459E+04  0.16106749459E+04  0.00000000000E+00 0. -1.
         -2   -1    0    0    0  501 -0.00000000000E+00 -0.00000000000E+00 -0.20680417817E+02  0.20680417817E+02  0.00000000000E+00 0.  1.
          5    1    1    2  502    0 -0.65489130512E+02  0.37145088923E+02  0.67331649814E+03  0.67752917318E+03  0.47000000000E+01 0.  1.
         -5    1    1    2    0  502  0.57716055818E+02  0.26555664299E+02  0.75422117455E+03  0.75690687442E+03  0.47000000000E+01 0.  1.
        -11    1    1    2    0    0  0.58252027934E+01 -0.86846943791E+02  0.11649567607E+03  0.14542203126E+03  0.00000000000E+00 0. -1.
         11    1    1    2    0    0  0.19478719010E+01  0.23146190570E+02  0.45961179366E+02  0.51497284895E+02  0.00000000000E+00 0.  1.
<mgrwt>
<rscale>  0 0.13255362E+03</rscale>
<asrwt>0</asrwt>
<pdfrwt beam="1">  1        2 0.24779605E+00 0.14050967E+03</pdfrwt>
<pdfrwt beam="2">  1       -2 0.31816040E-02 0.14050967E+03</pdfrwt>
<totfact> 0.45738975E+03</totfact>
</mgrwt>
</event>
<event>
 6    1  0.5258538E-006  0.1371299E+03  0.7546771E-02  0.1229061E+00
         -1   -1    0    0    0  501 -0.00000000000E+00  0.00000000000E+00  0.28797330168E+03  0.28797330168E+03  0.00000000000E+00 0.  1.
          1   -1    0    0  501    0  0.00000000000E+00 -0.00000000000E+00 -0.93683548897E+02  0.93683548897E+02  0.00000000000E+00 0. -1.
          5    1    1    2  502    0  0.25898128306E+02 -0.36620856425E+02 -0.30658344266E+01  0.45202760046E+02  0.47000000000E+01 0.  1.
         -5    1    1    2    0  502 -0.10746591780E+02  0.90931772900E+02 -0.20257908585E+02  0.93896482457E+02  0.47000000000E+01 0.  1.
        -11    1    1    2    0    0 -0.32579844204E+02 -0.70330751726E+01  0.20554729534E+02  0.39158744885E+02  0.00000000000E+00 0. -1.
         11    1    1    2    0    0  0.17428307678E+02 -0.47277841302E+02  0.19705876627E+03  0.20339886319E+03  0.00000000000E+00 0.  1.
<mgrwt>
<rscale>  0 0.12892436E+03</rscale>
<asrwt>0</asrwt>
<pdfrwt beam="2">  1        1 0.14412854E-01 0.13712987E+03</pdfrwt>
<pdfrwt beam="1">  1       -1 0.44303584E-01 0.13712987E+03</pdfrwt>
<totfact> 0.19646591E+03</totfact>
</mgrwt>
</event>
<event>
 6    1  0.5258538E-006  0.1844442E+03  0.7546771E-02  0.1163608E+00
          2   -1    0    0  501    0  0.00000000000E+00  0.00000000000E+00  0.85087528143E+03  0.85087528143E+03  0.00000000000E+00 0. -1.
         -2   -1    0    0    0  501 -0.00000000000E+00 -0.00000000000E+00 -0.39963267143E+02  0.39963267143E+02  0.00000000000E+00 0.  1.
          5    1    1    2  502    0  0.98876425641E+02 -0.52842359773E+02  0.32199131319E+03  0.34098292963E+03  0.47000000000E+01 0.  1.
         -5    1    1    2    0  502  0.36751448265E+02  0.52667852560E+02  0.92642641629E+02  0.11282429123E+03  0.47000000000E+01 0.  1.
        -11    1    1    2    0    0  0.20529999571E+02  0.17682299918E+02  0.62010013516E+02  0.67671163644E+02  0.00000000000E+00 0.  1.
         11    1    1    2    0    0 -0.15615787348E+03 -0.17507792705E+02  0.33426804596E+03  0.36936016407E+03  0.00000000000E+00 0. -1.
<mgrwt>
<rscale>  0 0.18440382E+03</rscale>
<asrwt>0</asrwt>
<pdfrwt beam="1">  1        2 0.13090388E+00 0.18444424E+03</pdfrwt>
<pdfrwt beam="2">  1       -2 0.61481956E-02 0.18444424E+03</pdfrwt>
<totfact> 0.45986766E+03</totfact>
</mgrwt>
</event>
<event>
 6    1  0.5258538E-006  0.2271326E+03  0.7546771E-02  0.1131914E+00
         -1   -1    0    0    0  501 -0.00000000000E+00  0.00000000000E+00  0.39357965157E+03  0.39357965157E+03  0.00000000000E+00 0.  1.
          1   -1    0    0  501    0  0.00000000000E+00 -0.00000000000E+00 -0.14508036451E+03  0.14508036451E+03  0.00000000000E+00 0. -1.
          5    1    1    2  502    0  0.14999494387E+03 -0.59994819680E+02  0.58094972997E+02  0.17174101858E+03  0.47000000000E+01 0.  1.
         -5    1    1    2    0  502  0.35302756279E+02  0.19633074966E+02 -0.38802905242E+02  0.56209409255E+02  0.47000000000E+01 0.  1.
        -11    1    1    2    0    0 -0.14298216471E+03  0.19066464131E+02  0.21902108413E+03  0.26225496139E+03  0.00000000000E+00 0.  1.
         11    1    1    2    0    0 -0.42315535436E+02  0.21295280582E+02  0.10186135167E+02  0.48454626858E+02  0.00000000000E+00 0. -1.
<mgrwt>
<rscale>  0 0.22266232E+03</rscale>
<asrwt>0</asrwt>
<pdfrwt beam="2">  1        1 0.22320056E-01 0.22713259E+03</pdfrwt>
<pdfrwt beam="1">  1       -1 0.60550715E-01 0.22713259E+03</pdfrwt>
<totfact> 0.63344070E+02</totfact>
</mgrwt>
</event>
<event>
 6    1  0.5258538E-006  0.1561269E+03  0.7546771E-02  0.1201137E+00
         -2   -1    0    0    0  501 -0.00000000000E+00  0.00000000000E+00  0.23051237222E+03  0.23051237222E+03  0.00000000000E+00 0.  1.
          2   -1    0    0  501    0  0.00000000000E+00 -0.00000000000E+00 -0.92098615011E+02  0.92098615011E+02  0.00000000000E+00 0. -1.
          5    1    1    2  502    0 -0.66554702118E+02 -0.45543297610E+02 -0.18813684123E+02  0.82944349062E+02  0.47000000000E+01 0.  1.
         -5    1    1    2    0  502  0.23706548596E+02 -0.37618006691E+02  0.66813945266E+02  0.80394702287E+02  0.47000000000E+01 0.  1.
        -11    1    1    2    0    0  0.68631830787E+02  0.79562319445E+02  0.71509318129E+02  0.12709867604E+03  0.00000000000E+00 0.  1.
         11    1    1    2    0    0 -0.25783677265E+02  0.35989848553E+01  0.18904177940E+02  0.32173259842E+02  0.00000000000E+00 0. -1.
<mgrwt>
<rscale>  0 0.14946076E+03</rscale>
<asrwt>0</asrwt>
<pdfrwt beam="2">  1        2 0.14169018E-01 0.15612694E+03</pdfrwt>
<pdfrwt beam="1">  1       -2 0.35463442E-01 0.15612694E+03</pdfrwt>
<totfact> 0.30308122E+03</totfact>
</mgrwt>
</event>
<event>
 6    1  0.5258538E-006  0.1538598E+03  0.7546771E-02  0.1205229E+00
         -1   -1    0    0    0  501 -0.00000000000E+00  0.00000000000E+00  0.79258846600E+02  0.79258846600E+02  0.00000000000E+00 0.  1.
          1   -1    0    0  501    0  0.00000000000E+00 -0.00000000000E+00 -0.28203548316E+03  0.28203548316E+03  0.00000000000E+00 0. -1.
          5    1    1    2  502    0 -0.38023671905E+02 -0.59356233236E+02 -0.10093430159E+03  0.12320221299E+03  0.47000000000E+01 0. -1.
         -5    1    1    2    0  502 -0.51637509698E+02  0.62288051663E+02 -0.73730126675E+02  0.10956484549E+03  0.47000000000E+01 0. -1.
        -11    1    1    2    0    0  0.39382105306E+02  0.10668245461E+02  0.29884350977E+02  0.50575054255E+02  0.00000000000E+00 0.  1.
         11    1    1    2    0    0  0.50279076297E+02 -0.13600063888E+02 -0.57996559273E+02  0.77952217022E+02  0.00000000000E+00 0. -1.
<mgrwt>
<rscale>  0 0.14619462E+03</rscale>
<asrwt>0</asrwt>
<pdfrwt beam="2">  1        1 0.43390075E-01 0.15385981E+03</pdfrwt>
<pdfrwt beam="1">  1       -1 0.12193668E-01 0.15385981E+03</pdfrwt>
<totfact> 0.41012625E+03</totfact>
</mgrwt>
</event>
<event>
 6    1  0.5258538E-006  0.3442412E+03  0.7546771E-02  0.1066550E+00
         -1   -1    0    0    0  501 -0.00000000000E+00  0.00000000000E+00  0.16163645569E+03  0.16163645569E+03  0.00000000000E+00 0.  1.
          1   -1    0    0  501    0  0.00000000000E+00 -0.00000000000E+00 -0.70413065743E+03  0.70413065743E+03  0.00000000000E+00 0. -1.
          5    1    1    2  502    0 -0.17367857393E+03 -0.45480744543E+02 -0.11772197440E+03  0.21474007177E+03  0.47000000000E+01 0. -1.
         -5    1    1    2    0  502 -0.97009175407E+02 -0.12657373906E+03 -0.17849199486E+03  0.23940169958E+03  0.47000000000E+01 0. -1.
        -11    1    1    2    0    0  0.11080684367E+03  0.48552948856E+02 -0.53154220993E+02  0.13213976183E+03  0.00000000000E+00 0. -1.
         11    1    1    2    0    0  0.15988090567E+03  0.12350153475E+03 -0.19312601149E+03  0.27948557994E+03  0.00000000000E+00 0.  1.
<mgrwt>
<rscale>  0 0.34057796E+03</rscale>
<asrwt>0</asrwt>
<pdfrwt beam="2">  1        1 0.10832779E+00 0.34424124E+03</pdfrwt>
<pdfrwt beam="1">  1       -1 0.24867147E-01 0.34424124E+03</pdfrwt>
<totfact> 0.39296528E+02</totfact>
</mgrwt>
</event>
<event>
 6    1  0.5258538E-006  0.1470864E+03  0.7546771E-02  0.1213037E+00
         -1   -1    0    0    0  501 -0.00000000000E+00  0.00000000000E+00  0.31999273102E+02  0.31999273102E+02  0.00000000000E+00 0.  1.
          1   -1    0    0  501    0  0.00000000000E+00 -0.00000000000E+00 -0.73111597457E+03  0.73111597457E+03  0.00000000000E+00 0. -1.
          5    1    1    2  502    0  0.47673983073E+02 -0.46793883110E+02 -0.28773026104E+03  0.29542049569E+03  0.47000000000E+01 0.  1.
         -5    1    1    2    0  502 -0.74705963072E+02 -0.25869275485E+02 -0.26957960252E+03  0.28097233392E+03  0.47000000000E+01 0.  1.
        -11    1    1    2    0    0 -0.21679014469E+02  0.76126266559E+01  0.34608162030E+00  0.22979371737E+02  0.00000000000E+00 0.  1.
         11    1    1    2    0    0  0.48710994468E+02  0.65050531939E+02 -0.14215291952E+03  0.16374304632E+03  0.00000000000E+00 0. -1.
<mgrwt>
<rscale>  0 0.14021703E+03</rscale>
<asrwt>0</asrwt>
<pdfrwt beam="2">  1        1 0.11247937E+00 0.14708640E+03</pdfrwt>
<pdfrwt beam="1">  1       -1 0.49229655E-02 0.14708640E+03</pdfrwt>
<totfact> 0.46416570E+03</totfact>
</mgrwt>
</event>
<event>
 6    1  0.6834093E-006  0.3087158E+03  0.7546771E-02  0.1082381E+00
         -1   -1    0    0    0  501 -0.00000000000E+00  0.00000000000E+00  0.43871383882E+02  0.43871383882E+02  0.00000000000E+00 0.  1.
          1   -1    0    0  501    0  0.00000000000E+00 -0.00000000000E+00 -0.22343324354E+04  0.22343324354E+04  0.00000000000E+00 0. -1.
          5    1    1    2  502    0 -0.84020719738E+02  0.21323128033E+02 -0.54510872768E+03  0.55197805403E+03  0.47000000000E+01 0.  1.
         -5    1    1    2    0  502 -0.10507437668E+03  0.18825879366E+03 -0.85708494674E+03  0.88379788072E+03  0.47000000000E+01 0.  1.
        -11    1    1    2    0    0  0.12782810181E+03 -0.88936540252E+02 -0.50570353639E+03  0.52913684290E+03  0.00000000000E+00 0.  1.
         11    1    1    2    0    0  0.61266994609E+02 -0.12064538144E+03 -0.28256384067E+03  0.31329104160E+03  0.00000000000E+00 0. -1.
<mgrwt>
<rscale>  0 0.30579196E+03</rscale>
<asrwt>0</asrwt>
<pdfrwt beam="2">  1        1 0.34374358E+00 0.30871578E+03</pdfrwt>
<pdfrwt beam="1">  1       -1 0.67494412E-02 0.30871578E+03</pdfrwt>
<totfact> 0.26327133E+02</totfact>
</mgrwt>
</event>
<event>
 6    1  0.5258538E-006  0.1634675E+03  0.7546771E-02  0.1192802E+00
         -1   -1    0    0    0  501 -0.00000000000E+00  0.00000000000E+00  0.62432322944E+02  0.62432322944E+02  0.00000000000E+00 0.  1.
          1   -1    0    0  501    0  0.00000000000E+00 -0.00000000000E+00 -0.46232982448E+03  0.46232982448E+03  0.00000000000E+00 0. -1.
          5    1    1    2  502    0  0.95518991004E+01  0.15819976885E+02 -0.16740165252E+03  0.16848416457E+03  0.47000000000E+01 0. -1.
         -5    1    1    2    0  502 -0.11471288959E+03 -0.21951908952E+02 -0.16839681633E+03  0.20498905115E+03  0.47000000000E+01 0. -1.
        -11    1    1    2    0    0 -0.88825725657E+01 -0.18341853640E+02 -0.10444634598E+02  0.22900089131E+02  0.00000000000E+00 0.  1.
         11    1    1    2    0    0  0.11404356305E+03  0.24473785707E+02 -0.53654398087E+02  0.12838884256E+03  0.00000000000E+00 0. -1.
<mgrwt>
<rscale>  0 0.15641722E+03</rscale>
<asrwt>0</asrwt>
<pdfrwt beam="2">  1        1 0.71127666E-01 0.16346752E+03</pdfrwt>
<pdfrwt beam="1">  1       -1 0.96049727E-02 0.16346752E+03</pdfrwt>
<totfact> 0.31856361E+03</totfact>
</mgrwt>
</event>
<event>
 6    1  0.5258538E-006  0.5880890E+03  0.7546771E-02  0.9930431E-01
          1   -1    0    0  501    0  0.00000000000E+00  0.00000000000E+00  0.10864000294E+04  0.10864000294E+04  0.00000000000E+00 0. -1.
         -1   -1    0    0    0  501 -0.00000000000E+00 -0.00000000000E+00 -0.79585927461E+02  0.79585927461E+02  0.00000000000E+00 0.  1.
          5    1    1    2  502    0 -0.19801480339E+02 -0.14288138971E+03  0.88164185894E+03  0.89337654301E+03  0.47000000000E+01 0. -1.
         -5    1    1    2    0  502 -0.16312193060E+02 -0.31612774819E+02  0.40513224818E+02  0.54119003680E+02  0.47000000000E+01 0. -1.
        -11    1    1    2    0    0  0.41817450256E+02  0.10909946006E+03  0.96806463477E+02  0.15173293216E+03  0.00000000000E+00 0. -1.
         11    1    1    2    0    0 -0.57037768573E+01  0.65394704471E+02 -0.12147445301E+02  0.66757478012E+02  0.00000000000E+00 0.  1.
<mgrwt>
<rscale>  0 0.58808895E+03</rscale>
<asrwt>0</asrwt>
<pdfrwt beam="1">  1        1 0.16713845E+00 0.58808895E+03</pdfrwt>
<pdfrwt beam="2">  1       -1 0.12243990E-01 0.58808895E+03</pdfrwt>
<totfact> 0.60292094E+02</totfact>
</mgrwt>
</event>
<event>
 6    1  0.5258538E-006  0.2476513E+03  0.7546771E-02  0.1114798E+00
          3   -1    0    0  501    0  0.00000000000E+00  0.00000000000E+00  0.36618365386E+03  0.36618365386E+03  0.00000000000E+00 0.  1.
         -3   -1    0    0    0  501 -0.00000000000E+00 -0.00000000000E+00 -0.41871854990E+02  0.41871854990E+02  0.00000000000E+00 0. -1.
          5    1    1    2  502    0  0.13558418146E+01 -0.72172641747E+01  0.21262223637E+03  0.21280092248E+03  0.47000000000E+01 0.  1.
         -5    1    1    2    0  502  0.11326110021E+02  0.53794098594E+02  0.26278195201E+02  0.61112350264E+02  0.47000000000E+01 0.  1.
        -11    1    1    2    0    0 -0.35441709621E+02 -0.21573449696E+02 -0.84082376785E+00  0.41499825268E+02  0.00000000000E+00 0. -1.
         11    1    1    2    0    0  0.22759757786E+02 -0.25003384724E+02  0.86252191066E+02  0.92642410837E+02  0.00000000000E+00 0.  1.
<mgrwt>
<rscale>  0 0.24765128E+03</rscale>
<asrwt>0</asrwt>
<pdfrwt beam="1">  1        3 0.56335944E-01 0.24765128E+03</pdfrwt>
<pdfrwt beam="2">  1       -3 0.64418241E-02 0.24765128E+03</pdfrwt>
<totfact> 0.11969765E+03</totfact>
</mgrwt>
</event>
<event>
 6    1  0.5258538E-006  0.1532178E+03  0.7546771E-02  0.1205930E+00
         -2   -1    0    0    0  501 -0.00000000000E+00  0.00000000000E+00  0.72979286540E+02  0.72979286540E+02  0.00000000000E+00 0.  1.
          2   -1    0    0  501    0  0.00000000000E+00 -0.00000000000E+00 -0.37127421114E+03  0.37127421114E+03  0.00000000000E+00 0. -1.
          5    1    1    2  502    0  0.10030606893E+03  0.22985597291E+02 -0.23056037301E+03  0.25252687134E+03  0.47000000000E+01 0.  1.
         -5    1    1    2    0  502 -0.30611599543E+02  0.31698579527E+02 -0.47572548689E+02  0.65016208436E+02  0.47000000000E+01 0.  1.
        -11    1    1    2    0    0  0.17484782916E+02 -0.10498928556E+02  0.12187431522E+02  0.23758758839E+02  0.00000000000E+00 0.  1.
         11    1    1    2    0    0 -0.87179252307E+02 -0.44185248262E+02 -0.32349434429E+02  0.10295165907E+03  0.00000000000E+00 0. -1.
<mgrwt>
<rscale>  0 0.14564405E+03</rscale>
<asrwt>0</asrwt>
<pdfrwt beam="2">  1        2 0.57119110E-01 0.15321777E+03</pdfrwt>
<pdfrwt beam="1">  1       -2 0.11227582E-01 0.15321777E+03</pdfrwt>
<totfact> 0.46211908E+03</totfact>
</mgrwt>
</event>
<event>
 6    1  0.5258538E-006  0.1436549E+03  0.7546771E-02  0.1218939E+00
          2   -1    0    0  501    0  0.00000000000E+00  0.00000000000E+00  0.62383621604E+02  0.62383621604E+02  0.00000000000E+00 0. -1.
         -2   -1    0    0    0  501 -0.00000000000E+00 -0.00000000000E+00 -0.28741770594E+03  0.28741770594E+03  0.00000000000E+00 0.  1.
          5    1    1    2  502    0 -0.22402698812E+02  0.19505234870E+02 -0.93723771111E+02  0.98430535773E+02  0.47000000000E+01 0.  1.
         -5    1    1    2    0  502 -0.42580596103E+02 -0.47588679367E+02  0.14457551238E+02  0.65642214741E+02  0.47000000000E+01 0.  1.
        -11    1    1    2    0    0 -0.21655122534E+02  0.24670108982E+01 -0.13797130731E+02  0.25795179610E+02  0.00000000000E+00 0. -1.
         11    1    1    2    0    0  0.86638417448E+02  0.25616433599E+02 -0.13197073374E+03  0.15993339742E+03  0.00000000000E+00 0.  1.
<mgrwt>
<rscale>  0 0.13591093E+03</rscale>
<asrwt>0</asrwt>
<pdfrwt beam="1">  1        2 0.95974802E-02 0.14365491E+03</pdfrwt>
<pdfrwt beam="2">  1       -2 0.44218109E-01 0.14365491E+03</pdfrwt>
<totfact> 0.31819660E+03</totfact>
</mgrwt>
</event>
<event>
 6    1  0.5258538E-006  0.3577957E+03  0.7546771E-02  0.1059460E+00
         -2   -1    0    0    0  501 -0.00000000000E+00  0.00000000000E+00  0.10403840350E+03  0.10403840350E+03  0.00000000000E+00 0.  1.
          2   -1    0    0  501    0  0.00000000000E+00 -0.00000000000E+00 -0.30762142583E+03  0.30762142583E+03  0.00000000000E+00 0. -1.
          5    1    1    2  502    0  0.72793859349E+02  0.12442874588E+03 -0.59397965233E+02  0.15598611167E+03  0.47000000000E+01 0. -1.
         -5    1    1    2    0  502 -0.79304131320E+01 -0.59271658677E+00 -0.72967647326E+02  0.73550053173E+02  0.47000000000E+01 0. -1.
        -11    1    1    2    0    0 -0.73673473828E+02 -0.69277252114E+02 -0.13183420491E+02  0.10198490566E+03  0.00000000000E+00 0.  1.
         11    1    1    2    0    0  0.88100276112E+01 -0.54558777179E+02 -0.58033989282E+02  0.80138758823E+02  0.00000000000E+00 0. -1.
<mgrwt>
<rscale>  0 0.35779571E+03</rscale>
<asrwt>0</asrwt>
<pdfrwt beam="2">  1        2 0.47326372E-01 0.35779571E+03</pdfrwt>
<pdfrwt beam="1">  1       -2 0.16005909E-01 0.35779571E+03</pdfrwt>
<totfact> 0.32806608E+03</totfact>
</mgrwt>
</event>
<event>
 6    1  0.5258538E-006  0.1413119E+03  0.7546771E-02  0.1214155E+00
         -3   -1    0    0    0  501 -0.00000000000E+00  0.00000000000E+00  0.12931556268E+03  0.12931556268E+03  0.00000000000E+00 0.  1.
          3   -1    0    0  501    0  0.00000000000E+00 -0.00000000000E+00 -0.21720319596E+03  0.21720319596E+03  0.00000000000E+00 0. -1.
          5    1    1    2  502    0 -0.18335252164E+02  0.84236823504E+02 -0.11377366222E+03  0.14282352790E+03  0.47000000000E+01 0.  1.
         -5    1    1    2    0  502  0.44379664345E+02 -0.23688942874E+02 -0.29954293226E+02  0.58737299091E+02  0.47000000000E+01 0.  1.
        -11    1    1    2    0    0  0.10669463050E+00 -0.89296518566E+02  0.18766419952E+02  0.91247236285E+02  0.00000000000E+00 0. -1.
         11    1    1    2    0    0 -0.26151106811E+02  0.28748637935E+02  0.37073902214E+02  0.53710695359E+02  0.00000000000E+00 0.  1.
<mgrwt>
<rscale>  0 0.13938768E+03</rscale>
<asrwt>0</asrwt>
<pdfrwt beam="2">  1        3 0.33415876E-01 0.14131186E+03</pdfrwt>
<pdfrwt beam="1">  1       -3 0.19894702E-01 0.14131186E+03</pdfrwt>
<totfact> 0.46360639E+02</totfact>
</mgrwt>
</event>
<event>
 6    1  0.5258538E-006  0.1235741E+03  0.7546771E-02  0.1247272E+00
         -1   -1    0    0    0  501 -0.00000000000E+00  0.00000000000E+00  0.64059364494E+02  0.64059364494E+02  0.00000000000E+00 0.  1.
          1   -1    0    0  501    0  0.00000000000E+00 -0.00000000000E+00 -0.33566913402E+03  0.33566913402E+03  0.00000000000E+00 0. -1.
          5    1    1    2  502    0 -0.75980638050E+01 -0.64824666482E+02 -0.26267308302E+03  0.27070132342E+03  0.47000000000E+01 0. -1.
         -5    1    1    2    0  502  0.12531230302E+02  0.22781961046E+02 -0.92690111998E+01  0.28000965173E+02  0.47000000000E+01 0.  1.
        -11    1    1    2    0    0 -0.70812693851E+01 -0.24309367796E+02 -0.19255623273E+02  0.31809884728E+02  0.00000000000E+00 0. -1.
         11    1    1    2    0    0  0.21481028880E+01  0.66352073232E+02  0.19587947964E+02  0.69216325196E+02  0.00000000000E+00 0.  1.
<mgrwt>
<rscale>  0 0.11750422E+03</rscale>
<asrwt>0</asrwt>
<pdfrwt beam="2">  1        1 0.51641406E-01 0.12357409E+03</pdfrwt>
<pdfrwt beam="1">  1       -1 0.98552866E-02 0.12357409E+03</pdfrwt>
<totfact> 0.45295095E+03</totfact>
</mgrwt>
</event>
<event>
 6    1  0.5258538E-006  0.2001295E+03  0.7546771E-02  0.1153517E+00
          2   -1    0    0  501    0  0.00000000000E+00  0.00000000000E+00  0.73196564326E+03  0.73196564326E+03  0.00000000000E+00 0. -1.
         -2   -1    0    0    0  501 -0.00000000000E+00 -0.00000000000E+00 -0.62603544718E+02  0.62603544718E+02  0.00000000000E+00 0.  1.
          5    1    1    2  502    0  0.20546669819E+02 -0.52421106610E+02  0.23202511356E+03  0.23880511171E+03  0.47000000000E+01 0. -1.
         -5    1    1    2    0  502 -0.11564482784E+03 -0.71603768684E+02  0.29288436949E+03  0.32296156085E+03  0.47000000000E+01 0. -1.
        -11    1    1    2    0    0  0.28733182836E+02  0.14525154984E+02 -0.85309743838E+01  0.33306957939E+02  0.00000000000E+00 0.  1.
         11    1    1    2    0    0  0.66364975188E+02  0.10949972031E+03  0.15298358988E+03  0.19949555747E+03  0.00000000000E+00 0. -1.
<mgrwt>
<rscale>  0 0.19558635E+03</rscale>
<asrwt>0</asrwt>
<pdfrwt beam="1">  1        2 0.11261009E+00 0.20012953E+03</pdfrwt>
<pdfrwt beam="2">  1       -2 0.96313151E-02 0.20012953E+03</pdfrwt>
<totfact> 0.27724215E+03</totfact>
</mgrwt>
</event>
<event>
 6    1  0.5258538E-006  0.1367229E+03  0.7546771E-02  0.1230877E+00
          2   -1    0    0  501    0  0.00000000000E+00  0.00000000000E+00  0.40386843144E+03  0.40386843144E+03  0.00000000000E+00 0. -1.
         -2   -1    0    0    0  501 -0.00000000000E+00 -0.00000000000E+00 -0.37019988387E+02  0.37019988387E+02  0.00000000000E+00 0.  1.
          5    1    1    2  502    0 -0.83335165126E+02 -0.46239626333E+02  0.17363128231E+03  0.19812310563E+03  0.47000000000E+01 0. -1.
         -5    1    1    2    0  502  0.38791070665E+02  0.13313481835E+02  0.71789371778E+02  0.82811834072E+02  0.47000000000E+01 0. -1.
        -11    1    1    2    0    0  0.35344885525E+02  0.15170476137E+02  0.16293717110E+01  0.38497521105E+02  0.00000000000E+00 0.  1.
         11    1    1    2    0    0  0.91992089350E+01  0.17755668360E+02  0.11979841726E+03  0.12145595902E+03  0.00000000000E+00 0. -1.
<mgrwt>
<rscale>  0 0.12772078E+03</rscale>
<asrwt>0</asrwt>
<pdfrwt beam="1">  1        2 0.62133602E-01 0.13672287E+03</pdfrwt>
<pdfrwt beam="2">  1       -2 0.56953831E-02 0.13672287E+03</pdfrwt>
<totfact> 0.11995114E+04</totfact>
</mgrwt>
</event>
<event>
 6    1  0.5258538E-006  0.1307837E+03  0.7546771E-02  0.1238418E+00
         -1   -1    0    0    0  501 -0.00000000000E+00  0.00000000000E+00  0.23746674767E+02  0.23746674767E+02  0.00000000000E+00 0.  1.
          1   -1    0    0  501    0  0.00000000000E+00 -0.00000000000E+00 -0.65981744567E+03  0.65981744567E+03  0.00000000000E+00 0. -1.
          5    1    1    2  502    0 -0.27796419011E+02  0.39511096950E+02 -0.46261860559E+03  0.46515785700E+03  0.47000000000E+01 0. -1.
         -5    1    1    2    0  502 -0.75339773066E+01 -0.24278586492E+02 -0.14668194584E+02  0.29722996290E+02  0.47000000000E+01 0. -1.
        -11    1    1    2    0    0  0.40300437488E+02  0.29425948913E+02 -0.48455334767E+02  0.69555238470E+02  0.00000000000E+00 0.  1.
         11    1    1    2    0    0 -0.49700411709E+01 -0.44658459372E+02 -0.11032863596E+03  0.11912802867E+03  0.00000000000E+00 0. -1.
<mgrwt>
<rscale>  0 0.12288164E+03</rscale>
<asrwt>0</asrwt>
<pdfrwt beam="2">  1        1 0.10151038E+00 0.13078367E+03</pdfrwt>
<pdfrwt beam="1">  1       -1 0.36533344E-02 0.13078367E+03</pdfrwt>
<totfact> 0.82849268E+03</totfact>
</mgrwt>
</event>
<event>
 6    1  0.5258538E-006  0.1582160E+03  0.7546771E-02  0.1199645E+00
         -1   -1    0    0    0  501 -0.00000000000E+00  0.00000000000E+00  0.33672760062E+02  0.33672760062E+02  0.00000000000E+00 0.  1.
          1   -1    0    0  501    0  0.00000000000E+00 -0.00000000000E+00 -0.74146036772E+03  0.74146036772E+03  0.00000000000E+00 0. -1.
          5    1    1    2  502    0  0.16598398772E+02 -0.10158970341E+03 -0.46071345013E+03  0.47209633319E+03  0.47000000000E+01 0. -1.
         -5    1    1    2    0  502  0.38052703100E+02  0.21463766372E+02 -0.79807160417E+02  0.91104194930E+02  0.47000000000E+01 0. -1.
        -11    1    1    2    0    0 -0.66659634619E+02  0.73270818606E+02 -0.91288158816E+02  0.13470578194E+03  0.00000000000E+00 0.  1.
         11    1    1    2    0    0  0.12008532747E+02  0.68551184359E+01 -0.75978838300E+02  0.77226817732E+02  0.00000000000E+00 0. -1.
<mgrwt>
<rscale>  0 0.15067561E+03</rscale>
<asrwt>0</asrwt>
<pdfrwt beam="2">  1        1 0.11407082E+00 0.15821601E+03</pdfrwt>
<pdfrwt beam="1">  1       -1 0.51804247E-02 0.15821601E+03</pdfrwt>
<totfact> 0.42284795E+03</totfact>
</mgrwt>
</event>
<event>
 6    1  0.5258538E-006  0.1742127E+03  0.7546771E-02  0.1179738E+00
          1   -1    0    0  501    0  0.00000000000E+00  0.00000000000E+00  0.99771790755E+03  0.99771790755E+03  0.00000000000E+00 0. -1.
         -1   -1    0    0    0  501 -0.00000000000E+00 -0.00000000000E+00 -0.34774468601E+02  0.34774468601E+02  0.00000000000E+00 0.  1.
          5    1    1    2  502    0  0.11520278616E+03  0.86704742285E+02  0.70893843790E+03  0.72346747889E+03  0.47000000000E+01 0.  1.
         -5    1    1    2    0  502 -0.17824024988E+02 -0.14087798895E+02  0.48721100294E+02  0.53962927630E+02  0.47000000000E+01 0.  1.
        -11    1    1    2    0    0 -0.10691587707E+03 -0.60074557506E+02  0.13230357488E+03  0.18040009189E+03  0.00000000000E+00 0.  1.
         11    1    1    2    0    0  0.95371158958E+01 -0.12542385884E+02  0.72980325876E+02  0.74661877743E+02  0.00000000000E+00 0. -1.
<mgrwt>
<rscale>  0 0.16819966E+03</rscale>
<asrwt>0</asrwt>
<pdfrwt beam="1">  1        1 0.15349504E+00 0.17421269E+03</pdfrwt>
<pdfrwt beam="2">  1       -1 0.53499190E-02 0.17421269E+03</pdfrwt>
<totfact> 0.25327777E+03</totfact>
</mgrwt>
</event>
<event>
 6    1  0.5258538E-006  0.1335492E+03  0.7546771E-02  0.1235083E+00
         -2   -1    0    0    0  501 -0.00000000000E+00  0.00000000000E+00  0.45041490411E+02  0.45041490411E+02  0.00000000000E+00 0.  1.
          2   -1    0    0  501    0  0.00000000000E+00 -0.00000000000E+00 -0.56050761110E+03  0.56050761110E+03  0.00000000000E+00 0. -1.
          5    1    1    2  502    0 -0.47558903503E+02  0.23724583961E+02 -0.91413000535E+02  0.10584484802E+03  0.47000000000E+01 0. -1.
         -5    1    1    2    0  502  0.49423707959E+02  0.23251791795E+02 -0.38681297210E+03  0.39067853040E+03  0.47000000000E+01 0. -1.
        -11    1    1    2    0    0 -0.30956607556E+02 -0.28774858803E+02 -0.55809481417E+02  0.70007158680E+02  0.00000000000E+00 0. -1.
         11    1    1    2    0    0  0.29091803099E+02 -0.18201516953E+02  0.18569333361E+02  0.39018564408E+02  0.00000000000E+00 0.  1.
<mgrwt>
<rscale>  0 0.12499092E+03</rscale>
<asrwt>0</asrwt>
<pdfrwt beam="2">  1        2 0.86231938E-01 0.13354918E+03</pdfrwt>
<pdfrwt beam="1">  1       -2 0.69294602E-02 0.13354918E+03</pdfrwt>
<totfact> 0.62158840E+03</totfact>
</mgrwt>
</event>
<event>
 6    1  0.5258538E-006  0.1307293E+03  0.7546771E-02  0.1239659E+00
          2   -1    0    0  501    0  0.00000000000E+00  0.00000000000E+00  0.43795931823E+03  0.43795931823E+03  0.00000000000E+00 0.  1.
         -2   -1    0    0    0  501 -0.00000000000E+00 -0.00000000000E+00 -0.33000397143E+02  0.33000397143E+02  0.00000000000E+00 0. -1.
          5    1    1    2  502    0  0.47061659424E+01  0.57930364398E+02  0.13610629645E+03  0.14807122965E+03  0.47000000000E+01 0.  1.
         -5    1    1    2    0  502 -0.43038522853E+02 -0.57988048984E+02  0.15883725734E+03  0.17454596126E+03  0.47000000000E+01 0.  1.
        -11    1    1    2    0    0  0.47893079964E+02  0.37502865813E+02  0.65387644087E+02  0.89307088475E+02  0.00000000000E+00 0. -1.
         11    1    1    2    0    0 -0.95607230536E+01 -0.37445181228E+02  0.44627723208E+02  0.59035435979E+02  0.00000000000E+00 0.  1.
<mgrwt>
<rscale>  0 0.12210846E+03</rscale>
<asrwt>0</asrwt>
<pdfrwt beam="1">  1        2 0.67378352E-01 0.13072931E+03</pdfrwt>
<pdfrwt beam="2">  1       -2 0.50769845E-02 0.13072931E+03</pdfrwt>
<totfact> 0.13030007E+04</totfact>
</mgrwt>
</event>
<event>
 6    1  0.5258538E-006  0.1294405E+03  0.7546771E-02  0.1242984E+00
         -1   -1    0    0    0  501 -0.00000000000E+00  0.00000000000E+00  0.21639501068E+03  0.21639501068E+03  0.00000000000E+00 0.  1.
          1   -1    0    0  501    0  0.00000000000E+00 -0.00000000000E+00 -0.81454436218E+02  0.81454436218E+02  0.00000000000E+00 0. -1.
          5    1    1    2  502    0 -0.20607284191E+02 -0.63312584807E+02  0.36541907993E+02  0.76095627972E+02  0.47000000000E+01 0.  1.
         -5    1    1    2    0  502  0.18449552845E+02  0.29763615813E+02 -0.40029178095E+02  0.53391796424E+02  0.47000000000E+01 0.  1.
        -11    1    1    2    0    0 -0.15447735531E+02  0.46144407795E+02  0.13840998275E+03  0.14671490118E+03  0.00000000000E+00 0.  1.
         11    1    1    2    0    0  0.17605466877E+02 -0.12595438801E+02  0.17861817143E-01  0.21647121324E+02  0.00000000000E+00 0. -1.
<mgrwt>
<rscale>  0 0.12006836E+03</rscale>
<asrwt>0</asrwt>
<pdfrwt beam="2">  1        1 0.12531452E-01 0.12944046E+03</pdfrwt>
<pdfrwt beam="1">  1       -1 0.33291540E-01 0.12944046E+03</pdfrwt>
<totfact> 0.38658664E+03</totfact>
</mgrwt>
</event>
<event>
 6    1  0.5258538E-006  0.1512670E+03  0.7546771E-02  0.1207679E+00
          2   -1    0    0  501    0  0.00000000000E+00  0.00000000000E+00  0.12011995395E+04  0.12011995395E+04  0.00000000000E+00 0. -1.
         -2   -1    0    0    0  501 -0.00000000000E+00 -0.00000000000E+00 -0.16364866551E+02  0.16364866551E+02  0.00000000000E+00 0.  1.
          5    1    1    2  502    0  0.50818908525E+02  0.51983448504E+02  0.18635726405E+03  0.20008988042E+03  0.47000000000E+01 0.  1.
         -5    1    1    2    0  502 -0.26267691572E+02  0.29582084490E+02  0.56153674438E+03  0.56294821843E+03  0.47000000000E+01 0.  1.
        -11    1    1    2    0    0  0.27785984450E+02 -0.55010594941E+02  0.28627465396E+03  0.29283340654E+03  0.00000000000E+00 0. -1.
         11    1    1    2    0    0 -0.52337201403E+02 -0.26554938053E+02  0.15066601055E+03  0.16169290065E+03  0.00000000000E+00 0.  1.
<mgrwt>
<rscale>  0 0.14428328E+03</rscale>
<asrwt>0</asrwt>
<pdfrwt beam="1">  1        2 0.18479986E+00 0.15126696E+03</pdfrwt>
<pdfrwt beam="2">  1       -2 0.25176727E-02 0.15126696E+03</pdfrwt>
<totfact> 0.10677798E+04</totfact>
</mgrwt>
</event>
<event>
 6    1  0.5258538E-006  0.1386405E+03  0.7546771E-02  0.1226546E+00
         -2   -1    0    0    0  501 -0.00000000000E+00  0.00000000000E+00  0.16062572823E+03  0.16062572823E+03  0.00000000000E+00 0.  1.
          2   -1    0    0  501    0  0.00000000000E+00 -0.00000000000E+00 -0.10012695651E+03  0.10012695651E+03  0.00000000000E+00 0. -1.
          5    1    1    2  502    0 -0.40157430620E+02 -0.76811180352E+02  0.30441985625E+02  0.91985766018E+02  0.47000000000E+01 0.  1.
         -5    1    1    2    0  502 -0.65625957874E+01  0.39201590072E+02 -0.24242259959E+02  0.46793263357E+02  0.47000000000E+01 0.  1.
        -11    1    1    2    0    0 -0.17640663358E+02  0.24005437408E+02  0.47192054618E+02  0.55808100200E+02  0.00000000000E+00 0.  1.
         11    1    1    2    0    0  0.64360689766E+02  0.13604152872E+02  0.71069914380E+01  0.66165555161E+02  0.00000000000E+00 0. -1.
<mgrwt>
<rscale>  0 0.13061525E+03</rscale>
<asrwt>0</asrwt>
<pdfrwt beam="2">  1        2 0.15404147E-01 0.13864048E+03</pdfrwt>
<pdfrwt beam="1">  1       -2 0.24711650E-01 0.13864048E+03</pdfrwt>
<totfact> 0.52224469E+03</totfact>
</mgrwt>
</event>
<event>
 6    1  0.5258538E-006  0.1562077E+03  0.7546771E-02  0.1202630E+00
          2   -1    0    0  501    0  0.00000000000E+00  0.00000000000E+00  0.10472258258E+04  0.10472258258E+04  0.00000000000E+00 0. -1.
         -2   -1    0    0    0  501 -0.00000000000E+00 -0.00000000000E+00 -0.22128108490E+02  0.22128108490E+02  0.00000000000E+00 0.  1.
          5    1    1    2  502    0 -0.25636466324E+02 -0.28321325443E+02  0.47580786542E+02  0.61199241240E+02  0.47000000000E+01 0. -1.
         -5    1    1    2    0  502 -0.53516457367E+02 -0.21783534818E+02  0.70744376557E+03  0.70981497944E+03  0.47000000000E+01 0. -1.
        -11    1    1    2    0    0  0.63978445314E+02  0.21252767664E+02  0.25241990642E+03  0.26126754631E+03  0.00000000000E+00 0. -1.
         11    1    1    2    0    0  0.15174478378E+02  0.28852092597E+02  0.17653258745E+02  0.37072167263E+02  0.00000000000E+00 0.  1.
<mgrwt>
<rscale>  0 0.14825829E+03</rscale>
<asrwt>0</asrwt>
<pdfrwt beam="1">  1        2 0.16111163E+00 0.15620773E+03</pdfrwt>
<pdfrwt beam="2">  1       -2 0.34043252E-02 0.15620773E+03</pdfrwt>
<totfact> 0.83951999E+03</totfact>
</mgrwt>
</event>
<event>
 6    1  0.5258538E-006  0.1603033E+03  0.7546771E-02  0.1196298E+00
         -2   -1    0    0    0  501 -0.00000000000E+00  0.00000000000E+00  0.40350899375E+02  0.40350899375E+02  0.00000000000E+00 0.  1.
          2   -1    0    0  501    0  0.00000000000E+00 -0.00000000000E+00 -0.78390571917E+03  0.78390571917E+03  0.00000000000E+00 0. -1.
          5    1    1    2  502    0  0.22359568159E+02  0.21459823676E+02 -0.11835999842E+03  0.12244040814E+03  0.47000000000E+01 0. -1.
         -5    1    1    2    0  502 -0.11812769067E+03 -0.51472927669E+02 -0.50554459887E+03  0.52172889994E+03  0.47000000000E+01 0. -1.
        -11    1    1    2    0    0 -0.10210291881E+02 -0.38851817302E+01 -0.44493467627E+02  0.45814990548E+02  0.00000000000E+00 0. -1.
         11    1    1    2    0    0  0.10597841439E+03  0.33898285723E+02 -0.75156754878E+02  0.13427231991E+03  0.00000000000E+00 0.  1.
<mgrwt>
<rscale>  0 0.15344843E+03</rscale>
<asrwt>0</asrwt>
<pdfrwt beam="2">  1        2 0.12060088E+00 0.16030331E+03</pdfrwt>
<pdfrwt beam="1">  1       -2 0.62078307E-02 0.16030331E+03</pdfrwt>
<totfact> 0.50014293E+03</totfact>
</mgrwt>
</event>
<event>
 6    1  0.5258538E-006  0.1280820E+03  0.7546771E-02  0.1245838E+00
         -1   -1    0    0    0  501 -0.00000000000E+00  0.00000000000E+00  0.11736249418E+02  0.11736249418E+02  0.00000000000E+00 0.  1.
          1   -1    0    0  501    0  0.00000000000E+00 -0.00000000000E+00 -0.13330734468E+04  0.13330734468E+04  0.00000000000E+00 0. -1.
          5    1    1    2  502    0 -0.98282615170E+01  0.18288122266E+02 -0.89689449465E+03  0.89714707528E+03  0.47000000000E+01 0.  1.
         -5    1    1    2    0  502  0.26814739990E+02 -0.40500907073E+02 -0.15458982907E+03  0.16210940443E+03  0.47000000000E+01 0.  1.
        -11    1    1    2    0    0  0.30873559773E+02 -0.12075181017E+02 -0.74996844717E+02  0.81997032917E+02  0.00000000000E+00 0.  1.
         11    1    1    2    0    0 -0.47860038245E+02  0.34287965825E+02 -0.19485602890E+03  0.20355618355E+03  0.00000000000E+00 0. -1.
<mgrwt>
<rscale>  0 0.11835351E+03</rscale>
<asrwt>0</asrwt>
<pdfrwt beam="2">  1        1 0.20508825E+00 0.12808203E+03</pdfrwt>
<pdfrwt beam="1">  1       -1 0.18055766E-02 0.12808203E+03</pdfrwt>
<totfact> 0.71792567E+03</totfact>
</mgrwt>
</event>
<event>
 6    1  0.5258538E-006  0.3050558E+03  0.7546771E-02  0.1082740E+00
          1   -1    0    0  501    0  0.00000000000E+00  0.00000000000E+00  0.48641966226E+03  0.48641966226E+03  0.00000000000E+00 0. -1.
         -1   -1    0    0    0  501 -0.00000000000E+00 -0.00000000000E+00 -0.47828588576E+02  0.47828588576E+02  0.00000000000E+00 0.  1.
          5    1    1    2  502    0 -0.42557146614E+01  0.14279093198E+02  0.16360766822E+03  0.16435194769E+03  0.47000000000E+01 0.  1.
         -5    1    1    2    0  502 -0.61081734366E+02 -0.90713597423E+02  0.12756574949E+03  0.16809237185E+03  0.47000000000E+01 0.  1.
        -11    1    1    2    0    0  0.34921383908E+02  0.29889092243E+02  0.18774689406E+01  0.46004193056E+02  0.00000000000E+00 0.  1.
         11    1    1    2    0    0  0.30416065120E+02  0.46545411982E+02  0.14554018703E+03  0.15579973824E+03  0.00000000000E+00 0. -1.
<mgrwt>
<rscale>  0 0.30505584E+03</rscale>
<asrwt>0</asrwt>
<pdfrwt beam="1">  1        1 0.74833791E-01 0.30505584E+03</pdfrwt>
<pdfrwt beam="2">  1       -1 0.73582447E-02 0.30505584E+03</pdfrwt>
<totfact> 0.45833191E+03</totfact>
</mgrwt>
</event>
<event>
 6    1  0.5258538E-006  0.2338746E+03  0.7546771E-02  0.1126857E+00
          2   -1    0    0  501    0  0.00000000000E+00  0.00000000000E+00  0.99221478928E+03  0.99221478928E+03  0.00000000000E+00 0. -1.
         -2   -1    0    0    0  501 -0.00000000000E+00 -0.00000000000E+00 -0.57730518371E+02  0.57730518371E+02  0.00000000000E+00 0.  1.
          5    1    1    2  502    0  0.53565152910E+01  0.10681641193E+03  0.33473301751E+03  0.35143523034E+03  0.47000000000E+01 0.  1.
         -5    1    1    2    0  502  0.11550484495E+03  0.49589987214E+02  0.32187697970E+03  0.34558271962E+03  0.47000000000E+01 0.  1.
        -11    1    1    2    0    0 -0.84282849807E+02 -0.14585772479E+03  0.17349946820E+03  0.24182667371E+03  0.00000000000E+00 0.  1.
         11    1    1    2    0    0 -0.36578510436E+02 -0.10548674353E+02  0.10437480550E+03  0.11110068398E+03  0.00000000000E+00 0. -1.
<mgrwt>
<rscale>  0 0.22969153E+03</rscale>
<asrwt>0</asrwt>
<pdfrwt beam="1">  1        2 0.15264842E+00 0.23387461E+03</pdfrwt>
<pdfrwt beam="2">  1       -2 0.88816189E-02 0.23387461E+03</pdfrwt>
<totfact> 0.21239638E+03</totfact>
</mgrwt>
</event>
<event>
 6    1  0.5258538E-006  0.1398292E+03  0.7546771E-02  0.1224617E+00
         -1   -1    0    0    0  501 -0.00000000000E+00  0.00000000000E+00  0.15037499994E+02  0.15037499994E+02  0.00000000000E+00 0.  1.
          1   -1    0    0  501    0  0.00000000000E+00 -0.00000000000E+00 -0.11108340982E+04  0.11108340982E+04  0.00000000000E+00 0. -1.
          5    1    1    2  502    0 -0.11601876800E+02  0.32377248577E+00 -0.55460105844E+03  0.55474240184E+03  0.47000000000E+01 0.  1.
         -5    1    1    2    0  502  0.51966054883E+02 -0.48265307789E+02 -0.18968869529E+03  0.20256826484E+03  0.47000000000E+01 0.  1.
        -11    1    1    2    0    0 -0.64613596106E+02  0.55067889401E+02 -0.28649048443E+03  0.29880459654E+03  0.00000000000E+00 0.  1.
         11    1    1    2    0    0  0.24249418022E+02 -0.71263540976E+01 -0.65016360084E+02  0.69756335022E+02  0.00000000000E+00 0. -1.
<mgrwt>
<rscale>  0 0.13193155E+03</rscale>
<asrwt>0</asrwt>
<pdfrwt beam="2">  1        1 0.17089760E+00 0.13982921E+03</pdfrwt>
<pdfrwt beam="1">  1       -1 0.23134610E-02 0.13982921E+03</pdfrwt>
<totfact> 0.71412485E+03</totfact>
</mgrwt>
</event>
<event>
 6    1  0.5258538E-006  0.1542420E+03  0.7546771E-02  0.1206722E+00
         -2   -1    0    0    0  501 -0.00000000000E+00  0.00000000000E+00  0.23599668037E+03  0.23599668037E+03  0.00000000000E+00 0.  1.
          2   -1    0    0  501    0  0.00000000000E+00 -0.00000000000E+00 -0.80012918870E+02  0.80012918870E+02  0.00000000000E+00 0. -1.
          5    1    1    2  502    0 -0.61572621455E+02  0.86860759365E+02  0.26145972698E+02  0.10973459399E+03  0.47000000000E+01 0. -1.
         -5    1    1    2    0  502 -0.80720489658E+01 -0.29241780392E+02  0.58852051870E+02  0.66376906408E+02  0.47000000000E+01 0. -1.
        -11    1    1    2    0    0  0.23162187949E+02  0.18885749158E+02  0.97387632288E+01  0.31432498804E+02  0.00000000000E+00 0. -1.
         11    1    1    2    0    0  0.46482482472E+02 -0.76504728131E+02  0.61246973702E+02  0.10846560003E+03  0.00000000000E+00 0.  1.
<mgrwt>
<rscale>  0 0.14502556E+03</rscale>
<asrwt>0</asrwt>
<pdfrwt beam="2">  1        2 0.12309680E-01 0.15424201E+03</pdfrwt>
<pdfrwt beam="1">  1       -2 0.36307181E-01 0.15424201E+03</pdfrwt>
<totfact> 0.34289566E+03</totfact>
</mgrwt>
</event>
<event>
 6    1  0.5258538E-006  0.1402226E+03  0.7546771E-02  0.1223955E+00
         -2   -1    0    0    0  501 -0.00000000000E+00  0.00000000000E+00  0.30244974397E+02  0.30244974397E+02  0.00000000000E+00 0.  1.
          2   -1    0    0  501    0  0.00000000000E+00 -0.00000000000E+00 -0.79292282633E+03  0.79292282633E+03  0.00000000000E+00 0. -1.
          5    1    1    2  502    0 -0.16119879110E+01 -0.57563089911E+02 -0.42009438902E+03  0.42404892820E+03  0.47000000000E+01 0.  1.
         -5    1    1    2    0  502 -0.59483421702E+02  0.40093483470E+02 -0.22898594843E+03  0.24000504047E+03  0.47000000000E+01 0.  1.
        -11    1    1    2    0    0 -0.54671076144E+01 -0.11654711389E+02  0.96199998512E+01  0.16070655256E+02  0.00000000000E+00 0.  1.
         11    1    1    2    0    0  0.66562517227E+02  0.29124317830E+02 -0.12321751434E+03  0.14304317680E+03  0.00000000000E+00 0. -1.
<mgrwt>
<rscale>  0 0.13238763E+03</rscale>
<asrwt>0</asrwt>
<pdfrwt beam="2">  1        2 0.12198811E+00 0.14022264E+03</pdfrwt>
<pdfrwt beam="1">  1       -2 0.46530737E-02 0.14022264E+03</pdfrwt>
<totfact> 0.75750508E+03</totfact>
</mgrwt>
</event>
<event>
 6    1  0.5258538E-006  0.1631909E+03  0.7546771E-02  0.1192227E+00
         -1   -1    0    0    0  501 -0.00000000000E+00  0.00000000000E+00  0.12716525205E+03  0.12716525205E+03  0.00000000000E+00 0.  1.
          1   -1    0    0  501    0  0.00000000000E+00 -0.00000000000E+00 -0.19289339349E+03  0.19289339349E+03  0.00000000000E+00 0. -1.
          5    1    1    2  502    0  0.30464115557E+02 -0.80727651373E+01 -0.87658957657E+01  0.33047886502E+02  0.47000000000E+01 0. -1.
         -5    1    1    2    0  502 -0.90681446322E+02  0.93976876726E+02 -0.67576386586E+02  0.14711708293E+03  0.47000000000E+01 0. -1.
        -11    1    1    2    0    0 -0.16370706543E+02 -0.83091598871E+01  0.23816518360E+02  0.30071061131E+02  0.00000000000E+00 0.  1.
         11    1    1    2    0    0  0.76588037307E+02 -0.77594951702E+02 -0.13202377449E+02  0.10982261497E+03  0.00000000000E+00 0. -1.
<mgrwt>
<rscale>  0 0.15691269E+03</rscale>
<asrwt>0</asrwt>
<pdfrwt beam="2">  1        1 0.29675906E-01 0.16319091E+03</pdfrwt>
<pdfrwt beam="1">  1       -1 0.19563885E-01 0.16319091E+03</pdfrwt>
<totfact> 0.31298338E+03</totfact>
</mgrwt>
</event>
<event>
 6    1  0.5258538E-006  0.1363062E+03  0.7546771E-02  0.1230980E+00
          2   -1    0    0  501    0  0.00000000000E+00  0.00000000000E+00  0.35132684024E+03  0.35132684024E+03  0.00000000000E+00 0. -1.
         -2   -1    0    0    0  501 -0.00000000000E+00 -0.00000000000E+00 -0.52217784167E+02  0.52217784167E+02  0.00000000000E+00 0.  1.
          5    1    1    2  502    0  0.15393636548E+01 -0.63354249807E+02  0.22753272528E+03  0.23624005097E+03  0.47000000000E+01 0. -1.
         -5    1    1    2    0  502  0.37606802572E+02  0.25640570561E+02  0.28762389767E+02  0.54046975156E+02  0.47000000000E+01 0. -1.
        -11    1    1    2    0    0 -0.15988723319E+02  0.24556384387E+02 -0.26184283817E+02  0.39297226449E+02  0.00000000000E+00 0.  1.
         11    1    1    2    0    0 -0.23157442908E+02  0.13157294859E+02  0.68998224836E+02  0.73960371825E+02  0.00000000000E+00 0. -1.
<mgrwt>
<rscale>  0 0.12765338E+03</rscale>
<asrwt>0</asrwt>
<pdfrwt beam="1">  1        2 0.54050282E-01 0.13630617E+03</pdfrwt>
<pdfrwt beam="2">  1       -2 0.80335055E-02 0.13630617E+03</pdfrwt>
<totfact> 0.82259758E+03</totfact>
</mgrwt>
</event>
<event>
 6    1  0.5258538E-006  0.1957978E+03  0.7546771E-02  0.1157929E+00
          2   -1    0    0  501    0  0.00000000000E+00  0.00000000000E+00  0.82596488630E+03  0.82596488630E+03  0.00000000000E+00 0. -1.
         -2   -1    0    0    0  501 -0.00000000000E+00 -0.00000000000E+00 -0.54019979374E+02  0.54019979374E+02  0.00000000000E+00 0.  1.
          5    1    1    2  502    0 -0.57099000258E+02  0.81215001252E+02  0.25760636445E+03  0.27611465239E+03  0.47000000000E+01 0.  1.
         -5    1    1    2    0  502  0.62094729005E+02  0.69405426320E+02  0.35354547130E+03  0.36563555468E+03  0.47000000000E+01 0.  1.
        -11    1    1    2    0    0  0.34115204653E+02 -0.38840719421E+02  0.23104853848E+02  0.56624049176E+02  0.00000000000E+00 0. -1.
         11    1    1    2    0    0 -0.39110933400E+02 -0.11177970815E+03  0.13768821734E+03  0.18161060944E+03  0.00000000000E+00 0.  1.
<mgrwt>
<rscale>  0 0.19059125E+03</rscale>
<asrwt>0</asrwt>
<pdfrwt beam="1">  1        2 0.12707151E+00 0.19579776E+03</pdfrwt>
<pdfrwt beam="2">  1       -2 0.83107666E-02 0.19579776E+03</pdfrwt>
<totfact> 0.30038547E+03</totfact>
</mgrwt>
</event>
<event>
 6    1  0.5258538E-006  0.1969399E+03  0.7546771E-02  0.1156612E+00
         -3   -1    0    0    0  501 -0.00000000000E+00  0.00000000000E+00  0.14574039189E+03  0.14574039189E+03  0.00000000000E+00 0.  1.
          3   -1    0    0  501    0  0.00000000000E+00 -0.00000000000E+00 -0.61596664583E+03  0.61596664583E+03  0.00000000000E+00 0. -1.
          5    1    1    2  502    0  0.38273365198E+02 -0.84536092342E+02 -0.31515866134E+03  0.32857004308E+03  0.47000000000E+01 0. -1.
         -5    1    1    2    0  502  0.98443380012E+02  0.17700964983E+02 -0.22143676661E+03  0.24302418570E+03  0.47000000000E+01 0. -1.
        -11    1    1    2    0    0 -0.71490327803E+02 -0.14771888103E+02  0.19177202364E+02  0.75477418729E+02  0.00000000000E+00 0. -1.
         11    1    1    2    0    0 -0.65226417407E+02  0.81607015462E+02  0.47191971648E+02  0.11463539021E+03  0.00000000000E+00 0.  1.
<mgrwt>
<rscale>  0 0.19206476E+03</rscale>
<asrwt>0</asrwt>
<pdfrwt beam="2">  1        3 0.94764097E-01 0.19693986E+03</pdfrwt>
<pdfrwt beam="1">  1       -3 0.22421599E-01 0.19693986E+03</pdfrwt>
<totfact> 0.45738936E+01</totfact>
</mgrwt>
</event>
<event>
 6    1  0.5258538E-006  0.1126428E+03  0.7546771E-02  0.1265817E+00
         -1   -1    0    0    0  501 -0.00000000000E+00  0.00000000000E+00  0.10337862187E+03  0.10337862187E+03  0.00000000000E+00 0.  1.
          1   -1    0    0  501    0  0.00000000000E+00 -0.00000000000E+00 -0.11724323336E+03  0.11724323336E+03  0.00000000000E+00 0. -1.
          5    1    1    2  502    0 -0.12244109154E+02 -0.28921779169E+02 -0.63805394334E+02  0.71271353750E+02  0.47000000000E+01 0. -1.
         -5    1    1    2    0  502  0.26964119300E+02  0.39790171028E+02  0.16310550780E+02  0.50974949797E+02  0.47000000000E+01 0.  1.
        -11    1    1    2    0    0  0.12070650361E+01 -0.42592887443E+02 -0.83272520645E+01  0.43416059168E+02  0.00000000000E+00 0.  1.
         11    1    1    2    0    0 -0.15927075182E+02  0.31724495583E+02  0.41957484130E+02  0.54959492523E+02  0.00000000000E+00 0. -1.
<mgrwt>
<rscale>  0 0.10721430E+03</rscale>
<asrwt>0</asrwt>
<pdfrwt beam="2">  1        1 0.18037420E-01 0.11264279E+03</pdfrwt>
<pdfrwt beam="1">  1       -1 0.15904403E-01 0.11264279E+03</pdfrwt>
<totfact> 0.79602807E+03</totfact>
</mgrwt>
</event>
<event>
 6    1  0.5258538E-006  0.1536969E+03  0.7546771E-02  0.1204637E+00
          2   -1    0    0  501    0  0.00000000000E+00  0.00000000000E+00  0.46598845580E+03  0.46598845580E+03  0.00000000000E+00 0. -1.
         -2   -1    0    0    0  501 -0.00000000000E+00 -0.00000000000E+00 -0.42486860176E+02  0.42486860176E+02  0.00000000000E+00 0.  1.
          5    1    1    2  502    0  0.68291113726E+02 -0.24410645558E+02  0.23325376842E+03  0.24431325447E+03  0.47000000000E+01 0.  1.
         -5    1    1    2    0  502  0.18972280298E+02  0.48657622488E+01 -0.13213991036E+02  0.24089886282E+02  0.47000000000E+01 0.  1.
        -11    1    1    2    0    0 -0.72282877775E+02  0.45590092611E+02  0.18748259110E+03  0.20604124084E+03  0.00000000000E+00 0. -1.
         11    1    1    2    0    0 -0.14980516249E+02 -0.26045209301E+02  0.15979227149E+02  0.34030934382E+02  0.00000000000E+00 0.  1.
<mgrwt>
<rscale>  0 0.14666120E+03</rscale>
<asrwt>0</asrwt>
<pdfrwt beam="1">  1        2 0.71690528E-01 0.15369692E+03</pdfrwt>
<pdfrwt beam="2">  1       -2 0.65364404E-02 0.15369692E+03</pdfrwt>
<totfact> 0.84036408E+03</totfact>
</mgrwt>
</event>
<event>
 6    1  0.5258538E-006  0.1262913E+03  0.7546771E-02  0.1248627E+00
          1   -1    0    0  501    0  0.00000000000E+00  0.00000000000E+00  0.13701452019E+04  0.13701452019E+04  0.00000000000E+00 0. -1.
         -1   -1    0    0    0  501 -0.00000000000E+00 -0.00000000000E+00 -0.97628077772E+01  0.97628077772E+01  0.00000000000E+00 0.  1.
          5    1    1    2  502    0  0.58557631467E+02 -0.38150617072E+02  0.56441798426E+03  0.56874793779E+03  0.47000000000E+01 0.  1.
         -5    1    1    2    0  502 -0.40549367543E+02  0.38657632638E+02  0.43549146518E+03  0.43910542016E+03  0.47000000000E+01 0.  1.
        -11    1    1    2    0    0 -0.49703796123E+02 -0.20099588344E+02  0.18196350158E+03  0.18969759279E+03  0.00000000000E+00 0. -1.
         11    1    1    2    0    0  0.31695532198E+02  0.19592572778E+02  0.17850944313E+03  0.18235705897E+03  0.00000000000E+00 0.  1.
<mgrwt>
<rscale>  0 0.11670906E+03</rscale>
<asrwt>0</asrwt>
<pdfrwt beam="1">  1        1 0.21079142E+00 0.12629127E+03</pdfrwt>
<pdfrwt beam="2">  1       -1 0.15019715E-02 0.12629127E+03</pdfrwt>
<totfact> 0.88313957E+03</totfact>
</mgrwt>
</event>
<event>
 6    1  0.5258538E-006  0.1615194E+03  0.7546771E-02  0.1193747E+00
          1   -1    0    0  501    0  0.00000000000E+00  0.00000000000E+00  0.36172596563E+03  0.36172596563E+03  0.00000000000E+00 0. -1.
         -1   -1    0    0    0  501 -0.00000000000E+00 -0.00000000000E+00 -0.99193025242E+02  0.99193025242E+02  0.00000000000E+00 0.  1.
          5    1    1    2  502    0  0.58985679198E+02 -0.35165125269E+02  0.24400399186E+03  0.25352698955E+03  0.47000000000E+01 0. -1.
         -5    1    1    2    0  502 -0.14042056587E+02 -0.56720357478E+02  0.33386273977E+02  0.67461927008E+02  0.47000000000E+01 0. -1.
        -11    1    1    2    0    0 -0.71406607474E+02  0.72911798226E+02  0.43107677210E+01  0.10214507639E+03  0.00000000000E+00 0. -1.
         11    1    1    2    0    0  0.26462984863E+02  0.18973684521E+02 -0.19168093176E+02  0.37784997924E+02  0.00000000000E+00 0.  1.
<mgrwt>
<rscale>  0 0.15560762E+03</rscale>
<asrwt>0</asrwt>
<pdfrwt beam="1">  1        1 0.55650148E-01 0.16151943E+03</pdfrwt>
<pdfrwt beam="2">  1       -1 0.15260466E-01 0.16151943E+03</pdfrwt>
<totfact> 0.21218754E+03</totfact>
</mgrwt>
</event>
<event>
 6    1  0.5258538E-006  0.1375001E+03  0.7546771E-02  0.1228137E+00
          2   -1    0    0  501    0  0.00000000000E+00  0.00000000000E+00  0.31760107994E+03  0.31760107994E+03  0.00000000000E+00 0. -1.
         -2   -1    0    0    0  501 -0.00000000000E+00 -0.00000000000E+00 -0.47630082482E+02  0.47630082482E+02  0.00000000000E+00 0.  1.
          5    1    1    2  502    0  0.51864027491E+02 -0.48617712487E+02  0.31830687813E+02  0.78031032300E+02  0.47000000000E+01 0. -1.
         -5    1    1    2    0  502 -0.44349322468E+02 -0.81682964512E+01  0.11259457333E+03  0.12138044082E+03  0.47000000000E+01 0. -1.
        -11    1    1    2    0    0 -0.29945777752E+02  0.33137027697E+02  0.12551505534E+03  0.13322477745E+03  0.00000000000E+00 0. -1.
         11    1    1    2    0    0  0.22431072729E+02  0.23648981240E+02  0.30680976492E-01  0.32594911854E+02  0.00000000000E+00 0.  1.
<mgrwt>
<rscale>  0 0.12954184E+03</rscale>
<asrwt>0</asrwt>
<pdfrwt beam="1">  1        2 0.48861703E-01 0.13750011E+03</pdfrwt>
<pdfrwt beam="2">  1       -2 0.73277052E-02 0.13750011E+03</pdfrwt>
<totfact> 0.10555467E+04</totfact>
</mgrwt>
</event>
<event>
 6    1  0.5817521E-006  0.1734389E+03  0.7546771E-02  0.1180523E+00
          3   -1    0    0  501    0  0.00000000000E+00  0.00000000000E+00  0.14154660937E+03  0.14154660937E+03  0.00000000000E+00 0. -1.
         -3   -1    0    0    0  501 -0.00000000000E+00 -0.00000000000E+00 -0.21366208441E+03  0.21366208441E+03  0.00000000000E+00 0.  1.
          5    1    1    2  502    0 -0.36916930443E+02 -0.12809782689E+02  0.36020678206E+02  0.53352877563E+02  0.47000000000E+01 0. -1.
         -5    1    1    2    0  502 -0.16877491240E+02  0.12033716052E+03 -0.10047054295E+02  0.12202014265E+03  0.47000000000E+01 0. -1.
        -11    1    1    2    0    0  0.63815317501E+02 -0.76447542135E+02 -0.10681508444E+03  0.14603452917E+03  0.00000000000E+00 0.  1.
         11    1    1    2    0    0 -0.10020895817E+02 -0.31079835696E+02  0.87259854842E+01  0.33801144397E+02  0.00000000000E+00 0. -1.
<mgrwt>
<rscale>  0 0.16745941E+03</rscale>
<asrwt>0</asrwt>
<pdfrwt beam="1">  1        3 0.21776401E-01 0.17343894E+03</pdfrwt>
<pdfrwt beam="2">  1       -3 0.32871090E-01 0.17343894E+03</pdfrwt>
<totfact> 0.41838665E+02</totfact>
</mgrwt>
</event>
<event>
 6    1  0.5258538E-006  0.2832036E+03  0.7546771E-02  0.1095720E+00
          2   -1    0    0  501    0  0.00000000000E+00  0.00000000000E+00  0.10023636797E+04  0.10023636797E+04  0.00000000000E+00 0. -1.
         -2   -1    0    0    0  501 -0.00000000000E+00 -0.00000000000E+00 -0.88852818003E+02  0.88852818003E+02  0.00000000000E+00 0.  1.
          5    1    1    2  502    0 -0.24749198203E+03 -0.64374679986E+02  0.55868938233E+03  0.61445284321E+03  0.47000000000E+01 0.  1.
         -5    1    1    2    0  502  0.68561281396E+01 -0.17321751450E+02  0.11109463974E+03  0.11274377386E+03  0.47000000000E+01 0.  1.
        -11    1    1    2    0    0  0.16381395222E+03  0.99310582510E+02  0.17343334732E+03  0.25841193607E+03  0.00000000000E+00 0. -1.
         11    1    1    2    0    0  0.76821901663E+02 -0.17614151074E+02  0.70293492285E+02  0.10560794454E+03  0.00000000000E+00 0.  1.
<mgrwt>
<rscale>  0 0.27994291E+03</rscale>
<asrwt>0</asrwt>
<pdfrwt beam="1">  1        2 0.15420979E+00 0.28320361E+03</pdfrwt>
<pdfrwt beam="2">  1       -2 0.13669665E-01 0.28320361E+03</pdfrwt>
<totfact> 0.10462498E+03</totfact>
</mgrwt>
</event>
<event>
 6    1  0.5258538E-006  0.1298025E+03  0.7546771E-02  0.1240961E+00
         -1   -1    0    0    0  501 -0.00000000000E+00  0.00000000000E+00  0.30770640135E+02  0.30770640135E+02  0.00000000000E+00 0. -1.
          1   -1    0    0  501    0  0.00000000000E+00 -0.00000000000E+00 -0.46459068632E+03  0.46459068632E+03  0.00000000000E+00 0.  1.
          5    1    1    2  502    0  0.24295084551E+02  0.48002078269E+02 -0.80618058393E+02  0.97035107000E+02  0.47000000000E+01 0. -1.
         -5    1    1    2    0  502  0.55556173105E+01 -0.66198684300E+02 -0.23440730749E+03  0.24368423522E+03  0.47000000000E+01 0. -1.
        -11    1    1    2    0    0 -0.36096466318E+02 -0.19746182386E+02 -0.14732835830E+02  0.43702666407E+02  0.00000000000E+00 0. -1.
         11    1    1    2    0    0  0.62457644569E+01  0.37942788417E+02 -0.10406184447E+03  0.11093931783E+03  0.00000000000E+00 0.  1.
<mgrwt>
<rscale>  0 0.12130437E+03</rscale>
<asrwt>0</asrwt>
<pdfrwt beam="2">  1        1 0.71475483E-01 0.12980250E+03</pdfrwt>
<pdfrwt beam="1">  1       -1 0.47339451E-02 0.12980250E+03</pdfrwt>
<totfact> 0.90398709E+03</totfact>
</mgrwt>
</event>
<event>
 6    1  0.5258538E-006  0.1334847E+03  0.7546771E-02  0.1236151E+00
         -1   -1    0    0    0  501 -0.00000000000E+00  0.00000000000E+00  0.89071829143E+02  0.89071829143E+02  0.00000000000E+00 0.  1.
          1   -1    0    0  501    0  0.00000000000E+00 -0.00000000000E+00 -0.15425454992E+03  0.15425454992E+03  0.00000000000E+00 0. -1.
          5    1    1    2  502    0  0.60258850757E+02  0.46899104323E+02 -0.37607035511E+02  0.85246901414E+02  0.47000000000E+01 0.  1.
         -5    1    1    2    0  502 -0.13443548638E+02 -0.48558762999E+02  0.86618203543E+01  0.51340038915E+02  0.47000000000E+01 0.  1.
        -11    1    1    2    0    0  0.22504125647E+02  0.95292799073E+01  0.60273686344E+01  0.25170856547E+02  0.00000000000E+00 0.  1.
         11    1    1    2    0    0 -0.69319427766E+02 -0.78696212309E+01 -0.42264874253E+02  0.81568582185E+02  0.00000000000E+00 0. -1.
<mgrwt>
<rscale>  0 0.12431027E+03</rscale>
<asrwt>0</asrwt>
<pdfrwt beam="2">  1        1 0.23731469E-01 0.13348471E+03</pdfrwt>
<pdfrwt beam="1">  1       -1 0.13703358E-01 0.13348471E+03</pdfrwt>
<totfact> 0.71914255E+03</totfact>
</mgrwt>
</event>
<event>
 6    1  0.5258538E-006  0.1310611E+03  0.7546771E-02  0.1239936E+00
         -1   -1    0    0    0  501 -0.00000000000E+00  0.00000000000E+00  0.15038514917E+02  0.15038514917E+02  0.00000000000E+00 0.  1.
          1   -1    0    0  501    0  0.00000000000E+00 -0.00000000000E+00 -0.13973743397E+04  0.13973743397E+04  0.00000000000E+00 0. -1.
          5    1    1    2  502    0 -0.29873896924E+02 -0.24278422098E+02 -0.11408479206E+04  0.11415068811E+04  0.47000000000E+01 0. -1.
         -5    1    1    2    0  502 -0.94557318688E+01  0.21946495477E+02 -0.41773805997E+02  0.48354941799E+02  0.47000000000E+01 0. -1.
        -11    1    1    2    0    0  0.41832287114E+02  0.29600036686E+02 -0.54622312331E+02  0.74897926683E+02  0.00000000000E+00 0.  1.
         11    1    1    2    0    0 -0.25026583221E+01 -0.27268110065E+02 -0.14509178585E+03  0.14765310510E+03  0.00000000000E+00 0. -1.
<mgrwt>
<rscale>  0 0.12193635E+03</rscale>
<asrwt>0</asrwt>
<pdfrwt beam="2">  1        1 0.21498064E+00 0.13106109E+03</pdfrwt>
<pdfrwt beam="1">  1       -1 0.23136179E-02 0.13106109E+03</pdfrwt>
<totfact> 0.45587718E+03</totfact>
</mgrwt>
</event>
<event>
 6    1  0.5258538E-006  0.1271460E+03  0.7546771E-02  0.1244913E+00
          2   -1    0    0  501    0  0.00000000000E+00  0.00000000000E+00  0.32005231261E+03  0.32005231261E+03  0.00000000000E+00 0. -1.
         -2   -1    0    0    0  501 -0.00000000000E+00 -0.00000000000E+00 -0.41673687155E+02  0.41673687155E+02  0.00000000000E+00 0.  1.
          5    1    1    2  502    0 -0.97429052652E+01  0.53677577673E+02  0.27048572029E+02  0.61073085698E+02  0.47000000000E+01 0.  1.
         -5    1    1    2    0  502  0.11189467642E+02 -0.30468887791E+02  0.17213961869E+03  0.17523611395E+03  0.47000000000E+01 0.  1.
        -11    1    1    2    0    0  0.20935768850E+02  0.17561221803E+01  0.88224730940E+02  0.90691750077E+02  0.00000000000E+00 0. -1.
         11    1    1    2    0    0 -0.22382331227E+02 -0.24964812063E+02 -0.90342962033E+01  0.34725050042E+02  0.00000000000E+00 0.  1.
<mgrwt>
<rscale>  0 0.11890588E+03</rscale>
<asrwt>0</asrwt>
<pdfrwt beam="1">  1        2 0.49238816E-01 0.12714599E+03</pdfrwt>
<pdfrwt beam="2">  1       -2 0.64113367E-02 0.12714599E+03</pdfrwt>
<totfact> 0.12761470E+04</totfact>
</mgrwt>
</event>
<event>
 6    1  0.5258538E-006  0.1323805E+03  0.7546771E-02  0.1250625E+00
         -2   -1    0    0    0  501 -0.00000000000E+00  0.00000000000E+00  0.27864364872E+02  0.27864364872E+02  0.00000000000E+00 0.  1.
          2   -1    0    0  501    0  0.00000000000E+00 -0.00000000000E+00 -0.47294411753E+03  0.47294411753E+03  0.00000000000E+00 0. -1.
          5    1    1    2  502    0 -0.27805524847E+02  0.54096835549E+01 -0.15901442226E+02  0.32823128325E+02  0.47000000000E+01 0.  1.
         -5    1    1    2    0  502  0.48104961072E+02 -0.43972283100E+02 -0.35574662765E+03  0.36169794310E+03  0.47000000000E+01 0.  1.
        -11    1    1    2    0    0 -0.33601637901E+02  0.36831283395E+02 -0.77604297154E+02  0.92239039690E+02  0.00000000000E+00 0. -1.
         11    1    1    2    0    0  0.13302201676E+02  0.17313161504E+01  0.41726143717E+01  0.14048371284E+02  0.00000000000E+00 0.  1.
<mgrwt>
<rscale>  0 0.11554964E+03</rscale>
<asrwt>0</asrwt>
<pdfrwt beam="2">  1        2 0.72760633E-01 0.13238047E+03</pdfrwt>
<pdfrwt beam="1">  1       -2 0.42868254E-02 0.13238047E+03</pdfrwt>
<totfact> 0.15457278E+04</totfact>
</mgrwt>
</event>
<event>
 6    1  0.5258538E-006  0.1443116E+03  0.7546771E-02  0.1217926E+00
         -2   -1    0    0    0  501 -0.00000000000E+00  0.00000000000E+00  0.25132755255E+02  0.25132755255E+02  0.00000000000E+00 0.  1.
          2   -1    0    0  501    0  0.00000000000E+00 -0.00000000000E+00 -0.85093655055E+03  0.85093655055E+03  0.00000000000E+00 0. -1.
          5    1    1    2  502    0  0.47987550898E+02 -0.30131175922E+02 -0.51928201398E+03  0.52238548300E+03  0.47000000000E+01 0.  1.
         -5    1    1    2    0  502  0.19680735884E+02  0.55036427497E+02 -0.12805328335E+03  0.14084059462E+03  0.47000000000E+01 0.  1.
        -11    1    1    2    0    0 -0.13205446857E+02 -0.29027740481E+00  0.90624052894E+01  0.16018591614E+02  0.00000000000E+00 0.  1.
         11    1    1    2    0    0 -0.54462839924E+02 -0.24614974170E+02 -0.18753090326E+03  0.19682463657E+03  0.00000000000E+00 0. -1.
<mgrwt>
<rscale>  0 0.13663792E+03</rscale>
<asrwt>0</asrwt>
<pdfrwt beam="2">  1        2 0.13091331E+00 0.14431162E+03</pdfrwt>
<pdfrwt beam="1">  1       -2 0.38665779E-02 0.14431162E+03</pdfrwt>
<totfact> 0.91493208E+03</totfact>
</mgrwt>
</event>
<event>
 6    1  0.5258538E-006  0.1300312E+03  0.7546771E-02  0.1241281E+00
          2   -1    0    0  501    0  0.00000000000E+00  0.00000000000E+00  0.10363450041E+03  0.10363450041E+03  0.00000000000E+00 0. -1.
         -2   -1    0    0    0  501 -0.00000000000E+00 -0.00000000000E+00 -0.15420992210E+03  0.15420992210E+03  0.00000000000E+00 0.  1.
          5    1    1    2  502    0  0.13094922271E+02 -0.71856819001E+01 -0.49549082103E+02  0.51964531662E+02  0.47000000000E+01 0. -1.
         -5    1    1    2    0  502  0.28295635072E+01 -0.24904265106E+02  0.76757480937E+02  0.80882814800E+02  0.47000000000E+01 0. -1.
        -11    1    1    2    0    0 -0.21959198541E+02  0.59809696573E+02 -0.71820075443E+02  0.96007965510E+02  0.00000000000E+00 0.  1.
         11    1    1    2    0    0  0.60347127631E+01 -0.27719749567E+02 -0.59637450888E+01  0.28989110536E+02  0.00000000000E+00 0. -1.
<mgrwt>
<rscale>  0 0.12110780E+03</rscale>
<asrwt>0</asrwt>
<pdfrwt beam="1">  1        2 0.15943769E-01 0.13003123E+03</pdfrwt>
<pdfrwt beam="2">  1       -2 0.23724603E-01 0.13003123E+03</pdfrwt>
<totfact> 0.53623213E+03</totfact>
</mgrwt>
</event>
<event>
 6    1  0.5258538E-006  0.2143404E+03  0.7546771E-02  0.1141845E+00
          1   -1    0    0  501    0  0.00000000000E+00  0.00000000000E+00  0.16507326369E+03  0.16507326369E+03  0.00000000000E+00 0. -1.
         -1   -1    0    0    0  501 -0.00000000000E+00 -0.00000000000E+00 -0.38022419456E+03  0.38022419456E+03  0.00000000000E+00 0.  1.
          5    1    1    2  502    0  0.24587292799E+02 -0.24362069616E+01 -0.16050055066E+02  0.29835621984E+02  0.47000000000E+01 0. -1.
         -5    1    1    2    0  502 -0.63609909761E+02 -0.16725003115E+03  0.61504434998E+02  0.18927144281E+03  0.47000000000E+01 0. -1.
        -11    1    1    2    0    0  0.16574922686E+02  0.17272955768E+03 -0.23055048413E+03  0.28855459430E+03  0.00000000000E+00 0. -1.
         11    1    1    2    0    0  0.22447694276E+02 -0.30433195724E+01 -0.30054826675E+02  0.37635799165E+02  0.00000000000E+00 0.  1.
<mgrwt>
<rscale>  0 0.20964742E+03</rscale>
<asrwt>0</asrwt>
<pdfrwt beam="1">  1        1 0.25395887E-01 0.21434040E+03</pdfrwt>
<pdfrwt beam="2">  1       -1 0.58496030E-01 0.21434040E+03</pdfrwt>
<totfact> 0.57394914E+02</totfact>
</mgrwt>
</event>
<event>
 6    1  0.5258538E-006  0.1976031E+03  0.7546771E-02  0.1229314E+00
         -2   -1    0    0    0  501 -0.00000000000E+00  0.00000000000E+00  0.75565745189E+01  0.75565745189E+01  0.00000000000E+00 0.  1.
          2   -1    0    0  501    0  0.00000000000E+00 -0.00000000000E+00 -0.21965312675E+04  0.21965312675E+04  0.00000000000E+00 0. -1.
          5    1    1    2  502    0 -0.96550365016E+02 -0.23250321064E+02 -0.13950882621E+04  0.13986264332E+04  0.47000000000E+01 0. -1.
         -5    1    1    2    0  502  0.78614663296E+02  0.42690707769E+02 -0.68654072872E+03  0.69236047259E+03  0.47000000000E+01 0.  1.
        -11    1    1    2    0    0  0.18119179481E+02 -0.22299358453E+01 -0.50026684924E+02  0.53253605356E+02  0.00000000000E+00 0. -1.
         11    1    1    2    0    0 -0.18347776054E+00 -0.17210450860E+02 -0.57319017159E+02  0.59847330859E+02  0.00000000000E+00 0.  1.
<mgrwt>
<rscale>  0 0.12875560E+03</rscale>
<asrwt>0</asrwt>
<pdfrwt beam="2">  1        2 0.33792806E+00 0.19760310E+03</pdfrwt>
<pdfrwt beam="1">  1       -2 0.11625493E-02 0.19760310E+03</pdfrwt>
<totfact> 0.99568490E+03</totfact>
</mgrwt>
</event>
<event>
 6    1  0.5258538E-006  0.1267073E+03  0.7546771E-02  0.1247176E+00
          1   -1    0    0  501    0  0.00000000000E+00  0.00000000000E+00  0.57263064838E+03  0.57263064838E+03  0.00000000000E+00 0. -1.
         -1   -1    0    0    0  501 -0.00000000000E+00 -0.00000000000E+00 -0.21436520918E+02  0.21436520918E+02  0.00000000000E+00 0.  1.
          5    1    1    2  502    0 -0.45297456003E+02 -0.19818470771E+02  0.80691597038E+02  0.94751544244E+02  0.47000000000E+01 0. -1.
         -5    1    1    2    0  502  0.65599656339E+02  0.15597477718E+02  0.26318727920E+03  0.27172822849E+03  0.47000000000E+01 0. -1.
        -11    1    1    2    0    0 -0.52510412979E+02  0.10293559461E+01  0.76267938817E+02  0.92602384074E+02  0.00000000000E+00 0.  1.
         11    1    1    2    0    0  0.32208212642E+02  0.31916371073E+01  0.13104731241E+03  0.13498501249E+03  0.00000000000E+00 0. -1.
<mgrwt>
<rscale>  0 0.11756085E+03</rscale>
<asrwt>0</asrwt>
<pdfrwt beam="1">  1        1 0.88097011E-01 0.12670731E+03</pdfrwt>
<pdfrwt beam="2">  1       -1 0.32979267E-02 0.12670731E+03</pdfrwt>
<totfact> 0.11653828E+04</totfact>
</mgrwt>
</event>
<event>
 6    1  0.5258538E-006  0.1463445E+03  0.7546771E-02  0.1214917E+00
          2   -1    0    0  501    0  0.00000000000E+00  0.00000000000E+00  0.10713618430E+04  0.10713618430E+04  0.00000000000E+00 0. -1.
         -2   -1    0    0    0  501 -0.00000000000E+00 -0.00000000000E+00 -0.17866826586E+02  0.17866826586E+02  0.00000000000E+00 0.  1.
          5    1    1    2  502    0 -0.37994067278E+02 -0.32294971625E+02  0.29946975651E+03  0.30362927956E+03  0.47000000000E+01 0.  1.
         -5    1    1    2    0  502  0.92751658327E+02 -0.20551168264E+02  0.43487331723E+03  0.44515403253E+03  0.47000000000E+01 0.  1.
        -11    1    1    2    0    0 -0.57059877206E+02 -0.56982878824E+01  0.19324823161E+03  0.20157673251E+03  0.00000000000E+00 0.  1.
         11    1    1    2    0    0  0.23022861575E+01  0.58544427772E+02  0.12590371106E+03  0.13886862498E+03  0.00000000000E+00 0. -1.
<mgrwt>
<rscale>  0 0.13882661E+03</rscale>
<asrwt>0</asrwt>
<pdfrwt beam="1">  1        2 0.16482485E+00 0.14634445E+03</pdfrwt>
<pdfrwt beam="2">  1       -2 0.27487434E-02 0.14634445E+03</pdfrwt>
<totfact> 0.11104480E+04</totfact>
</mgrwt>
</event>
<event>
 6    1  0.5258538E-006  0.2000878E+03  0.7546771E-02  0.1153698E+00
         -1   -1    0    0    0  501 -0.00000000000E+00  0.00000000000E+00  0.20488207790E+03  0.20488207790E+03  0.00000000000E+00 0. -1.
          1   -1    0    0  501    0  0.00000000000E+00 -0.00000000000E+00 -0.26553728313E+03  0.26553728313E+03  0.00000000000E+00 0.  1.
          5    1    1    2  502    0 -0.16000726128E+02 -0.10903305341E+03 -0.10008379205E+03  0.14893987177E+03  0.47000000000E+01 0. -1.
         -5    1    1    2    0  502  0.83331834675E+02 -0.31958205393E+02 -0.66117008171E+02  0.11117135572E+03  0.47000000000E+01 0. -1.
        -11    1    1    2    0    0 -0.89139370234E+01  0.11245808469E+03  0.87700499335E+02  0.14289036590E+03  0.00000000000E+00 0. -1.
         11    1    1    2    0    0 -0.58417171524E+02  0.28533174114E+02  0.17845095659E+02  0.67417767635E+02  0.00000000000E+00 0.  1.
<mgrwt>
<rscale>  0 0.19537862E+03</rscale>
<asrwt>0</asrwt>
<pdfrwt beam="2">  1        1 0.40851890E-01 0.20008784E+03</pdfrwt>
<pdfrwt beam="1">  1       -1 0.31520320E-01 0.20008784E+03</pdfrwt>
<totfact> 0.95872944E+02</totfact>
</mgrwt>
</event>
<event>
 6    1  0.5258538E-006  0.5746847E+03  0.7546771E-02  0.9959365E-01
         -1   -1    0    0    0  501 -0.00000000000E+00  0.00000000000E+00  0.32587065143E+03  0.32587065143E+03  0.00000000000E+00 0.  1.
          1   -1    0    0  501    0  0.00000000000E+00 -0.00000000000E+00 -0.25336935043E+03  0.25336935043E+03  0.00000000000E+00 0. -1.
          5    1    1    2  502    0 -0.53355628849E+02  0.57380427878E+02 -0.17352152795E+03  0.19044985507E+03  0.47000000000E+01 0. -1.
         -5    1    1    2    0  502  0.46769416031E+02 -0.27741322786E+02 -0.23297457606E+02  0.59344930674E+02  0.47000000000E+01 0.  1.
        -11    1    1    2    0    0 -0.25692248419E+02 -0.98909049931E+02  0.20693896433E+03  0.23079607177E+03  0.00000000000E+00 0.  1.
         11    1    1    2    0    0  0.32278461237E+02  0.69269944838E+02  0.62381322221E+02  0.98649144343E+02  0.00000000000E+00 0. -1.
<mgrwt>
<rscale>  0 0.57468473E+03</rscale>
<asrwt>0</asrwt>
<pdfrwt beam="2">  1        1 0.38979900E-01 0.57468473E+03</pdfrwt>
<pdfrwt beam="1">  1       -1 0.50133946E-01 0.57468473E+03</pdfrwt>
<totfact> 0.44179093E+02</totfact>
</mgrwt>
</event>
<event>
 6    1  0.5258538E-006  0.1901747E+03  0.7546771E-02  0.1163106E+00
         -2   -1    0    0    0  501 -0.00000000000E+00  0.00000000000E+00  0.21304842778E+03  0.21304842778E+03  0.00000000000E+00 0.  1.
          2   -1    0    0  501    0  0.00000000000E+00 -0.00000000000E+00 -0.19250931010E+03  0.19250931010E+03  0.00000000000E+00 0. -1.
          5    1    1    2  502    0 -0.42463193337E+02  0.30079264140E+02  0.95557282848E+01  0.53115787320E+02  0.47000000000E+01 0. -1.
         -5    1    1    2    0  502  0.50421983967E+02  0.11302155510E+03 -0.91398083782E+02  0.15392188962E+03  0.47000000000E+01 0. -1.
        -11    1    1    2    0    0  0.33443200401E+02 -0.11364681763E+03  0.80320844432E+02  0.14312751259E+03  0.00000000000E+00 0.  1.
         11    1    1    2    0    0 -0.41401991031E+02 -0.29454001611E+02  0.22060628750E+02  0.55392548353E+02  0.00000000000E+00 0. -1.
<mgrwt>
<rscale>  0 0.18493958E+03</rscale>
<asrwt>0</asrwt>
<pdfrwt beam="2">  1        2 0.29616817E-01 0.19017473E+03</pdfrwt>
<pdfrwt beam="1">  1       -2 0.32776681E-01 0.19017473E+03</pdfrwt>
<totfact> 0.15285441E+03</totfact>
</mgrwt>
</event>
<event>
 6    1  0.5258538E-006  0.1388267E+03  0.7546771E-02  0.1226727E+00
         -1   -1    0    0    0  501 -0.00000000000E+00  0.00000000000E+00  0.86163430185E+02  0.86163430185E+02  0.00000000000E+00 0.  1.
          1   -1    0    0  501    0  0.00000000000E+00 -0.00000000000E+00 -0.19017369071E+03  0.19017369071E+03  0.00000000000E+00 0. -1.
          5    1    1    2  502    0  0.10975262346E+02 -0.44565443891E+02 -0.90300424874E+02  0.10140410201E+03  0.47000000000E+01 0. -1.
         -5    1    1    2    0  502 -0.63948869141E+02  0.15556720907E+02 -0.33684580365E+01  0.66067434787E+02  0.47000000000E+01 0. -1.
        -11    1    1    2    0    0 -0.11921889598E+02 -0.56337161788E+01 -0.29958340396E+02  0.32731825016E+02  0.00000000000E+00 0. -1.
         11    1    1    2    0    0  0.64895496393E+02  0.34642439163E+02  0.19616962778E+02  0.76133759081E+02  0.00000000000E+00 0.  1.
<mgrwt>
<rscale>  0 0.13049244E+03</rscale>
<asrwt>0</asrwt>
<pdfrwt beam="2">  1        1 0.29257491E-01 0.13882671E+03</pdfrwt>
<pdfrwt beam="1">  1       -1 0.13255912E-01 0.13882671E+03</pdfrwt>
<totfact> 0.58420544E+03</totfact>
</mgrwt>
</event>
<event>
 6    1  0.5258538E-006  0.1384321E+03  0.7546771E-02  0.1225849E+00
         -1   -1    0    0    0  501 -0.00000000000E+00  0.00000000000E+00  0.13614273338E+02  0.13614273338E+02  0.00000000000E+00 0.  1.
          1   -1    0    0  501    0  0.00000000000E+00 -0.00000000000E+00 -0.12505010855E+04  0.12505010855E+04  0.00000000000E+00 0. -1.
          5    1    1    2  502    0 -0.27366842510E+02 -0.96454536271E+01 -0.75829614266E+03  0.75886567244E+03  0.47000000000E+01 0. -1.
         -5    1    1    2    0  502 -0.22605734809E+02  0.41870810201E+02 -0.10391765669E+03  0.11439035521E+03  0.47000000000E+01 0. -1.
        -11    1    1    2    0    0  0.21755854012E+02 -0.60513962909E+02 -0.29252559322E+03  0.29951039979E+03  0.00000000000E+00 0. -1.
         11    1    1    2    0    0  0.28216723307E+02  0.28288606335E+02 -0.82147419631E+02  0.91348931436E+02  0.00000000000E+00 0.  1.
<mgrwt>
<rscale>  0 0.13108911E+03</rscale>
<asrwt>0</asrwt>
<pdfrwt beam="2">  1        1 0.19238479E+00 0.13843213E+03</pdfrwt>
<pdfrwt beam="1">  1       -1 0.20945035E-02 0.13843213E+03</pdfrwt>
<totfact> 0.66049619E+03</totfact>
</mgrwt>
</event>
<event>
 6    1  0.5258538E-006  0.2203164E+03  0.7546771E-02  0.1137069E+00
         -2   -1    0    0    0  501 -0.00000000000E+00  0.00000000000E+00  0.13765251768E+03  0.13765251768E+03  0.00000000000E+00 0.  1.
          2   -1    0    0  501    0  0.00000000000E+00 -0.00000000000E+00 -0.36993066956E+03  0.36993066956E+03  0.00000000000E+00 0. -1.
          5    1    1    2  502    0  0.51119124169E+02  0.10976198129E+02 -0.38141038741E+02  0.64888139266E+02  0.47000000000E+01 0.  1.
         -5    1    1    2    0  502  0.56848360161E+02 -0.15677170787E+03 -0.17059715849E+03  0.23860969160E+03  0.47000000000E+01 0.  1.
        -11    1    1    2    0    0 -0.97260498886E+02  0.15736504715E+03 -0.13699019114E+02  0.18550209118E+03  0.00000000000E+00 0.  1.
         11    1    1    2    0    0 -0.10706985444E+02 -0.11569537404E+02 -0.98409355406E+01  0.18583265196E+02  0.00000000000E+00 0. -1.
<mgrwt>
<rscale>  0 0.21577987E+03</rscale>
<asrwt>0</asrwt>
<pdfrwt beam="2">  1        2 0.56912410E-01 0.22031636E+03</pdfrwt>
<pdfrwt beam="1">  1       -2 0.21177311E-01 0.22031636E+03</pdfrwt>
<totfact> 0.16468916E+03</totfact>
</mgrwt>
</event>
<event>
 6    1  0.5258538E-006  0.1552500E+03  0.7546771E-02  0.1203259E+00
          2   -1    0    0  501    0  0.00000000000E+00  0.00000000000E+00  0.95403393636E+03  0.95403393636E+03  0.00000000000E+00 0. -1.
         -2   -1    0    0    0  501 -0.00000000000E+00 -0.00000000000E+00 -0.21266284103E+02  0.21266284103E+02  0.00000000000E+00 0.  1.
          5    1    1    2  502    0 -0.16469616244E+02 -0.86660099930E+02  0.18979436185E+03  0.20934471804E+03  0.47000000000E+01 0. -1.
         -5    1    1    2    0  502 -0.28306667472E+02  0.61431482029E+01  0.38280490978E+03  0.38392798107E+03  0.47000000000E+01 0. -1.
        -11    1    1    2    0    0  0.17577591720E+02  0.91623482507E+02  0.31158148092E+03  0.32524891012E+03  0.00000000000E+00 0. -1.
         11    1    1    2    0    0  0.27198691997E+02 -0.11106530781E+02  0.48586899703E+02  0.56778611246E+02  0.00000000000E+00 0.  1.
<mgrwt>
<rscale>  0 0.14775518E+03</rscale>
<asrwt>0</asrwt>
<pdfrwt beam="1">  1        2 0.14677442E+00 0.15525002E+03</pdfrwt>
<pdfrwt beam="2">  1       -2 0.32717368E-02 0.15525002E+03</pdfrwt>
<totfact> 0.10126388E+04</totfact>
</mgrwt>
</event>
<event>
 6    1  0.5258538E-006  0.3359312E+03  0.7546771E-02  0.1068542E+00
          1   -1    0    0  501    0  0.00000000000E+00  0.00000000000E+00  0.44249668684E+03  0.44249668684E+03  0.00000000000E+00 0. -1.
         -1   -1    0    0    0  501 -0.00000000000E+00 -0.00000000000E+00 -0.63757410515E+02  0.63757410515E+02  0.00000000000E+00 0.  1.
          5    1    1    2  502    0  0.12181019701E+03  0.31385781605E+01  0.74978536853E+02  0.14314833480E+03  0.47000000000E+01 0.  1.
         -5    1    1    2    0  502  0.55864117725E+01  0.10313757503E+02  0.12337878586E+03  0.12402417663E+03  0.47000000000E+01 0.  1.
        -11    1    1    2    0    0 -0.33147689517E+02  0.17790622715E+02  0.55581832752E+01  0.38028528478E+02  0.00000000000E+00 0.  1.
         11    1    1    2    0    0 -0.94248919263E+02 -0.31242958379E+02  0.17482377034E+03  0.20105305744E+03  0.00000000000E+00 0. -1.
<mgrwt>
<rscale>  0 0.33593120E+03</rscale>
<asrwt>0</asrwt>
<pdfrwt beam="1">  1        1 0.68076411E-01 0.33593120E+03</pdfrwt>
<pdfrwt beam="2">  1       -1 0.98088327E-02 0.33593120E+03</pdfrwt>
<totfact> 0.33426994E+03</totfact>
</mgrwt>
</event>
<event>
 6    1  0.5258538E-006  0.1266471E+03  0.7546771E-02  0.1242448E+00
         -2   -1    0    0    0  501 -0.00000000000E+00  0.00000000000E+00  0.36947040720E+03  0.36947040720E+03  0.00000000000E+00 0.  1.
          2   -1    0    0  501    0  0.00000000000E+00 -0.00000000000E+00 -0.46642258735E+02  0.46642258735E+02  0.00000000000E+00 0. -1.
          5    1    1    2  502    0 -0.34510194019E+01 -0.49133172960E+02  0.63877202294E+01  0.49888587771E+02  0.47000000000E+01 0. -1.
         -5    1    1    2    0  502 -0.70342526028E+00  0.69076733354E+02  0.67699676602E+02  0.96837111223E+02  0.47000000000E+01 0. -1.
        -11    1    1    2    0    0 -0.54001653001E+01  0.39856417094E+02  0.13023882195E+03  0.13630791067E+03  0.00000000000E+00 0.  1.
         11    1    1    2    0    0  0.95546099623E+01 -0.59799977488E+02  0.11850192969E+03  0.13307905627E+03  0.00000000000E+00 0. -1.
<mgrwt>
<rscale>  0 0.12039435E+03</rscale>
<asrwt>0</asrwt>
<pdfrwt beam="2">  1        2 0.71757324E-02 0.12664710E+03</pdfrwt>
<pdfrwt beam="1">  1       -2 0.56841599E-01 0.12664710E+03</pdfrwt>
<totfact> 0.27629322E+03</totfact>
</mgrwt>
</event>
<event>
 6    1  0.5258538E-006  0.1285169E+03  0.7546771E-02  0.1244110E+00
          2   -1    0    0  501    0  0.00000000000E+00  0.00000000000E+00  0.14588674681E+04  0.14588674681E+04  0.00000000000E+00 0. -1.
         -2   -1    0    0    0  501 -0.00000000000E+00 -0.00000000000E+00 -0.16767170484E+02  0.16767170484E+02  0.00000000000E+00 0.  1.
          5    1    1    2  502    0 -0.69151227962E+02 -0.30724416832E+01  0.57229472905E+03  0.57648476053E+03  0.47000000000E+01 0.  1.
         -5    1    1    2    0  502  0.49784304829E+02  0.25783475090E+02  0.71456024594E+03  0.71677172075E+03  0.47000000000E+01 0.  1.
        -11    1    1    2    0    0 -0.56310296365E+00  0.20707371018E+02  0.12301902663E+03  0.12475092470E+03  0.00000000000E+00 0. -1.
         11    1    1    2    0    0  0.19930026096E+02 -0.43418404425E+02  0.32226295978E+02  0.57627232585E+02  0.00000000000E+00 0.  1.
<mgrwt>
<rscale>  0 0.11938815E+03</rscale>
<asrwt>0</asrwt>
<pdfrwt beam="1">  1        2 0.22444105E+00 0.12851692E+03</pdfrwt>
<pdfrwt beam="2">  1       -2 0.25795658E-02 0.12851692E+03</pdfrwt>
<totfact> 0.74402398E+03</totfact>
</mgrwt>
</event>
<event>
 6    1  0.5258538E-006  0.1264052E+03  0.7546771E-02  0.1248894E+00
         -1   -1    0    0    0  501 -0.00000000000E+00  0.00000000000E+00  0.11970190250E+03  0.11970190250E+03  0.00000000000E+00 0.  1.
          1   -1    0    0  501    0  0.00000000000E+00 -0.00000000000E+00 -0.11444681656E+03  0.11444681656E+03  0.00000000000E+00 0. -1.
          5    1    1    2  502    0 -0.15854753159E+02  0.58272671418E+02  0.14627060484E+02  0.62314671871E+02  0.47000000000E+01 0.  1.
         -5    1    1    2    0  502  0.33714950310E+01 -0.44224375535E+02 -0.54090950630E+02  0.70107655147E+02  0.47000000000E+01 0.  1.
        -11    1    1    2    0    0  0.38609717607E+01  0.35355650927E+02  0.36398977555E+02  0.50890222268E+02  0.00000000000E+00 0.  1.
         11    1    1    2    0    0  0.86222863675E+01 -0.49403946811E+02  0.83199985292E+01  0.50836169783E+02  0.00000000000E+00 0. -1.
<mgrwt>
<rscale>  0 0.11655330E+03</rscale>
<asrwt>0</asrwt>
<pdfrwt beam="2">  1        1 0.17607203E-01 0.12640520E+03</pdfrwt>
<pdfrwt beam="1">  1       -1 0.18415677E-01 0.12640520E+03</pdfrwt>
<totfact> 0.65707376E+03</totfact>
</mgrwt>
</event>
<event>
 6    1  0.5258538E-006  0.2859890E+03  0.7546771E-02  0.1092462E+00
          2   -1    0    0  501    0  0.00000000000E+00  0.00000000000E+00  0.13579426173E+04  0.13579426173E+04  0.00000000000E+00 0. -1.
         -2   -1    0    0    0  501 -0.00000000000E+00 -0.00000000000E+00 -0.15057648325E+02  0.15057648325E+02  0.00000000000E+00 0.  1.
          5    1    1    2  502    0 -0.16576730068E+02 -0.40029651154E+01  0.12565914338E+02  0.21698016328E+02  0.47000000000E+01 0. -1.
         -5    1    1    2    0  502 -0.53913130075E+02 -0.30419838679E+02  0.95962448925E+03  0.96163051249E+03  0.47000000000E+01 0. -1.
        -11    1    1    2    0    0  0.31453867797E+02 -0.28784257821E+02  0.94733597310E+02  0.10388615768E+03  0.00000000000E+00 0. -1.
         11    1    1    2    0    0  0.39035992345E+02  0.63207061615E+02  0.27596096806E+03  0.28578557911E+03  0.00000000000E+00 0.  1.
<mgrwt>
<rscale>  0 0.28598897E+03</rscale>
<asrwt>0</asrwt>
<pdfrwt beam="1">  1        2 0.20891415E+00 0.28598897E+03</pdfrwt>
<pdfrwt beam="2">  1       -2 0.23165624E-02 0.28598897E+03</pdfrwt>
<totfact> 0.10145983E+04</totfact>
</mgrwt>
</event>
<event>
 6    1  0.5258538E-006  0.1537221E+03  0.7546771E-02  0.1204437E+00
         -2   -1    0    0    0  501 -0.00000000000E+00  0.00000000000E+00  0.45582539515E+02  0.45582539515E+02  0.00000000000E+00 0.  1.
          2   -1    0    0  501    0  0.00000000000E+00 -0.00000000000E+00 -0.49227066520E+03  0.49227066520E+03  0.00000000000E+00 0. -1.
          5    1    1    2  502    0 -0.93450405825E+02 -0.35994676677E+02 -0.25261316611E+03  0.27177950031E+03  0.47000000000E+01 0.  1.
         -5    1    1    2    0  502  0.37391285282E+02 -0.33738211852E+02 -0.80174491440E+02  0.94796699476E+02  0.47000000000E+01 0.  1.
        -11    1    1    2    0    0 -0.37552577755E+01 -0.14301106210E+02  0.33010300987E+01  0.15149930676E+02  0.00000000000E+00 0.  1.
         11    1    1    2    0    0  0.59814378319E+02  0.84033994739E+02 -0.11720149824E+03  0.15612707425E+03  0.00000000000E+00 0. -1.
<mgrwt>
<rscale>  0 0.14681940E+03</rscale>
<asrwt>0</asrwt>
<pdfrwt beam="2">  1        2 0.75733952E-01 0.15372210E+03</pdfrwt>
<pdfrwt beam="1">  1       -2 0.70126981E-02 0.15372210E+03</pdfrwt>
<totfact> 0.71049481E+03</totfact>
</mgrwt>
</event>
<event>
 6    1  0.5258538E-006  0.1495334E+03  0.7546771E-02  0.1210319E+00
          2   -1    0    0  501    0  0.00000000000E+00  0.00000000000E+00  0.27764027170E+03  0.27764027170E+03  0.00000000000E+00 0. -1.
         -2   -1    0    0    0  501 -0.00000000000E+00 -0.00000000000E+00 -0.72017305014E+02  0.72017305014E+02  0.00000000000E+00 0.  1.
          5    1    1    2  502    0  0.79787041029E+02 -0.48841129904E+02  0.46016767944E+02  0.10436024539E+03  0.47000000000E+01 0. -1.
         -5    1    1    2    0  502 -0.87660869771E+01  0.77460714030E+01  0.11383021761E+03  0.11452621684E+03  0.47000000000E+01 0. -1.
        -11    1    1    2    0    0  0.15054781110E+01  0.15491678913E+02 -0.22880381228E+02  0.27672557254E+02  0.00000000000E+00 0.  1.
         11    1    1    2    0    0 -0.72526432163E+02  0.25603379588E+02  0.68656362353E+02  0.10309855722E+03  0.00000000000E+00 0. -1.
<mgrwt>
<rscale>  0 0.14226085E+03</rscale>
<asrwt>0</asrwt>
<pdfrwt beam="1">  1        2 0.42713887E-01 0.14953336E+03</pdfrwt>
<pdfrwt beam="2">  1       -2 0.11079586E-01 0.14953336E+03</pdfrwt>
<totfact> 0.64224043E+03</totfact>
</mgrwt>
</event>
<event>
 6    1  0.5258538E-006  0.2234533E+03  0.7546771E-02  0.1134368E+00
         -2   -1    0    0    0  501 -0.00000000000E+00  0.00000000000E+00  0.21134908745E+03  0.21134908745E+03  0.00000000000E+00 0.  1.
          2   -1    0    0  501    0  0.00000000000E+00 -0.00000000000E+00 -0.22001545178E+03  0.22001545178E+03  0.00000000000E+00 0. -1.
          5    1    1    2  502    0  0.11388979872E+03 -0.93560233429E+02  0.54006000436E+02  0.15704503053E+03  0.47000000000E+01 0.  1.
         -5    1    1    2    0  502  0.43282248888E+02 -0.44335058545E+01 -0.49997338691E+02  0.66444209072E+02  0.47000000000E+01 0.  1.
        -11    1    1    2    0    0 -0.99421524582E+02  0.87761157166E+01 -0.18201532954E+02  0.10145420425E+03  0.00000000000E+00 0. -1.
         11    1    1    2    0    0 -0.57750523021E+02  0.89217623567E+02  0.55265068831E+01  0.10642109538E+03  0.00000000000E+00 0.  1.
<mgrwt>
<rscale>  0 0.21935047E+03</rscale>
<asrwt>0</asrwt>
<pdfrwt beam="2">  1        2 0.33848531E-01 0.22345329E+03</pdfrwt>
<pdfrwt beam="1">  1       -2 0.32515244E-01 0.22345329E+03</pdfrwt>
<totfact> 0.13463010E+03</totfact>
</mgrwt>
</event>
<event>
 6    1  0.5258538E-006  0.1350348E+03  0.7546771E-02  0.1234551E+00
          2   -1    0    0  501    0  0.00000000000E+00  0.00000000000E+00  0.68310456184E+03  0.68310456184E+03  0.00000000000E+00 0.  1.
         -2   -1    0    0    0  501 -0.00000000000E+00 -0.00000000000E+00 -0.30231806933E+02  0.30231806933E+02  0.00000000000E+00 0. -1.
          5    1    1    2  502    0  0.72997450208E+02 -0.57190619318E+02  0.40374752921E+03  0.41428679923E+03  0.47000000000E+01 0. -1.
         -5    1    1    2    0  502 -0.32682375291E+02  0.25821413427E+02  0.15846607068E+03  0.16391604132E+03  0.47000000000E+01 0. -1.
        -11    1    1    2    0    0  0.18539384796E+02  0.13401982659E+02 -0.29956440023E+01  0.23071536811E+02  0.00000000000E+00 0. -1.
         11    1    1    2    0    0 -0.58854459714E+02  0.17967223232E+02  0.93654799021E+02  0.11206199141E+03  0.00000000000E+00 0.  1.
<mgrwt>
<rscale>  0 0.12533192E+03</rscale>
<asrwt>0</asrwt>
<pdfrwt beam="1">  1        2 0.10509300E+00 0.13503478E+03</pdfrwt>
<pdfrwt beam="2">  1       -2 0.46510477E-02 0.13503478E+03</pdfrwt>
<totfact> 0.90565421E+03</totfact>
</mgrwt>
</event>
<event>
 6    1  0.5258538E-006  0.3276090E+03  0.7546771E-02  0.1072200E+00
          1   -1    0    0  501    0  0.00000000000E+00  0.00000000000E+00  0.11091315503E+03  0.11091315503E+03  0.00000000000E+00 0. -1.
         -1   -1    0    0    0  501 -0.00000000000E+00 -0.00000000000E+00 -0.24191817565E+03  0.24191817565E+03  0.00000000000E+00 0.  1.
          5    1    1    2  502    0  0.20272536121E+02 -0.10457548679E+02  0.52741358473E+02  0.57654808462E+02  0.47000000000E+01 0. -1.
         -5    1    1    2    0  502 -0.64623268701E+02 -0.64544999285E+02 -0.30338011446E+02  0.96357193446E+02  0.47000000000E+01 0. -1.
        -11    1    1    2    0    0  0.13702892782E+02  0.48143585201E+02 -0.14976100042E+03  0.15790481725E+03  0.00000000000E+00 0.  1.
         11    1    1    2    0    0  0.30647839798E+02  0.26858962763E+02 -0.36473672280E+01  0.40914511517E+02  0.00000000000E+00 0. -1.
<mgrwt>
<rscale>  0 0.32760896E+03</rscale>
<asrwt>0</asrwt>
<pdfrwt beam="1">  1        1 0.17063562E-01 0.32760896E+03</pdfrwt>
<pdfrwt beam="2">  1       -1 0.37218181E-01 0.32760896E+03</pdfrwt>
<totfact> 0.22106526E+03</totfact>
</mgrwt>
</event>
<event>
 6    1  0.5258538E-006  0.1273818E+03  0.7546771E-02  0.1245825E+00
          2   -1    0    0  501    0  0.00000000000E+00  0.00000000000E+00  0.69266249071E+03  0.69266249071E+03  0.00000000000E+00 0. -1.
         -2   -1    0    0    0  501 -0.00000000000E+00 -0.00000000000E+00 -0.21089014446E+02  0.21089014446E+02  0.00000000000E+00 0.  1.
          5    1    1    2  502    0 -0.51700901456E+02  0.24210076454E+02  0.23670624590E+03  0.24353859625E+03  0.47000000000E+01 0.  1.
         -5    1    1    2    0  502  0.69536155111E+02 -0.73428130278E+01  0.27928589501E+03  0.28794425662E+03  0.47000000000E+01 0.  1.
        -11    1    1    2    0    0 -0.32485249147E+02 -0.43715504318E+02  0.56088884677E+02  0.78181197958E+02  0.00000000000E+00 0.  1.
         11    1    1    2    0    0  0.14649995492E+02  0.26848240891E+02  0.99492450670E+02  0.10408745432E+03  0.00000000000E+00 0. -1.
<mgrwt>
<rscale>  0 0.11836117E+03</rscale>
<asrwt>0</asrwt>
<pdfrwt beam="1">  1        2 0.10656344E+00 0.12738184E+03</pdfrwt>
<pdfrwt beam="2">  1       -2 0.32444643E-02 0.12738184E+03</pdfrwt>
<totfact> 0.15138466E+04</totfact>
</mgrwt>
</event>
<event>
 6    1  0.5258538E-006  0.1335619E+03  0.7546771E-02  0.1230800E+00
          2   -1    0    0  501    0  0.00000000000E+00  0.00000000000E+00  0.10288467476E+04  0.10288467476E+04  0.00000000000E+00 0. -1.
         -2   -1    0    0    0  501 -0.00000000000E+00 -0.00000000000E+00 -0.16196116295E+02  0.16196116295E+02  0.00000000000E+00 0.  1.
          5    1    1    2  502    0  0.38805805811E+02  0.56155371232E+02  0.51448679650E+03  0.51901644488E+03  0.47000000000E+01 0. -1.
         -5    1    1    2    0  502  0.26571578422E+02 -0.49178474346E+02  0.19388107110E+03  0.20183292806E+03  0.47000000000E+01 0. -1.
        -11    1    1    2    0    0 -0.64844122982E+02  0.27126804645E+02  0.14297020338E+03  0.15931447791E+03  0.00000000000E+00 0.  1.
         11    1    1    2    0    0 -0.53326125194E+00 -0.34103701531E+02  0.16131256030E+03  0.16487901303E+03  0.00000000000E+00 0. -1.
<mgrwt>
<rscale>  0 0.12777149E+03</rscale>
<asrwt>0</asrwt>
<pdfrwt beam="1">  1        2 0.15828406E+00 0.13356191E+03</pdfrwt>
<pdfrwt beam="2">  1       -2 0.24917110E-02 0.13356191E+03</pdfrwt>
<totfact> 0.13504703E+04</totfact>
</mgrwt>
</event>
<event>
 6    1  0.5258538E-006  0.1601759E+03  0.7546771E-02  0.1196533E+00
          1   -1    0    0  501    0  0.00000000000E+00  0.00000000000E+00  0.62866472027E+03  0.62866472027E+03  0.00000000000E+00 0. -1.
         -1   -1    0    0    0  501 -0.00000000000E+00 -0.00000000000E+00 -0.49639280528E+02  0.49639280528E+02  0.00000000000E+00 0.  1.
          5    1    1    2  502    0 -0.37162807460E+02 -0.20873889702E+02  0.68065785176E+02  0.80447713710E+02  0.47000000000E+01 0. -1.
         -5    1    1    2    0  502 -0.18742092366E+02  0.10397550858E+03  0.42616304313E+03  0.43908905901E+03  0.47000000000E+01 0. -1.
        -11    1    1    2    0    0  0.15076837416E+02 -0.84308174103E+02  0.30699225670E+02  0.90981436040E+02  0.00000000000E+00 0.  1.
         11    1    1    2    0    0  0.40828062410E+02  0.12065552250E+01  0.54097385764E+02  0.67785792037E+02  0.00000000000E+00 0. -1.
<mgrwt>
<rscale>  0 0.15325227E+03</rscale>
<asrwt>0</asrwt>
<pdfrwt beam="1">  1        1 0.96717644E-01 0.16017591E+03</pdfrwt>
<pdfrwt beam="2">  1       -1 0.76368128E-02 0.16017591E+03</pdfrwt>
<totfact> 0.29922299E+03</totfact>
</mgrwt>
</event>
<event>
 6    1  0.5258538E-006  0.2446660E+03  0.7546771E-02  0.1145052E+00
          1   -1    0    0  501    0  0.00000000000E+00  0.00000000000E+00  0.16786685832E+04  0.16786685832E+04  0.00000000000E+00 0. -1.
         -1   -1    0    0    0  501 -0.00000000000E+00 -0.00000000000E+00 -0.32913673302E+02  0.32913673302E+02  0.00000000000E+00 0.  1.
          5    1    1    2  502    0 -0.90319673765E+02 -0.35643242956E+02  0.13521179491E+04  0.13556080269E+04  0.47000000000E+01 0. -1.
         -5    1    1    2    0  502  0.60780325329E+02 -0.39727299476E+02  0.15486944823E+03  0.17111149075E+03  0.47000000000E+01 0.  1.
        -11    1    1    2    0    0 -0.19314586278E+02  0.60241391044E+02  0.10804040226E+03  0.12519906932E+03  0.00000000000E+00 0. -1.
         11    1    1    2    0    0  0.48853934714E+02  0.15129151388E+02  0.30727110318E+02  0.59663669576E+02  0.00000000000E+00 0.  1.
<mgrwt>
<rscale>  0 0.20565695E+03</rscale>
<asrwt>0</asrwt>
<pdfrwt beam="1">  1        1 0.25825664E+00 0.24466604E+03</pdfrwt>
<pdfrwt beam="2">  1       -1 0.50636434E-02 0.24466604E+03</pdfrwt>
<totfact> 0.94473556E+02</totfact>
</mgrwt>
</event>
<event>
 6    1  0.5258538E-006  0.1502503E+03  0.7546771E-02  0.1207576E+00
         -2   -1    0    0    0  501 -0.00000000000E+00  0.00000000000E+00  0.26919005424E+02  0.26919005424E+02  0.00000000000E+00 0.  1.
          2   -1    0    0  501    0  0.00000000000E+00 -0.00000000000E+00 -0.85241041661E+03  0.85241041661E+03  0.00000000000E+00 0. -1.
          5    1    1    2  502    0  0.78429542449E+02 -0.40461061501E+02 -0.48468686998E+03  0.49267813282E+03  0.47000000000E+01 0. -1.
         -5    1    1    2    0  502 -0.39764757196E+02 -0.33399176782E+02 -0.12912447440E+03  0.13925502079E+03  0.47000000000E+01 0. -1.
        -11    1    1    2    0    0 -0.63028871985E+02  0.39017561568E+02 -0.17909349309E+03  0.19382850173E+03  0.00000000000E+00 0. -1.
         11    1    1    2    0    0  0.24364086731E+02  0.34842676714E+02 -0.32586573707E+02  0.53567766696E+02  0.00000000000E+00 0.  1.
<mgrwt>
<rscale>  0 0.14436277E+03</rscale>
<asrwt>0</asrwt>
<pdfrwt beam="2">  1        2 0.13114008E+00 0.15025027E+03</pdfrwt>
<pdfrwt beam="1">  1       -2 0.41413851E-02 0.15025027E+03</pdfrwt>
<totfact> 0.82597518E+03</totfact>
</mgrwt>
</event>
<event>
 6    1  0.5258538E-006  0.1470753E+03  0.7546771E-02  0.1213556E+00
          1   -1    0    0  501    0  0.00000000000E+00  0.00000000000E+00  0.45207372519E+03  0.45207372519E+03  0.00000000000E+00 0. -1.
         -1   -1    0    0    0  501 -0.00000000000E+00 -0.00000000000E+00 -0.40194752882E+02  0.40194752882E+02  0.00000000000E+00 0.  1.
          5    1    1    2  502    0  0.80323390403E+02 -0.35583999581E+02  0.20430385293E+03  0.22244150331E+03  0.47000000000E+01 0. -1.
         -5    1    1    2    0  502 -0.41103735732E+02 -0.31207843423E+02  0.54301665834E+02  0.75061358198E+02  0.47000000000E+01 0. -1.
        -11    1    1    2    0    0 -0.40095695528E+02  0.86130631268E+02  0.14578348843E+03  0.17400855134E+03  0.00000000000E+00 0. -1.
         11    1    1    2    0    0  0.87604085677E+00 -0.19338788264E+02  0.74899651132E+01  0.20757065219E+02  0.00000000000E+00 0.  1.
<mgrwt>
<rscale>  0 0.13983118E+03</rscale>
<asrwt>0</asrwt>
<pdfrwt beam="1">  1        1 0.69549800E-01 0.14707528E+03</pdfrwt>
<pdfrwt beam="2">  1       -1 0.61838085E-02 0.14707528E+03</pdfrwt>
<totfact> 0.63473929E+03</totfact>
</mgrwt>
</event>
<event>
 6    1  0.5258538E-006  0.1275650E+03  0.7546771E-02  0.1245662E+00
          1   -1    0    0  501    0  0.00000000000E+00  0.00000000000E+00  0.16190962777E+03  0.16190962777E+03  0.00000000000E+00 0. -1.
         -1   -1    0    0    0  501 -0.00000000000E+00 -0.00000000000E+00 -0.94402344397E+02  0.94402344397E+02  0.00000000000E+00 0.  1.
          5    1    1    2  502    0  0.63503171532E+02  0.39061822623E+02  0.70722072944E+02  0.10286972530E+03  0.47000000000E+01 0. -1.
         -5    1    1    2    0  502 -0.39315937969E+02 -0.31077113166E+02  0.22540230369E+02  0.55151445368E+02  0.47000000000E+01 0. -1.
        -11    1    1    2    0    0  0.23274284508E+02  0.90685881192E+01  0.18588381251E+02  0.31136145031E+02  0.00000000000E+00 0.  1.
         11    1    1    2    0    0 -0.47461518071E+02 -0.17053297576E+02 -0.44343401194E+02  0.67154656467E+02  0.00000000000E+00 0. -1.
<mgrwt>
<rscale>  0 0.11845830E+03</rscale>
<asrwt>0</asrwt>
<pdfrwt beam="1">  1        1 0.24909174E-01 0.12756502E+03</pdfrwt>
<pdfrwt beam="2">  1       -1 0.14523438E-01 0.12756502E+03</pdfrwt>
<totfact> 0.61612448E+03</totfact>
</mgrwt>
</event>
<event>
 6    1  0.5258538E-006  0.1342237E+03  0.7546771E-02  0.1235802E+00
         -2   -1    0    0    0  501 -0.00000000000E+00  0.00000000000E+00  0.17762699735E+03  0.17762699735E+03  0.00000000000E+00 0.  1.
          2   -1    0    0  501    0  0.00000000000E+00 -0.00000000000E+00 -0.85537666604E+02  0.85537666604E+02  0.00000000000E+00 0. -1.
          5    1    1    2  502    0  0.34899488435E+02  0.11622322577E+02 -0.51923392903E+02  0.63805810125E+02  0.47000000000E+01 0. -1.
         -5    1    1    2    0  502  0.38735428842E+01 -0.32559725563E+02  0.62622583715E+02  0.70843616892E+02  0.47000000000E+01 0.  1.
        -11    1    1    2    0    0 -0.42158509509E+02 -0.13974060812E+02  0.82199014034E+02  0.93430681298E+02  0.00000000000E+00 0.  1.
         11    1    1    2    0    0  0.33854781892E+01  0.34911463798E+02 -0.80887409926E+00  0.35084555639E+02  0.00000000000E+00 0. -1.
<mgrwt>
<rscale>  0 0.12453210E+03</rscale>
<asrwt>0</asrwt>
<pdfrwt beam="2">  1        2 0.13159641E-01 0.13422368E+03</pdfrwt>
<pdfrwt beam="1">  1       -2 0.27327230E-01 0.13422368E+03</pdfrwt>
<totfact> 0.52571607E+03</totfact>
</mgrwt>
</event>
<event>
 6    1  0.5258538E-006  0.1679850E+03  0.7546771E-02  0.1186795E+00
          1   -1    0    0  501    0  0.00000000000E+00  0.00000000000E+00  0.60583827288E+03  0.60583827288E+03  0.00000000000E+00 0. -1.
         -1   -1    0    0    0  501 -0.00000000000E+00 -0.00000000000E+00 -0.41054138203E+02  0.41054138203E+02  0.00000000000E+00 0.  1.
          5    1    1    2  502    0 -0.36622356027E+01  0.10181319761E+03  0.16138167070E+03  0.19090697425E+03  0.47000000000E+01 0. -1.
         -5    1    1    2    0  502  0.57746762983E+02 -0.34771437189E+01  0.18809595999E+03  0.19684755353E+03  0.47000000000E+01 0. -1.
        -11    1    1    2    0    0 -0.23061685695E+02 -0.63870708203E+02  0.19853471774E+03  0.20982693550E+03  0.00000000000E+00 0. -1.
         11    1    1    2    0    0 -0.31022841686E+02 -0.34465345690E+02  0.16771786237E+02  0.49310947804E+02  0.00000000000E+00 0.  1.
<mgrwt>
<rscale>  0 0.16169596E+03</rscale>
<asrwt>0</asrwt>
<pdfrwt beam="1">  1        1 0.93205882E-01 0.16798500E+03</pdfrwt>
<pdfrwt beam="2">  1       -1 0.63160217E-02 0.16798500E+03</pdfrwt>
<totfact> 0.41988479E+03</totfact>
</mgrwt>
</event>
<event>
 6    1  0.5258538E-006  0.2704085E+03  0.7546771E-02  0.1118570E+00
          2   -1    0    0  501    0  0.00000000000E+00  0.00000000000E+00  0.46146633849E+03  0.46146633849E+03  0.00000000000E+00 0. -1.
         -2   -1    0    0    0  501 -0.00000000000E+00 -0.00000000000E+00 -0.12030227722E+03  0.12030227722E+03  0.00000000000E+00 0.  1.
          5    1    1    2  502    0  0.24699288636E+02 -0.10671323389E+03  0.27728012037E+03  0.29816794646E+03  0.47000000000E+01 0. -1.
         -5    1    1    2    0  502  0.99239746045E+02  0.28240899873E+02  0.22799460123E+02  0.10577325277E+03  0.47000000000E+01 0.  1.
        -11    1    1    2    0    0 -0.44220766718E+02 -0.80501575271E+01  0.40008014487E+02  0.60174101311E+02  0.00000000000E+00 0. -1.
         11    1    1    2    0    0 -0.79718267963E+02  0.86522491544E+02  0.10764662894E+01  0.11765331517E+03  0.00000000000E+00 0.  1.
<mgrwt>
<rscale>  0 0.24184493E+03</rscale>
<asrwt>0</asrwt>
<pdfrwt beam="1">  1        2 0.70994821E-01 0.27040846E+03</pdfrwt>
<pdfrwt beam="2">  1       -2 0.18508043E-01 0.27040846E+03</pdfrwt>
<totfact> 0.16345179E+03</totfact>
</mgrwt>
</event>
<event>
 6    1  0.5258538E-006  0.1471654E+03  0.7546771E-02  0.1213365E+00
          1   -1    0    0  501    0  0.00000000000E+00  0.00000000000E+00  0.32786274285E+03  0.32786274285E+03  0.00000000000E+00 0. -1.
         -1   -1    0    0    0  501 -0.00000000000E+00 -0.00000000000E+00 -0.54694660435E+02  0.54694660435E+02  0.00000000000E+00 0.  1.
          5    1    1    2  502    0  0.37278151415E+02 -0.33339854741E+02  0.86692340947E+02  0.10019410395E+03  0.47000000000E+01 0. -1.
         -5    1    1    2    0  502 -0.83483544065E+02 -0.29100765846E+02  0.55804320901E+02  0.10465452180E+03  0.47000000000E+01 0. -1.
        -11    1    1    2    0    0  0.11528420639E+02 -0.24186063050E+02  0.34878669136E+02  0.43981719941E+02  0.00000000000E+00 0. -1.
         11    1    1    2    0    0  0.34676972011E+02  0.86626683637E+02  0.95792751430E+02  0.13372705759E+03  0.00000000000E+00 0.  1.
<mgrwt>
<rscale>  0 0.13997340E+03</rscale>
<asrwt>0</asrwt>
<pdfrwt beam="1">  1        1 0.50440421E-01 0.14716542E+03</pdfrwt>
<pdfrwt beam="2">  1       -1 0.84145633E-02 0.14716542E+03</pdfrwt>
<totfact> 0.59888160E+03</totfact>
</mgrwt>
</event>
<event>
 6    1  0.5258538E-006  0.2336524E+03  0.7546771E-02  0.1126991E+00
          1   -1    0    0  501    0  0.00000000000E+00  0.00000000000E+00  0.56673047951E+03  0.56673047951E+03  0.00000000000E+00 0. -1.
         -1   -1    0    0    0  501 -0.00000000000E+00 -0.00000000000E+00 -0.10224953219E+03  0.10224953219E+03  0.00000000000E+00 0.  1.
          5    1    1    2  502    0 -0.40422265358E+02  0.19498499715E+03  0.34258740284E+03  0.39628440196E+03  0.47000000000E+01 0. -1.
         -5    1    1    2    0  502 -0.24566676168E+02 -0.85867041125E+01  0.13698067240E+02  0.29782211328E+02  0.47000000000E+01 0. -1.
        -11    1    1    2    0    0 -0.21249218341E+02 -0.58161101990E+02  0.41844192099E+02  0.74734058349E+02  0.00000000000E+00 0. -1.
         11    1    1    2    0    0  0.86238159867E+02 -0.12823719105E+03  0.66351285137E+02  0.16817934006E+03  0.00000000000E+00 0.  1.
<mgrwt>
<rscale>  0 0.22950176E+03</rscale>
<asrwt>0</asrwt>
<pdfrwt beam="1">  1        1 0.87189303E-01 0.23365235E+03</pdfrwt>
<pdfrwt beam="2">  1       -1 0.15730698E-01 0.23365235E+03</pdfrwt>
<totfact> 0.11344665E+03</totfact>
</mgrwt>
</event>
<event>
 6    1  0.5258538E-006  0.1853035E+03  0.7546771E-02  0.1167799E+00
         -1   -1    0    0    0  501 -0.00000000000E+00  0.00000000000E+00  0.13582708240E+04  0.13582708240E+04  0.00000000000E+00 0.  1.
          1   -1    0    0  501    0  0.00000000000E+00 -0.00000000000E+00 -0.22641604009E+02  0.22641604009E+02  0.00000000000E+00 0. -1.
          5    1    1    2  502    0 -0.12127057641E+02 -0.82062792874E+02  0.42075919706E+03  0.42888431938E+03  0.47000000000E+01 0.  1.
         -5    1    1    2    0  502  0.94041142851E+02 -0.27507201085E+02  0.31980136859E+03  0.33450768005E+03  0.47000000000E+01 0.  1.
        -11    1    1    2    0    0 -0.57052258965E+02  0.16514409690E+02  0.33422359537E+03  0.33946000896E+03  0.00000000000E+00 0.  1.
         11    1    1    2    0    0 -0.24861826245E+02  0.93055584269E+02  0.26084505895E+03  0.27806041960E+03  0.00000000000E+00 0. -1.
<mgrwt>
<rscale>  0 0.18000447E+03</rscale>
<asrwt>0</asrwt>
<pdfrwt beam="2">  1        1 0.34833248E-02 0.18530352E+03</pdfrwt>
<pdfrwt beam="1">  1       -1 0.20896468E+00 0.18530352E+03</pdfrwt>
<totfact> 0.40176739E+02</totfact>
</mgrwt>
</event>
<event>
 6    1  0.5258538E-006  0.1369230E+03  0.7546771E-02  0.1230899E+00
          4   -1    0    0  501    0  0.00000000000E+00  0.00000000000E+00  0.57598512513E+03  0.57598512513E+03  0.00000000000E+00 0.  1.
         -4   -1    0    0    0  501 -0.00000000000E+00 -0.00000000000E+00 -0.28466886273E+02  0.28466886273E+02  0.00000000000E+00 0. -1.
          5    1    1    2  502    0 -0.24324033028E+01  0.85617830161E+02  0.19681180768E+03  0.21469351893E+03  0.47000000000E+01 0.  1.
         -5    1    1    2    0  502  0.25584086545E+02 -0.34757406509E+02  0.21325064635E+03  0.21762479399E+03  0.47000000000E+01 0.  1.
        -11    1    1    2    0    0  0.32630066433E+02 -0.24411111780E+02  0.67368144971E+02  0.78734303646E+02  0.00000000000E+00 0.  1.
         11    1    1    2    0    0 -0.55781749676E+02 -0.26449311871E+02  0.70087639854E+02  0.93399394835E+02  0.00000000000E+00 0. -1.
<mgrwt>
<rscale>  0 0.12770626E+03</rscale>
<asrwt>0</asrwt>
<pdfrwt beam="1">  1        4 0.88613088E-01 0.13692300E+03</pdfrwt>
<pdfrwt beam="2">  1       -4 0.43795214E-02 0.13692300E+03</pdfrwt>
<totfact> 0.55543475E+02</totfact>
</mgrwt>
</event>
<event>
 6    1  0.5258538E-006  0.1646839E+03  0.7546771E-02  0.1190359E+00
          2   -1    0    0  501    0  0.00000000000E+00  0.00000000000E+00  0.41984614124E+03  0.41984614124E+03  0.00000000000E+00 0. -1.
         -2   -1    0    0    0  501 -0.00000000000E+00 -0.00000000000E+00 -0.67071633311E+02  0.67071633311E+02  0.00000000000E+00 0.  1.
          5    1    1    2  502    0 -0.87598974089E+02  0.31478959379E+02  0.11847494598E+03  0.15074119533E+03  0.47000000000E+01 0.  1.
         -5    1    1    2    0  502 -0.15078514267E+02 -0.61660083158E+02  0.16862071757E+03  0.18023419166E+03  0.47000000000E+01 0.  1.
        -11    1    1    2    0    0  0.47554006553E+02  0.51315482989E+02  0.67031098025E+02  0.96890817089E+02  0.00000000000E+00 0.  1.
         11    1    1    2    0    0  0.55123481802E+02 -0.21134359210E+02 -0.13522536512E+01  0.59051570472E+02  0.00000000000E+00 0. -1.
<mgrwt>
<rscale>  0 0.15853634E+03</rscale>
<asrwt>0</asrwt>
<pdfrwt beam="1">  1        2 0.64591713E-01 0.16468390E+03</pdfrwt>
<pdfrwt beam="2">  1       -2 0.10318713E-01 0.16468390E+03</pdfrwt>
<totfact> 0.46467757E+03</totfact>
</mgrwt>
</event>
<event>
 6    1  0.5258538E-006  0.1582785E+03  0.7546771E-02  0.1208746E+00
         -1   -1    0    0    0  501 -0.00000000000E+00  0.00000000000E+00  0.47780846315E+02  0.47780846315E+02  0.00000000000E+00 0.  1.
          1   -1    0    0  501    0  0.00000000000E+00 -0.00000000000E+00 -0.42745692709E+03  0.42745692709E+03  0.00000000000E+00 0. -1.
          5    1    1    2  502    0 -0.35861035457E+02  0.30048896915E+02 -0.15473717277E+03  0.16172393981E+03  0.47000000000E+01 0. -1.
         -5    1    1    2    0  502  0.30128439319E+02 -0.98309665711E+02 -0.15417693596E+03  0.18537834504E+03  0.47000000000E+01 0.  1.
        -11    1    1    2    0    0  0.47216601746E+01  0.87192434657E+02 -0.52938042039E+02  0.10211391204E+03  0.00000000000E+00 0.  1.
         11    1    1    2    0    0  0.10109359628E+01 -0.18931665861E+02 -0.17823930004E+02  0.26021576520E+02  0.00000000000E+00 0. -1.
<mgrwt>
<rscale>  0 0.14346103E+03</rscale>
<asrwt>0</asrwt>
<pdfrwt beam="2">  1        1 0.65762605E-01 0.15827846E+03</pdfrwt>
<pdfrwt beam="1">  1       -1 0.73508994E-02 0.15827846E+03</pdfrwt>
<totfact> 0.52818377E+03</totfact>
</mgrwt>
</event>
<event>
 6    1  0.5258538E-006  0.2992407E+03  0.7546771E-02  0.1085621E+00
          1   -1    0    0  501    0  0.00000000000E+00  0.00000000000E+00  0.52020985148E+03  0.52020985148E+03  0.00000000000E+00 0. -1.
         -1   -1    0    0    0  501 -0.00000000000E+00 -0.00000000000E+00 -0.43033124801E+02  0.43033124801E+02  0.00000000000E+00 0.  1.
          5    1    1    2  502    0 -0.36042473234E+01  0.10821497581E+01 -0.84181283583E+01  0.10349711683E+02  0.47000000000E+01 0. -1.
         -5    1    1    2    0  502  0.30198050064E+02 -0.69170680021E+02  0.40150313238E+03  0.40856255398E+03  0.47000000000E+01 0. -1.
        -11    1    1    2    0    0 -0.80007601705E+01  0.48371261743E+02 -0.67879976468E+01  0.49496141647E+02  0.00000000000E+00 0.  1.
         11    1    1    2    0    0 -0.18593042570E+02  0.19717268520E+02  0.90879720309E+02  0.94834568978E+02  0.00000000000E+00 0. -1.
<mgrwt>
<rscale>  0 0.29924074E+03</rscale>
<asrwt>0</asrwt>
<pdfrwt beam="1">  1        1 0.80032280E-01 0.29924074E+03</pdfrwt>
<pdfrwt beam="2">  1       -1 0.66204811E-02 0.29924074E+03</pdfrwt>
<totfact> 0.49191177E+03</totfact>
</mgrwt>
</event>
<event>
 6    1  0.5258538E-006  0.1492734E+03  0.7546771E-02  0.1210638E+00
          1   -1    0    0  501    0  0.00000000000E+00  0.00000000000E+00  0.80521221747E+02  0.80521221747E+02  0.00000000000E+00 0.  1.
         -1   -1    0    0    0  501 -0.00000000000E+00 -0.00000000000E+00 -0.30833027843E+03  0.30833027843E+03  0.00000000000E+00 0. -1.
          5    1    1    2  502    0 -0.43511293800E+02 -0.30054721682E+02  0.20993536009E+02  0.57090608139E+02  0.47000000000E+01 0.  1.
         -5    1    1    2    0  502  0.67043098124E+02 -0.48073920131E+02 -0.45033173706E+02  0.94106086609E+02  0.47000000000E+01 0.  1.
        -11    1    1    2    0    0 -0.29426591044E+02  0.40420849814E+02 -0.27020066293E+02  0.56831798693E+02  0.00000000000E+00 0. -1.
         11    1    1    2    0    0  0.58947867199E+01  0.37707791999E+02 -0.17674935269E+03  0.18082300674E+03  0.00000000000E+00 0.  1.
<mgrwt>
<rscale>  0 0.14201863E+03</rscale>
<asrwt>0</asrwt>
<pdfrwt beam="1">  1        1 0.12387880E-01 0.14927336E+03</pdfrwt>
<pdfrwt beam="2">  1       -1 0.47435427E-01 0.14927336E+03</pdfrwt>
<totfact> 0.21246531E+03</totfact>
</mgrwt>
</event>
<event>
 6    1  0.6237058E-006  0.2943131E+03  0.7546771E-02  0.1089763E+00
          1   -1    0    0  501    0  0.00000000000E+00  0.00000000000E+00  0.50653632168E+03  0.50653632168E+03  0.00000000000E+00 0. -1.
         -1   -1    0    0    0  501 -0.00000000000E+00 -0.00000000000E+00 -0.16860460088E+03  0.16860460088E+03  0.00000000000E+00 0.  1.
          5    1    1    2  502    0  0.14621597775E+02  0.33405969356E+01 -0.43476725213E+01  0.16307757839E+02  0.47000000000E+01 0. -1.
         -5    1    1    2    0  502 -0.35800161658E+01 -0.26956085175E+03  0.23388500557E+03  0.35693158328E+03  0.47000000000E+01 0. -1.
        -11    1    1    2    0    0 -0.20574963931E+02  0.98872667473E+01  0.20700152765E+02  0.30815312898E+02  0.00000000000E+00 0.  1.
         11    1    1    2    0    0  0.95333823215E+01  0.25633298806E+03  0.87694234981E+02  0.27108626855E+03  0.00000000000E+00 0. -1.
<mgrwt>
<rscale>  0 0.29112636E+03</rscale>
<asrwt>0</asrwt>
<pdfrwt beam="1">  1        1 0.77928664E-01 0.29431313E+03</pdfrwt>
<pdfrwt beam="2">  1       -1 0.25939170E-01 0.29431313E+03</pdfrwt>
<totfact> 0.58290008E+02</totfact>
</mgrwt>
</event>
<event>
 6    1  0.5258538E-006  0.2237833E+03  0.7546771E-02  0.1134759E+00
          2   -1    0    0  501    0  0.00000000000E+00  0.00000000000E+00  0.33452278062E+04  0.33452278062E+04  0.00000000000E+00 0. -1.
         -2   -1    0    0    0  501 -0.00000000000E+00 -0.00000000000E+00 -0.15227678131E+02  0.15227678131E+02  0.00000000000E+00 0.  1.
          5    1    1    2  502    0  0.13678097077E+01 -0.18680173387E+02  0.30374675118E+03  0.30435998199E+03  0.47000000000E+01 0. -1.
         -5    1    1    2    0  502  0.74171930715E+02  0.18823042021E+03  0.19574021010E+04  0.19678356744E+04  0.47000000000E+01 0. -1.
        -11    1    1    2    0    0 -0.58157933699E+02 -0.33585665599E+02  0.32090642144E+03  0.32785861817E+03  0.00000000000E+00 0.  1.
         11    1    1    2    0    0 -0.17381806724E+02 -0.13596458122E+03  0.74794485447E+03  0.76040120981E+03  0.00000000000E+00 0. -1.
<mgrwt>
<rscale>  0 0.21882855E+03</rscale>
<asrwt>0</asrwt>
<pdfrwt beam="1">  1        2 0.51464985E+00 0.22378331E+03</pdfrwt>
<pdfrwt beam="2">  1       -2 0.23427224E-02 0.22378331E+03</pdfrwt>
<totfact> 0.79130269E+02</totfact>
</mgrwt>
</event>
<event>
 6    1  0.5258538E-006  0.1227911E+03  0.7546771E-02  0.1307056E+00
          2   -1    0    0  501    0  0.00000000000E+00  0.00000000000E+00  0.18337844013E+04  0.18337844013E+04  0.00000000000E+00 0.  1.
         -2   -1    0    0    0  501 -0.00000000000E+00 -0.00000000000E+00 -0.37434430675E+01  0.37434430675E+01  0.00000000000E+00 0. -1.
          5    1    1    2  502    0 -0.15112224329E+02 -0.37882764547E+02  0.21187472692E+03  0.21581583139E+03  0.47000000000E+01 0. -1.
         -5    1    1    2    0  502  0.28837588613E+02  0.30914846431E+02  0.14349512058E+04  0.14355815502E+04  0.47000000000E+01 0.  1.
        -11    1    1    2    0    0  0.43898445713E+01  0.12976625318E+02  0.80502397495E+02  0.81659656762E+02  0.00000000000E+00 0.  1.
         11    1    1    2    0    0 -0.18115208855E+02 -0.60087072022E+01  0.10271262804E+03  0.10447080603E+03  0.00000000000E+00 0. -1.
<mgrwt>
<rscale>  0 0.88286090E+02</rscale>
<asrwt>0</asrwt>
<pdfrwt beam="1">  1        2 0.28211996E+00 0.12279112E+03</pdfrwt>
<pdfrwt beam="2">  1       -2 0.57591578E-03 0.12279112E+03</pdfrwt>
<totfact> 0.40949695E+04</totfact>
</mgrwt>
</event>
<event>
 6    1  0.5258538E-006  0.2996737E+03  0.7546771E-02  0.1085404E+00
          2   -1    0    0  501    0  0.00000000000E+00  0.00000000000E+00  0.10704829373E+03  0.10704829373E+03  0.00000000000E+00 0. -1.
         -2   -1    0    0    0  501 -0.00000000000E+00 -0.00000000000E+00 -0.20972851462E+03  0.20972851462E+03  0.00000000000E+00 0.  1.
          5    1    1    2  502    0 -0.22006975462E+02 -0.17918353563E+00  0.21610563950E+02  0.31200088942E+02  0.47000000000E+01 0. -1.
         -5    1    1    2    0  502  0.11664756817E+03 -0.41158577780E+02 -0.49530023398E+02  0.13332665489E+03  0.47000000000E+01 0. -1.
        -11    1    1    2    0    0 -0.58548664984E+02 -0.18516425003E+02 -0.45744005066E+02  0.76572306781E+02  0.00000000000E+00 0.  1.
         11    1    1    2    0    0 -0.36091927726E+02  0.59854186319E+02 -0.29016756373E+02  0.75677757745E+02  0.00000000000E+00 0. -1.
<mgrwt>
<rscale>  0 0.29967369E+03</rscale>
<asrwt>0</asrwt>
<pdfrwt beam="1">  1        2 0.16468968E-01 0.29967369E+03</pdfrwt>
<pdfrwt beam="2">  1       -2 0.32265925E-01 0.29967369E+03</pdfrwt>
<totfact> 0.31144610E+03</totfact>
</mgrwt>
</event>
<event>
 6    1  0.5258538E-006  0.2419395E+03  0.7546771E-02  0.1121142E+00
         -2   -1    0    0    0  501 -0.00000000000E+00  0.00000000000E+00  0.93506680986E+02  0.93506680986E+02  0.00000000000E+00 0.  1.
          2   -1    0    0  501    0  0.00000000000E+00 -0.00000000000E+00 -0.64252236968E+03  0.64252236968E+03  0.00000000000E+00 0. -1.
          5    1    1    2  502    0  0.90372308152E+02  0.62809338371E+02 -0.87987798075E+02  0.14098265736E+03  0.47000000000E+01 0. -1.
         -5    1    1    2    0  502  0.63389987344E+02  0.75997178161E+02 -0.30319919978E+03  0.31897602783E+03  0.47000000000E+01 0. -1.
        -11    1    1    2    0    0 -0.64051991646E+02 -0.70540483816E+02 -0.18864702739E+02  0.97131326050E+02  0.00000000000E+00 0. -1.
         11    1    1    2    0    0 -0.89710303850E+02 -0.68266032717E+02 -0.13896398809E+03  0.17893903942E+03  0.00000000000E+00 0.  1.
<mgrwt>
<rscale>  0 0.23798523E+03</rscale>
<asrwt>0</asrwt>
<pdfrwt beam="2">  1        2 0.98849593E-01 0.24193951E+03</pdfrwt>
<pdfrwt beam="1">  1       -2 0.14385644E-01 0.24193951E+03</pdfrwt>
<totfact> 0.17039420E+03</totfact>
</mgrwt>
</event>
<event>
 6    1  0.5258538E-006  0.3617471E+03  0.7546771E-02  0.1057894E+00
         -2   -1    0    0    0  501 -0.00000000000E+00  0.00000000000E+00  0.51019533794E+02  0.51019533794E+02  0.00000000000E+00 0.  1.
          2   -1    0    0  501    0  0.00000000000E+00 -0.00000000000E+00 -0.64122956388E+03  0.64122956388E+03  0.00000000000E+00 0. -1.
          5    1    1    2  502    0  0.35597337056E+01  0.81820995899E+01  0.78571994391E+01  0.12784523487E+02  0.47000000000E+01 0. -1.
         -5    1    1    2    0  502  0.33212317738E+02  0.12159657243E+03 -0.41987734966E+03  0.43841517222E+03  0.47000000000E+01 0. -1.
        -11    1    1    2    0    0 -0.22070434365E+02 -0.46280917071E+01  0.30956902425E+00  0.22552586080E+02  0.00000000000E+00 0.  1.
         11    1    1    2    0    0 -0.14701617079E+02 -0.12515058031E+03 -0.17849944889E+03  0.21849681588E+03  0.00000000000E+00 0. -1.
<mgrwt>
<rscale>  0 0.36174706E+03</rscale>
<asrwt>0</asrwt>
<pdfrwt beam="2">  1        2 0.98650700E-01 0.36174706E+03</pdfrwt>
<pdfrwt beam="1">  1       -2 0.78491592E-02 0.36174706E+03</pdfrwt>
<totfact> 0.45646318E+03</totfact>
</mgrwt>
</event>
<event>
 6    1  0.5258538E-006  0.2856323E+03  0.7546771E-02  0.1092652E+00
         -2   -1    0    0    0  501 -0.00000000000E+00  0.00000000000E+00  0.99407644893E+02  0.99407644893E+02  0.00000000000E+00 0.  1.
          2   -1    0    0  501    0  0.00000000000E+00 -0.00000000000E+00 -0.20517999139E+03  0.20517999139E+03  0.00000000000E+00 0. -1.
          5    1    1    2  502    0 -0.29310317969E+02 -0.21450942564E+02 -0.13763725230E+02  0.39125027904E+02  0.47000000000E+01 0.  1.
         -5    1    1    2    0  502  0.93109363206E+02  0.34171769154E+02 -0.11287945213E+03  0.15033603705E+03  0.47000000000E+01 0.  1.
        -11    1    1    2    0    0 -0.33502759509E+02  0.22504928158E+02  0.46896178435E+02  0.61872111956E+02  0.00000000000E+00 0.  1.
         11    1    1    2    0    0 -0.30296285728E+02 -0.35225754749E+02 -0.26025347575E+02  0.53254459371E+02  0.00000000000E+00 0. -1.
<mgrwt>
<rscale>  0 0.28563235E+03</rscale>
<asrwt>0</asrwt>
<pdfrwt beam="2">  1        2 0.31566152E-01 0.28563235E+03</pdfrwt>
<pdfrwt beam="1">  1       -2 0.15293484E-01 0.28563235E+03</pdfrwt>
<totfact> 0.54648501E+03</totfact>
</mgrwt>
</event>
<event>
 6    1  0.5258538E-006  0.1355457E+03  0.7546771E-02  0.1231494E+00
         -2   -1    0    0    0  501 -0.00000000000E+00  0.00000000000E+00  0.50069791096E+02  0.50069791096E+02  0.00000000000E+00 0.  1.
          2   -1    0    0  501    0  0.00000000000E+00 -0.00000000000E+00 -0.38398357447E+03  0.38398357447E+03  0.00000000000E+00 0. -1.
          5    1    1    2  502    0  0.52312191463E+02 -0.56461549850E+02 -0.26296812221E+03  0.27404159408E+03  0.47000000000E+01 0. -1.
         -5    1    1    2    0  502 -0.38260538123E+01  0.36549564248E+02 -0.26378083626E+02  0.45479694703E+02  0.47000000000E+01 0. -1.
        -11    1    1    2    0    0 -0.12980770071E+02 -0.55681047127E+01 -0.64837427498E+02  0.66358090587E+02  0.00000000000E+00 0. -1.
         11    1    1    2    0    0 -0.35505367580E+02  0.25480090315E+02  0.20269849954E+02  0.48173986203E+02  0.00000000000E+00 0.  1.
<mgrwt>
<rscale>  0 0.12731589E+03</rscale>
<asrwt>0</asrwt>
<pdfrwt beam="2">  1        2 0.59074392E-01 0.13554566E+03</pdfrwt>
<pdfrwt beam="1">  1       -2 0.77030454E-02 0.13554566E+03</pdfrwt>
<totfact> 0.79815216E+03</totfact>
</mgrwt>
</event>
<event>
 6    1  0.5258538E-006  0.1326104E+03  0.7546771E-02  0.1236943E+00
          1   -1    0    0  501    0  0.00000000000E+00  0.00000000000E+00  0.15518883268E+03  0.15518883268E+03  0.00000000000E+00 0. -1.
         -1   -1    0    0    0  501 -0.00000000000E+00 -0.00000000000E+00 -0.88100466555E+02  0.88100466555E+02  0.00000000000E+00 0.  1.
          5    1    1    2  502    0  0.33498702596E+02  0.59005095027E+02  0.25619138324E+02  0.72678707771E+02  0.47000000000E+01 0.  1.
         -5    1    1    2    0  502 -0.59937393762E+02 -0.23466883830E+02  0.20276633852E+02  0.67649225332E+02  0.47000000000E+01 0.  1.
        -11    1    1    2    0    0  0.53795604389E+02 -0.29918366948E+01 -0.31472885295E+01  0.53970580537E+02  0.00000000000E+00 0.  1.
         11    1    1    2    0    0 -0.27356913223E+02 -0.32546374502E+02  0.24339882480E+02  0.48990785598E+02  0.00000000000E+00 0. -1.
<mgrwt>
<rscale>  0 0.12380882E+03</rscale>
<asrwt>0</asrwt>
<pdfrwt beam="1">  1        1 0.23875205E-01 0.13261036E+03</pdfrwt>
<pdfrwt beam="2">  1       -1 0.13553918E-01 0.13261036E+03</pdfrwt>
<totfact> 0.72564659E+03</totfact>
</mgrwt>
</event>
<event>
 6    1  0.5258538E-006  0.1296115E+03  0.7546771E-02  0.1242930E+00
         -1   -1    0    0    0  501 -0.00000000000E+00  0.00000000000E+00  0.45890300035E+02  0.45890300035E+02  0.00000000000E+00 0.  1.
          1   -1    0    0  501    0  0.00000000000E+00 -0.00000000000E+00 -0.30342302014E+03  0.30342302014E+03  0.00000000000E+00 0. -1.
          5    1    1    2  502    0  0.15892719914E+02  0.42574707534E+02 -0.31211297528E+02  0.55330094535E+02  0.47000000000E+01 0. -1.
         -5    1    1    2    0  502  0.34977825091E+01 -0.70826028897E+02 -0.16704455218E+03  0.18153383504E+03  0.47000000000E+01 0. -1.
        -11    1    1    2    0    0  0.32100362504E+02  0.30079998148E+02 -0.25637745190E+02  0.50916927832E+02  0.00000000000E+00 0. -1.
         11    1    1    2    0    0 -0.51490864927E+02 -0.18286767848E+01 -0.33639125214E+02  0.61532462773E+02  0.00000000000E+00 0.  1.
<mgrwt>
<rscale>  0 0.12010142E+03</rscale>
<asrwt>0</asrwt>
<pdfrwt beam="2">  1        1 0.46680463E-01 0.12961149E+03</pdfrwt>
<pdfrwt beam="1">  1       -1 0.70600464E-02 0.12961149E+03</pdfrwt>
<totfact> 0.85176059E+03</totfact>
</mgrwt>
</event>
<event>
 6    1  0.5258538E-006  0.2341605E+03  0.7546771E-02  0.1123745E+00
         -1   -1    0    0    0  501 -0.00000000000E+00  0.00000000000E+00  0.35934800711E+02  0.35934800711E+02  0.00000000000E+00 0.  1.
          1   -1    0    0  501    0  0.00000000000E+00 -0.00000000000E+00 -0.38146282548E+03  0.38146282548E+03  0.00000000000E+00 0. -1.
          5    1    1    2  502    0  0.24483364290E+02 -0.22202477633E+02  0.36340961300E+01  0.33580973700E+02  0.47000000000E+01 0.  1.
         -5    1    1    2    0  502  0.67949276052E+01 -0.32943590100E+01 -0.21564210162E+03  0.21582546150E+03  0.47000000000E+01 0.  1.
        -11    1    1    2    0    0 -0.49184153167E+02 -0.18372916168E+02 -0.53261634638E+02  0.74789348811E+02  0.00000000000E+00 0.  1.
         11    1    1    2    0    0  0.17905861272E+02  0.43869752811E+02 -0.80258384644E+02  0.93201842177E+02  0.00000000000E+00 0. -1.
<mgrwt>
<rscale>  0 0.23416055E+03</rscale>
<asrwt>0</asrwt>
<pdfrwt beam="2">  1        1 0.58686591E-01 0.23416055E+03</pdfrwt>
<pdfrwt beam="1">  1       -1 0.55284306E-02 0.23416055E+03</pdfrwt>
<totfact> 0.95893730E+03</totfact>
</mgrwt>
</event>
<event>
 6    1  0.5258538E-006  0.1668433E+03  0.7546771E-02  0.1188108E+00
          1   -1    0    0  501    0  0.00000000000E+00  0.00000000000E+00  0.93409796730E+03  0.93409796730E+03  0.00000000000E+00 0. -1.
         -1   -1    0    0    0  501 -0.00000000000E+00 -0.00000000000E+00 -0.26036370322E+02  0.26036370322E+02  0.00000000000E+00 0.  1.
          5    1    1    2  502    0 -0.53660394375E+02  0.47363021123E+02  0.18778023704E+03  0.20101293768E+03  0.47000000000E+01 0. -1.
         -5    1    1    2    0  502 -0.53269388968E+02 -0.75301255432E+02  0.35616613414E+03  0.36794607211E+03  0.47000000000E+01 0. -1.
        -11    1    1    2    0    0  0.14220211176E+01  0.14382205742E+02  0.30557884977E+01  0.14771859375E+02  0.00000000000E+00 0.  1.
         11    1    1    2    0    0  0.10550776222E+03  0.13556028568E+02  0.36105943731E+03  0.37640346846E+03  0.00000000000E+00 0. -1.
<mgrwt>
<rscale>  0 0.16052294E+03</rscale>
<asrwt>0</asrwt>
<pdfrwt beam="1">  1        1 0.14370735E+00 0.16684334E+03</pdfrwt>
<pdfrwt beam="2">  1       -1 0.40055961E-02 0.16684334E+03</pdfrwt>
<totfact> 0.43383680E+03</totfact>
</mgrwt>
</event>
<event>
 6    1  0.5258538E-006  0.1293359E+03  0.7546771E-02  0.1244230E+00
          1   -1    0    0  501    0  0.00000000000E+00  0.00000000000E+00  0.56177086595E+03  0.56177086595E+03  0.00000000000E+00 0. -1.
         -1   -1    0    0    0  501 -0.00000000000E+00 -0.00000000000E+00 -0.23083246402E+02  0.23083246402E+02  0.00000000000E+00 0.  1.
          5    1    1    2  502    0  0.31029539001E+02 -0.36752019929E+02  0.36045435060E+03  0.36367976590E+03  0.47000000000E+01 0. -1.
         -5    1    1    2    0  502 -0.25373118186E+02  0.39923968988E+01  0.87752238494E+01  0.27546849422E+02  0.47000000000E+01 0. -1.
        -11    1    1    2    0    0 -0.21766190080E+02 -0.17224131364E+02  0.11367151321E+03  0.11701132701E+03  0.00000000000E+00 0. -1.
         11    1    1    2    0    0  0.16109769266E+02  0.49983754394E+02  0.55786531887E+02  0.76616170024E+02  0.00000000000E+00 0.  1.
<mgrwt>
<rscale>  0 0.11931606E+03</rscale>
<asrwt>0</asrwt>
<pdfrwt beam="1">  1        1 0.86426277E-01 0.12933594E+03</pdfrwt>
<pdfrwt beam="2">  1       -1 0.35512691E-02 0.12933594E+03</pdfrwt>
<totfact> 0.10748565E+04</totfact>
</mgrwt>
</event>
<event>
 6    1  0.5258538E-006  0.2759286E+03  0.7546771E-02  0.1097934E+00
         -2   -1    0    0    0  501 -0.00000000000E+00  0.00000000000E+00  0.16472841925E+02  0.16472841925E+02  0.00000000000E+00 0.  1.
          2   -1    0    0  501    0  0.00000000000E+00 -0.00000000000E+00 -0.11554867740E+04  0.11554867740E+04  0.00000000000E+00 0. -1.
          5    1    1    2  502    0  0.63291001337E+02 -0.44669296932E+02 -0.20227727475E+03  0.21665475489E+03  0.47000000000E+01 0. -1.
         -5    1    1    2    0  502 -0.85932344046E+01 -0.14569302629E+02 -0.54500968294E+03  0.54529235530E+03  0.47000000000E+01 0. -1.
        -11    1    1    2    0    0 -0.64219459403E+02  0.99639267455E+01 -0.28140779646E+03  0.28881441569E+03  0.00000000000E+00 0. -1.
         11    1    1    2    0    0  0.95216924708E+01  0.49274672815E+02 -0.11031917788E+03  0.12119808999E+03  0.00000000000E+00 0.  1.
<mgrwt>
<rscale>  0 0.27592862E+03</rscale>
<asrwt>0</asrwt>
<pdfrwt beam="2">  1        2 0.17776711E+00 0.27592862E+03</pdfrwt>
<pdfrwt beam="1">  1       -2 0.25342845E-02 0.27592862E+03</pdfrwt>
<totfact> 0.11527312E+04</totfact>
</mgrwt>
</event>
<event>
 6    1  0.5258538E-006  0.1279067E+03  0.7546771E-02  0.1259190E+00
         -1   -1    0    0    0  501 -0.00000000000E+00  0.00000000000E+00  0.16017142125E+03  0.16017142125E+03  0.00000000000E+00 0.  1.
          1   -1    0    0  501    0  0.00000000000E+00 -0.00000000000E+00 -0.64785004272E+02  0.64785004272E+02  0.00000000000E+00 0. -1.
          5    1    1    2  502    0 -0.15063552767E+02 -0.53114265908E+02 -0.67761416838E+00  0.55412859752E+02  0.47000000000E+01 0.  1.
         -5    1    1    2    0  502  0.42158880793E+02  0.52390108587E+02  0.40078440456E+02  0.78424907376E+02  0.47000000000E+01 0.  1.
        -11    1    1    2    0    0 -0.34090853984E+02 -0.11605743015E+02  0.28503254859E+01  0.36124838431E+02  0.00000000000E+00 0. -1.
         11    1    1    2    0    0  0.69955259584E+01  0.12329900337E+02  0.53135265201E+02  0.54993819960E+02  0.00000000000E+00 0.  1.
<mgrwt>
<rscale>  0 0.11074844E+03</rscale>
<asrwt>0</asrwt>
<pdfrwt beam="2">  1        1 0.99669238E-02 0.12790670E+03</pdfrwt>
<pdfrwt beam="1">  1       -1 0.24641757E-01 0.12790670E+03</pdfrwt>
<totfact> 0.86228852E+03</totfact>
</mgrwt>
</event>
<event>
 6    1  0.5258538E-006  0.1333906E+03  0.7546771E-02  0.1235537E+00
         -2   -1    0    0    0  501 -0.00000000000E+00  0.00000000000E+00  0.39442690714E+02  0.39442690714E+02  0.00000000000E+00 0.  1.
          2   -1    0    0  501    0  0.00000000000E+00 -0.00000000000E+00 -0.36297789130E+03  0.36297789130E+03  0.00000000000E+00 0. -1.
          5    1    1    2  502    0  0.17136419084E+02  0.17921055654E+02 -0.20632454111E+03  0.20786227978E+03  0.47000000000E+01 0.  1.
         -5    1    1    2    0  502 -0.41303356580E+02  0.21887119673E+02 -0.12838389842E+02  0.48702438606E+02  0.47000000000E+01 0.  1.
        -11    1    1    2    0    0 -0.20947976565E+02 -0.39691490692E+02 -0.86267548346E+02  0.97243622172E+02  0.00000000000E+00 0. -1.
         11    1    1    2    0    0  0.45114914062E+02 -0.11668463554E+00 -0.18104721297E+02  0.48612241456E+02  0.00000000000E+00 0.  1.
<mgrwt>
<rscale>  0 0.12470119E+03</rscale>
<asrwt>0</asrwt>
<pdfrwt beam="2">  1        2 0.55842753E-01 0.13339065E+03</pdfrwt>
<pdfrwt beam="1">  1       -2 0.60681062E-02 0.13339065E+03</pdfrwt>
<totfact> 0.12187630E+04</totfact>
</mgrwt>
</event>
<event>
 6    1  0.5258538E-006  0.2582230E+03  0.7546771E-02  0.1108216E+00
          2   -1    0    0  501    0  0.00000000000E+00  0.00000000000E+00  0.86524546292E+02  0.86524546292E+02  0.00000000000E+00 0.  1.
         -2   -1    0    0    0  501 -0.00000000000E+00 -0.00000000000E+00 -0.19265959329E+03  0.19265959329E+03  0.00000000000E+00 0. -1.
          5    1    1    2  502    0 -0.46208012804E+02 -0.90578273000E+02 -0.18757113025E+02  0.10350615091E+03  0.47000000000E+01 0.  1.
         -5    1    1    2    0  502  0.23043479709E+00  0.37506375911E+02 -0.28914032910E+02  0.47590888133E+02  0.47000000000E+01 0.  1.
        -11    1    1    2    0    0  0.47514716249E+02  0.10291462423E+02  0.77600576296E+01  0.49231909910E+02  0.00000000000E+00 0.  1.
         11    1    1    2    0    0 -0.15371382419E+01  0.42780434667E+02 -0.66223958694E+02  0.78855190630E+02  0.00000000000E+00 0. -1.
<mgrwt>
<rscale>  0 0.25822303E+03</rscale>
<asrwt>0</asrwt>
<pdfrwt beam="1">  1        2 0.13311469E-01 0.25822303E+03</pdfrwt>
<pdfrwt beam="2">  1       -2 0.29639937E-01 0.25822303E+03</pdfrwt>
<totfact> 0.46614345E+03</totfact>
</mgrwt>
</event>
<event>
 6    1  0.5258538E-006  0.1301591E+03  0.7546771E-02  0.1240640E+00
          1   -1    0    0  501    0  0.00000000000E+00  0.00000000000E+00  0.21899410046E+02  0.21899410046E+02  0.00000000000E+00 0. -1.
         -1   -1    0    0    0  501 -0.00000000000E+00 -0.00000000000E+00 -0.60901013581E+03  0.60901013581E+03  0.00000000000E+00 0.  1.
          5    1    1    2  502    0 -0.12327611946E+02 -0.47693838815E+02 -0.13240971484E+03  0.14135450067E+03  0.47000000000E+01 0. -1.
         -5    1    1    2    0  502  0.43191761093E+02  0.66710503071E+02 -0.15979548661E+03  0.17852872874E+03  0.47000000000E+01 0. -1.
        -11    1    1    2    0    0 -0.46920529092E+02 -0.20824927982E+02 -0.28945815878E+03  0.29397489580E+03  0.00000000000E+00 0.  1.
         11    1    1    2    0    0  0.16056379945E+02  0.18082637258E+01 -0.54473655421E+01  0.17051420644E+02  0.00000000000E+00 0. -1.
<mgrwt>
<rscale>  0 0.12150167E+03</rscale>
<asrwt>0</asrwt>
<pdfrwt beam="1">  1        1 0.33691396E-02 0.13015914E+03</pdfrwt>
<pdfrwt beam="2">  1       -1 0.93693879E-01 0.13015914E+03</pdfrwt>
<totfact> 0.32334236E+03</totfact>
</mgrwt>
</event>
<event>
 6    1  0.5258538E-006  0.2727298E+03  0.7546771E-02  0.1099727E+00
          1   -1    0    0  501    0  0.00000000000E+00  0.00000000000E+00  0.49855979670E+03  0.49855979670E+03  0.00000000000E+00 0. -1.
         -1   -1    0    0    0  501 -0.00000000000E+00 -0.00000000000E+00 -0.37298210321E+02  0.37298210321E+02  0.00000000000E+00 0.  1.
          5    1    1    2  502    0 -0.25860105006E+02  0.71711344345E+01  0.27150720334E+03  0.27287070503E+03  0.47000000000E+01 0. -1.
         -5    1    1    2    0  502  0.25963565706E+02 -0.43961672629E+02  0.40731057193E+02  0.65481634254E+02  0.47000000000E+01 0. -1.
        -11    1    1    2    0    0  0.40297502219E+02 -0.12859876875E+02  0.85776639389E+01  0.43160646855E+02  0.00000000000E+00 0.  1.
         11    1    1    2    0    0 -0.40400962919E+02  0.49650415069E+02  0.14044566191E+03  0.15434502088E+03  0.00000000000E+00 0. -1.
<mgrwt>
<rscale>  0 0.27272982E+03</rscale>
<asrwt>0</asrwt>
<pdfrwt beam="1">  1        1 0.76701503E-01 0.27272982E+03</pdfrwt>
<pdfrwt beam="2">  1       -1 0.57381865E-02 0.27272982E+03</pdfrwt>
<totfact> 0.64470805E+03</totfact>
</mgrwt>
</event>
<event>
 6    1  0.5258538E-006  0.1523514E+03  0.7546771E-02  0.1211449E+00
          2   -1    0    0  501    0  0.00000000000E+00  0.00000000000E+00  0.44010170159E+03  0.44010170159E+03  0.00000000000E+00 0. -1.
         -2   -1    0    0    0  501 -0.00000000000E+00 -0.00000000000E+00 -0.64298488830E+02  0.64298488830E+02  0.00000000000E+00 0.  1.
          5    1    1    2  502    0 -0.11507437370E+02  0.58181005086E+02  0.18084695568E+03  0.19038162161E+03  0.47000000000E+01 0. -1.
         -5    1    1    2    0  502 -0.50819879588E+02 -0.74172621347E+02  0.17828386928E+03  0.19972848060E+03  0.47000000000E+01 0.  1.
        -11    1    1    2    0    0  0.54274182299E+02 -0.27996868189E+02 -0.10495168327E+02  0.61964990526E+02  0.00000000000E+00 0. -1.
         11    1    1    2    0    0  0.80531346589E+01  0.43988484450E+02  0.27167556138E+02  0.52325097693E+02  0.00000000000E+00 0.  1.
<mgrwt>
<rscale>  0 0.14140645E+03</rscale>
<asrwt>0</asrwt>
<pdfrwt beam="1">  1        2 0.67707952E-01 0.15235138E+03</pdfrwt>
<pdfrwt beam="2">  1       -2 0.98920755E-02 0.15235138E+03</pdfrwt>
<totfact> 0.47022285E+03</totfact>
</mgrwt>
</event>
<event>
 6    1  0.5258538E-006  0.1254354E+03  0.7546771E-02  0.1247770E+00
          2   -1    0    0  501    0  0.00000000000E+00  0.00000000000E+00  0.11520616996E+04  0.11520616996E+04  0.00000000000E+00 0.  1.
         -2   -1    0    0    0  501 -0.00000000000E+00 -0.00000000000E+00 -0.13929049237E+02  0.13929049237E+02  0.00000000000E+00 0. -1.
          5    1    1    2  502    0 -0.40888537265E+02 -0.11475108223E+02  0.72842755081E+03  0.72967961282E+03  0.47000000000E+01 0.  1.
         -5    1    1    2    0  502  0.48524282225E+02  0.18719446644E+02  0.18184939616E+03  0.18919914516E+03  0.47000000000E+01 0.  1.
        -11    1    1    2    0    0 -0.31443377372E+02 -0.27253373152E+02  0.43672928399E+02  0.60322110405E+02  0.00000000000E+00 0. -1.
         11    1    1    2    0    0  0.23807632412E+02  0.20009034731E+02  0.18418277495E+03  0.18678988040E+03  0.00000000000E+00 0.  1.
<mgrwt>
<rscale>  0 0.11721138E+03</rscale>
<asrwt>0</asrwt>
<pdfrwt beam="1">  1        2 0.17724019E+00 0.12543545E+03</pdfrwt>
<pdfrwt beam="2">  1       -2 0.21429316E-02 0.12543545E+03</pdfrwt>
<totfact> 0.14237872E+04</totfact>
</mgrwt>
</event>
<event>
 6    1  0.5258538E-006  0.1825729E+03  0.7546771E-02  0.1170654E+00
          2   -1    0    0  501    0  0.00000000000E+00  0.00000000000E+00  0.52872740436E+03  0.52872740436E+03  0.00000000000E+00 0. -1.
         -2   -1    0    0    0  501 -0.00000000000E+00 -0.00000000000E+00 -0.82125568291E+02  0.82125568291E+02  0.00000000000E+00 0.  1.
          5    1    1    2  502    0  0.78182435072E+02 -0.12017556853E+03  0.28478085470E+03  0.31886813203E+03  0.47000000000E+01 0. -1.
         -5    1    1    2    0  502  0.19321041387E+02  0.29616513420E+02  0.11982692575E+03  0.12502408825E+03  0.47000000000E+01 0. -1.
        -11    1    1    2    0    0 -0.74340214701E+02  0.10754346199E+03  0.23591056171E+02  0.13284803976E+03  0.00000000000E+00 0.  1.
         11    1    1    2    0    0 -0.23163261757E+02 -0.16984406881E+02  0.18402999445E+02  0.34112712600E+02  0.00000000000E+00 0. -1.
<mgrwt>
<rscale>  0 0.17708549E+03</rscale>
<asrwt>0</asrwt>
<pdfrwt beam="1">  1        2 0.81342675E-01 0.18257285E+03</pdfrwt>
<pdfrwt beam="2">  1       -2 0.12634703E-01 0.18257285E+03</pdfrwt>
<totfact> 0.26195574E+03</totfact>
</mgrwt>
</event>
<event>
 6    1  0.5258538E-006  0.1564552E+03  0.7546771E-02  0.1200514E+00
          2   -1    0    0  501    0  0.00000000000E+00  0.00000000000E+00  0.26363912069E+03  0.26363912069E+03  0.00000000000E+00 0. -1.
         -2   -1    0    0    0  501 -0.00000000000E+00 -0.00000000000E+00 -0.94253803032E+02  0.94253803032E+02  0.00000000000E+00 0.  1.
          5    1    1    2  502    0  0.22596310439E+02  0.59446492018E+02  0.26283524503E+02  0.68973852430E+02  0.47000000000E+01 0. -1.
         -5    1    1    2    0  502 -0.74740196833E+02  0.18879410508E+02  0.13631569115E+03  0.15667350388E+03  0.47000000000E+01 0. -1.
        -11    1    1    2    0    0  0.20444689193E+02 -0.41299129178E+02  0.49360126554E+02  0.67527960731E+02  0.00000000000E+00 0. -1.
         11    1    1    2    0    0  0.31699197201E+02 -0.37026773348E+02 -0.42574024552E+02  0.64717606680E+02  0.00000000000E+00 0.  1.
<mgrwt>
<rscale>  0 0.14996662E+03</rscale>
<asrwt>0</asrwt>
<pdfrwt beam="1">  1        2 0.40559865E-01 0.15645518E+03</pdfrwt>
<pdfrwt beam="2">  1       -2 0.14500585E-01 0.15645518E+03</pdfrwt>
<totfact> 0.44116184E+03</totfact>
</mgrwt>
</event>
<event>
 6    1  0.5258538E-006  0.3463317E+03  0.7546771E-02  0.1064131E+00
         -2   -1    0    0    0  501 -0.00000000000E+00  0.00000000000E+00  0.98071970243E+02  0.98071970243E+02  0.00000000000E+00 0.  1.
          2   -1    0    0  501    0  0.00000000000E+00 -0.00000000000E+00 -0.30575919897E+03  0.30575919897E+03  0.00000000000E+00 0. -1.
          5    1    1    2  502    0 -0.37160750447E+02 -0.13227306057E+03 -0.14619902706E+03  0.20068216024E+03  0.47000000000E+01 0.  1.
         -5    1    1    2    0  502 -0.18064115818E+02  0.14804007816E+02  0.93514664020E+01  0.25593179786E+02  0.47000000000E+01 0.  1.
        -11    1    1    2    0    0  0.12295534787E+02  0.48966681019E+02  0.21459714793E+02  0.54858321016E+02  0.00000000000E+00 0.  1.
         11    1    1    2    0    0  0.42929331479E+02  0.68502371733E+02 -0.92299382863E+02  0.12269750817E+03  0.00000000000E+00 0. -1.
<mgrwt>
<rscale>  0 0.34633167E+03</rscale>
<asrwt>0</asrwt>
<pdfrwt beam="2">  1        2 0.47039876E-01 0.34633167E+03</pdfrwt>
<pdfrwt beam="1">  1       -2 0.15087996E-01 0.34633167E+03</pdfrwt>
<totfact> 0.36420754E+03</totfact>
</mgrwt>
</event>
<event>
 6    1  0.5258538E-006  0.2933164E+03  0.7546771E-02  0.1088630E+00
         -1   -1    0    0    0  501 -0.00000000000E+00  0.00000000000E+00  0.18929485591E+03  0.18929485591E+03  0.00000000000E+00 0.  1.
          1   -1    0    0  501    0  0.00000000000E+00 -0.00000000000E+00 -0.11362498348E+03  0.11362498348E+03  0.00000000000E+00 0. -1.
          5    1    1    2  502    0 -0.95186128831E+02 -0.51377074529E+02 -0.17904669327E+02  0.10973910011E+03  0.47000000000E+01 0.  1.
         -5    1    1    2    0  502  0.28571313025E+01  0.20960196653E+02  0.46316824318E+02  0.51135420776E+02  0.47000000000E+01 0.  1.
        -11    1    1    2    0    0  0.49945940471E+02  0.62912077919E+02  0.24388908602E+02  0.83948468601E+02  0.00000000000E+00 0.  1.
         11    1    1    2    0    0  0.42383057058E+02 -0.32495200043E+02  0.22868808835E+02  0.58096849906E+02  0.00000000000E+00 0. -1.
<mgrwt>
<rscale>  0 0.29331638E+03</rscale>
<asrwt>0</asrwt>
<pdfrwt beam="2">  1        1 0.17480767E-01 0.29331638E+03</pdfrwt>
<pdfrwt beam="1">  1       -1 0.29122286E-01 0.29331638E+03</pdfrwt>
<totfact> 0.32661333E+03</totfact>
</mgrwt>
</event>
<event>
 6    1  0.5258538E-006  0.4273892E+03  0.7546771E-02  0.1034688E+00
          2   -1    0    0  501    0  0.00000000000E+00  0.00000000000E+00  0.10896317921E+03  0.10896317921E+03  0.00000000000E+00 0.  1.
         -2   -1    0    0    0  501 -0.00000000000E+00 -0.00000000000E+00 -0.41908999155E+03  0.41908999155E+03  0.00000000000E+00 0. -1.
          5    1    1    2  502    0 -0.73321377060E+02  0.13299374600E+03 -0.29086609813E+02  0.15469803386E+03  0.47000000000E+01 0.  1.
         -5    1    1    2    0  502  0.31757745689E+02  0.20326406565E+01  0.12866214384E+02  0.34645569873E+02  0.47000000000E+01 0.  1.
        -11    1    1    2    0    0  0.52892164245E+02 -0.31313801626E+02 -0.13855035538E+03  0.15157287418E+03  0.00000000000E+00 0.  1.
         11    1    1    2    0    0 -0.11328532873E+02 -0.10371258503E+03 -0.15535606153E+03  0.18713669284E+03  0.00000000000E+00 0. -1.
<mgrwt>
<rscale>  0 0.42738918E+03</rscale>
<asrwt>0</asrwt>
<pdfrwt beam="1">  1        2 0.16763566E-01 0.42738918E+03</pdfrwt>
<pdfrwt beam="2">  1       -2 0.64475383E-01 0.42738918E+03</pdfrwt>
<totfact> 0.78156843E+02</totfact>
</mgrwt>
</event>
<event>
 6    1  0.5258538E-006  0.1368793E+03  0.7546771E-02  0.1234297E+00
         -1   -1    0    0    0  501 -0.00000000000E+00  0.00000000000E+00  0.13358260399E+03  0.13358260399E+03  0.00000000000E+00 0.  1.
          1   -1    0    0  501    0  0.00000000000E+00 -0.00000000000E+00 -0.22786875577E+03  0.22786875577E+03  0.00000000000E+00 0. -1.
          5    1    1    2  502    0  0.26833740476E+02 -0.40690116754E+02 -0.40879859735E+02  0.63788620939E+02  0.47000000000E+01 0.  1.
         -5    1    1    2    0  502 -0.79755822444E+02  0.23118400604E+02 -0.14325679029E+03  0.16565038371E+03  0.47000000000E+01 0.  1.
        -11    1    1    2    0    0  0.46417075581E+02 -0.56588544807E+01  0.96289951262E+02  0.10704355307E+03  0.00000000000E+00 0.  1.
         11    1    1    2    0    0  0.65050063867E+01  0.23230570631E+02 -0.64394530226E+01  0.24968802037E+02  0.00000000000E+00 0. -1.
<mgrwt>
<rscale>  0 0.12549573E+03</rscale>
<asrwt>0</asrwt>
<pdfrwt beam="2">  1        1 0.35056732E-01 0.13687933E+03</pdfrwt>
<pdfrwt beam="1">  1       -1 0.20551170E-01 0.13687933E+03</pdfrwt>
<totfact> 0.23324006E+03</totfact>
</mgrwt>
</event>
<event>
 6    1  0.5258538E-006  0.1537136E+03  0.7546771E-02  0.1204301E+00
          2   -1    0    0  501    0  0.00000000000E+00  0.00000000000E+00  0.72953248600E+02  0.72953248600E+02  0.00000000000E+00 0. -1.
         -2   -1    0    0    0  501 -0.00000000000E+00 -0.00000000000E+00 -0.31498017645E+03  0.31498017645E+03  0.00000000000E+00 0.  1.
          5    1    1    2  502    0  0.47514904888E+02 -0.35549970246E+02  0.31796311803E+02  0.67487495251E+02  0.47000000000E+01 0.  1.
         -5    1    1    2    0  502  0.33286338566E+02 -0.28312613209E+01 -0.91313923583E+02  0.97346386763E+02  0.47000000000E+01 0.  1.
        -11    1    1    2    0    0 -0.85419907483E+02 -0.27987761743E+01 -0.13769873937E+03  0.16206584022E+03  0.00000000000E+00 0.  1.
         11    1    1    2    0    0  0.46186640284E+01  0.41180007741E+02 -0.44810576693E+02  0.61033702808E+02  0.00000000000E+00 0. -1.
<mgrwt>
<rscale>  0 0.14692655E+03</rscale>
<asrwt>0</asrwt>
<pdfrwt beam="1">  1        2 0.11223577E-01 0.15371357E+03</pdfrwt>
<pdfrwt beam="2">  1       -2 0.48458489E-01 0.15371357E+03</pdfrwt>
<totfact> 0.22053891E+03</totfact>
</mgrwt>
</event>
<event>
 6    1  0.5258538E-006  0.2566928E+03  0.7546771E-02  0.1109147E+00
          1   -1    0    0  501    0  0.00000000000E+00  0.00000000000E+00  0.95535540780E+02  0.95535540780E+02  0.00000000000E+00 0. -1.
         -1   -1    0    0    0  501 -0.00000000000E+00 -0.00000000000E+00 -0.17242582477E+03  0.17242582477E+03  0.00000000000E+00 0.  1.
          5    1    1    2  502    0 -0.36545220421E+02 -0.46074621081E+01 -0.42251356609E+02  0.56249879804E+02  0.47000000000E+01 0. -1.
         -5    1    1    2    0  502  0.76794786868E+02  0.54315569344E+02 -0.14910015703E+02  0.95352078800E+02  0.47000000000E+01 0. -1.
        -11    1    1    2    0    0 -0.59773647235E+02 -0.11281279484E+02  0.13045064625E+02  0.62211975388E+02  0.00000000000E+00 0.  1.
         11    1    1    2    0    0  0.19524080788E+02 -0.38426827752E+02 -0.32773976302E+02  0.54147431558E+02  0.00000000000E+00 0. -1.
<mgrwt>
<rscale>  0 0.25669277E+03</rscale>
<asrwt>0</asrwt>
<pdfrwt beam="1">  1        1 0.14697776E-01 0.25669277E+03</pdfrwt>
<pdfrwt beam="2">  1       -1 0.26527050E-01 0.25669277E+03</pdfrwt>
<totfact> 0.47759156E+03</totfact>
</mgrwt>
</event>
<event>
 6    1  0.5258538E-006  0.3187911E+03  0.7546771E-02  0.1076207E+00
         -1   -1    0    0    0  501 -0.00000000000E+00  0.00000000000E+00  0.41369403973E+02  0.41369403973E+02  0.00000000000E+00 0.  1.
          1   -1    0    0  501    0  0.00000000000E+00 -0.00000000000E+00 -0.61414825464E+03  0.61414825464E+03  0.00000000000E+00 0. -1.
          5    1    1    2  502    0  0.38379769077E+02  0.38129292007E+01 -0.13665046042E+03  0.14206682736E+03  0.47000000000E+01 0. -1.
         -5    1    1    2    0  502 -0.48873044100E+02 -0.11385990082E+03 -0.25025624446E+03  0.27929004519E+03  0.47000000000E+01 0. -1.
        -11    1    1    2    0    0 -0.11222818421E+02  0.48335095565E+02 -0.16016292977E+02  0.52141679656E+02  0.00000000000E+00 0.  1.
         11    1    1    2    0    0  0.21716093445E+02  0.61711876055E+02 -0.16985585281E+03  0.18201910640E+03  0.00000000000E+00 0. -1.
<mgrwt>
<rscale>  0 0.31879114E+03</rscale>
<asrwt>0</asrwt>
<pdfrwt beam="2">  1        1 0.94484345E-01 0.31879114E+03</pdfrwt>
<pdfrwt beam="1">  1       -1 0.63645238E-02 0.31879114E+03</pdfrwt>
<totfact> 0.41632891E+03</totfact>
</mgrwt>
</event>
<event>
 6    1  0.5258538E-006  0.2503770E+03  0.7546771E-02  0.1115771E+00
         -1   -1    0    0    0  501 -0.00000000000E+00  0.00000000000E+00  0.38904656923E+03  0.38904656923E+03  0.00000000000E+00 0.  1.
          1   -1    0    0  501    0  0.00000000000E+00 -0.00000000000E+00 -0.15255402180E+03  0.15255402180E+03  0.00000000000E+00 0. -1.
          5    1    1    2  502    0 -0.26003431850E+02  0.15173906316E+03  0.11869561311E+03  0.19445220577E+03  0.47000000000E+01 0. -1.
         -5    1    1    2    0  502  0.16700622833E+02  0.65008607681E+02 -0.26563802591E+02  0.72337787385E+02  0.47000000000E+01 0. -1.
        -11    1    1    2    0    0 -0.30035983387E+02 -0.70150455970E+02  0.78107714556E+02  0.10919735273E+03  0.00000000000E+00 0.  1.
         11    1    1    2    0    0  0.39338792404E+02 -0.14659721487E+03  0.66253022350E+02  0.16561324514E+03  0.00000000000E+00 0. -1.
<mgrwt>
<rscale>  0 0.24613603E+03</rscale>
<asrwt>0</asrwt>
<pdfrwt beam="2">  1        1 0.23469850E-01 0.25037698E+03</pdfrwt>
<pdfrwt beam="1">  1       -1 0.59853318E-01 0.25037698E+03</pdfrwt>
<totfact> 0.60747247E+02</totfact>
</mgrwt>
</event>
<event>
 6    1  0.5258538E-006  0.4126868E+03  0.7546771E-02  0.1039473E+00
          1   -1    0    0  501    0  0.00000000000E+00  0.00000000000E+00  0.47053933726E+03  0.47053933726E+03  0.00000000000E+00 0. -1.
         -1   -1    0    0    0  501 -0.00000000000E+00 -0.00000000000E+00 -0.90486816431E+02  0.90486816431E+02  0.00000000000E+00 0.  1.
          5    1    1    2  502    0 -0.16871071853E+03  0.16503675641E+02  0.28319008800E+03  0.33008240456E+03  0.47000000000E+01 0.  1.
         -5    1    1    2    0  502  0.22358482848E+02  0.79955581415E+01  0.41481585155E+02  0.48027519321E+02  0.47000000000E+01 0.  1.
        -11    1    1    2    0    0  0.83044430618E+02 -0.59168804068E+02  0.36560711835E+02  0.10832363769E+03  0.00000000000E+00 0. -1.
         11    1    1    2    0    0  0.63307805069E+02  0.34669570286E+02  0.18820135834E+02  0.74592592121E+02  0.00000000000E+00 0.  1.
<mgrwt>
<rscale>  0 0.41268684E+03</rscale>
<asrwt>0</asrwt>
<pdfrwt beam="1">  1        1 0.72390666E-01 0.41268684E+03</pdfrwt>
<pdfrwt beam="2">  1       -1 0.13921049E-01 0.41268684E+03</pdfrwt>
<totfact> 0.17806165E+03</totfact>
</mgrwt>
</event>
<event>
 6    1  0.5258538E-006  0.4212307E+03  0.7546771E-02  0.1036667E+00
         -1   -1    0    0    0  501 -0.00000000000E+00  0.00000000000E+00  0.19393419341E+02  0.19393419341E+02  0.00000000000E+00 0.  1.
          1   -1    0    0  501    0  0.00000000000E+00 -0.00000000000E+00 -0.22873130284E+04  0.22873130284E+04  0.00000000000E+00 0. -1.
          5    1    1    2  502    0 -0.56740398438E+02  0.16411353321E+01 -0.21017925995E+04  0.21025642410E+04  0.47000000000E+01 0. -1.
         -5    1    1    2    0  502  0.94504147215E+01  0.72815444087E+01 -0.78822143478E+01  0.15051595610E+02  0.47000000000E+01 0.  1.
        -11    1    1    2    0    0  0.40526560940E+02  0.35596754731E+02 -0.58051461420E+02  0.79243316828E+02  0.00000000000E+00 0.  1.
         11    1    1    2    0    0  0.67634227768E+01 -0.44519434472E+02 -0.10019333379E+03  0.10984729432E+03  0.00000000000E+00 0. -1.
<mgrwt>
<rscale>  0 0.42123068E+03</rscale>
<asrwt>0</asrwt>
<pdfrwt beam="2">  1        1 0.35189414E+00 0.42123068E+03</pdfrwt>
<pdfrwt beam="1">  1       -1 0.29836045E-02 0.42123068E+03</pdfrwt>
<totfact> 0.82051453E+02</totfact>
</mgrwt>
</event>
<event>
 6    1  0.5258538E-006  0.1373147E+03  0.7546771E-02  0.1236191E+00
         -2   -1    0    0    0  501 -0.00000000000E+00  0.00000000000E+00  0.89312460205E+02  0.89312460205E+02  0.00000000000E+00 0.  1.
          2   -1    0    0  501    0  0.00000000000E+00 -0.00000000000E+00 -0.15817028121E+04  0.15817028121E+04  0.00000000000E+00 0. -1.
          5    1    1    2  502    0  0.84718082494E+01 -0.16672475091E+02 -0.14663945256E+04  0.14665213049E+04  0.47000000000E+01 0. -1.
         -5    1    1    2    0  502 -0.13624150300E+02  0.29442824810E+02 -0.87674746962E+02  0.93602610321E+02  0.47000000000E+01 0.  1.
        -11    1    1    2    0    0 -0.16237210380E+02  0.32350853707E+02  0.46039877693E+02  0.58565306065E+02  0.00000000000E+00 0.  1.
         11    1    1    2    0    0  0.21389552430E+02 -0.45121203426E+02  0.15639042974E+02  0.52326051035E+02  0.00000000000E+00 0. -1.
<mgrwt>
<rscale>  0 0.12428476E+03</rscale>
<asrwt>0</asrwt>
<pdfrwt beam="2">  1        2 0.24333890E+00 0.13731470E+03</pdfrwt>
<pdfrwt beam="1">  1       -2 0.13740378E-01 0.13731470E+03</pdfrwt>
<totfact> 0.50294349E+02</totfact>
</mgrwt>
</event>
<event>
 6    1  0.5258538E-006  0.1284234E+03  0.7546771E-02  0.1246470E+00
         -1   -1    0    0    0  501 -0.00000000000E+00  0.00000000000E+00  0.23211984998E+03  0.23211984998E+03  0.00000000000E+00 0.  1.
          1   -1    0    0  501    0  0.00000000000E+00 -0.00000000000E+00 -0.56136289968E+02  0.56136289968E+02  0.00000000000E+00 0. -1.
          5    1    1    2  502    0 -0.42177047878E+02  0.58281532439E+02  0.20841874572E+02  0.75047412525E+02  0.47000000000E+01 0.  1.
         -5    1    1    2    0  502  0.13601603752E+02 -0.51260645792E+02  0.42624055220E+02  0.68202327784E+02  0.47000000000E+01 0.  1.
        -11    1    1    2    0    0 -0.46692263940E+01 -0.36666783304E+02  0.84897314744E+02  0.92594863377E+02  0.00000000000E+00 0.  1.
         11    1    1    2    0    0  0.33244670519E+02  0.29645896657E+02  0.27620315477E+02  0.52411536264E+02  0.00000000000E+00 0. -1.
<mgrwt>
<rscale>  0 0.11797825E+03</rscale>
<asrwt>0</asrwt>
<pdfrwt beam="2">  1        1 0.86363525E-02 0.12842338E+03</pdfrwt>
<pdfrwt beam="1">  1       -1 0.35710745E-01 0.12842338E+03</pdfrwt>
<totfact> 0.56033756E+03</totfact>
</mgrwt>
</event>
<event>
 6    1  0.5258538E-006  0.1261946E+03  0.7546771E-02  0.1247733E+00
         -2   -1    0    0    0  501 -0.00000000000E+00  0.00000000000E+00  0.43845336113E+02  0.43845336113E+02  0.00000000000E+00 0.  1.
          2   -1    0    0  501    0  0.00000000000E+00 -0.00000000000E+00 -0.31499139220E+03  0.31499139220E+03  0.00000000000E+00 0. -1.
          5    1    1    2  502    0 -0.20699832091E+02  0.81393090838E+01 -0.21994593182E+03  0.22111769338E+03  0.47000000000E+01 0. -1.
         -5    1    1    2    0  502  0.26249654150E+02  0.82379111051E+01  0.47874578862E+01  0.28318143926E+02  0.47000000000E+01 0. -1.
        -11    1    1    2    0    0 -0.33220932492E+02 -0.39100790184E+01 -0.68766314273E+02  0.76470419459E+02  0.00000000000E+00 0. -1.
         11    1    1    2    0    0  0.27671110432E+02 -0.12467141171E+02  0.12778732124E+02  0.32930471546E+02  0.00000000000E+00 0.  1.
<mgrwt>
<rscale>  0 0.11723299E+03</rscale>
<asrwt>0</asrwt>
<pdfrwt beam="2">  1        2 0.48460215E-01 0.12619456E+03</pdfrwt>
<pdfrwt beam="1">  1       -2 0.67454362E-02 0.12619456E+03</pdfrwt>
<totfact> 0.12005325E+04</totfact>
</mgrwt>
</event>
<event>
 6    1  0.5258538E-006  0.1311818E+03  0.7546771E-02  0.1239423E+00
          2   -1    0    0  501    0  0.00000000000E+00  0.00000000000E+00  0.14986455604E+04  0.14986455604E+04  0.00000000000E+00 0. -1.
         -2   -1    0    0    0  501 -0.00000000000E+00 -0.00000000000E+00 -0.11859306666E+02  0.11859306666E+02  0.00000000000E+00 0.  1.
          5    1    1    2  502    0  0.74477043795E+02 -0.74641350846E+00  0.69853530007E+03  0.70251052849E+03  0.47000000000E+01 0.  1.
         -5    1    1    2    0  502 -0.48177542791E+02 -0.29151090075E+02  0.50100043722E+03  0.50417694293E+03  0.47000000000E+01 0.  1.
        -11    1    1    2    0    0  0.22941628655E+02 -0.65895627529E+01  0.25257478435E+02  0.34751703261E+02  0.00000000000E+00 0.  1.
         11    1    1    2    0    0 -0.49241129659E+02  0.36487066337E+02  0.26199303799E+03  0.26906569238E+03  0.00000000000E+00 0. -1.
<mgrwt>
<rscale>  0 0.12225454E+03</rscale>
<asrwt>0</asrwt>
<pdfrwt beam="1">  1        2 0.23056071E+00 0.13118182E+03</pdfrwt>
<pdfrwt beam="2">  1       -2 0.18245099E-02 0.13118182E+03</pdfrwt>
<totfact> 0.11744585E+04</totfact>
</mgrwt>
</event>
<event>
 6    1  0.5258538E-006  0.3504132E+03  0.7546771E-02  0.1063579E+00
         -1   -1    0    0    0  501 -0.00000000000E+00  0.00000000000E+00  0.11066308656E+03  0.11066308656E+03  0.00000000000E+00 0.  1.
          1   -1    0    0  501    0  0.00000000000E+00 -0.00000000000E+00 -0.11608032401E+04  0.11608032401E+04  0.00000000000E+00 0. -1.
          5    1    1    2  502    0  0.49357018597E+02 -0.10578821140E+03 -0.19394811165E+03  0.22641824345E+03  0.47000000000E+01 0.  1.
         -5    1    1    2    0  502  0.17859167894E+03 -0.12917649316E+03 -0.16636671131E+03  0.27619110559E+03  0.47000000000E+01 0.  1.
        -11    1    1    2    0    0 -0.15082064205E+03  0.19777905789E+03 -0.44937128891E+03  0.51361267226E+03  0.00000000000E+00 0.  1.
         11    1    1    2    0    0 -0.77128055488E+02  0.37185646665E+02 -0.24045404172E+03  0.25524430540E+03  0.00000000000E+00 0. -1.
<mgrwt>
<rscale>  0 0.34766064E+03</rscale>
<asrwt>0</asrwt>
<pdfrwt beam="2">  1        1 0.17858511E+00 0.35041316E+03</pdfrwt>
<pdfrwt beam="1">  1       -1 0.17025091E-01 0.35041316E+03</pdfrwt>
<totfact> 0.31871003E+02</totfact>
</mgrwt>
</event>
<event>
 6    1  0.5258538E-006  0.4183509E+03  0.7546771E-02  0.1037604E+00
         -1   -1    0    0    0  501 -0.00000000000E+00  0.00000000000E+00  0.69023026533E+02  0.69023026533E+02  0.00000000000E+00 0.  1.
          1   -1    0    0  501    0  0.00000000000E+00 -0.00000000000E+00 -0.63390972298E+03  0.63390972298E+03  0.00000000000E+00 0. -1.
          5    1    1    2  502    0  0.10184450285E+02 -0.11463041065E+02 -0.93567659224E+02  0.94932192594E+02  0.47000000000E+01 0. -1.
         -5    1    1    2    0  502 -0.17385395807E+03  0.56376911575E+02 -0.29280063178E+03  0.34519248959E+03  0.47000000000E+01 0. -1.
        -11    1    1    2    0    0  0.34358771925E+02 -0.51938051204E+02 -0.71431826404E+02  0.94765986485E+02  0.00000000000E+00 0.  1.
         11    1    1    2    0    0  0.12931073586E+03  0.70241806935E+01 -0.10708657903E+03  0.16804208084E+03  0.00000000000E+00 0. -1.
<mgrwt>
<rscale>  0 0.41835089E+03</rscale>
<asrwt>0</asrwt>
<pdfrwt beam="2">  1        1 0.97524574E-01 0.41835089E+03</pdfrwt>
<pdfrwt beam="1">  1       -1 0.10618927E-01 0.41835089E+03</pdfrwt>
<totfact> 0.18118947E+03</totfact>
</mgrwt>
</event>
<event>
 6    1  0.5258538E-006  0.3397783E+03  0.7546771E-02  0.1066890E+00
          1   -1    0    0  501    0  0.00000000000E+00  0.00000000000E+00  0.24152298579E+03  0.24152298579E+03  0.00000000000E+00 0. -1.
         -1   -1    0    0    0  501 -0.00000000000E+00 -0.00000000000E+00 -0.11950135663E+03  0.11950135663E+03  0.00000000000E+00 0.  1.
          5    1    1    2  502    0 -0.31103947611E+02  0.50972140587E+01  0.71882913728E+02  0.78630022474E+02  0.47000000000E+01 0. -1.
         -5    1    1    2    0  502  0.87959148012E+02 -0.69518228922E+02  0.96501192026E+02  0.14800056059E+03  0.47000000000E+01 0. -1.
        -11    1    1    2    0    0  0.17507652195E+02  0.45345303512E+02 -0.25241271781E+02  0.54770760786E+02  0.00000000000E+00 0.  1.
         11    1    1    2    0    0 -0.74362852596E+02  0.19075711352E+02 -0.21121204814E+02  0.79622998578E+02  0.00000000000E+00 0. -1.
<mgrwt>
<rscale>  0 0.33977831E+03</rscale>
<asrwt>0</asrwt>
<pdfrwt beam="1">  1        1 0.37157382E-01 0.33977831E+03</pdfrwt>
<pdfrwt beam="2">  1       -1 0.18384824E-01 0.33977831E+03</pdfrwt>
<totfact> 0.26763984E+03</totfact>
</mgrwt>
</event>
<event>
 6    1  0.5258538E-006  0.1322463E+03  0.7546771E-02  0.1247499E+00
          1   -1    0    0  501    0  0.00000000000E+00  0.00000000000E+00  0.12750727468E+03  0.12750727468E+03  0.00000000000E+00 0. -1.
         -1   -1    0    0    0  501 -0.00000000000E+00 -0.00000000000E+00 -0.11569272335E+03  0.11569272335E+03  0.00000000000E+00 0.  1.
          5    1    1    2  502    0  0.36353624978E+01  0.80081581461E+02  0.61383196167E+02  0.10107552781E+03  0.47000000000E+01 0. -1.
         -5    1    1    2    0  502 -0.20396094592E+02 -0.40269723740E+02  0.16241262917E+01  0.45413424347E+02  0.47000000000E+01 0. -1.
        -11    1    1    2    0    0 -0.14219190744E+02 -0.30820454518E+02 -0.54582109520E+02  0.64275131131E+02  0.00000000000E+00 0.  1.
         11    1    1    2    0    0  0.30979922839E+02 -0.89914032020E+01  0.33893383954E+01  0.32435914746E+02  0.00000000000E+00 0. -1.
<mgrwt>
<rscale>  0 0.11737034E+03</rscale>
<asrwt>0</asrwt>
<pdfrwt beam="1">  1        1 0.19616504E-01 0.13224632E+03</pdfrwt>
<pdfrwt beam="2">  1       -1 0.17798881E-01 0.13224632E+03</pdfrwt>
<totfact> 0.60628988E+03</totfact>
</mgrwt>
</event>
<event>
 6    1  0.5258538E-006  0.3417902E+03  0.7546771E-02  0.1066036E+00
         -2   -1    0    0    0  501 -0.00000000000E+00  0.00000000000E+00  0.16804068740E+02  0.16804068740E+02  0.00000000000E+00 0.  1.
          2   -1    0    0  501    0  0.00000000000E+00 -0.00000000000E+00 -0.17379802392E+04  0.17379802392E+04  0.00000000000E+00 0. -1.
          5    1    1    2  502    0  0.58362157697E+02  0.81626748257E+02 -0.12312681578E+04  0.12353592327E+04  0.47000000000E+01 0.  1.
         -5    1    1    2    0  502 -0.23072726693E+01  0.18694952550E+02 -0.21923948222E+02  0.29284368931E+02  0.47000000000E+01 0.  1.
        -11    1    1    2    0    0  0.10179051133E+02 -0.58959268780E+02 -0.12784307223E+03  0.14115119403E+03  0.00000000000E+00 0. -1.
         11    1    1    2    0    0 -0.66233936160E+02 -0.41362432028E+02 -0.34014099215E+03  0.34898951220E+03  0.00000000000E+00 0.  1.
<mgrwt>
<rscale>  0 0.34179022E+03</rscale>
<asrwt>0</asrwt>
<pdfrwt beam="2">  1        2 0.26738144E+00 0.34179022E+03</pdfrwt>
<pdfrwt beam="1">  1       -2 0.25852427E-02 0.34179022E+03</pdfrwt>
<totfact> 0.54000138E+03</totfact>
</mgrwt>
</event>
<event>
 6    1  0.5258538E-006  0.1569056E+03  0.7546771E-02  0.1201341E+00
         -1   -1    0    0    0  501 -0.00000000000E+00  0.00000000000E+00  0.58836204897E+02  0.58836204897E+02  0.00000000000E+00 0.  1.
          1   -1    0    0  501    0  0.00000000000E+00 -0.00000000000E+00 -0.37690521983E+03  0.37690521983E+03  0.00000000000E+00 0. -1.
          5    1    1    2  502    0  0.22655683997E+02 -0.64212385077E+02 -0.34812459138E+02  0.76619238615E+02  0.47000000000E+01 0.  1.
         -5    1    1    2    0  502 -0.37945906181E+02 -0.29387247003E+02 -0.20043010959E+03  0.20614999615E+03  0.47000000000E+01 0.  1.
        -11    1    1    2    0    0 -0.30065824865E+02  0.12771934794E+02 -0.74445115435E+01  0.33503684802E+02  0.00000000000E+00 0.  1.
         11    1    1    2    0    0  0.45356047050E+02  0.80827697286E+02 -0.75381934668E+02  0.11946850517E+03  0.00000000000E+00 0. -1.
<mgrwt>
<rscale>  0 0.14929550E+03</rscale>
<asrwt>0</asrwt>
<pdfrwt beam="2">  1        1 0.57985419E-01 0.15690562E+03</pdfrwt>
<pdfrwt beam="1">  1       -1 0.90517237E-02 0.15690562E+03</pdfrwt>
<totfact> 0.45173348E+03</totfact>
</mgrwt>
</event>
<event>
 6    1  0.5258538E-006  0.1446615E+03  0.7546771E-02  0.1218871E+00
         -1   -1    0    0    0  501 -0.00000000000E+00  0.00000000000E+00  0.59551688346E+02  0.59551688346E+02  0.00000000000E+00 0.  1.
          1   -1    0    0  501    0  0.00000000000E+00 -0.00000000000E+00 -0.47616057805E+03  0.47616057805E+03  0.00000000000E+00 0. -1.
          5    1    1    2  502    0 -0.47600651314E+02  0.79260366476E+02 -0.32436661690E+03  0.33731857325E+03  0.47000000000E+01 0. -1.
         -5    1    1    2    0  502  0.43780728239E+02 -0.44767734276E+01 -0.70813152920E+02  0.83506803866E+02  0.47000000000E+01 0.  1.
        -11    1    1    2    0    0 -0.22413094152E+02 -0.67253956832E+02 -0.40451393414E+02  0.81619585445E+02  0.00000000000E+00 0.  1.
         11    1    1    2    0    0  0.26233017227E+02 -0.75296362167E+01  0.19022273530E+02  0.33267303838E+02  0.00000000000E+00 0. -1.
<mgrwt>
<rscale>  0 0.13595964E+03</rscale>
<asrwt>0</asrwt>
<pdfrwt beam="2">  1        1 0.73255474E-01 0.14466149E+03</pdfrwt>
<pdfrwt beam="1">  1       -1 0.91617982E-02 0.14466149E+03</pdfrwt>
<totfact> 0.32796656E+03</totfact>
</mgrwt>
</event>
<event>
 6    1  0.5258538E-006  0.1680592E+03  0.7546771E-02  0.1183705E+00
         -3   -1    0    0    0  501 -0.00000000000E+00  0.00000000000E+00  0.26615786476E+03  0.26615786476E+03  0.00000000000E+00 0.  1.
          3   -1    0    0  501    0  0.00000000000E+00 -0.00000000000E+00 -0.14338314081E+03  0.14338314081E+03  0.00000000000E+00 0. -1.
          5    1    1    2  502    0 -0.27708617824E+02 -0.19713987835E+02 -0.35285041291E+02  0.49229391190E+02  0.47000000000E+01 0.  1.
         -5    1    1    2    0  502 -0.11298364531E+02  0.12506380199E+03 -0.17187615581E+02  0.12683103618E+03  0.47000000000E+01 0.  1.
        -11    1    1    2    0    0  0.79997112390E-01  0.18935823145E+02  0.47116596583E+02  0.50779380375E+02  0.00000000000E+00 0.  1.
         11    1    1    2    0    0  0.38926985242E+02 -0.12428563730E+03  0.12813078424E+03  0.18270119783E+03  0.00000000000E+00 0. -1.
<mgrwt>
<rscale>  0 0.16450244E+03</rscale>
<asrwt>0</asrwt>
<pdfrwt beam="2">  1        3 0.22058945E-01 0.16805920E+03</pdfrwt>
<pdfrwt beam="1">  1       -3 0.40947364E-01 0.16805920E+03</pdfrwt>
<totfact> 0.26764003E+02</totfact>
</mgrwt>
</event>
<event>
 6    1  0.5258538E-006  0.1262500E+03  0.7546771E-02  0.1251859E+00
         -2   -1    0    0    0  501 -0.00000000000E+00  0.00000000000E+00  0.54869140079E+02  0.54869140079E+02  0.00000000000E+00 0.  1.
          2   -1    0    0  501    0  0.00000000000E+00 -0.00000000000E+00 -0.31091467139E+03  0.31091467139E+03  0.00000000000E+00 0. -1.
          5    1    1    2  502    0  0.33183183292E+02  0.12368201133E+02 -0.99760975705E+01  0.37090545633E+02  0.47000000000E+01 0. -1.
         -5    1    1    2    0  502 -0.25530764497E+02 -0.28397000812E+02 -0.23888013742E+03  0.24195871475E+03  0.47000000000E+01 0. -1.
        -11    1    1    2    0    0 -0.39713266849E+02  0.13110672875E+02 -0.26196729889E+02  0.49348778748E+02  0.00000000000E+00 0. -1.
         11    1    1    2    0    0  0.32060848054E+02  0.29181268047E+01  0.19007433570E+02  0.37385772333E+02  0.00000000000E+00 0.  1.
<mgrwt>
<rscale>  0 0.11484109E+03</rscale>
<asrwt>0</asrwt>
<pdfrwt beam="2">  1        2 0.47833027E-01 0.12625001E+03</pdfrwt>
<pdfrwt beam="1">  1       -2 0.84414060E-02 0.12625001E+03</pdfrwt>
<totfact> 0.86259838E+03</totfact>
</mgrwt>
</event>
<event>
 6    1  0.5258538E-006  0.2395416E+03  0.7546771E-02  0.1139945E+00
          2   -1    0    0  501    0  0.00000000000E+00  0.00000000000E+00  0.30656513982E+03  0.30656513982E+03  0.00000000000E+00 0. -1.
         -2   -1    0    0    0  501 -0.00000000000E+00 -0.00000000000E+00 -0.12207648640E+03  0.12207648640E+03  0.00000000000E+00 0.  1.
          5    1    1    2  502    0  0.44575129447E+02  0.40068948119E+01  0.14891002789E+03  0.15556118981E+03  0.47000000000E+01 0. -1.
         -5    1    1    2    0  502  0.55315053220E+01 -0.10945886691E+03 -0.27353075811E+02  0.11305804638E+03  0.47000000000E+01 0.  1.
        -11    1    1    2    0    0 -0.61420955777E+02  0.26291657691E+02  0.23150083102E+02  0.70708637523E+02  0.00000000000E+00 0.  1.
         11    1    1    2    0    0  0.11314321007E+02  0.79160314404E+02  0.39781618244E+02  0.89313752505E+02  0.00000000000E+00 0. -1.
<mgrwt>
<rscale>  0 0.21206056E+03</rscale>
<asrwt>0</asrwt>
<pdfrwt beam="1">  1        2 0.47163868E-01 0.23954165E+03</pdfrwt>
<pdfrwt beam="2">  1       -2 0.18780998E-01 0.23954165E+03</pdfrwt>
<totfact> 0.24829879E+03</totfact>
</mgrwt>
</event>
<event>
 6    1  0.5258538E-006  0.1493277E+03  0.7546771E-02  0.1211005E+00
         -2   -1    0    0    0  501 -0.00000000000E+00  0.00000000000E+00  0.53327980283E+02  0.53327980283E+02  0.00000000000E+00 0.  1.
          2   -1    0    0  501    0  0.00000000000E+00 -0.00000000000E+00 -0.40539818351E+03  0.40539818351E+03  0.00000000000E+00 0. -1.
          5    1    1    2  502    0 -0.90127804650E+02  0.26577419820E+02 -0.28183852100E+03  0.29712694650E+03  0.47000000000E+01 0. -1.
         -5    1    1    2    0  502  0.88058666816E+01 -0.18547425094E+02  0.84610197040E+00  0.21079756976E+02  0.47000000000E+01 0. -1.
        -11    1    1    2    0    0  0.62246542874E+01 -0.31663054939E+02  0.30142053471E+01  0.32409578876E+02  0.00000000000E+00 0.  1.
         11    1    1    2    0    0  0.75097283681E+02  0.23633060213E+02 -0.74091989548E+02  0.10810988145E+03  0.00000000000E+00 0. -1.
<mgrwt>
<rscale>  0 0.14174136E+03</rscale>
<asrwt>0</asrwt>
<pdfrwt beam="2">  1        2 0.62368948E-01 0.14932772E+03</pdfrwt>
<pdfrwt beam="1">  1       -2 0.82043050E-02 0.14932772E+03</pdfrwt>
<totfact> 0.68739777E+03</totfact>
</mgrwt>
</event>
<event>
 6    1  0.5258538E-006  0.1503524E+03  0.7546771E-02  0.1280156E+00
         -2   -1    0    0    0  501 -0.00000000000E+00  0.00000000000E+00  0.20957364996E+03  0.20957364996E+03  0.00000000000E+00 0.  1.
          2   -1    0    0  501    0  0.00000000000E+00 -0.00000000000E+00 -0.42511105125E+02  0.42511105125E+02  0.00000000000E+00 0. -1.
          5    1    1    2  502    0  0.48572254472E+01  0.46274624649E+02 -0.16159290502E+02  0.49478744881E+02  0.47000000000E+01 0. -1.
         -5    1    1    2    0  502  0.13244949871E+01 -0.56770041684E+02  0.12121778678E+03  0.13394190439E+03  0.47000000000E+01 0.  1.
        -11    1    1    2    0    0  0.51832179955E+01  0.15131687886E+02  0.25012706712E+02  0.29689547389E+02  0.00000000000E+00 0. -1.
         11    1    1    2    0    0 -0.11364938430E+02 -0.46362708513E+01  0.36991341852E+02  0.38974558431E+02  0.00000000000E+00 0.  1.
<mgrwt>
<rscale>  0 0.10006651E+03</rscale>
<asrwt>0</asrwt>
<pdfrwt beam="2">  1        2 0.65401702E-02 0.15035241E+03</pdfrwt>
<pdfrwt beam="1">  1       -2 0.32242099E-01 0.15035241E+03</pdfrwt>
<totfact> 0.93575708E+03</totfact>
</mgrwt>
</event>
<event>
 6    1  0.5258538E-006  0.1307691E+03  0.7546771E-02  0.1243734E+00
          1   -1    0    0  501    0  0.00000000000E+00  0.00000000000E+00  0.40884530722E+03  0.40884530722E+03  0.00000000000E+00 0. -1.
         -1   -1    0    0    0  501 -0.00000000000E+00 -0.00000000000E+00 -0.30689919117E+02  0.30689919117E+02  0.00000000000E+00 0.  1.
          5    1    1    2  502    0 -0.49348565450E+02  0.29794571607E+02  0.43818293782E+02  0.72561217460E+02  0.47000000000E+01 0. -1.
         -5    1    1    2    0  502  0.11376907420E+02 -0.36238051689E+02  0.20485739162E+03  0.20840170660E+03  0.47000000000E+01 0. -1.
        -11    1    1    2    0    0 -0.23976713811E+02 -0.10119241433E+02  0.25670894555E+02  0.36555118378E+02  0.00000000000E+00 0.  1.
         11    1    1    2    0    0  0.61948371842E+02  0.16562721515E+02  0.10380880815E+03  0.12201718390E+03  0.00000000000E+00 0. -1.
<mgrwt>
<rscale>  0 0.11961500E+03</rscale>
<asrwt>0</asrwt>
<pdfrwt beam="1">  1        1 0.62899274E-01 0.13076914E+03</pdfrwt>
<pdfrwt beam="2">  1       -1 0.47215263E-02 0.13076914E+03</pdfrwt>
<totfact> 0.10684155E+04</totfact>
</mgrwt>
</event>
<event>
 6    1  0.5258538E-006  0.1402949E+03  0.7546771E-02  0.1224210E+00
          1   -1    0    0  501    0  0.00000000000E+00  0.00000000000E+00  0.87050460805E+03  0.87050460805E+03  0.00000000000E+00 0. -1.
         -1   -1    0    0    0  501 -0.00000000000E+00 -0.00000000000E+00 -0.25435254040E+02  0.25435254040E+02  0.00000000000E+00 0.  1.
          5    1    1    2  502    0  0.29193555031E+02 -0.12295174452E+01  0.50122276476E+03  0.50209573318E+03  0.47000000000E+01 0. -1.
         -5    1    1    2    0  502 -0.33102195972E+02  0.64785375877E+02  0.19640791076E+03  0.20950192771E+03  0.47000000000E+01 0. -1.
        -11    1    1    2    0    0  0.37053430413E+02 -0.50896571063E+02  0.49223023627E+02  0.79914477451E+02  0.00000000000E+00 0.  1.
         11    1    1    2    0    0 -0.33144789473E+02 -0.12659287369E+02  0.98215654863E+02  0.10442772374E+03  0.00000000000E+00 0. -1.
<mgrwt>
<rscale>  0 0.13221216E+03</rscale>
<asrwt>0</asrwt>
<pdfrwt beam="1">  1        1 0.13392376E+00 0.14029494E+03</pdfrwt>
<pdfrwt beam="2">  1       -1 0.39131167E-02 0.14029494E+03</pdfrwt>
<totfact> 0.49942076E+03</totfact>
</mgrwt>
</event>
<event>
 6    1  0.5258538E-006  0.1303357E+03  0.7546771E-02  0.1241288E+00
          1   -1    0    0  501    0  0.00000000000E+00  0.00000000000E+00  0.67248795253E+03  0.67248795253E+03  0.00000000000E+00 0. -1.
         -1   -1    0    0    0  501 -0.00000000000E+00 -0.00000000000E+00 -0.20735218223E+02  0.20735218223E+02  0.00000000000E+00 0.  1.
          5    1    1    2  502    0  0.37319823833E+02  0.30143663856E+02  0.57824187271E+02  0.75280384929E+02  0.47000000000E+01 0. -1.
         -5    1    1    2    0  502 -0.15415494349E+01 -0.20877624877E+02  0.40438100617E+03  0.40494979904E+03  0.47000000000E+01 0. -1.
        -11    1    1    2    0    0 -0.40519557069E+01  0.38911514886E+02  0.85471151691E+02  0.93999160141E+02  0.00000000000E+00 0.  1.
         11    1    1    2    0    0 -0.31726318691E+02 -0.48177553866E+02  0.10407638918E+03  0.11899382664E+03  0.00000000000E+00 0. -1.
<mgrwt>
<rscale>  0 0.12110331E+03</rscale>
<asrwt>0</asrwt>
<pdfrwt beam="1">  1        1 0.10345967E+00 0.13033568E+03</pdfrwt>
<pdfrwt beam="2">  1       -1 0.31900341E-02 0.13033568E+03</pdfrwt>
<totfact> 0.98305150E+03</totfact>
</mgrwt>
</event>
<event>
 6    1  0.5258538E-006  0.1359241E+03  0.7546771E-02  0.1232583E+00
          2   -1    0    0  501    0  0.00000000000E+00  0.00000000000E+00  0.84215699897E+02  0.84215699897E+02  0.00000000000E+00 0. -1.
         -2   -1    0    0    0  501 -0.00000000000E+00 -0.00000000000E+00 -0.17739555246E+03  0.17739555246E+03  0.00000000000E+00 0.  1.
          5    1    1    2  502    0 -0.28693778435E+02  0.29608898930E+02  0.13317661145E+02  0.43582908520E+02  0.47000000000E+01 0.  1.
         -5    1    1    2    0  502  0.82142001067E+02 -0.27688725506E+02 -0.37100845429E+02  0.94406231738E+02  0.47000000000E+01 0.  1.
        -11    1    1    2    0    0 -0.67884954920E+02  0.22486482519E+02 -0.61145769214E+02  0.94089394160E+02  0.00000000000E+00 0.  1.
         11    1    1    2    0    0  0.14436732288E+02 -0.24406655943E+02 -0.82508990659E+01  0.29532717939E+02  0.00000000000E+00 0. -1.
<mgrwt>
<rscale>  0 0.12660408E+03</rscale>
<asrwt>0</asrwt>
<pdfrwt beam="1">  1        2 0.12956262E-01 0.13592411E+03</pdfrwt>
<pdfrwt beam="2">  1       -2 0.27291623E-01 0.13592411E+03</pdfrwt>
<totfact> 0.53724471E+03</totfact>
</mgrwt>
</event>
<event>
 6    1  0.5258538E-006  0.1467634E+03  0.7546771E-02  0.1214733E+00
         -2   -1    0    0    0  501 -0.00000000000E+00  0.00000000000E+00  0.31620785483E+03  0.31620785483E+03  0.00000000000E+00 0.  1.
          2   -1    0    0  501    0  0.00000000000E+00 -0.00000000000E+00 -0.62009711052E+02  0.62009711052E+02  0.00000000000E+00 0. -1.
          5    1    1    2  502    0  0.63628716251E+00 -0.31827125522E+02 -0.27599290408E+02  0.42393178830E+02  0.47000000000E+01 0.  1.
         -5    1    1    2    0  502 -0.63087805403E+02 -0.13023079164E+02  0.10566192830E+03  0.12383943182E+03  0.47000000000E+01 0.  1.
        -11    1    1    2    0    0  0.22959598351E+02 -0.17307490919E+02  0.10763489955E+03  0.11140899425E+03  0.00000000000E+00 0.  1.
         11    1    1    2    0    0  0.39491919889E+02  0.62157695605E+02  0.68500606341E+02  0.10057596099E+03  0.00000000000E+00 0. -1.
<mgrwt>
<rscale>  0 0.13896151E+03</rscale>
<asrwt>0</asrwt>
<pdfrwt beam="2">  1        2 0.95399557E-02 0.14676343E+03</pdfrwt>
<pdfrwt beam="1">  1       -2 0.48647361E-01 0.14676343E+03</pdfrwt>
<totfact> 0.26644140E+03</totfact>
</mgrwt>
</event>
<event>
 6    1  0.5258538E-006  0.1258991E+03  0.7546771E-02  0.1254238E+00
         -1   -1    0    0    0  501 -0.00000000000E+00  0.00000000000E+00  0.50705132029E+02  0.50705132029E+02  0.00000000000E+00 0.  1.
          1   -1    0    0  501    0  0.00000000000E+00 -0.00000000000E+00 -0.22477948494E+03  0.22477948494E+03  0.00000000000E+00 0. -1.
          5    1    1    2  502    0  0.43697060566E+02 -0.22135780322E+02 -0.77738374555E+01  0.49819157172E+02  0.47000000000E+01 0.  1.
         -5    1    1    2    0  502 -0.45778881876E+02  0.72759383367E+01 -0.12384219721E+03  0.13231638264E+03  0.47000000000E+01 0.  1.
        -11    1    1    2    0    0  0.41177993671E+02  0.12837783877E+02 -0.28898599128E+02  0.51918829813E+02  0.00000000000E+00 0. -1.
         11    1    1    2    0    0 -0.39096172361E+02  0.20220581080E+01 -0.13559719111E+02  0.41430247340E+02  0.00000000000E+00 0.  1.
<mgrwt>
<rscale>  0 0.11349120E+03</rscale>
<asrwt>0</asrwt>
<pdfrwt beam="2">  1        1 0.34581459E-01 0.12589906E+03</pdfrwt>
<pdfrwt beam="1">  1       -1 0.78007895E-02 0.12589906E+03</pdfrwt>
<totfact> 0.10595447E+04</totfact>
</mgrwt>
</event>
<event>
 6    1  0.5258538E-006  0.1878966E+03  0.7546771E-02  0.1165317E+00
          1   -1    0    0  501    0  0.00000000000E+00  0.00000000000E+00  0.13765217659E+04  0.13765217659E+04  0.00000000000E+00 0. -1.
         -1   -1    0    0    0  501 -0.00000000000E+00 -0.00000000000E+00 -0.23947722092E+02  0.23947722092E+02  0.00000000000E+00 0.  1.
          5    1    1    2  502    0 -0.52251308734E+02 -0.73179670868E+02  0.74307587730E+03  0.74851139799E+03  0.47000000000E+01 0.  1.
         -5    1    1    2    0  502 -0.58412498016E+02 -0.13039865775E+02  0.11316390006E+03  0.12810236649E+03  0.47000000000E+01 0.  1.
        -11    1    1    2    0    0  0.10079334594E+03  0.32423880722E+02  0.24953763981E+03  0.27107128271E+03  0.00000000000E+00 0.  1.
         11    1    1    2    0    0  0.98704608088E+01  0.53795655921E+02  0.24679662661E+03  0.25278444077E+03  0.00000000000E+00 0. -1.
<mgrwt>
<rscale>  0 0.18259264E+03</rscale>
<asrwt>0</asrwt>
<pdfrwt beam="1">  1        1 0.21177252E+00 0.18789661E+03</pdfrwt>
<pdfrwt beam="2">  1       -1 0.36842660E-02 0.18789661E+03</pdfrwt>
<totfact> 0.24013502E+03</totfact>
</mgrwt>
</event>
<event>
 6    1  0.5258538E-006  0.1364826E+03  0.7546771E-02  0.1230079E+00
         -2   -1    0    0    0  501 -0.00000000000E+00  0.00000000000E+00  0.21965665414E+03  0.21965665414E+03  0.00000000000E+00 0.  1.
          2   -1    0    0  501    0  0.00000000000E+00 -0.00000000000E+00 -0.77653946299E+02  0.77653946299E+02  0.00000000000E+00 0. -1.
          5    1    1    2  502    0 -0.13137955688E+02 -0.25765951033E+02  0.55027303623E+02  0.62342475539E+02  0.47000000000E+01 0. -1.
         -5    1    1    2    0  502 -0.25174399554E+02  0.64945035207E+02 -0.30747374141E+02  0.76283019130E+02  0.47000000000E+01 0. -1.
        -11    1    1    2    0    0  0.16226125184E+02 -0.44649615377E+02  0.12585435980E+03  0.13452209920E+03  0.00000000000E+00 0.  1.
         11    1    1    2    0    0  0.22086230059E+02  0.54705312031E+01 -0.81315814420E+01  0.24163006572E+02  0.00000000000E+00 0. -1.
<mgrwt>
<rscale>  0 0.12824781E+03</rscale>
<asrwt>0</asrwt>
<pdfrwt beam="2">  1        2 0.11946761E-01 0.13648265E+03</pdfrwt>
<pdfrwt beam="1">  1       -2 0.33793331E-01 0.13648265E+03</pdfrwt>
<totfact> 0.40291013E+03</totfact>
</mgrwt>
</event>
<event>
 6    1  0.5258538E-006  0.1434489E+03  0.7546771E-02  0.1218919E+00
         -1   -1    0    0    0  501 -0.00000000000E+00  0.00000000000E+00  0.11642427271E+03  0.11642427271E+03  0.00000000000E+00 0.  1.
          1   -1    0    0  501    0  0.00000000000E+00 -0.00000000000E+00 -0.18812377153E+03  0.18812377153E+03  0.00000000000E+00 0. -1.
          5    1    1    2  502    0 -0.30942928593E+02  0.16604523615E+01 -0.63010737257E+02  0.70375172765E+02  0.47000000000E+01 0.  1.
         -5    1    1    2    0  502  0.96273178198E+02 -0.27782519287E+02 -0.49086054700E+02  0.11167776853E+03  0.47000000000E+01 0.  1.
        -11    1    1    2    0    0 -0.83579091632E+02  0.88394178471E+01  0.47286083516E+02  0.96434296598E+02  0.00000000000E+00 0. -1.
         11    1    1    2    0    0  0.18248842027E+02  0.17282649079E+02 -0.68887903778E+01  0.26060806345E+02  0.00000000000E+00 0.  1.
<mgrwt>
<rscale>  0 0.13592581E+03</rscale>
<asrwt>0</asrwt>
<pdfrwt beam="2">  1        1 0.28942118E-01 0.14344889E+03</pdfrwt>
<pdfrwt beam="1">  1       -1 0.17911427E-01 0.14344889E+03</pdfrwt>
<totfact> 0.36960253E+03</totfact>
</mgrwt>
</event>
<event>
 6    1  0.5258538E-006  0.1260665E+03  0.7546771E-02  0.1246969E+00
         -2   -1    0    0    0  501 -0.00000000000E+00  0.00000000000E+00  0.49384926196E+02  0.49384926196E+02  0.00000000000E+00 0.  1.
          2   -1    0    0  501    0  0.00000000000E+00 -0.00000000000E+00 -0.25078622344E+03  0.25078622344E+03  0.00000000000E+00 0. -1.
          5    1    1    2  502    0 -0.32602416773E+02  0.43165558713E+02 -0.43483307485E+02  0.69563431976E+02  0.47000000000E+01 0.  1.
         -5    1    1    2    0  502  0.43035030353E+02 -0.55836896456E+02 -0.83320901187E+02  0.10924392623E+03  0.47000000000E+01 0.  1.
        -11    1    1    2    0    0  0.17687302755E+02  0.46548855688E+02 -0.27469228640E+02  0.56869984761E+02  0.00000000000E+00 0.  1.
         11    1    1    2    0    0 -0.28119916336E+02 -0.33877517945E+02 -0.47127859931E+02  0.64493806668E+02  0.00000000000E+00 0. -1.
<mgrwt>
<rscale>  0 0.11768282E+03</rscale>
<asrwt>0</asrwt>
<pdfrwt beam="2">  1        2 0.38582495E-01 0.12606651E+03</pdfrwt>
<pdfrwt beam="1">  1       -2 0.75976811E-02 0.12606651E+03</pdfrwt>
<totfact> 0.12736047E+04</totfact>
</mgrwt>
</event>
<event>
 6    1  0.5258538E-006  0.4209328E+03  0.7546771E-02  0.1037550E+00
         -2   -1    0    0    0  501 -0.00000000000E+00  0.00000000000E+00  0.67705788832E+03  0.67705788832E+03  0.00000000000E+00 0.  1.
          2   -1    0    0  501    0  0.00000000000E+00 -0.00000000000E+00 -0.29315218763E+03  0.29315218763E+03  0.00000000000E+00 0. -1.
          5    1    1    2  502    0  0.14033203947E+03  0.12110189679E+03  0.10831646514E+02  0.18573681722E+03  0.47000000000E+01 0.  1.
         -5    1    1    2    0  502  0.23411907900E+03  0.25007567047E+02  0.98441563701E+01  0.23570345559E+03  0.47000000000E+01 0.  1.
        -11    1    1    2    0    0 -0.23138500106E+03 -0.13492403011E+03  0.23728141641E+03  0.35783513409E+03  0.00000000000E+00 0.  1.
         11    1    1    2    0    0 -0.14306611741E+03 -0.11185433731E+02  0.12594848140E+03  0.19093466905E+03  0.00000000000E+00 0. -1.
<mgrwt>
<rscale>  0 0.41851745E+03</rscale>
<asrwt>0</asrwt>
<pdfrwt beam="2">  1        2 0.45100337E-01 0.42093279E+03</pdfrwt>
<pdfrwt beam="1">  1       -2 0.10416275E+00 0.42093279E+03</pdfrwt>
<totfact> 0.86940956E+01</totfact>
</mgrwt>
</event>
<event>
 6    1  0.5258538E-006  0.1783756E+03  0.7546771E-02  0.1175024E+00
          1   -1    0    0  501    0  0.00000000000E+00  0.00000000000E+00  0.71956170857E+03  0.71956170857E+03  0.00000000000E+00 0. -1.
         -1   -1    0    0    0  501 -0.00000000000E+00 -0.00000000000E+00 -0.42219171378E+02  0.42219171378E+02  0.00000000000E+00 0.  1.
          5    1    1    2  502    0 -0.97906840451E+02 -0.32696427054E+02  0.15412020983E+03  0.18555305125E+03  0.47000000000E+01 0. -1.
         -5    1    1    2    0  502 -0.28258439438E+02  0.16057173338E+02  0.30885545732E+03  0.31059645157E+03  0.47000000000E+01 0. -1.
        -11    1    1    2    0    0  0.12502949935E+03  0.41329536943E+02  0.18753765539E+03  0.22915252240E+03  0.00000000000E+00 0.  1.
         11    1    1    2    0    0  0.11357805355E+01 -0.24690283228E+02  0.26829214649E+02  0.36478854724E+02  0.00000000000E+00 0. -1.
<mgrwt>
<rscale>  0 0.17273632E+03</rscale>
<asrwt>0</asrwt>
<pdfrwt beam="1">  1        1 0.11070179E+00 0.17837562E+03</pdfrwt>
<pdfrwt beam="2">  1       -1 0.64952577E-02 0.17837562E+03</pdfrwt>
<totfact> 0.31627527E+03</totfact>
</mgrwt>
</event>
<event>
 6    1  0.5258538E-006  0.1674303E+03  0.7546771E-02  0.1187660E+00
         -2   -1    0    0    0  501 -0.00000000000E+00  0.00000000000E+00  0.50223509693E+03  0.50223509693E+03  0.00000000000E+00 0.  1.
          2   -1    0    0  501    0  0.00000000000E+00 -0.00000000000E+00 -0.47948701803E+02  0.47948701803E+02  0.00000000000E+00 0. -1.
          5    1    1    2  502    0  0.79455002452E+02  0.43910443191E+02  0.14697031198E+03  0.17281084178E+03  0.47000000000E+01 0.  1.
         -5    1    1    2    0  502  0.27774997080E+02 -0.70043310368E+02  0.92769773923E+02  0.11960700959E+03  0.47000000000E+01 0.  1.
        -11    1    1    2    0    0 -0.46020562435E+02 -0.26533215851E+02  0.43656447992E+02  0.68758920596E+02  0.00000000000E+00 0. -1.
         11    1    1    2    0    0 -0.61209437097E+02  0.52666083027E+02  0.17088986123E+03  0.18900702676E+03  0.00000000000E+00 0.  1.
<mgrwt>
<rscale>  0 0.16092157E+03</rscale>
<asrwt>0</asrwt>
<pdfrwt beam="2">  1        2 0.73767237E-02 0.16743026E+03</pdfrwt>
<pdfrwt beam="1">  1       -2 0.77266934E-01 0.16743026E+03</pdfrwt>
<totfact> 0.14207838E+03</totfact>
</mgrwt>
</event>
<event>
 6    1  0.5258538E-006  0.1265795E+03  0.7546771E-02  0.1263182E+00
          1   -1    0    0  501    0  0.00000000000E+00  0.00000000000E+00  0.87944613514E+02  0.87944613514E+02  0.00000000000E+00 0. -1.
         -1   -1    0    0    0  501 -0.00000000000E+00 -0.00000000000E+00 -0.11042357906E+03  0.11042357906E+03  0.00000000000E+00 0.  1.
          5    1    1    2  502    0  0.61509458391E+02 -0.27498209822E+01 -0.29650022513E+02  0.68499553444E+02  0.47000000000E+01 0. -1.
         -5    1    1    2    0  502 -0.48903934884E+02 -0.12526938510E+02  0.28345330890E+02  0.58086718093E+02  0.47000000000E+01 0. -1.
        -11    1    1    2    0    0 -0.36229404979E+02  0.61135719526E+00  0.95182810511E+00  0.36247062219E+02  0.00000000000E+00 0. -1.
         11    1    1    2    0    0  0.23623881472E+02  0.14665402297E+02 -0.22126102030E+02  0.35534858820E+02  0.00000000000E+00 0.  1.
<mgrwt>
<rscale>  0 0.10860116E+03</rscale>
<asrwt>0</asrwt>
<pdfrwt beam="1">  1        1 0.13529940E-01 0.12657955E+03</pdfrwt>
<pdfrwt beam="2">  1       -1 0.16988243E-01 0.12657955E+03</pdfrwt>
<totfact> 0.10487964E+04</totfact>
</mgrwt>
</event>
<event>
 6    1  0.5258538E-006  0.1382522E+03  0.7546771E-02  0.1225326E+00
          2   -1    0    0  501    0  0.00000000000E+00  0.00000000000E+00  0.38820100577E+03  0.38820100577E+03  0.00000000000E+00 0. -1.
         -2   -1    0    0    0  501 -0.00000000000E+00 -0.00000000000E+00 -0.48912408399E+02  0.48912408399E+02  0.00000000000E+00 0.  1.
          5    1    1    2  502    0  0.45522608018E+02 -0.21835883431E+01  0.26981298178E+03  0.27367537528E+03  0.47000000000E+01 0. -1.
         -5    1    1    2    0  502  0.28205410188E+01 -0.31953460425E+02  0.34920883099E+01  0.32607725550E+02  0.47000000000E+01 0. -1.
        -11    1    1    2    0    0 -0.58251430745E+02 -0.14387872618E+02  0.51917952774E+02  0.79345534736E+02  0.00000000000E+00 0.  1.
         11    1    1    2    0    0  0.99082817081E+01  0.48524921386E+02  0.14065574516E+02  0.51484778609E+02  0.00000000000E+00 0. -1.
<mgrwt>
<rscale>  0 0.13144592E+03</rscale>
<asrwt>0</asrwt>
<pdfrwt beam="1">  1        2 0.59723230E-01 0.13825222E+03</pdfrwt>
<pdfrwt beam="2">  1       -2 0.75249862E-02 0.13825222E+03</pdfrwt>
<totfact> 0.81888632E+03</totfact>
</mgrwt>
</event>
<event>
 6    1  0.5258538E-006  0.1582471E+03  0.7546771E-02  0.1198225E+00
         -1   -1    0    0    0  501 -0.00000000000E+00  0.00000000000E+00  0.10121533294E+03  0.10121533294E+03  0.00000000000E+00 0.  1.
          1   -1    0    0  501    0  0.00000000000E+00 -0.00000000000E+00 -0.21509408111E+03  0.21509408111E+03  0.00000000000E+00 0. -1.
          5    1    1    2  502    0  0.61556390135E+02 -0.36165069625E+01 -0.12169118636E+02  0.63027341189E+02  0.47000000000E+01 0.  1.
         -5    1    1    2    0  502 -0.27311945691E+02 -0.87173976877E+02 -0.70660171056E+02  0.11558630713E+03  0.47000000000E+01 0.  1.
        -11    1    1    2    0    0 -0.19036718908E+02  0.65446867553E+02 -0.63954253804E+02  0.93465692738E+02  0.00000000000E+00 0. -1.
         11    1    1    2    0    0 -0.15207725536E+02  0.25343616286E+02  0.32904795325E+02  0.44230073003E+02  0.00000000000E+00 0.  1.
<mgrwt>
<rscale>  0 0.15184447E+03</rscale>
<asrwt>0</asrwt>
<pdfrwt beam="2">  1        1 0.33091397E-01 0.15824710E+03</pdfrwt>
<pdfrwt beam="1">  1       -1 0.15571590E-01 0.15824710E+03</pdfrwt>
<totfact> 0.39241096E+03</totfact>
</mgrwt>
</event>
<event>
 6    1  0.5258538E-006  0.1778981E+03  0.7546771E-02  0.1195986E+00
          1   -1    0    0  501    0  0.00000000000E+00  0.00000000000E+00  0.86660391071E+03  0.86660391071E+03  0.00000000000E+00 0. -1.
         -1   -1    0    0    0  501 -0.00000000000E+00 -0.00000000000E+00 -0.70378214182E+02  0.70378214182E+02  0.00000000000E+00 0.  1.
          5    1    1    2  502    0 -0.99846827759E+02 -0.31712902649E+02  0.38094438509E+03  0.39511493485E+03  0.47000000000E+01 0. -1.
         -5    1    1    2    0  502  0.65303031614E+02  0.89206933938E+01  0.43565995474E+03  0.44064242972E+03  0.47000000000E+01 0.  1.
        -11    1    1    2    0    0  0.13856246188E+02 -0.20025243715E+02  0.25420948171E+02  0.35202706575E+02  0.00000000000E+00 0. -1.
         11    1    1    2    0    0  0.20687549956E+02  0.42817452971E+02 -0.45799591472E+02  0.66022053748E+02  0.00000000000E+00 0.  1.
<mgrwt>
<rscale>  0 0.15371068E+03</rscale>
<asrwt>0</asrwt>
<pdfrwt beam="1">  1        1 0.13332367E+00 0.17789807E+03</pdfrwt>
<pdfrwt beam="2">  1       -1 0.10827418E-01 0.17789807E+03</pdfrwt>
<totfact> 0.10957046E+03</totfact>
</mgrwt>
</event>
<event>
 6    1  0.5258538E-006  0.1570550E+03  0.7546771E-02  0.1199610E+00
          2   -1    0    0  501    0  0.00000000000E+00  0.00000000000E+00  0.82778840593E+02  0.82778840593E+02  0.00000000000E+00 0. -1.
         -2   -1    0    0    0  501 -0.00000000000E+00 -0.00000000000E+00 -0.30745142352E+03  0.30745142352E+03  0.00000000000E+00 0.  1.
          5    1    1    2  502    0 -0.75851956834E+02  0.68859260807E+02  0.50799786120E+01  0.10267917675E+03  0.47000000000E+01 0.  1.
         -5    1    1    2    0  502 -0.13597607023E+02 -0.36609237610E+02 -0.44212853010E+02  0.59177677941E+02  0.47000000000E+01 0.  1.
        -11    1    1    2    0    0  0.57552587991E+02 -0.35491432150E+02 -0.18427346085E+03  0.19628716339E+03  0.00000000000E+00 0.  1.
         11    1    1    2    0    0  0.31896975865E+02  0.32414089532E+01 -0.12662476819E+01  0.32086246034E+02  0.00000000000E+00 0. -1.
<mgrwt>
<rscale>  0 0.15070428E+03</rscale>
<asrwt>0</asrwt>
<pdfrwt beam="1">  1        2 0.12735206E-01 0.15705496E+03</pdfrwt>
<pdfrwt beam="2">  1       -2 0.47300219E-01 0.15705496E+03</pdfrwt>
<totfact> 0.19876550E+03</totfact>
</mgrwt>
</event>
<event>
 6    1  0.5258538E-006  0.2164549E+03  0.7546771E-02  0.1140584E+00
         -2   -1    0    0    0  501 -0.00000000000E+00  0.00000000000E+00  0.33678622919E+02  0.33678622919E+02  0.00000000000E+00 0. -1.
          2   -1    0    0  501    0  0.00000000000E+00 -0.00000000000E+00 -0.13034561052E+04  0.13034561052E+04  0.00000000000E+00 0.  1.
          5    1    1    2  502    0 -0.19238385726E+02  0.96713386234E+02 -0.25446786377E+03  0.27294610870E+03  0.47000000000E+01 0.  1.
         -5    1    1    2    0  502  0.84136371703E+02  0.67723231544E+02 -0.52516391373E+03  0.53617589597E+03  0.47000000000E+01 0.  1.
        -11    1    1    2    0    0 -0.63183380629E+02 -0.51281551551E+02 -0.17046553990E+03  0.18889266108E+03  0.00000000000E+00 0. -1.
         11    1    1    2    0    0 -0.17146053474E+01 -0.11315506623E+03 -0.31968016492E+03  0.33912006241E+03  0.00000000000E+00 0.  1.
<mgrwt>
<rscale>  0 0.21124434E+03</rscale>
<asrwt>0</asrwt>
<pdfrwt beam="2">  1        2 0.20053171E+00 0.21645487E+03</pdfrwt>
<pdfrwt beam="1">  1       -2 0.51813265E-02 0.21645487E+03</pdfrwt>
<totfact> 0.32298140E+03</totfact>
</mgrwt>
</event>
<event>
 6    1  0.5258538E-006  0.1651730E+03  0.7546771E-02  0.1183843E+00
         -1   -1    0    0    0  501 -0.00000000000E+00  0.00000000000E+00  0.43452617564E+02  0.43452617564E+02  0.00000000000E+00 0.  1.
          1   -1    0    0  501    0  0.00000000000E+00 -0.00000000000E+00 -0.78368882937E+03  0.78368882937E+03  0.00000000000E+00 0. -1.
          5    1    1    2  502    0  0.23643107613E+02 -0.33620426809E+02 -0.39218657793E+03  0.39436243678E+03  0.47000000000E+01 0.  1.
         -5    1    1    2    0  502  0.84143429018E+02  0.27590353037E+02 -0.17211245117E+03  0.19361335201E+03  0.47000000000E+01 0.  1.
        -11    1    1    2    0    0 -0.25392526926E+01  0.36614902480E+02 -0.63556868821E+01  0.37249075741E+02  0.00000000000E+00 0.  1.
         11    1    1    2    0    0 -0.10524728394E+03 -0.30584828709E+02 -0.16958149582E+03  0.20191658240E+03  0.00000000000E+00 0. -1.
<mgrwt>
<rscale>  0 0.16437582E+03</rscale>
<asrwt>0</asrwt>
<pdfrwt beam="2">  1        1 0.12056751E+00 0.16517304E+03</pdfrwt>
<pdfrwt beam="1">  1       -1 0.66850182E-02 0.16517304E+03</pdfrwt>
<totfact> 0.26635136E+03</totfact>
</mgrwt>
</event>
<event>
 6    1  0.5258538E-006  0.1326976E+03  0.7546771E-02  0.1236522E+00
         -1   -1    0    0    0  501 -0.00000000000E+00  0.00000000000E+00  0.79191026080E+02  0.79191026080E+02  0.00000000000E+00 0.  1.
          1   -1    0    0  501    0  0.00000000000E+00 -0.00000000000E+00 -0.18258003789E+03  0.18258003789E+03  0.00000000000E+00 0. -1.
          5    1    1    2  502    0  0.21662027305E+02  0.25973782917E+02 -0.71326479206E+02  0.79078678934E+02  0.47000000000E+01 0.  1.
         -5    1    1    2    0  502 -0.54440547515E+02 -0.56161387061E+02 -0.16574122401E+02  0.80091610945E+02  0.47000000000E+01 0.  1.
        -11    1    1    2    0    0 -0.23411385127E+02 -0.53711369905E+01  0.16167715087E+02  0.28954051138E+02  0.00000000000E+00 0.  1.
         11    1    1    2    0    0  0.56189905337E+02  0.35558741135E+02 -0.31656125285E+02  0.73646722948E+02  0.00000000000E+00 0. -1.
<mgrwt>
<rscale>  0 0.12407482E+03</rscale>
<asrwt>0</asrwt>
<pdfrwt beam="2">  1        1 0.28089236E-01 0.13269765E+03</pdfrwt>
<pdfrwt beam="1">  1       -1 0.12183235E-01 0.13269765E+03</pdfrwt>
<totfact> 0.69837155E+03</totfact>
</mgrwt>
</event>
<event>
 6    1  0.5258538E-006  0.1822902E+03  0.7546771E-02  0.1171122E+00
          1   -1    0    0  501    0  0.00000000000E+00  0.00000000000E+00  0.22756333698E+03  0.22756333698E+03  0.00000000000E+00 0. -1.
         -1   -1    0    0    0  501 -0.00000000000E+00 -0.00000000000E+00 -0.15516473637E+03  0.15516473637E+03  0.00000000000E+00 0.  1.
          5    1    1    2  502    0 -0.70507830075E+02 -0.38747436404E+01  0.11463693578E+03  0.13472225052E+03  0.47000000000E+01 0. -1.
         -5    1    1    2    0  502 -0.38623457752E+02 -0.71593424720E+02  0.16480167562E+01  0.81499668165E+02  0.47000000000E+01 0. -1.
        -11    1    1    2    0    0  0.40921680746E+02 -0.15699559036E+02  0.16916370018E+01  0.43862532356E+02  0.00000000000E+00 0. -1.
         11    1    1    2    0    0  0.68209607081E+02  0.91167727396E+02 -0.45577988932E+02  0.12264362230E+03  0.00000000000E+00 0.  1.
<mgrwt>
<rscale>  0 0.17661249E+03</rscale>
<asrwt>0</asrwt>
<pdfrwt beam="1">  1        1 0.35009744E-01 0.18229023E+03</pdfrwt>
<pdfrwt beam="2">  1       -1 0.23871498E-01 0.18229023E+03</pdfrwt>
<totfact> 0.18487845E+03</totfact>
</mgrwt>
</event>
<event>
 6    1  0.5258538E-006  0.1275914E+03  0.7546771E-02  0.1242790E+00
         -2   -1    0    0    0  501 -0.00000000000E+00  0.00000000000E+00  0.70988489501E+01  0.70988489501E+01  0.00000000000E+00 0.  1.
          2   -1    0    0  501    0  0.00000000000E+00 -0.00000000000E+00 -0.24415291031E+04  0.24415291031E+04  0.00000000000E+00 0. -1.
          5    1    1    2  502    0  0.58331547386E+02 -0.43188960114E+02 -0.97595804736E+03  0.97866442457E+03  0.47000000000E+01 0.  1.
         -5    1    1    2    0  502 -0.49828517826E+02  0.19143888235E+02 -0.95869344655E+03  0.96018986878E+03  0.47000000000E+01 0.  1.
        -11    1    1    2    0    0  0.45974800668E+01  0.60747932627E+02 -0.27800297219E+03  0.28459989579E+03  0.00000000000E+00 0.  1.
         11    1    1    2    0    0 -0.13100509627E+02 -0.36702860747E+02 -0.22177578809E+03  0.22517376295E+03  0.00000000000E+00 0. -1.
<mgrwt>
<rscale>  0 0.12018617E+03</rscale>
<asrwt>0</asrwt>
<pdfrwt beam="2">  1        2 0.37562027E+00 0.12759141E+03</pdfrwt>
<pdfrwt beam="1">  1       -2 0.10921294E-02 0.12759141E+03</pdfrwt>
<totfact> 0.80263077E+03</totfact>
</mgrwt>
</event>
<event>
 6    1  0.5258538E-006  0.1267877E+03  0.7546771E-02  0.1244033E+00
         -2   -1    0    0    0  501 -0.00000000000E+00  0.00000000000E+00  0.24301570065E+02  0.24301570065E+02  0.00000000000E+00 0. -1.
          2   -1    0    0  501    0  0.00000000000E+00 -0.00000000000E+00 -0.53826856748E+03  0.53826856748E+03  0.00000000000E+00 0.  1.
          5    1    1    2  502    0 -0.46220916283E+02  0.25609567237E+02 -0.11533994663E+03  0.12695517447E+03  0.47000000000E+01 0. -1.
         -5    1    1    2    0  502  0.67428227571E+02 -0.26724987733E+02 -0.20957538811E+03  0.22182137892E+03  0.47000000000E+01 0. -1.
        -11    1    1    2    0    0 -0.11343819302E+01 -0.37289288478E+02 -0.15282190907E+03  0.15730961111E+03  0.00000000000E+00 0.  1.
         11    1    1    2    0    0 -0.20072929357E+02  0.38404708974E+02 -0.36229753602E+02  0.56483973040E+02  0.00000000000E+00 0. -1.
<mgrwt>
<rscale>  0 0.11943433E+03</rscale>
<asrwt>0</asrwt>
<pdfrwt beam="2">  1        2 0.82810545E-01 0.12678765E+03</pdfrwt>
<pdfrwt beam="1">  1       -2 0.37387033E-02 0.12678765E+03</pdfrwt>
<totfact> 0.16370703E+04</totfact>
</mgrwt>
</event>
<event>
 6    1  0.5258538E-006  0.1475732E+03  0.7546771E-02  0.1213402E+00
          2   -1    0    0  501    0  0.00000000000E+00  0.00000000000E+00  0.81571001138E+03  0.81571001138E+03  0.00000000000E+00 0. -1.
         -2   -1    0    0    0  501 -0.00000000000E+00 -0.00000000000E+00 -0.27021351020E+02  0.27021351020E+02  0.00000000000E+00 0.  1.
          5    1    1    2  502    0 -0.31019061306E+02 -0.80807625198E+01  0.22363997779E+03  0.22597435818E+03  0.47000000000E+01 0.  1.
         -5    1    1    2    0  502  0.10944501009E+03  0.63701972798E+01  0.38815461949E+03  0.40336693999E+03  0.47000000000E+01 0.  1.
        -11    1    1    2    0    0 -0.60232461991E+02 -0.29657134158E+02  0.56802773510E+02  0.87943448661E+02  0.00000000000E+00 0.  1.
         11    1    1    2    0    0 -0.18193486797E+02  0.31367699398E+02  0.12009128957E+03  0.12544661557E+03  0.00000000000E+00 0. -1.
<mgrwt>
<rscale>  0 0.13994546E+03</rscale>
<asrwt>0</asrwt>
<pdfrwt beam="1">  1        2 0.12549383E+00 0.14757317E+03</pdfrwt>
<pdfrwt beam="2">  1       -2 0.41571316E-02 0.14757317E+03</pdfrwt>
<totfact> 0.86766807E+03</totfact>
</mgrwt>
</event>
<event>
 6    1  0.5258538E-006  0.1251778E+03  0.7546771E-02  0.1250051E+00
          2   -1    0    0  501    0  0.00000000000E+00  0.00000000000E+00  0.87736584053E+03  0.87736584053E+03  0.00000000000E+00 0. -1.
         -2   -1    0    0    0  501 -0.00000000000E+00 -0.00000000000E+00 -0.21877382329E+02  0.21877382329E+02  0.00000000000E+00 0.  1.
          5    1    1    2  502    0  0.19691328910E+02 -0.55409479101E+02  0.30993066154E+03  0.31549495046E+03  0.47000000000E+01 0. -1.
         -5    1    1    2    0  502 -0.19469118117E+02  0.62187594894E+02  0.43537535524E+03  0.44025008060E+03  0.47000000000E+01 0. -1.
        -11    1    1    2    0    0  0.97084073691E+01 -0.40213270777E+02  0.18332185236E+02  0.45248528548E+02  0.00000000000E+00 0.  1.
         11    1    1    2    0    0 -0.99306181626E+01  0.33435154984E+02  0.91850256191E+02  0.98249663248E+02  0.00000000000E+00 0. -1.
<mgrwt>
<rscale>  0 0.11588113E+03</rscale>
<asrwt>0</asrwt>
<pdfrwt beam="1">  1        2 0.13497933E+00 0.12517785E+03</pdfrwt>
<pdfrwt beam="2">  1       -2 0.33657518E-02 0.12517785E+03</pdfrwt>
<totfact> 0.10711466E+04</totfact>
</mgrwt>
</event>
<event>
 6    1  0.5258538E-006  0.1537097E+03  0.7546771E-02  0.1204465E+00
         -1   -1    0    0    0  501 -0.00000000000E+00  0.00000000000E+00  0.64153609444E+02  0.64153609444E+02  0.00000000000E+00 0.  1.
          1   -1    0    0  501    0  0.00000000000E+00 -0.00000000000E+00 -0.37190922921E+03  0.37190922921E+03  0.00000000000E+00 0. -1.
          5    1    1    2  502    0 -0.53111181036E+02 -0.31259383867E+01 -0.52765550818E+02  0.75079040983E+02  0.47000000000E+01 0.  1.
         -5    1    1    2    0  502  0.27726604797E+02  0.88828512732E+02 -0.20222068126E+03  0.22265345992E+03  0.47000000000E+01 0.  1.
        -11    1    1    2    0    0  0.34677968504E+02 -0.60056711461E+02  0.98329231453E+01  0.70043247131E+02  0.00000000000E+00 0.  1.
         11    1    1    2    0    0 -0.92933922657E+01 -0.25645862884E+02 -0.62602310837E+02  0.68287090617E+02  0.00000000000E+00 0. -1.
<mgrwt>
<rscale>  0 0.14679723E+03</rscale>
<asrwt>0</asrwt>
<pdfrwt beam="2">  1        1 0.57216804E-01 0.15370967E+03</pdfrwt>
<pdfrwt beam="1">  1       -1 0.98697861E-02 0.15370967E+03</pdfrwt>
<totfact> 0.40212563E+03</totfact>
</mgrwt>
</event>
<event>
 6    1  0.5258538E-006  0.2879907E+03  0.7546771E-02  0.1093169E+00
          2   -1    0    0  501    0  0.00000000000E+00  0.00000000000E+00  0.13878309090E+04  0.13878309090E+04  0.00000000000E+00 0. -1.
         -2   -1    0    0    0  501 -0.00000000000E+00 -0.00000000000E+00 -0.59605103477E+02  0.59605103477E+02  0.00000000000E+00 0.  1.
          5    1    1    2  502    0 -0.62310269157E+01  0.25203100872E+03  0.63197466186E+03  0.68042083910E+03  0.47000000000E+01 0.  1.
         -5    1    1    2    0  502 -0.30366806374E+01  0.72482033310E+01  0.19592067043E+03  0.19613453797E+03  0.47000000000E+01 0.  1.
        -11    1    1    2    0    0  0.46763438156E+02 -0.11543167281E+03  0.26001801677E+03  0.28830653700E+03  0.00000000000E+00 0.  1.
         11    1    1    2    0    0 -0.37495730603E+02 -0.14384753924E+03  0.24031245647E+03  0.28257409841E+03  0.00000000000E+00 0. -1.
<mgrwt>
<rscale>  0 0.28466265E+03</rscale>
<asrwt>0</asrwt>
<pdfrwt beam="1">  1        2 0.21351242E+00 0.28799071E+03</pdfrwt>
<pdfrwt beam="2">  1       -2 0.91700169E-02 0.28799071E+03</pdfrwt>
<totfact> 0.11961884E+03</totfact>
</mgrwt>
</event>
<event>
 6    1  0.5258538E-006  0.2319818E+03  0.7546771E-02  0.1159739E+00
          1   -1    0    0  501    0  0.00000000000E+00  0.00000000000E+00  0.80696667379E+03  0.80696667379E+03  0.00000000000E+00 0. -1.
         -1   -1    0    0    0  501 -0.00000000000E+00 -0.00000000000E+00 -0.36913122847E+02  0.36913122847E+02  0.00000000000E+00 0.  1.
          5    1    1    2  502    0  0.53921020408E+02 -0.83930485449E+02  0.19109986658E+03  0.21562247526E+03  0.47000000000E+01 0. -1.
         -5    1    1    2    0  502 -0.26303194789E+02  0.12001515343E+03  0.43621371333E+03  0.45321075539E+03  0.47000000000E+01 0.  1.
        -11    1    1    2    0    0 -0.51099198905E+02 -0.11767380503E+02  0.12770220283E+03  0.13804873045E+03  0.00000000000E+00 0.  1.
         11    1    1    2    0    0  0.23481373286E+02 -0.24317287474E+02  0.15037768207E+02  0.36997835533E+02  0.00000000000E+00 0. -1.
<mgrwt>
<rscale>  0 0.18859006E+03</rscale>
<asrwt>0</asrwt>
<pdfrwt beam="1">  1        1 0.12414871E+00 0.23198182E+03</pdfrwt>
<pdfrwt beam="2">  1       -1 0.56789426E-02 0.23198182E+03</pdfrwt>
<totfact> 0.32832611E+03</totfact>
</mgrwt>
</event>
<event>
 6    1  0.5258538E-006  0.2807112E+03  0.7546771E-02  0.1105535E+00
          1   -1    0    0  501    0  0.00000000000E+00  0.00000000000E+00  0.31482507874E+03  0.31482507874E+03  0.00000000000E+00 0. -1.
         -1   -1    0    0    0  501 -0.00000000000E+00 -0.00000000000E+00 -0.32865651179E+03  0.32865651179E+03  0.00000000000E+00 0.  1.
          5    1    1    2  502    0  0.18953538907E+03  0.12481840371E+03  0.20912766198E+03  0.30864180958E+03  0.47000000000E+01 0. -1.
         -5    1    1    2    0  502 -0.26734323641E+02 -0.15898493879E+02 -0.12747715313E+02  0.33942310084E+02  0.47000000000E+01 0.  1.
        -11    1    1    2    0    0 -0.13437209660E+03 -0.10657174716E+03 -0.21155543483E+03  0.27234004414E+03  0.00000000000E+00 0.  1.
         11    1    1    2    0    0 -0.28428968835E+02 -0.23481626684E+01  0.13440551155E+01  0.28557426723E+02  0.00000000000E+00 0. -1.
<mgrwt>
<rscale>  0 0.26269488E+03</rscale>
<asrwt>0</asrwt>
<pdfrwt beam="1">  1        1 0.48434627E-01 0.28071123E+03</pdfrwt>
<pdfrwt beam="2">  1       -1 0.50562541E-01 0.28071123E+03</pdfrwt>
<totfact> 0.33352402E+02</totfact>
</mgrwt>
</event>
<event>
 6    1  0.5258538E-006  0.1613069E+03  0.7546771E-02  0.1194111E+00
          3   -1    0    0  501    0  0.00000000000E+00  0.00000000000E+00  0.22590761069E+03  0.22590761069E+03  0.00000000000E+00 0. -1.
         -3   -1    0    0    0  501 -0.00000000000E+00 -0.00000000000E+00 -0.10028224591E+03  0.10028224591E+03  0.00000000000E+00 0.  1.
          5    1    1    2  502    0  0.18434964703E+02 -0.60588708255E+02  0.38417396263E+02  0.74221464733E+02  0.47000000000E+01 0. -1.
         -5    1    1    2    0  502 -0.97211386236E+02 -0.41354010455E+01  0.43283436010E+02  0.10659597079E+03  0.47000000000E+01 0. -1.
        -11    1    1    2    0    0  0.54678565923E+02  0.74993456011E+02  0.63685966662E+02  0.11255961250E+03  0.00000000000E+00 0. -1.
         11    1    1    2    0    0  0.24097855609E+02 -0.10269346711E+02 -0.19761434160E+02  0.32812808580E+02  0.00000000000E+00 0.  1.
<mgrwt>
<rscale>  0 0.15529700E+03</rscale>
<asrwt>0</asrwt>
<pdfrwt beam="1">  1        3 0.34755017E-01 0.16130691E+03</pdfrwt>
<pdfrwt beam="2">  1       -3 0.15428038E-01 0.16130691E+03</pdfrwt>
<totfact> 0.68270003E+02</totfact>
</mgrwt>
</event>
<event>
 6    1  0.5258538E-006  0.1265413E+03  0.7546771E-02  0.1247802E+00
          3   -1    0    0  501    0  0.00000000000E+00  0.00000000000E+00  0.55715766026E+02  0.55715766026E+02  0.00000000000E+00 0. -1.
         -3   -1    0    0    0  501 -0.00000000000E+00 -0.00000000000E+00 -0.34097270055E+03  0.34097270055E+03  0.00000000000E+00 0.  1.
          5    1    1    2  502    0  0.38314025657E+02  0.63850605587E+02 -0.18645953610E+02  0.76906605580E+02  0.47000000000E+01 0. -1.
         -5    1    1    2    0  502 -0.31768280160E+02 -0.40580465240E+02 -0.18793608176E+02  0.55057129345E+02  0.47000000000E+01 0.  1.
        -11    1    1    2    0    0 -0.87965676302E+01 -0.51751687397E+02 -0.88754187384E+02  0.10311606339E+03  0.00000000000E+00 0.  1.
         11    1    1    2    0    0  0.22508221336E+01  0.28481547050E+02 -0.15906318535E+03  0.16160866826E+03  0.00000000000E+00 0. -1.
<mgrwt>
<rscale>  0 0.11719253E+03</rscale>
<asrwt>0</asrwt>
<pdfrwt beam="1">  1        3 0.85716561E-02 0.12654132E+03</pdfrwt>
<pdfrwt beam="2">  1       -3 0.52457340E-01 0.12654132E+03</pdfrwt>
<totfact> 0.78928655E+02</totfact>
</mgrwt>
</event>
<event>
 6    1  0.5258538E-006  0.2093181E+03  0.7546771E-02  0.1145936E+00
          3   -1    0    0  501    0  0.00000000000E+00  0.00000000000E+00  0.13270001843E+03  0.13270001843E+03  0.00000000000E+00 0. -1.
         -3   -1    0    0    0  501 -0.00000000000E+00 -0.00000000000E+00 -0.32074202378E+03  0.32074202378E+03  0.00000000000E+00 0.  1.
          5    1    1    2  502    0  0.16842214562E+03  0.13724058439E+02 -0.24315765767E+02  0.17078558306E+03  0.47000000000E+01 0. -1.
         -5    1    1    2    0  502 -0.84809071377E+01  0.37344968674E+02 -0.18830434188E+02  0.42933060954E+02  0.47000000000E+01 0. -1.
        -11    1    1    2    0    0 -0.16151443152E+03 -0.37527058112E+02 -0.10191581855E+03  0.19463305411E+03  0.00000000000E+00 0. -1.
         11    1    1    2    0    0  0.15731930441E+01 -0.13541969001E+02 -0.42979986845E+02  0.45090344088E+02  0.00000000000E+00 0.  1.
<mgrwt>
<rscale>  0 0.20457417E+03</rscale>
<asrwt>0</asrwt>
<pdfrwt beam="1">  1        3 0.20415387E-01 0.20931809E+03</pdfrwt>
<pdfrwt beam="2">  1       -3 0.49344927E-01 0.20931809E+03</pdfrwt>
<totfact> 0.21777592E+02</totfact>
</mgrwt>
</event>
<event>
 6    1  0.5258538E-006  0.1375598E+03  0.7546771E-02  0.1229258E+00
          1   -1    0    0  501    0  0.00000000000E+00  0.00000000000E+00  0.81914542279E+02  0.81914542279E+02  0.00000000000E+00 0.  1.
         -1   -1    0    0    0  501 -0.00000000000E+00 -0.00000000000E+00 -0.19726607332E+03  0.19726607332E+03  0.00000000000E+00 0. -1.
          5    1    1    2  502    0 -0.78589425300E+01  0.60763127600E+02  0.40360349204E+02  0.73518490472E+02  0.47000000000E+01 0. -1.
         -5    1    1    2    0  502  0.12541362921E+02 -0.36835926948E+01 -0.64704610484E+02  0.66178782529E+02  0.47000000000E+01 0. -1.
        -11    1    1    2    0    0  0.12475564250E+02 -0.67030304742E+02 -0.28488834008E+02  0.73893945086E+02  0.00000000000E+00 0.  1.
         11    1    1    2    0    0 -0.17157984641E+02  0.99507698369E+01 -0.62518435750E+02  0.65589397511E+02  0.00000000000E+00 0. -1.
<mgrwt>
<rscale>  0 0.12879266E+03</rscale>
<asrwt>0</asrwt>
<pdfrwt beam="1">  1        1 0.12602237E-01 0.13755975E+03</pdfrwt>
<pdfrwt beam="2">  1       -1 0.30348626E-01 0.13755975E+03</pdfrwt>
<totfact> 0.45045657E+03</totfact>
</mgrwt>
</event>
<event>
 6    1  0.5258538E-006  0.3129591E+03  0.7546771E-02  0.1120191E+00
         -1   -1    0    0    0  501 -0.00000000000E+00  0.00000000000E+00  0.17439233878E+03  0.17439233878E+03  0.00000000000E+00 0.  1.
          1   -1    0    0  501    0  0.00000000000E+00 -0.00000000000E+00 -0.26052116166E+03  0.26052116166E+03  0.00000000000E+00 0. -1.
          5    1    1    2  502    0  0.14270863188E+03 -0.79519813843E+02  0.47268866482E+01  0.16350409128E+03  0.47000000000E+01 0. -1.
         -5    1    1    2    0  502 -0.88347613010E+02  0.94282168296E+02 -0.10057253757E+03  0.16380278782E+03  0.47000000000E+01 0.  1.
        -11    1    1    2    0    0 -0.51743051982E+01  0.36055806975E+02  0.23622170909E+01  0.36501708460E+02  0.00000000000E+00 0. -1.
         11    1    1    2    0    0 -0.49186713676E+02 -0.50818161428E+02  0.73546109521E+01  0.71104912878E+02  0.00000000000E+00 0.  1.
<mgrwt>
<rscale>  0 0.23940377E+03</rscale>
<asrwt>0</asrwt>
<pdfrwt beam="2">  1        1 0.40080178E-01 0.31295911E+03</pdfrwt>
<pdfrwt beam="1">  1       -1 0.26829591E-01 0.31295911E+03</pdfrwt>
<totfact> 0.12976691E+03</totfact>
</mgrwt>
</event>
<event>
 6    1  0.5258538E-006  0.1335649E+03  0.7546771E-02  0.1234819E+00
          3   -1    0    0  501    0  0.00000000000E+00  0.00000000000E+00  0.49359666919E+03  0.49359666919E+03  0.00000000000E+00 0. -1.
         -3   -1    0    0    0  501 -0.00000000000E+00 -0.00000000000E+00 -0.28391829211E+02  0.28391829211E+02  0.00000000000E+00 0.  1.
          5    1    1    2  502    0  0.48726608145E+02  0.30978621727E+01  0.21695620134E+03  0.22243192755E+03  0.47000000000E+01 0. -1.
         -5    1    1    2    0  502 -0.34550159769E+02 -0.47969678720E+02  0.56545194843E+02  0.81940543545E+02  0.47000000000E+01 0. -1.
        -11    1    1    2    0    0 -0.96861864895E+01 -0.18811443491E+02  0.71528255879E+01  0.22335073960E+02  0.00000000000E+00 0.  1.
         11    1    1    2    0    0 -0.44902618867E+01  0.63683260038E+02  0.18455061820E+03  0.19528095334E+03  0.00000000000E+00 0. -1.
<mgrwt>
<rscale>  0 0.12516011E+03</rscale>
<asrwt>0</asrwt>
<pdfrwt beam="1">  1        3 0.75937943E-01 0.13356492E+03</pdfrwt>
<pdfrwt beam="2">  1       -3 0.43679741E-02 0.13356492E+03</pdfrwt>
<totfact> 0.10866814E+03</totfact>
</mgrwt>
</event>
<event>
 6    1  0.5258538E-006  0.1530327E+03  0.7546771E-02  0.1206395E+00
         -1   -1    0    0    0  501 -0.00000000000E+00  0.00000000000E+00  0.25430968768E+03  0.25430968768E+03  0.00000000000E+00 0.  1.
          1   -1    0    0  501    0  0.00000000000E+00 -0.00000000000E+00 -0.78172356041E+02  0.78172356041E+02  0.00000000000E+00 0. -1.
          5    1    1    2  502    0 -0.35901487183E+02  0.57355627887E+02 -0.15205482584E+02  0.69511736655E+02  0.47000000000E+01 0. -1.
         -5    1    1    2    0  502 -0.46130429968E+02 -0.24717614286E+02  0.82161937948E+02  0.97527693874E+02  0.47000000000E+01 0. -1.
        -11    1    1    2    0    0  0.12503159092E+02 -0.25698191629E+02  0.87855245589E+02  0.92386526170E+02  0.00000000000E+00 0.  1.
         11    1    1    2    0    0  0.69528758058E+02 -0.69398219722E+01  0.21325630682E+02  0.73056087016E+02  0.00000000000E+00 0. -1.
<mgrwt>
<rscale>  0 0.14528040E+03</rscale>
<asrwt>0</asrwt>
<pdfrwt beam="2">  1        1 0.12026516E-01 0.15303269E+03</pdfrwt>
<pdfrwt beam="1">  1       -1 0.39124567E-01 0.15303269E+03</pdfrwt>
<totfact> 0.31163815E+03</totfact>
</mgrwt>
</event>
<event>
 6    1  0.5258538E-006  0.1662226E+03  0.7546771E-02  0.1189400E+00
         -1   -1    0    0    0  501 -0.00000000000E+00  0.00000000000E+00  0.78332167684E+03  0.78332167684E+03  0.00000000000E+00 0.  1.
          1   -1    0    0  501    0  0.00000000000E+00 -0.00000000000E+00 -0.30154725460E+02  0.30154725460E+02  0.00000000000E+00 0. -1.
          5    1    1    2  502    0 -0.47138219197E+02 -0.11822207502E+02  0.65119030357E+02  0.81390137080E+02  0.47000000000E+01 0. -1.
         -5    1    1    2    0  502 -0.29869065282E+01  0.10923389229E+03  0.31623604409E+03  0.33461663201E+03  0.47000000000E+01 0. -1.
        -11    1    1    2    0    0  0.44759684149E+02 -0.11312815590E+03  0.34610373056E+03  0.36686400926E+03  0.00000000000E+00 0. -1.
         11    1    1    2    0    0  0.53654415761E+01  0.15716471114E+02  0.25708146380E+02  0.30605623959E+02  0.00000000000E+00 0.  1.
<mgrwt>
<rscale>  0 0.15937877E+03</rscale>
<asrwt>0</asrwt>
<pdfrwt beam="2">  1        1 0.46391891E-02 0.16622256E+03</pdfrwt>
<pdfrwt beam="1">  1       -1 0.12051101E+00 0.16622256E+03</pdfrwt>
<totfact> 0.11932274E+03</totfact>
</mgrwt>
</event>
<event>
 6    1  0.5258538E-006  0.1401232E+03  0.7546771E-02  0.1226352E+00
         -2   -1    0    0    0  501 -0.00000000000E+00  0.00000000000E+00  0.15186527499E+02  0.15186527499E+02  0.00000000000E+00 0.  1.
          2   -1    0    0  501    0  0.00000000000E+00 -0.00000000000E+00 -0.11174721204E+04  0.11174721204E+04  0.00000000000E+00 0. -1.
          5    1    1    2  502    0  0.13043113845E+02  0.92854992883E+02 -0.40013413230E+03  0.41100071332E+03  0.47000000000E+01 0.  1.
         -5    1    1    2    0  502 -0.11356542570E+02 -0.29716688104E+02 -0.40167407117E+03  0.40295930572E+03  0.47000000000E+01 0.  1.
        -11    1    1    2    0    0  0.18916777344E+02 -0.17920152006E+02 -0.17492532667E+02  0.31384152245E+02  0.00000000000E+00 0.  1.
         11    1    1    2    0    0 -0.20603348620E+02 -0.45218152772E+02 -0.28298485676E+03  0.28731447661E+03  0.00000000000E+00 0. -1.
<mgrwt>
<rscale>  0 0.13074696E+03</rscale>
<asrwt>0</asrwt>
<pdfrwt beam="2">  1        2 0.17191878E+00 0.14012322E+03</pdfrwt>
<pdfrwt beam="1">  1       -2 0.23363889E-02 0.14012322E+03</pdfrwt>
<totfact> 0.13220270E+04</totfact>
</mgrwt>
</event>
<event>
 6    1  0.5258538E-006  0.2734960E+03  0.7546771E-02  0.1099295E+00
         -3   -1    0    0    0  501 -0.00000000000E+00  0.00000000000E+00  0.45860268340E+02  0.45860268340E+02  0.00000000000E+00 0.  1.
          3   -1    0    0  501    0  0.00000000000E+00 -0.00000000000E+00 -0.40776082214E+03  0.40776082214E+03  0.00000000000E+00 0. -1.
          5    1    1    2  502    0  0.19820511479E+02 -0.17719589971E+01 -0.24045989413E+03  0.24132766771E+03  0.47000000000E+01 0. -1.
         -5    1    1    2    0  502 -0.56258231232E+02  0.12383934197E+02 -0.47261737244E+02  0.74659977329E+02  0.47000000000E+01 0. -1.
        -11    1    1    2    0    0  0.16073056745E+02 -0.57313924780E+02 -0.18892715765E+02  0.62451291707E+02  0.00000000000E+00 0.  1.
         11    1    1    2    0    0  0.20364663007E+02  0.46701949581E+02 -0.55286206663E+02  0.75182153742E+02  0.00000000000E+00 0. -1.
<mgrwt>
<rscale>  0 0.27349604E+03</rscale>
<asrwt>0</asrwt>
<pdfrwt beam="2">  1        3 0.62732431E-01 0.27349604E+03</pdfrwt>
<pdfrwt beam="1">  1       -3 0.70554262E-02 0.27349604E+03</pdfrwt>
<totfact> 0.83514430E+02</totfact>
</mgrwt>
</event>
<event>
 6    1  0.5258538E-006  0.1251552E+03  0.7546771E-02  0.1249503E+00
         -1   -1    0    0    0  501 -0.00000000000E+00  0.00000000000E+00  0.32157694545E+02  0.32157694545E+02  0.00000000000E+00 0.  1.
          1   -1    0    0  501    0  0.00000000000E+00 -0.00000000000E+00 -0.40553849309E+03  0.40553849309E+03  0.00000000000E+00 0. -1.
          5    1    1    2  502    0  0.28241946750E+02 -0.45495834367E+02 -0.66538366224E+02  0.85539012624E+02  0.47000000000E+01 0.  1.
         -5    1    1    2    0  502 -0.27330923426E+02  0.51662079474E+02 -0.20942586931E+03  0.21747927388E+03  0.47000000000E+01 0.  1.
        -11    1    1    2    0    0 -0.31983241096E+01  0.29890744828E+02  0.75322118260E+00  0.30070803874E+02  0.00000000000E+00 0.  1.
         11    1    1    2    0    0  0.22873007857E+01 -0.36056989934E+02 -0.98169784184E+02  0.10460709725E+03  0.00000000000E+00 0. -1.
<mgrwt>
<rscale>  0 0.11619891E+03</rscale>
<asrwt>0</asrwt>
<pdfrwt beam="2">  1        1 0.62390535E-01 0.12515519E+03</pdfrwt>
<pdfrwt beam="1">  1       -1 0.49473378E-02 0.12515519E+03</pdfrwt>
<totfact> 0.10041684E+04</totfact>
</mgrwt>
</event>
<event>
 6    1  0.5258538E-006  0.1549921E+03  0.7546771E-02  0.1198334E+00
          2   -1    0    0  501    0  0.00000000000E+00  0.00000000000E+00  0.72207478812E+03  0.72207478812E+03  0.00000000000E+00 0. -1.
         -2   -1    0    0    0  501 -0.00000000000E+00 -0.00000000000E+00 -0.59685166624E+02  0.59685166624E+02  0.00000000000E+00 0.  1.
          5    1    1    2  502    0  0.87651194183E+02 -0.29827223694E+02  0.35952611692E+03  0.37128629636E+03  0.47000000000E+01 0. -1.
         -5    1    1    2    0  502  0.13956233175E+02  0.60490015856E+02  0.25144483466E+03  0.25903747478E+03  0.47000000000E+01 0.  1.
        -11    1    1    2    0    0 -0.10047709769E+03 -0.37434567494E+01  0.66510614153E+02  0.12055423022E+03  0.00000000000E+00 0. -1.
         11    1    1    2    0    0 -0.11303296673E+01 -0.26919335412E+02 -0.15091944237E+02  0.30881953388E+02  0.00000000000E+00 0.  1.
<mgrwt>
<rscale>  0 0.15175390E+03</rscale>
<asrwt>0</asrwt>
<pdfrwt beam="1">  1        2 0.11108842E+00 0.15499211E+03</pdfrwt>
<pdfrwt beam="2">  1       -2 0.91823338E-02 0.15499211E+03</pdfrwt>
<totfact> 0.30176603E+03</totfact>
</mgrwt>
</event>
<event>
 6    1  0.5258538E-006  0.2230988E+03  0.7546771E-02  0.1134547E+00
          2   -1    0    0  501    0  0.00000000000E+00  0.00000000000E+00  0.15222670235E+04  0.15222670235E+04  0.00000000000E+00 0.  1.
         -2   -1    0    0    0  501 -0.00000000000E+00 -0.00000000000E+00 -0.30634999128E+02  0.30634999128E+02  0.00000000000E+00 0. -1.
          5    1    1    2  502    0  0.11259359023E+02 -0.19629912873E+02  0.10535022543E+03  0.10785576777E+03  0.47000000000E+01 0.  1.
         -5    1    1    2    0  502 -0.19432133043E+03  0.44860541497E+02  0.72563507110E+03  0.75255670488E+03  0.47000000000E+01 0.  1.
        -11    1    1    2    0    0  0.11110162956E+03 -0.58863187648E+02  0.45445067926E+03  0.47152292291E+03  0.00000000000E+00 0. -1.
         11    1    1    2    0    0  0.71960341852E+02  0.33632559024E+02  0.20619604864E+03  0.22096662712E+03  0.00000000000E+00 0.  1.
<mgrwt>
<rscale>  0 0.21911243E+03</rscale>
<asrwt>0</asrwt>
<pdfrwt beam="1">  1        2 0.23419487E+00 0.22309877E+03</pdfrwt>
<pdfrwt beam="2">  1       -2 0.47130780E-02 0.22309877E+03</pdfrwt>
<totfact> 0.28429047E+03</totfact>
</mgrwt>
</event>
<event>
 6    1  0.5258538E-006  0.1466605E+03  0.7546771E-02  0.1214362E+00
         -2   -1    0    0    0  501 -0.00000000000E+00  0.00000000000E+00  0.16962969435E+03  0.16962969435E+03  0.00000000000E+00 0.  1.
          2   -1    0    0  501    0  0.00000000000E+00 -0.00000000000E+00 -0.12538051170E+03  0.12538051170E+03  0.00000000000E+00 0. -1.
          5    1    1    2  502    0 -0.29733353155E+02  0.23257429105E+02 -0.69958684470E+02  0.79632203481E+02  0.47000000000E+01 0.  1.
         -5    1    1    2    0  502 -0.43751373196E+02 -0.45283273863E+02  0.33519870474E+02  0.71487266452E+02  0.47000000000E+01 0.  1.
        -11    1    1    2    0    0  0.51734996397E+02 -0.31829879603E+02  0.36021545843E+02  0.70620130648E+02  0.00000000000E+00 0. -1.
         11    1    1    2    0    0  0.21749729953E+02  0.53855724361E+02  0.44666450799E+02  0.73270605474E+02  0.00000000000E+00 0.  1.
<mgrwt>
<rscale>  0 0.13923486E+03</rscale>
<asrwt>0</asrwt>
<pdfrwt beam="2">  1        2 0.19289310E-01 0.14666052E+03</pdfrwt>
<pdfrwt beam="1">  1       -2 0.26096876E-01 0.14666052E+03</pdfrwt>
<totfact> 0.36748353E+03</totfact>
</mgrwt>
</event>
<event>
 6    1  0.5258538E-006  0.1275314E+03  0.7546771E-02  0.1244263E+00
          2   -1    0    0  501    0  0.00000000000E+00  0.00000000000E+00  0.10756950710E+03  0.10756950710E+03  0.00000000000E+00 0. -1.
         -2   -1    0    0    0  501 -0.00000000000E+00 -0.00000000000E+00 -0.11816536746E+03  0.11816536746E+03  0.00000000000E+00 0.  1.
          5    1    1    2  502    0  0.20024541349E+02  0.54839005930E+02  0.36429585844E+02  0.68974658770E+02  0.47000000000E+01 0.  1.
         -5    1    1    2    0  502 -0.15584090614E+02 -0.29958234449E+02 -0.48281485863E+02  0.59106273514E+02  0.47000000000E+01 0.  1.
        -11    1    1    2    0    0 -0.32799797053E+02  0.23600654042E+02 -0.65895663249E+01  0.40941909363E+02  0.00000000000E+00 0.  1.
         11    1    1    2    0    0  0.28359346318E+02 -0.48481425523E+02  0.78456059846E+01  0.56712032918E+02  0.00000000000E+00 0. -1.
<mgrwt>
<rscale>  0 0.11929612E+03</rscale>
<asrwt>0</asrwt>
<pdfrwt beam="1">  1        2 0.16549155E-01 0.12753140E+03</pdfrwt>
<pdfrwt beam="2">  1       -2 0.18179287E-01 0.12753140E+03</pdfrwt>
<totfact> 0.80619287E+03</totfact>
</mgrwt>
</event>
<event>
 6    1  0.5258538E-006  0.1410161E+03  0.7546771E-02  0.1222534E+00
         -1   -1    0    0    0  501 -0.00000000000E+00  0.00000000000E+00  0.32415165382E+02  0.32415165382E+02  0.00000000000E+00 0.  1.
          1   -1    0    0  501    0  0.00000000000E+00 -0.00000000000E+00 -0.98841580382E+03  0.98841580382E+03  0.00000000000E+00 0. -1.
          5    1    1    2  502    0  0.69311959505E+02 -0.51778412349E+02 -0.62624476760E+03  0.63221021082E+03  0.47000000000E+01 0. -1.
         -5    1    1    2    0  502  0.43215867649E+01  0.50853585635E+02 -0.23720404612E+03  0.24267800225E+03  0.47000000000E+01 0.  1.
        -11    1    1    2    0    0  0.11388345341E+02  0.15375202910E+02  0.41017878751E+00  0.19137907952E+02  0.00000000000E+00 0.  1.
         11    1    1    2    0    0 -0.85021891611E+02 -0.14450376196E+02 -0.92962003511E+02  0.12680484818E+03  0.00000000000E+00 0. -1.
<mgrwt>
<rscale>  0 0.13337355E+03</rscale>
<asrwt>0</asrwt>
<pdfrwt beam="2">  1        1 0.15206396E+00 0.14101607E+03</pdfrwt>
<pdfrwt beam="1">  1       -1 0.49869489E-02 0.14101607E+03</pdfrwt>
<totfact> 0.28435813E+03</totfact>
</mgrwt>
</event>
<event>
 6    1  0.5258538E-006  0.2772004E+03  0.7546771E-02  0.1099153E+00
          2   -1    0    0  501    0  0.00000000000E+00  0.00000000000E+00  0.11358778327E+04  0.11358778327E+04  0.00000000000E+00 0. -1.
         -2   -1    0    0    0  501 -0.00000000000E+00 -0.00000000000E+00 -0.69833025944E+02  0.69833025944E+02  0.00000000000E+00 0.  1.
          5    1    1    2  502    0  0.11486640172E+03  0.37926653826E+02  0.22045556163E+03  0.25150639349E+03  0.47000000000E+01 0.  1.
         -5    1    1    2    0  502  0.69179177236E+02  0.12742556907E+03  0.49325447658E+03  0.51414502126E+03  0.47000000000E+01 0.  1.
        -11    1    1    2    0    0 -0.41832719155E+01 -0.29766148121E+02  0.86815648545E+02  0.91872085913E+02  0.00000000000E+00 0. -1.
         11    1    1    2    0    0 -0.17986230704E+03 -0.13558607477E+03  0.26551911998E+03  0.34818735796E+03  0.00000000000E+00 0.  1.
<mgrwt>
<rscale>  0 0.27374947E+03</rscale>
<asrwt>0</asrwt>
<pdfrwt beam="1">  1        2 0.17475042E+00 0.27720042E+03</pdfrwt>
<pdfrwt beam="2">  1       -2 0.10743543E-01 0.27720042E+03</pdfrwt>
<totfact> 0.12878839E+03</totfact>
</mgrwt>
</event>
<event>
 6    1  0.5258538E-006  0.1300120E+03  0.7546771E-02  0.1241173E+00
          3   -1    0    0  501    0  0.00000000000E+00  0.00000000000E+00  0.45056124581E+03  0.45056124581E+03  0.00000000000E+00 0. -1.
         -3   -1    0    0    0  501 -0.00000000000E+00 -0.00000000000E+00 -0.37018071954E+02  0.37018071954E+02  0.00000000000E+00 0.  1.
          5    1    1    2  502    0  0.14283246390E+02  0.68180240797E+01  0.34454011207E+03  0.34493546556E+03  0.47000000000E+01 0. -1.
         -5    1    1    2    0  502  0.21059008653E+02 -0.15200151060E+01 -0.17307779281E+01  0.21699720818E+02  0.47000000000E+01 0. -1.
        -11    1    1    2    0    0  0.27323658766E+02 -0.14770739847E+02  0.86915450581E+01  0.32253682573E+02  0.00000000000E+00 0.  1.
         11    1    1    2    0    0 -0.62665913809E+02  0.94727308732E+01  0.62042294657E+02  0.88690448809E+02  0.00000000000E+00 0. -1.
<mgrwt>
<rscale>  0 0.12117365E+03</rscale>
<asrwt>0</asrwt>
<pdfrwt beam="1">  1        3 0.69317111E-01 0.13001200E+03</pdfrwt>
<pdfrwt beam="2">  1       -3 0.56950883E-02 0.13001200E+03</pdfrwt>
<totfact> 0.86372683E+02</totfact>
</mgrwt>
</event>
<event>
 6    1  0.5258538E-006  0.1422494E+03  0.7546771E-02  0.1221732E+00
         -1   -1    0    0    0  501 -0.00000000000E+00  0.00000000000E+00  0.11231730613E+02  0.11231730613E+02  0.00000000000E+00 0.  1.
          1   -1    0    0  501    0  0.00000000000E+00 -0.00000000000E+00 -0.15322591877E+04  0.15322591877E+04  0.00000000000E+00 0. -1.
          5    1    1    2  502    0 -0.32928518586E+02 -0.46807904057E+02 -0.39494420983E+03  0.39909683799E+03  0.47000000000E+01 0.  1.
         -5    1    1    2    0  502  0.84485468874E+02  0.28290151806E+01 -0.64268020647E+03  0.64823277884E+03  0.47000000000E+01 0.  1.
        -11    1    1    2    0    0 -0.19703821522E+02  0.68047338042E+02 -0.27571246131E+03  0.28466830192E+03  0.00000000000E+00 0. -1.
         11    1    1    2    0    0 -0.31853128765E+02 -0.24068449165E+02 -0.20769057948E+03  0.21149299956E+03  0.00000000000E+00 0.  1.
<mgrwt>
<rscale>  0 0.13393403E+03</rscale>
<asrwt>0</asrwt>
<pdfrwt beam="2">  1        1 0.23573219E+00 0.14224942E+03</pdfrwt>
<pdfrwt beam="1">  1       -1 0.17279585E-02 0.14224942E+03</pdfrwt>
<totfact> 0.56884712E+03</totfact>
</mgrwt>
</event>
<event>
 6    1  0.5258538E-006  0.1311795E+03  0.7546771E-02  0.1239017E+00
          2   -1    0    0  501    0  0.00000000000E+00  0.00000000000E+00  0.17128879073E+03  0.17128879073E+03  0.00000000000E+00 0.  1.
         -2   -1    0    0    0  501 -0.00000000000E+00 -0.00000000000E+00 -0.96111748953E+02  0.96111748953E+02  0.00000000000E+00 0. -1.
          5    1    1    2  502    0 -0.12129515445E+02  0.80991302334E+02  0.88996588241E+02  0.12103387508E+03  0.47000000000E+01 0. -1.
         -5    1    1    2    0  502  0.61832697000E+01 -0.41632866015E+02  0.10564146728E+02  0.43648820750E+02  0.47000000000E+01 0. -1.
        -11    1    1    2    0    0  0.46929663927E+01 -0.59470289927E+02  0.12257245555E+02  0.60901390675E+02  0.00000000000E+00 0.  1.
         11    1    1    2    0    0  0.12532793524E+01  0.20111853607E+02 -0.36640938743E+02  0.41816453181E+02  0.00000000000E+00 0. -1.
<mgrwt>
<rscale>  0 0.12250734E+03</rscale>
<asrwt>0</asrwt>
<pdfrwt beam="1">  1        2 0.26352121E-01 0.13117946E+03</pdfrwt>
<pdfrwt beam="2">  1       -2 0.14786423E-01 0.13117946E+03</pdfrwt>
<totfact> 0.67321812E+03</totfact>
</mgrwt>
</event>
<event>
 6    1  0.5258538E-006  0.1354100E+03  0.7546771E-02  0.1228190E+00
         -1   -1    0    0    0  501 -0.00000000000E+00  0.00000000000E+00  0.23599224001E+02  0.23599224001E+02  0.00000000000E+00 0.  1.
          1   -1    0    0  501    0  0.00000000000E+00 -0.00000000000E+00 -0.69421605115E+03  0.69421605115E+03  0.00000000000E+00 0. -1.
          5    1    1    2  502    0 -0.14141892088E+02  0.73354554962E+02 -0.21919490840E+03  0.23162336176E+03  0.47000000000E+01 0. -1.
         -5    1    1    2    0  502 -0.32286175137E+02 -0.49647878769E+02 -0.22895525885E+03  0.23653733221E+03  0.47000000000E+01 0. -1.
        -11    1    1    2    0    0  0.67995797877E+02  0.13903426256E+02 -0.12485999948E+03  0.14285220775E+03  0.00000000000E+00 0. -1.
         11    1    1    2    0    0 -0.21567730652E+02 -0.37610102449E+02 -0.97606660423E+02  0.10680237343E+03  0.00000000000E+00 0.  1.
<mgrwt>
<rscale>  0 0.12950654E+03</rscale>
<asrwt>0</asrwt>
<pdfrwt beam="2">  1        1 0.10680248E+00 0.13540998E+03</pdfrwt>
<pdfrwt beam="1">  1       -1 0.36306494E-02 0.13540998E+03</pdfrwt>
<totfact> 0.77981324E+03</totfact>
</mgrwt>
</event>
<event>
 6    1  0.5258538E-006  0.1465572E+03  0.7546771E-02  0.1215642E+00
          3   -1    0    0  501    0  0.00000000000E+00  0.00000000000E+00  0.10369178678E+03  0.10369178678E+03  0.00000000000E+00 0. -1.
         -3   -1    0    0    0  501 -0.00000000000E+00 -0.00000000000E+00 -0.16816265072E+03  0.16816265072E+03  0.00000000000E+00 0.  1.
          5    1    1    2  502    0 -0.56864522431E+02 -0.46733756451E+01 -0.50813555912E+02  0.76547513452E+02  0.47000000000E+01 0.  1.
         -5    1    1    2    0  502  0.24549986846E+02  0.74033881711E+02  0.12918008356E+01  0.78150343855E+02  0.47000000000E+01 0.  1.
        -11    1    1    2    0    0  0.26656957729E+02 -0.46008846829E+02 -0.51101495485E+02  0.73748018433E+02  0.00000000000E+00 0.  1.
         11    1    1    2    0    0  0.56575778553E+01 -0.23351659237E+02  0.36152386621E+02  0.43408561767E+02  0.00000000000E+00 0. -1.
<mgrwt>
<rscale>  0 0.13829484E+03</rscale>
<asrwt>0</asrwt>
<pdfrwt beam="1">  1        3 0.15952583E-01 0.14655723E+03</pdfrwt>
<pdfrwt beam="2">  1       -3 0.25871177E-01 0.14655723E+03</pdfrwt>
<totfact> 0.10982584E+03</totfact>
</mgrwt>
</event>
<event>
 6    1  0.5258538E-006  0.1412553E+03  0.7546771E-02  0.1223784E+00
         -2   -1    0    0    0  501 -0.00000000000E+00  0.00000000000E+00  0.18191088651E+02  0.18191088651E+02  0.00000000000E+00 0.  1.
          2   -1    0    0  501    0  0.00000000000E+00 -0.00000000000E+00 -0.93370004490E+03  0.93370004490E+03  0.00000000000E+00 0. -1.
          5    1    1    2  502    0  0.62441658267E+02 -0.65739703097E+02 -0.44760272636E+03  0.45671759316E+03  0.47000000000E+01 0. -1.
         -5    1    1    2    0  502  0.12816468989E+01  0.49392351203E+02 -0.19370138992E+03  0.19995890936E+03  0.47000000000E+01 0. -1.
        -11    1    1    2    0    0 -0.34157322614E+02 -0.32754517554E+02 -0.82331071150E+02  0.94963079063E+02  0.00000000000E+00 0.  1.
         11    1    1    2    0    0 -0.29565982552E+02  0.49101869448E+02 -0.19187376882E+03  0.20025155198E+03  0.00000000000E+00 0. -1.
<mgrwt>
<rscale>  0 0.13250593E+03</rscale>
<asrwt>0</asrwt>
<pdfrwt beam="2">  1        2 0.14364612E+00 0.14125530E+03</pdfrwt>
<pdfrwt beam="1">  1       -2 0.27986298E-02 0.14125530E+03</pdfrwt>
<totfact> 0.13048583E+04</totfact>
</mgrwt>
</event>
<event>
 6    1  0.5258538E-006  0.1408754E+03  0.7546771E-02  0.1222753E+00
         -1   -1    0    0    0  501 -0.00000000000E+00  0.00000000000E+00  0.63130327696E+02  0.63130327696E+02  0.00000000000E+00 0.  1.
          1   -1    0    0  501    0  0.00000000000E+00 -0.00000000000E+00 -0.40914883812E+03  0.40914883812E+03  0.00000000000E+00 0. -1.
          5    1    1    2  502    0 -0.91588040660E+02  0.35129656135E+02 -0.25239626639E+03  0.27082914766E+03  0.47000000000E+01 0. -1.
         -5    1    1    2    0  502  0.26738248176E+02 -0.31284861516E+02 -0.77179817655E+02  0.87592755002E+02  0.47000000000E+01 0. -1.
        -11    1    1    2    0    0  0.12273958508E+02 -0.25834983802E+02  0.29176704117E+02  0.40858004217E+02  0.00000000000E+00 0.  1.
         11    1    1    2    0    0  0.52575833977E+02  0.21990189182E+02 -0.45619130493E+02  0.72999258938E+02  0.00000000000E+00 0. -1.
<mgrwt>
<rscale>  0 0.13322089E+03</rscale>
<asrwt>0</asrwt>
<pdfrwt beam="2">  1        1 0.62945976E-01 0.14087535E+03</pdfrwt>
<pdfrwt beam="1">  1       -1 0.97123580E-02 0.14087535E+03</pdfrwt>
<totfact> 0.36392093E+03</totfact>
</mgrwt>
</event>
<event>
 6    1  0.5258538E-006  0.1331835E+03  0.7546771E-02  0.1234580E+00
         -4   -1    0    0    0  501 -0.00000000000E+00  0.00000000000E+00  0.51648344121E+02  0.51648344121E+02  0.00000000000E+00 0.  1.
          4   -1    0    0  501    0  0.00000000000E+00 -0.00000000000E+00 -0.30291214215E+03  0.30291214215E+03  0.00000000000E+00 0. -1.
          5    1    1    2  502    0  0.59275122488E+02 -0.65504535036E+02 -0.11383456067E+03  0.14416928056E+03  0.47000000000E+01 0. -1.
         -5    1    1    2    0  502 -0.32726241189E+02  0.27979556379E+02 -0.80694180524E+02  0.91583312934E+02  0.47000000000E+01 0. -1.
        -11    1    1    2    0    0  0.25015387519E+02  0.86920334935E+01  0.11221434307E+02  0.28761808825E+02  0.00000000000E+00 0.  1.
         11    1    1    2    0    0 -0.51564268819E+02  0.28832945163E+02 -0.67956491151E+02  0.90046083952E+02  0.00000000000E+00 0. -1.
<mgrwt>
<rscale>  0 0.12531369E+03</rscale>
<asrwt>0</asrwt>
<pdfrwt beam="2">  1        4 0.46601868E-01 0.13318354E+03</pdfrwt>
<pdfrwt beam="1">  1       -4 0.79458991E-02 0.13318354E+03</pdfrwt>
<totfact> 0.82393772E+02</totfact>
</mgrwt>
</event>
<event>
 6    1  0.5258538E-006  0.2648978E+03  0.7546771E-02  0.1106433E+00
          2   -1    0    0  501    0  0.00000000000E+00  0.00000000000E+00  0.17418204545E+04  0.17418204545E+04  0.00000000000E+00 0. -1.
         -2   -1    0    0    0  501 -0.00000000000E+00 -0.00000000000E+00 -0.40325686766E+02  0.40325686766E+02  0.00000000000E+00 0.  1.
          5    1    1    2  502    0  0.52868573700E+02  0.22327998860E+02  0.54839696288E+03  0.55141177401E+03  0.47000000000E+01 0. -1.
         -5    1    1    2    0  502  0.13656158164E+03  0.11429202786E+03  0.53405633121E+03  0.56298311530E+03  0.47000000000E+01 0. -1.
        -11    1    1    2    0    0 -0.86805098713E+02 -0.53907283759E+02  0.15737904994E+03  0.18764137540E+03  0.00000000000E+00 0.  1.
         11    1    1    2    0    0 -0.10262505663E+03 -0.82712742959E+02  0.46166242370E+03  0.48010987654E+03  0.00000000000E+00 0. -1.
<mgrwt>
<rscale>  0 0.26118566E+03</rscale>
<asrwt>0</asrwt>
<pdfrwt beam="1">  1        2 0.26797232E+00 0.26489778E+03</pdfrwt>
<pdfrwt beam="2">  1       -2 0.62039532E-02 0.26489778E+03</pdfrwt>
<totfact> 0.14283054E+03</totfact>
</mgrwt>
</event>
<event>
 6    1  0.5258538E-006  0.1265442E+03  0.7546771E-02  0.1247651E+00
          1   -1    0    0  501    0  0.00000000000E+00  0.00000000000E+00  0.17249752004E+03  0.17249752004E+03  0.00000000000E+00 0. -1.
         -1   -1    0    0    0  501 -0.00000000000E+00 -0.00000000000E+00 -0.70730248136E+02  0.70730248136E+02  0.00000000000E+00 0.  1.
          5    1    1    2  502    0 -0.60718557494E+01  0.40273925109E+02 -0.22990439314E+02  0.47005390922E+02  0.47000000000E+01 0.  1.
         -5    1    1    2    0  502  0.17090586652E+02 -0.23896989285E+02  0.92937084412E+02  0.97583532976E+02  0.47000000000E+01 0.  1.
        -11    1    1    2    0    0  0.94755144587E+01 -0.47926597720E+02 -0.77525721879E+00  0.48860466300E+02  0.00000000000E+00 0.  1.
         11    1    1    2    0    0 -0.20494245362E+02  0.31549661897E+02  0.32595884025E+02  0.49778377978E+02  0.00000000000E+00 0. -1.
<mgrwt>
<rscale>  0 0.11728106E+03</rscale>
<asrwt>0</asrwt>
<pdfrwt beam="1">  1        1 0.26538080E-01 0.12654416E+03</pdfrwt>
<pdfrwt beam="2">  1       -1 0.10881577E-01 0.12654416E+03</pdfrwt>
<totfact> 0.88865281E+03</totfact>
</mgrwt>
</event>
<event>
 6    1  0.5258538E-006  0.1851094E+03  0.7546771E-02  0.1186819E+00
         -2   -1    0    0    0  501 -0.00000000000E+00  0.00000000000E+00  0.34624589548E+02  0.34624589548E+02  0.00000000000E+00 0.  1.
          2   -1    0    0  501    0  0.00000000000E+00 -0.00000000000E+00 -0.64350730063E+03  0.64350730063E+03  0.00000000000E+00 0. -1.
          5    1    1    2  502    0 -0.15764482171E+01  0.57370103280E+02 -0.38617255560E+03  0.39044224495E+03  0.47000000000E+01 0. -1.
         -5    1    1    2    0  502  0.42360255652E+02 -0.55946968762E+02 -0.59427196602E+02  0.92076795494E+02  0.47000000000E+01 0.  1.
        -11    1    1    2    0    0 -0.31818336443E+02 -0.46982762870E+02 -0.11709584162E+03  0.13012003176E+03  0.00000000000E+00 0.  1.
         11    1    1    2    0    0 -0.89654709913E+01  0.45559628352E+02 -0.46187117261E+02  0.65492817977E+02  0.00000000000E+00 0. -1.
<mgrwt>
<rscale>  0 0.16167502E+03</rscale>
<asrwt>0</asrwt>
<pdfrwt beam="2">  1        2 0.99001114E-01 0.18510939E+03</pdfrwt>
<pdfrwt beam="1">  1       -2 0.53268604E-02 0.18510939E+03</pdfrwt>
<totfact> 0.80616747E+03</totfact>
</mgrwt>
</event>
<event>
 6    1  0.5258538E-006  0.1700020E+03  0.7546771E-02  0.1189936E+00
         -2   -1    0    0    0  501 -0.00000000000E+00  0.00000000000E+00  0.46945119756E+02  0.46945119756E+02  0.00000000000E+00 0.  1.
          2   -1    0    0  501    0  0.00000000000E+00 -0.00000000000E+00 -0.47870744950E+03  0.47870744950E+03  0.00000000000E+00 0. -1.
          5    1    1    2  502    0 -0.39396792342E+02  0.23543009968E+02 -0.16917311927E+03  0.17535111875E+03  0.47000000000E+01 0.  1.
         -5    1    1    2    0  502  0.28244627144E+02  0.91141660119E+02 -0.71584927714E+02  0.11937777451E+03  0.47000000000E+01 0.  1.
        -11    1    1    2    0    0  0.32263751329E+02 -0.46545795900E+02 -0.65732369332E+02  0.86765230040E+02  0.00000000000E+00 0.  1.
         11    1    1    2    0    0 -0.21111586131E+02 -0.68138874186E+02 -0.12527191343E+03  0.14415844595E+03  0.00000000000E+00 0. -1.
<mgrwt>
<rscale>  0 0.15890711E+03</rscale>
<asrwt>0</asrwt>
<pdfrwt beam="2">  1        2 0.73647307E-01 0.17000201E+03</pdfrwt>
<pdfrwt beam="1">  1       -2 0.72223254E-02 0.17000201E+03</pdfrwt>
<totfact> 0.70419397E+03</totfact>
</mgrwt>
</event>
<event>
 6    1  0.5258538E-006  0.3582053E+03  0.7546771E-02  0.1059297E+00
          1   -1    0    0  501    0  0.00000000000E+00  0.00000000000E+00  0.29003722409E+03  0.29003722409E+03  0.00000000000E+00 0. -1.
         -1   -1    0    0    0  501 -0.00000000000E+00 -0.00000000000E+00 -0.11059878627E+03  0.11059878627E+03  0.00000000000E+00 0.  1.
          5    1    1    2  502    0 -0.24968112223E+02  0.15360813473E+02  0.14177150569E+02  0.32900498732E+02  0.47000000000E+01 0. -1.
         -5    1    1    2    0  502  0.64312031269E+02 -0.99780257766E+02  0.18800719810E+03  0.22239814240E+03  0.47000000000E+01 0. -1.
        -11    1    1    2    0    0 -0.29377169832E+02  0.56379642291E+02 -0.66772582028E+02  0.92196853975E+02  0.00000000000E+00 0.  1.
         11    1    1    2    0    0 -0.99667492133E+01  0.28039802002E+02  0.44026671175E+02  0.53140515249E+02  0.00000000000E+00 0. -1.
<mgrwt>
<rscale>  0 0.35820533E+03</rscale>
<asrwt>0</asrwt>
<pdfrwt beam="1">  1        1 0.44621111E-01 0.35820533E+03</pdfrwt>
<pdfrwt beam="2">  1       -1 0.17015198E-01 0.35820533E+03</pdfrwt>
<totfact> 0.24082751E+03</totfact>
</mgrwt>
</event>
<event>
 6    1  0.5258538E-006  0.1819408E+03  0.7546771E-02  0.1171632E+00
         -2   -1    0    0    0  501 -0.00000000000E+00  0.00000000000E+00  0.79227964772E+02  0.79227964772E+02  0.00000000000E+00 0.  1.
          2   -1    0    0  501    0  0.00000000000E+00 -0.00000000000E+00 -0.37463585395E+03  0.37463585395E+03  0.00000000000E+00 0. -1.
          5    1    1    2  502    0  0.10852268285E+03  0.52460739359E+02 -0.16579088355E+03  0.20503172666E+03  0.47000000000E+01 0. -1.
         -5    1    1    2    0  502 -0.21203418142E+02  0.46798230841E+02 -0.20937737066E+02  0.55678884545E+02  0.47000000000E+01 0. -1.
        -11    1    1    2    0    0 -0.30728560457E+02 -0.72244367228E+02 -0.10395223951E+03  0.13026726804E+03  0.00000000000E+00 0. -1.
         11    1    1    2    0    0 -0.56590704248E+02 -0.27014602972E+02 -0.47270290536E+01  0.62885939484E+02  0.00000000000E+00 0.  1.
<mgrwt>
<rscale>  0 0.17609970E+03</rscale>
<asrwt>0</asrwt>
<pdfrwt beam="2">  1        2 0.57636286E-01 0.18194077E+03</pdfrwt>
<pdfrwt beam="1">  1       -2 0.12188917E-01 0.18194077E+03</pdfrwt>
<totfact> 0.40456099E+03</totfact>
</mgrwt>
</event>
<event>
 6    1  0.5258538E-006  0.2648345E+03  0.7546771E-02  0.1106315E+00
          2   -1    0    0  501    0  0.00000000000E+00  0.00000000000E+00  0.33184625375E+03  0.33184625375E+03  0.00000000000E+00 0. -1.
         -2   -1    0    0    0  501 -0.00000000000E+00 -0.00000000000E+00 -0.20833523464E+03  0.20833523464E+03  0.00000000000E+00 0.  1.
          5    1    1    2  502    0  0.17423177261E+03  0.37991519844E+01  0.13616265979E+03  0.22120918621E+03  0.47000000000E+01 0.  1.
         -5    1    1    2    0  502  0.58120849089E+02 -0.26724766939E+02 -0.21123494187E+02  0.67531757518E+02  0.47000000000E+01 0.  1.
        -11    1    1    2    0    0 -0.50765068464E+02  0.41257977260E+02  0.20446959141E+02  0.68537515288E+02  0.00000000000E+00 0. -1.
         11    1    1    2    0    0 -0.18158755324E+03 -0.18332362305E+02 -0.11975105639E+02  0.18290302937E+03  0.00000000000E+00 0.  1.
<mgrwt>
<rscale>  0 0.26138346E+03</rscale>
<asrwt>0</asrwt>
<pdfrwt beam="1">  1        2 0.51053270E-01 0.26483452E+03</pdfrwt>
<pdfrwt beam="2">  1       -2 0.32051575E-01 0.26483452E+03</pdfrwt>
<totfact> 0.88825524E+02</totfact>
</mgrwt>
</event>
<event>
 6    1  0.5258538E-006  0.1437626E+03  0.7546771E-02  0.1219302E+00
         -2   -1    0    0    0  501 -0.00000000000E+00  0.00000000000E+00  0.30424395970E+02  0.30424395970E+02  0.00000000000E+00 0.  1.
          2   -1    0    0  501    0  0.00000000000E+00 -0.00000000000E+00 -0.59820312959E+03  0.59820312959E+03  0.00000000000E+00 0. -1.
          5    1    1    2  502    0  0.52334344931E+02 -0.40695604921E+01 -0.36950488835E+03  0.37324442058E+03  0.47000000000E+01 0.  1.
         -5    1    1    2    0  502  0.65236013830E+01  0.43764061501E+02 -0.36793363773E+02  0.57738133602E+02  0.47000000000E+01 0.  1.
        -11    1    1    2    0    0 -0.81416712598E+02 -0.19851105746E+02 -0.12273453371E+03  0.14861531971E+03  0.00000000000E+00 0.  1.
         11    1    1    2    0    0  0.22558766284E+02 -0.19843395263E+02 -0.38745947790E+02  0.49029651661E+02  0.00000000000E+00 0. -1.
<mgrwt>
<rscale>  0 0.13565180E+03</rscale>
<asrwt>0</asrwt>
<pdfrwt beam="2">  1        2 0.92031253E-01 0.14376262E+03</pdfrwt>
<pdfrwt beam="1">  1       -2 0.46806762E-02 0.14376262E+03</pdfrwt>
<totfact> 0.10502519E+04</totfact>
</mgrwt>
</event>
<event>
 6    1  0.5258538E-006  0.2158278E+03  0.7546771E-02  0.1140501E+00
          2   -1    0    0  501    0  0.00000000000E+00  0.00000000000E+00  0.66540911316E+03  0.66540911316E+03  0.00000000000E+00 0. -1.
         -2   -1    0    0    0  501 -0.00000000000E+00 -0.00000000000E+00 -0.77664770456E+02  0.77664770456E+02  0.00000000000E+00 0.  1.
          5    1    1    2  502    0 -0.55393868627E+02 -0.11890744052E+03  0.27934377797E+03  0.30864623177E+03  0.47000000000E+01 0.  1.
         -5    1    1    2    0  502  0.62377081757E+02 -0.56902614959E+02  0.17768108405E+03  0.19677770592E+03  0.47000000000E+01 0.  1.
        -11    1    1    2    0    0 -0.31279862716E+02  0.13862853062E+03  0.13093056503E+03  0.19323331020E+03  0.00000000000E+00 0.  1.
         11    1    1    2    0    0  0.24296649586E+02  0.37181524861E+02 -0.21108435725E+00  0.44416635721E+02  0.00000000000E+00 0. -1.
<mgrwt>
<rscale>  0 0.21135068E+03</rscale>
<asrwt>0</asrwt>
<pdfrwt beam="1">  1        2 0.10237063E+00 0.21582778E+03</pdfrwt>
<pdfrwt beam="2">  1       -2 0.11948427E-01 0.21582778E+03</pdfrwt>
<totfact> 0.22081603E+03</totfact>
</mgrwt>
</event>
<event>
 6    1  0.5258538E-006  0.3813876E+03  0.7546771E-02  0.1050422E+00
          1   -1    0    0  501    0  0.00000000000E+00  0.00000000000E+00  0.17140130036E+04  0.17140130036E+04  0.00000000000E+00 0. -1.
         -1   -1    0    0    0  501 -0.00000000000E+00 -0.00000000000E+00 -0.21215784683E+02  0.21215784683E+02  0.00000000000E+00 0.  1.
          5    1    1    2  502    0 -0.18489448833E+02 -0.17511648684E+03  0.82153680339E+03  0.84020976726E+03  0.47000000000E+01 0.  1.
         -5    1    1    2    0  502  0.11661464887E+02  0.19656191228E+02  0.12065729507E+03  0.12289275190E+03  0.47000000000E+01 0.  1.
        -11    1    1    2    0    0 -0.10248898163E+02  0.12485245508E+03  0.69640459644E+03  0.70758217713E+03  0.00000000000E+00 0. -1.
         11    1    1    2    0    0  0.17076882109E+02  0.30607840541E+02  0.54198524062E+02  0.64544092027E+02  0.00000000000E+00 0.  1.
<mgrwt>
<rscale>  0 0.38138763E+03</rscale>
<asrwt>0</asrwt>
<pdfrwt beam="1">  1        1 0.26369420E+00 0.38138763E+03</pdfrwt>
<pdfrwt beam="2">  1       -1 0.32639682E-02 0.38138763E+03</pdfrwt>
<totfact> 0.17160297E+03</totfact>
</mgrwt>
</event>
<event>
 6    1  0.5258538E-006  0.1526232E+03  0.7546771E-02  0.1206125E+00
          1   -1    0    0  501    0  0.00000000000E+00  0.00000000000E+00  0.53918216029E+02  0.53918216029E+02  0.00000000000E+00 0.  1.
         -1   -1    0    0    0  501 -0.00000000000E+00 -0.00000000000E+00 -0.37018720092E+03  0.37018720092E+03  0.00000000000E+00 0. -1.
          5    1    1    2  502    0 -0.45376829262E+02  0.14644411840E+02 -0.12098055943E+03  0.13012263905E+03  0.47000000000E+01 0.  1.
         -5    1    1    2    0  502  0.60072471568E+02  0.71685224974E+02 -0.86782752685E+02  0.12767462349E+03  0.47000000000E+01 0.  1.
        -11    1    1    2    0    0 -0.31073589012E+02 -0.68199443465E+02 -0.24540390823E+02  0.78860400739E+02  0.00000000000E+00 0.  1.
         11    1    1    2    0    0  0.16377946706E+02 -0.18130193350E+02 -0.83965281949E+02  0.87447753670E+02  0.00000000000E+00 0. -1.
<mgrwt>
<rscale>  0 0.14549180E+03</rscale>
<asrwt>0</asrwt>
<pdfrwt beam="1">  1        1 0.82951105E-02 0.15262318E+03</pdfrwt>
<pdfrwt beam="2">  1       -1 0.56951874E-01 0.15262318E+03</pdfrwt>
<totfact> 0.25859938E+03</totfact>
</mgrwt>
</event>
<event>
 6    1  0.5258538E-006  0.1797279E+03  0.7546771E-02  0.1173621E+00
         -2   -1    0    0    0  501 -0.00000000000E+00  0.00000000000E+00  0.24243435483E+02  0.24243435483E+02  0.00000000000E+00 0.  1.
          2   -1    0    0  501    0  0.00000000000E+00 -0.00000000000E+00 -0.13417766340E+04  0.13417766340E+04  0.00000000000E+00 0. -1.
          5    1    1    2  502    0 -0.15761950458E+02  0.57473250860E+02 -0.75912951237E+03  0.76147969126E+03  0.47000000000E+01 0. -1.
         -5    1    1    2    0  502 -0.49199996408E+02  0.54142979759E+02 -0.17419721269E+03  0.18899434069E+03  0.47000000000E+01 0. -1.
        -11    1    1    2    0    0  0.11562726284E+02 -0.66992446892E+02 -0.87597362071E+02  0.11088274177E+03  0.00000000000E+00 0.  1.
         11    1    1    2    0    0  0.53399220582E+02 -0.44623783727E+02 -0.29660911142E+03  0.30466329581E+03  0.00000000000E+00 0. -1.
<mgrwt>
<rscale>  0 0.17411759E+03</rscale>
<asrwt>0</asrwt>
<pdfrwt beam="2">  1        2 0.20642720E+00 0.17972788E+03</pdfrwt>
<pdfrwt beam="1">  1       -2 0.37297588E-02 0.17972788E+03</pdfrwt>
<totfact> 0.50336891E+03</totfact>
</mgrwt>
</event>
<event>
 6    1  0.5258538E-006  0.1312325E+03  0.7546771E-02  0.1238929E+00
         -1   -1    0    0    0  501 -0.00000000000E+00  0.00000000000E+00  0.28453703239E+02  0.28453703239E+02  0.00000000000E+00 0.  1.
          1   -1    0    0  501    0  0.00000000000E+00 -0.00000000000E+00 -0.50345345166E+03  0.50345345166E+03  0.00000000000E+00 0. -1.
          5    1    1    2  502    0 -0.50399740499E+00  0.56017098098E+02 -0.92925939779E+02  0.10860704202E+03  0.47000000000E+01 0.  1.
         -5    1    1    2    0  502 -0.39390292939E+02 -0.53803636980E+02 -0.24348397727E+03  0.25249349242E+03  0.47000000000E+01 0.  1.
        -11    1    1    2    0    0  0.27131837850E+02  0.37287703713E+02 -0.11298525122E+03  0.12203350551E+03  0.00000000000E+00 0. -1.
         11    1    1    2    0    0  0.12762452494E+02 -0.39501164830E+02 -0.25604580149E+02  0.48773114943E+02  0.00000000000E+00 0.  1.
<mgrwt>
<rscale>  0 0.12256196E+03</rscale>
<asrwt>0</asrwt>
<pdfrwt beam="2">  1        1 0.77454374E-01 0.13123248E+03</pdfrwt>
<pdfrwt beam="1">  1       -1 0.43774930E-02 0.13123248E+03</pdfrwt>
<totfact> 0.91500204E+03</totfact>
</mgrwt>
</event>
<event>
 6    1  0.5258538E-006  0.1255068E+03  0.7546771E-02  0.1250007E+00
         -3   -1    0    0    0  501 -0.00000000000E+00  0.00000000000E+00  0.20213323926E+03  0.20213323926E+03  0.00000000000E+00 0.  1.
          3   -1    0    0  501    0  0.00000000000E+00 -0.00000000000E+00 -0.66621128345E+02  0.66621128345E+02  0.00000000000E+00 0. -1.
          5    1    1    2  502    0  0.35296679958E+02 -0.55185211230E+02  0.34168592965E+02  0.74032735325E+02  0.47000000000E+01 0.  1.
         -5    1    1    2    0  502 -0.27167483697E+02  0.47289543497E+02 -0.45270096339E+01  0.54926832339E+02  0.47000000000E+01 0.  1.
        -11    1    1    2    0    0 -0.33420420476E+02  0.13735446750E+02  0.60266328316E+01  0.36632052980E+02  0.00000000000E+00 0. -1.
         11    1    1    2    0    0  0.25291224215E+02 -0.58397790171E+01  0.99843894750E+02  0.10316274696E+03  0.00000000000E+00 0.  1.
<mgrwt>
<rscale>  0 0.11590633E+03</rscale>
<asrwt>0</asrwt>
<pdfrwt beam="2">  1        3 0.10249404E-01 0.12550676E+03</pdfrwt>
<pdfrwt beam="1">  1       -3 0.31097421E-01 0.12550676E+03</pdfrwt>
<totfact> 0.16105304E+03</totfact>
</mgrwt>
</event>
<event>
 6    1  0.5258538E-006  0.1172768E+03  0.7546771E-02  0.1255793E+00
         -2   -1    0    0    0  501 -0.00000000000E+00  0.00000000000E+00  0.36559527135E+02  0.36559527135E+02  0.00000000000E+00 0.  1.
          2   -1    0    0  501    0  0.00000000000E+00 -0.00000000000E+00 -0.33655146371E+03  0.33655146371E+03  0.00000000000E+00 0. -1.
          5    1    1    2  502    0 -0.50751952078E+02  0.27568711371E+02 -0.11196260382E+03  0.12606946157E+03  0.47000000000E+01 0. -1.
         -5    1    1    2    0  502  0.20669627877E+02 -0.54688472679E+02 -0.88268812942E+02  0.10597894083E+03  0.47000000000E+01 0.  1.
        -11    1    1    2    0    0  0.52617409902E+02  0.34923353005E+02 -0.98720402192E+02  0.11719193752E+03  0.00000000000E+00 0. -1.
         11    1    1    2    0    0 -0.22535085701E+02 -0.78035916974E+01 -0.10401176142E+01  0.23870650925E+02  0.00000000000E+00 0.  1.
<mgrwt>
<rscale>  0 0.11262058E+03</rscale>
<asrwt>0</asrwt>
<pdfrwt beam="2">  1        2 0.51777151E-01 0.11727677E+03</pdfrwt>
<pdfrwt beam="1">  1       -2 0.56245424E-02 0.11727677E+03</pdfrwt>
<totfact> 0.14650305E+04</totfact>
</mgrwt>
</event>
<event>
 6    1  0.5258538E-006  0.1571902E+03  0.7546771E-02  0.1198711E+00
         -1   -1    0    0    0  501 -0.00000000000E+00  0.00000000000E+00  0.47865712449E+02  0.47865712449E+02  0.00000000000E+00 0.  1.
          1   -1    0    0  501    0  0.00000000000E+00 -0.00000000000E+00 -0.49539786375E+03  0.49539786375E+03  0.00000000000E+00 0. -1.
          5    1    1    2  502    0 -0.12438008322E+03  0.16920013994E+02 -0.26805101894E+03  0.29602386852E+03  0.47000000000E+01 0.  1.
         -5    1    1    2    0  502  0.30854153297E+02  0.10488768167E+01 -0.55225877839E+02  0.63443411804E+02  0.47000000000E+01 0.  1.
        -11    1    1    2    0    0  0.81194920179E+02 -0.48992208135E+02 -0.11519014480E+03  0.14920328743E+03  0.00000000000E+00 0. -1.
         11    1    1    2    0    0  0.12331009746E+02  0.31023317324E+02 -0.90651097185E+01  0.34593008446E+02  0.00000000000E+00 0.  1.
<mgrwt>
<rscale>  0 0.15144299E+03</rscale>
<asrwt>0</asrwt>
<pdfrwt beam="2">  1        1 0.76215061E-01 0.15719025E+03</pdfrwt>
<pdfrwt beam="1">  1       -1 0.73639553E-02 0.15719025E+03</pdfrwt>
<totfact> 0.43520819E+03</totfact>
</mgrwt>
</event>
<event>
 6    1  0.5258538E-006  0.2610153E+03  0.7546771E-02  0.1108707E+00
          2   -1    0    0  501    0  0.00000000000E+00  0.00000000000E+00  0.16842186397E+04  0.16842186397E+04  0.00000000000E+00 0.  1.
         -2   -1    0    0    0  501 -0.00000000000E+00 -0.00000000000E+00 -0.38456793985E+02  0.38456793985E+02  0.00000000000E+00 0. -1.
          5    1    1    2  502    0  0.11258270121E+03  0.96845073302E+02  0.33778057152E+03  0.36901441345E+03  0.47000000000E+01 0.  1.
         -5    1    1    2    0  502  0.65859837183E+02  0.46894793755E+02  0.56387623412E+03  0.56966230106E+03  0.47000000000E+01 0.  1.
        -11    1    1    2    0    0 -0.38915299757E+02 -0.88163863377E+02  0.31129749863E+03  0.32587328828E+03  0.00000000000E+00 0. -1.
         11    1    1    2    0    0 -0.13952723864E+03 -0.55576003680E+02  0.43280754139E+03  0.45812543085E+03  0.00000000000E+00 0.  1.
<mgrwt>
<rscale>  0 0.25741365E+03</rscale>
<asrwt>0</asrwt>
<pdfrwt beam="1">  1        2 0.25911050E+00 0.26101529E+03</pdfrwt>
<pdfrwt beam="2">  1       -2 0.59164311E-02 0.26101529E+03</pdfrwt>
<totfact> 0.16482024E+03</totfact>
</mgrwt>
</event>
<event>
 6    1  0.5258538E-006  0.1426361E+03  0.7546771E-02  0.1220533E+00
          2   -1    0    0  501    0  0.00000000000E+00  0.00000000000E+00  0.54693435780E+03  0.54693435780E+03  0.00000000000E+00 0. -1.
         -2   -1    0    0    0  501 -0.00000000000E+00 -0.00000000000E+00 -0.30810238864E+02  0.30810238864E+02  0.00000000000E+00 0.  1.
          5    1    1    2  502    0  0.18239442851E+02 -0.57831098502E+02  0.25778988185E+03  0.26486756391E+03  0.47000000000E+01 0. -1.
         -5    1    1    2    0  502 -0.61302888897E+02  0.42988907078E+01  0.74146787685E+02  0.96417637248E+02  0.47000000000E+01 0. -1.
        -11    1    1    2    0    0  0.30605722672E+02  0.11625390871E+02  0.63789194246E+01  0.33354918471E+02  0.00000000000E+00 0.  1.
         11    1    1    2    0    0  0.12457723374E+02  0.41906816923E+02  0.17780852998E+03  0.18310447703E+03  0.00000000000E+00 0. -1.
<mgrwt>
<rscale>  0 0.13477842E+03</rscale>
<asrwt>0</asrwt>
<pdfrwt beam="1">  1        2 0.84143740E-01 0.14263605E+03</pdfrwt>
<pdfrwt beam="2">  1       -2 0.47400371E-02 0.14263605E+03</pdfrwt>
<totfact> 0.11396001E+04</totfact>
</mgrwt>
</event>
<event>
 6    1  0.5973094E-006  0.2031197E+03  0.7546771E-02  0.1151143E+00
         -1   -1    0    0    0  501 -0.00000000000E+00  0.00000000000E+00  0.25405763399E+03  0.25405763399E+03  0.00000000000E+00 0.  1.
          1   -1    0    0  501    0  0.00000000000E+00 -0.00000000000E+00 -0.15183087570E+03  0.15183087570E+03  0.00000000000E+00 0. -1.
          5    1    1    2  502    0 -0.59149779214E+02  0.14678996123E+03 -0.11902517660E+02  0.15877578224E+03  0.47000000000E+01 0.  1.
         -5    1    1    2    0  502 -0.28076784749E+02 -0.12537405649E+02  0.33139340166E+02  0.45451053331E+02  0.47000000000E+01 0.  1.
        -11    1    1    2    0    0  0.77630325347E+02 -0.13778189510E+03  0.45257088596E+02  0.16449474794E+03  0.00000000000E+00 0. -1.
         11    1    1    2    0    0  0.95962386163E+01  0.35293395186E+01  0.35732847194E+02  0.37166926179E+02  0.00000000000E+00 0.  1.
<mgrwt>
<rscale>  0 0.19834493E+03</rscale>
<asrwt>0</asrwt>
<pdfrwt beam="2">  1        1 0.23358596E-01 0.20311966E+03</pdfrwt>
<pdfrwt beam="1">  1       -1 0.39085790E-01 0.20311966E+03</pdfrwt>
<totfact> 0.13348538E+03</totfact>
</mgrwt>
</event>
<event>
 6    1  0.5258538E-006  0.2789401E+03  0.7546771E-02  0.1096269E+00
         -2   -1    0    0    0  501 -0.00000000000E+00  0.00000000000E+00  0.23347997858E+03  0.23347997858E+03  0.00000000000E+00 0.  1.
          2   -1    0    0  501    0  0.00000000000E+00 -0.00000000000E+00 -0.83312891638E+02  0.83312891638E+02  0.00000000000E+00 0. -1.
          5    1    1    2  502    0 -0.44175161475E+01 -0.14461115332E+02 -0.17743090418E+02  0.23781201886E+02  0.47000000000E+01 0.  1.
         -5    1    1    2    0  502  0.11940835697E+02  0.95869695094E+02  0.13517482056E+03  0.16621643754E+03  0.47000000000E+01 0.  1.
        -11    1    1    2    0    0  0.35341134553E+02 -0.79472354014E+01  0.17212470216E+01  0.36264542370E+02  0.00000000000E+00 0. -1.
         11    1    1    2    0    0 -0.42864454103E+02 -0.73461344361E+02  0.31014109776E+02  0.90530688422E+02  0.00000000000E+00 0.  1.
<mgrwt>
<rscale>  0 0.27894008E+03</rscale>
<asrwt>0</asrwt>
<pdfrwt beam="2">  1        2 0.12817368E-01 0.27894008E+03</pdfrwt>
<pdfrwt beam="1">  1       -2 0.35919996E-01 0.27894008E+03</pdfrwt>
<totfact> 0.34336558E+03</totfact>
</mgrwt>
</event>
<event>
 6    1  0.5258538E-006  0.4434620E+03  0.7546771E-02  0.1029690E+00
         -2   -1    0    0    0  501 -0.00000000000E+00  0.00000000000E+00  0.93912046224E+02  0.93912046224E+02  0.00000000000E+00 0.  1.
          2   -1    0    0  501    0  0.00000000000E+00 -0.00000000000E+00 -0.52351798061E+03  0.52351798061E+03  0.00000000000E+00 0. -1.
          5    1    1    2  502    0  0.16264352544E+03  0.12494257363E+03 -0.19662105715E+03  0.28415751474E+03  0.47000000000E+01 0.  1.
         -5    1    1    2    0  502 -0.20197368462E+02  0.49242467506E+01 -0.41912244416E+02  0.47020294882E+02  0.47000000000E+01 0.  1.
        -11    1    1    2    0    0 -0.34948059268E+02  0.85442780491E+00 -0.60135870565E+01  0.35471962488E+02  0.00000000000E+00 0.  1.
         11    1    1    2    0    0 -0.10749809771E+03 -0.13072124819E+03 -0.18505904577E+03  0.25078025472E+03  0.00000000000E+00 0. -1.
<mgrwt>
<rscale>  0 0.44346204E+03</rscale>
<asrwt>0</asrwt>
<pdfrwt beam="2">  1        2 0.80541228E-01 0.44346204E+03</pdfrwt>
<pdfrwt beam="1">  1       -2 0.14448007E-01 0.44346204E+03</pdfrwt>
<totfact> 0.21656403E+03</totfact>
</mgrwt>
</event>
<event>
 6    1  0.5258538E-006  0.1705923E+03  0.7546771E-02  0.1182783E+00
         -2   -1    0    0    0  501 -0.00000000000E+00  0.00000000000E+00  0.18689897188E+03  0.18689897188E+03  0.00000000000E+00 0.  1.
          2   -1    0    0  501    0  0.00000000000E+00 -0.00000000000E+00 -0.13812671357E+03  0.13812671357E+03  0.00000000000E+00 0. -1.
          5    1    1    2  502    0 -0.44063317058E+02 -0.52307969604E+02  0.96871888159E+01  0.69236054346E+02  0.47000000000E+01 0.  1.
         -5    1    1    2    0  502  0.84797306018E+02 -0.56383657316E+02  0.21534233710E+02  0.10418979385E+03  0.47000000000E+01 0.  1.
        -11    1    1    2    0    0 -0.53516013228E+02  0.63940764694E+02  0.47783026409E+02  0.96102043028E+02  0.00000000000E+00 0.  1.
         11    1    1    2    0    0  0.12782024268E+02  0.44750862226E+02 -0.30232190623E+02  0.55497794228E+02  0.00000000000E+00 0. -1.
<mgrwt>
<rscale>  0 0.16535290E+03</rscale>
<asrwt>0</asrwt>
<pdfrwt beam="2">  1        2 0.21250264E-01 0.17059234E+03</pdfrwt>
<pdfrwt beam="1">  1       -2 0.28753688E-01 0.17059234E+03</pdfrwt>
<totfact> 0.27930208E+03</totfact>
</mgrwt>
</event>
<event>
 6    1  0.5258538E-006  0.1869751E+03  0.7546771E-02  0.1166495E+00
          2   -1    0    0  501    0  0.00000000000E+00  0.00000000000E+00  0.49452363219E+03  0.49452363219E+03  0.00000000000E+00 0. -1.
         -2   -1    0    0    0  501 -0.00000000000E+00 -0.00000000000E+00 -0.62813014851E+02  0.62813014851E+02  0.00000000000E+00 0.  1.
          5    1    1    2  502    0 -0.20487866397E+02  0.22054406976E+02  0.12349507144E+03  0.12719776809E+03  0.47000000000E+01 0.  1.
         -5    1    1    2    0  502 -0.10779812380E+03 -0.75698476314E+02  0.10818528534E+03  0.17051932669E+03  0.47000000000E+01 0.  1.
        -11    1    1    2    0    0  0.13342814762E+03  0.33562492823E+02  0.19435955631E+03  0.23812842886E+03  0.00000000000E+00 0. -1.
         11    1    1    2    0    0 -0.51421574252E+01  0.20081576515E+02  0.56707042473E+01  0.21491123399E+02  0.00000000000E+00 0.  1.
<mgrwt>
<rscale>  0 0.18135821E+03</rscale>
<asrwt>0</asrwt>
<pdfrwt beam="1">  1        2 0.76080556E-01 0.18697508E+03</pdfrwt>
<pdfrwt beam="2">  1       -2 0.96635411E-02 0.18697508E+03</pdfrwt>
<totfact> 0.43338989E+03</totfact>
</mgrwt>
</event>
<event>
 6    1  0.5258538E-006  0.1446558E+03  0.7546771E-02  0.1217572E+00
         -1   -1    0    0    0  501 -0.00000000000E+00  0.00000000000E+00  0.41440508791E+02  0.41440508791E+02  0.00000000000E+00 0.  1.
          1   -1    0    0  501    0  0.00000000000E+00 -0.00000000000E+00 -0.49708073133E+03  0.49708073133E+03  0.00000000000E+00 0. -1.
          5    1    1    2  502    0  0.12407734936E+02  0.41185084752E+01  0.36050647746E+01  0.14352717176E+02  0.47000000000E+01 0. -1.
         -5    1    1    2    0  502 -0.84584573249E+02 -0.13676504395E+02 -0.36425333140E+03  0.37422476701E+03  0.47000000000E+01 0. -1.
        -11    1    1    2    0    0 -0.77771436175E+01 -0.11411745972E+02  0.94623698454E+01  0.16740619823E+02  0.00000000000E+00 0.  1.
         11    1    1    2    0    0  0.79953981931E+02  0.20969741891E+02 -0.10445432576E+03  0.13320313612E+03  0.00000000000E+00 0. -1.
<mgrwt>
<rscale>  0 0.13689294E+03</rscale>
<asrwt>0</asrwt>
<pdfrwt beam="2">  1        1 0.76473951E-01 0.14465576E+03</pdfrwt>
<pdfrwt beam="1">  1       -1 0.63754635E-02 0.14465576E+03</pdfrwt>
<totfact> 0.53581087E+03</totfact>
</mgrwt>
</event>
<event>
 6    1  0.5258538E-006  0.1723751E+03  0.7546771E-02  0.1181434E+00
         -2   -1    0    0    0  501 -0.00000000000E+00  0.00000000000E+00  0.11449100582E+04  0.11449100582E+04  0.00000000000E+00 0.  1.
          2   -1    0    0  501    0  0.00000000000E+00 -0.00000000000E+00 -0.23298336766E+02  0.23298336766E+02  0.00000000000E+00 0. -1.
          5    1    1    2  502    0  0.38491959898E+02  0.56448159233E+02  0.88321711588E+02  0.11176242837E+03  0.47000000000E+01 0. -1.
         -5    1    1    2    0  502 -0.21293627424E+02  0.60988778290E+02  0.42063102480E+03  0.42558853212E+03  0.47000000000E+01 0. -1.
        -11    1    1    2    0    0  0.26332048333E+02 -0.78327157022E+02  0.46006501852E+03  0.46742736501E+03  0.00000000000E+00 0.  1.
         11    1    1    2    0    0 -0.43530380807E+02 -0.39109780501E+02  0.15259396649E+03  0.16343006942E+03  0.00000000000E+00 0. -1.
<mgrwt>
<rscale>  0 0.16660637E+03</rscale>
<asrwt>0</asrwt>
<pdfrwt beam="2">  1        2 0.35843604E-02 0.17237508E+03</pdfrwt>
<pdfrwt beam="1">  1       -2 0.17613996E+00 0.17237508E+03</pdfrwt>
<totfact> 0.50134108E+02</totfact>
</mgrwt>
</event>
<event>
 6    1  0.5258538E-006  0.2596547E+03  0.7546771E-02  0.1109528E+00
          2   -1    0    0  501    0  0.00000000000E+00  0.00000000000E+00  0.16959034270E+03  0.16959034270E+03  0.00000000000E+00 0. -1.
         -2   -1    0    0    0  501 -0.00000000000E+00 -0.00000000000E+00 -0.38092195487E+03  0.38092195487E+03  0.00000000000E+00 0.  1.
          5    1    1    2  502    0  0.76141117812E+02  0.35130909821E+02 -0.52621596437E+02  0.99109903935E+02  0.47000000000E+01 0. -1.
         -5    1    1    2    0  502  0.14071042651E+03 -0.10440015134E+03 -0.86152798848E+02  0.19530286858E+03  0.47000000000E+01 0. -1.
        -11    1    1    2    0    0 -0.34507289522E+02 -0.12668129575E+02  0.12531423351E+02  0.38836466218E+02  0.00000000000E+00 0. -1.
         11    1    1    2    0    0 -0.18234425479E+03  0.81937371096E+02 -0.85088640232E+02  0.21726305884E+03  0.00000000000E+00 0.  1.
<mgrwt>
<rscale>  0 0.25606896E+03</rscale>
<asrwt>0</asrwt>
<pdfrwt beam="1">  1        2 0.26090822E-01 0.25965467E+03</pdfrwt>
<pdfrwt beam="2">  1       -2 0.58603377E-01 0.25965467E+03</pdfrwt>
<totfact> 0.57057210E+02</totfact>
</mgrwt>
</event>
<event>
 6    1  0.5258538E-006  0.1319239E+03  0.7546771E-02  0.1237439E+00
          2   -1    0    0  501    0  0.00000000000E+00  0.00000000000E+00  0.17528218765E+03  0.17528218765E+03  0.00000000000E+00 0. -1.
         -2   -1    0    0    0  501 -0.00000000000E+00 -0.00000000000E+00 -0.79821420416E+02  0.79821420416E+02  0.00000000000E+00 0.  1.
          5    1    1    2  502    0 -0.37381667706E+02 -0.57353204631E+02  0.12557228595E+02  0.69760684858E+02  0.47000000000E+01 0.  1.
         -5    1    1    2    0  502  0.50082486251E+02  0.17133406322E+02  0.62436245734E+02  0.81988925000E+02  0.47000000000E+01 0.  1.
        -11    1    1    2    0    0 -0.32923980331E+02 -0.12645914173E+02 -0.13011202361E+02  0.37592539326E+02  0.00000000000E+00 0.  1.
         11    1    1    2    0    0  0.20223161786E+02  0.52865712481E+02  0.33478495263E+02  0.65761458879E+02  0.00000000000E+00 0. -1.
<mgrwt>
<rscale>  0 0.12349595E+03</rscale>
<asrwt>0</asrwt>
<pdfrwt beam="1">  1        2 0.26966490E-01 0.13192393E+03</pdfrwt>
<pdfrwt beam="2">  1       -2 0.12280219E-01 0.13192393E+03</pdfrwt>
<totfact> 0.88630910E+03</totfact>
</mgrwt>
</event>
<event>
 6    1  0.5258538E-006  0.1340207E+03  0.7546771E-02  0.1234633E+00
          2   -1    0    0  501    0  0.00000000000E+00  0.00000000000E+00  0.75229759820E+02  0.75229759820E+02  0.00000000000E+00 0. -1.
         -2   -1    0    0    0  501 -0.00000000000E+00 -0.00000000000E+00 -0.18736313992E+03  0.18736313992E+03  0.00000000000E+00 0.  1.
          5    1    1    2  502    0  0.16331365095E+02  0.24422943296E+02 -0.97754515230E+02  0.10218233161E+03  0.47000000000E+01 0. -1.
         -5    1    1    2    0  502 -0.44452133687E+02  0.14887425633E+02  0.21747650959E+02  0.51891019970E+02  0.47000000000E+01 0. -1.
        -11    1    1    2    0    0 -0.19735220215E+02 -0.39880663716E+02 -0.40880225017E+02  0.60424656001E+02  0.00000000000E+00 0. -1.
         11    1    1    2    0    0  0.47855988807E+02  0.57029478680E+00  0.47537091887E+01  0.48094892160E+02  0.00000000000E+00 0.  1.
<mgrwt>
<rscale>  0 0.12527932E+03</rscale>
<asrwt>0</asrwt>
<pdfrwt beam="1">  1        2 0.11573809E-01 0.13402072E+03</pdfrwt>
<pdfrwt beam="2">  1       -2 0.28825098E-01 0.13402072E+03</pdfrwt>
<totfact> 0.55755906E+03</totfact>
</mgrwt>
</event>
<event>
 6    1  0.5258538E-006  0.1271211E+03  0.7546771E-02  0.1246145E+00
         -1   -1    0    0    0  501 -0.00000000000E+00  0.00000000000E+00  0.37652223966E+02  0.37652223966E+02  0.00000000000E+00 0. -1.
          1   -1    0    0  501    0  0.00000000000E+00 -0.00000000000E+00 -0.34195952225E+03  0.34195952225E+03  0.00000000000E+00 0.  1.
          5    1    1    2  502    0  0.46591392065E+02  0.51103414290E+02 -0.16261472347E+03  0.17677091123E+03  0.47000000000E+01 0. -1.
         -5    1    1    2    0  502 -0.40958485197E+02 -0.28673524423E+02 -0.49460843151E+02  0.70485697256E+02  0.47000000000E+01 0. -1.
        -11    1    1    2    0    0  0.32338007567E+02  0.11387790000E+02 -0.10070918374E+02  0.35733064400E+02  0.00000000000E+00 0. -1.
         11    1    1    2    0    0 -0.37970914435E+02 -0.33817679866E+02 -0.82160813285E+02  0.96622073329E+02  0.00000000000E+00 0.  1.
<mgrwt>
<rscale>  0 0.11817105E+03</rscale>
<asrwt>0</asrwt>
<pdfrwt beam="2">  1        1 0.52609160E-01 0.12712114E+03</pdfrwt>
<pdfrwt beam="1">  1       -1 0.57926496E-02 0.12712114E+03</pdfrwt>
<totfact> 0.98512474E+03</totfact>
</mgrwt>
</event>
<event>
 6    1  0.5258538E-006  0.1906366E+03  0.7546771E-02  0.1163574E+00
          2   -1    0    0  501    0  0.00000000000E+00  0.00000000000E+00  0.16621665043E+04  0.16621665043E+04  0.00000000000E+00 0. -1.
         -2   -1    0    0    0  501 -0.00000000000E+00 -0.00000000000E+00 -0.19494133458E+02  0.19494133458E+02  0.00000000000E+00 0.  1.
          5    1    1    2  502    0 -0.75695177039E+02  0.56354064325E+02  0.27607460206E+03  0.29179584694E+03  0.47000000000E+01 0. -1.
         -5    1    1    2    0  502 -0.58341779838E+01  0.62261708315E+02  0.69437126756E+03  0.69719732154E+03  0.47000000000E+01 0. -1.
        -11    1    1    2    0    0 -0.12440266972E+02 -0.38624153548E+02  0.22968109509E+03  0.23323805634E+03  0.00000000000E+00 0. -1.
         11    1    1    2    0    0  0.93969621994E+02 -0.79991619091E+02  0.44254540618E+03  0.45942941299E+03  0.00000000000E+00 0.  1.
<mgrwt>
<rscale>  0 0.18443983E+03</rscale>
<asrwt>0</asrwt>
<pdfrwt beam="1">  1        2 0.25571781E+00 0.19063657E+03</pdfrwt>
<pdfrwt beam="2">  1       -2 0.29990988E-02 0.19063657E+03</pdfrwt>
<totfact> 0.47175691E+03</totfact>
</mgrwt>
</event>
<event>
 6    1  0.5258538E-006  0.2497094E+03  0.7546771E-02  0.1113489E+00
         -1   -1    0    0    0  501 -0.00000000000E+00  0.00000000000E+00  0.48827610053E+02  0.48827610053E+02  0.00000000000E+00 0.  1.
          1   -1    0    0  501    0  0.00000000000E+00 -0.00000000000E+00 -0.31925987623E+03  0.31925987623E+03  0.00000000000E+00 0. -1.
          5    1    1    2  502    0  0.14767361202E+01  0.26792315243E+01 -0.14671602384E+03  0.14682316126E+03  0.47000000000E+01 0. -1.
         -5    1    1    2    0  502 -0.21641645226E+02  0.57233606628E+02 -0.80042667085E+01  0.61888648565E+02  0.47000000000E+01 0. -1.
        -11    1    1    2    0    0 -0.11808342290E+02  0.17897407096E+02 -0.84177696829E+01  0.23035037982E+02  0.00000000000E+00 0.  1.
         11    1    1    2    0    0  0.31973251396E+02 -0.77810245248E+02 -0.10729420595E+03  0.13634063848E+03  0.00000000000E+00 0. -1.
<mgrwt>
<rscale>  0 0.24970941E+03</rscale>
<asrwt>0</asrwt>
<pdfrwt beam="2">  1        1 0.49116902E-01 0.24970941E+03</pdfrwt>
<pdfrwt beam="1">  1       -1 0.75119404E-02 0.24970941E+03</pdfrwt>
<totfact> 0.75818394E+03</totfact>
</mgrwt>
</event>
<event>
 6    1  0.5258538E-006  0.1607009E+03  0.7546771E-02  0.1211241E+00
         -1   -1    0    0    0  501 -0.00000000000E+00  0.00000000000E+00  0.68494886024E+02  0.68494886024E+02  0.00000000000E+00 0.  1.
          1   -1    0    0  501    0  0.00000000000E+00 -0.00000000000E+00 -0.24862189633E+03  0.24862189633E+03  0.00000000000E+00 0. -1.
          5    1    1    2  502    0  0.44620748812E+02 -0.76761887365E+01  0.22547543824E+02  0.50797803403E+02  0.47000000000E+01 0. -1.
         -5    1    1    2    0  502 -0.65449831862E+02  0.33676585237E+02 -0.10920592494E+03  0.13177942527E+03  0.47000000000E+01 0.  1.
        -11    1    1    2    0    0 -0.67232128422E+01 -0.35954122349E+02 -0.98267281319E+02  0.10485398935E+03  0.00000000000E+00 0. -1.
         11    1    1    2    0    0  0.27552295892E+02  0.99537258488E+01  0.47986521259E+01  0.29685564327E+02  0.00000000000E+00 0.  1.
<mgrwt>
<rscale>  0 0.14156285E+03</rscale>
<asrwt>0</asrwt>
<pdfrwt beam="2">  1        1 0.38249522E-01 0.16070087E+03</pdfrwt>
<pdfrwt beam="1">  1       -1 0.10537675E-01 0.16070087E+03</pdfrwt>
<totfact> 0.60225635E+03</totfact>
</mgrwt>
</event>
<event>
 6    1  0.5258538E-006  0.1291907E+03  0.7546771E-02  0.1242567E+00
         -4   -1    0    0    0  501 -0.00000000000E+00  0.00000000000E+00  0.33676396570E+03  0.33676396570E+03  0.00000000000E+00 0.  1.
          4   -1    0    0  501    0  0.00000000000E+00 -0.00000000000E+00 -0.43350095941E+02  0.43350095941E+02  0.00000000000E+00 0. -1.
          5    1    1    2  502    0  0.37899980099E+02  0.67063255582E+02  0.47067027938E+02  0.90395153961E+02  0.47000000000E+01 0. -1.
         -5    1    1    2    0  502 -0.10715350918E+02 -0.49015331045E+02  0.51958878467E+02  0.72381879461E+02  0.47000000000E+01 0. -1.
        -11    1    1    2    0    0 -0.53455545424E+02  0.14465399656E+02  0.11324629305E+03  0.12606135813E+03  0.00000000000E+00 0.  1.
         11    1    1    2    0    0  0.26270916243E+02 -0.32513324193E+02  0.81141670298E+02  0.91275670083E+02  0.00000000000E+00 0. -1.
<mgrwt>
<rscale>  0 0.12032197E+03</rscale>
<asrwt>0</asrwt>
<pdfrwt beam="2">  1        4 0.66692458E-02 0.12919068E+03</pdfrwt>
<pdfrwt beam="1">  1       -4 0.51809839E-01 0.12919068E+03</pdfrwt>
<totfact> 0.88065914E+02</totfact>
</mgrwt>
</event>
<event>
 6    1  0.5258538E-006  0.1333128E+03  0.7546771E-02  0.1235411E+00
         -1   -1    0    0    0  501 -0.00000000000E+00  0.00000000000E+00  0.52034916702E+02  0.52034916702E+02  0.00000000000E+00 0.  1.
          1   -1    0    0  501    0  0.00000000000E+00 -0.00000000000E+00 -0.31221963098E+03  0.31221963098E+03  0.00000000000E+00 0. -1.
          5    1    1    2  502    0 -0.66646137104E+02  0.39723645985E+02 -0.75243483262E+02  0.10818201059E+03  0.47000000000E+01 0.  1.
         -5    1    1    2    0  502  0.21018761987E+02 -0.31837816256E+02 -0.13843720063E+03  0.14367457471E+03  0.47000000000E+01 0.  1.
        -11    1    1    2    0    0  0.71195608104E+02  0.70207641490E+01 -0.24880555679E+02  0.75743962092E+02  0.00000000000E+00 0.  1.
         11    1    1    2    0    0 -0.25568232987E+02 -0.14906593878E+02 -0.21623474706E+02  0.36654000293E+02  0.00000000000E+00 0. -1.
<mgrwt>
<rscale>  0 0.12478166E+03</rscale>
<asrwt>0</asrwt>
<pdfrwt beam="2">  1        1 0.48033790E-01 0.13331281E+03</pdfrwt>
<pdfrwt beam="1">  1       -1 0.80053717E-02 0.13331281E+03</pdfrwt>
<totfact> 0.68201068E+03</totfact>
</mgrwt>
</event>
<event>
 6    1  0.5258538E-006  0.1229606E+03  0.7546771E-02  0.1248723E+00
         -1   -1    0    0    0  501 -0.00000000000E+00  0.00000000000E+00  0.36364785073E+02  0.36364785073E+02  0.00000000000E+00 0.  1.
          1   -1    0    0  501    0  0.00000000000E+00 -0.00000000000E+00 -0.36824971561E+03  0.36824971561E+03  0.00000000000E+00 0. -1.
          5    1    1    2  502    0 -0.44599100972E+02 -0.36818939183E+02 -0.11653300757E+03  0.13017966794E+03  0.47000000000E+01 0. -1.
         -5    1    1    2    0  502  0.64596616646E+02 -0.35807511054E+01 -0.12071302769E+03  0.13703747558E+03  0.47000000000E+01 0.  1.
        -11    1    1    2    0    0 -0.54562937624E+01 -0.18735406104E+02 -0.68327933200E+02  0.71059784963E+02  0.00000000000E+00 0. -1.
         11    1    1    2    0    0 -0.14541221912E+02  0.59135096392E+02 -0.26310962074E+02  0.66337572199E+02  0.00000000000E+00 0.  1.
<mgrwt>
<rscale>  0 0.11665325E+03</rscale>
<asrwt>0</asrwt>
<pdfrwt beam="2">  1        1 0.56653803E-01 0.12296065E+03</pdfrwt>
<pdfrwt beam="1">  1       -1 0.55945823E-02 0.12296065E+03</pdfrwt>
<totfact> 0.94351777E+03</totfact>
</mgrwt>
</event>
<event>
 6    1  0.5258538E-006  0.1308110E+03  0.7546771E-02  0.1240674E+00
         -1   -1    0    0    0  501 -0.00000000000E+00  0.00000000000E+00  0.24994393559E+02  0.24994393559E+02  0.00000000000E+00 0.  1.
          1   -1    0    0  501    0  0.00000000000E+00 -0.00000000000E+00 -0.57134408623E+03  0.57134408623E+03  0.00000000000E+00 0. -1.
          5    1    1    2  502    0  0.13163846256E+02 -0.59299005221E+02 -0.38773243258E+03  0.39248972998E+03  0.47000000000E+01 0. -1.
         -5    1    1    2    0  502 -0.48738461720E+01  0.23325598825E+02 -0.10113958998E+02  0.26310076087E+02  0.47000000000E+01 0. -1.
        -11    1    1    2    0    0 -0.32171263988E+02  0.50388921141E+02 -0.13254023539E+03  0.14539926959E+03  0.00000000000E+00 0.  1.
         11    1    1    2    0    0  0.23881263904E+02 -0.14415514745E+02 -0.15963065700E+02  0.32139404126E+02  0.00000000000E+00 0. -1.
<mgrwt>
<rscale>  0 0.12148101E+03</rscale>
<asrwt>0</asrwt>
<pdfrwt beam="2">  1        1 0.87899095E-01 0.13081103E+03</pdfrwt>
<pdfrwt beam="1">  1       -1 0.38452911E-02 0.13081103E+03</pdfrwt>
<totfact> 0.93612126E+03</totfact>
</mgrwt>
</event>
<event>
 6    1  0.5258538E-006  0.1366794E+03  0.7546771E-02  0.1230309E+00
          2   -1    0    0  501    0  0.00000000000E+00  0.00000000000E+00  0.28646623321E+03  0.28646623321E+03  0.00000000000E+00 0. -1.
         -2   -1    0    0    0  501 -0.00000000000E+00 -0.00000000000E+00 -0.84042502434E+02  0.84042502434E+02  0.00000000000E+00 0.  1.
          5    1    1    2  502    0 -0.55970359345E+02  0.40117789152E+01  0.23518164813E+03  0.24182901628E+03  0.47000000000E+01 0. -1.
         -5    1    1    2    0  502  0.24377463084E+01 -0.17204329841E+02 -0.10735334681E+02  0.20958744787E+02  0.47000000000E+01 0. -1.
        -11    1    1    2    0    0 -0.38561887951E+01  0.28898795336E+02 -0.36274449828E+02  0.46538653549E+02  0.00000000000E+00 0.  1.
         11    1    1    2    0    0  0.57388801832E+02 -0.15706244410E+02  0.14251867150E+02  0.61182321029E+02  0.00000000000E+00 0. -1.
<mgrwt>
<rscale>  0 0.12809572E+03</rscale>
<asrwt>0</asrwt>
<pdfrwt beam="1">  1        2 0.44071728E-01 0.13667940E+03</pdfrwt>
<pdfrwt beam="2">  1       -2 0.12929616E-01 0.13667940E+03</pdfrwt>
<totfact> 0.48280244E+03</totfact>
</mgrwt>
</event>
<event>
 6    1  0.5258538E-006  0.4290655E+03  0.7546771E-02  0.1034156E+00
         -1   -1    0    0    0  501 -0.00000000000E+00  0.00000000000E+00  0.54217211492E+02  0.54217211492E+02  0.00000000000E+00 0.  1.
          1   -1    0    0  501    0  0.00000000000E+00 -0.00000000000E+00 -0.84888733405E+03  0.84888733405E+03  0.00000000000E+00 0. -1.
          5    1    1    2  502    0 -0.61052631389E-01 -0.32842094354E+01 -0.36943652061E+03  0.36948101781E+03  0.47000000000E+01 0. -1.
         -5    1    1    2    0  502 -0.87738610621E+02 -0.83462397850E+02 -0.32584983187E+03  0.34765534452E+03  0.47000000000E+01 0. -1.
        -11    1    1    2    0    0 -0.18648618211E+02  0.12511979843E+02 -0.33749435296E+02  0.40538191667E+02  0.00000000000E+00 0. -1.
         11    1    1    2    0    0  0.10644828146E+03  0.74234627442E+02 -0.65634334784E+02  0.14542999154E+03  0.00000000000E+00 0.  1.
<mgrwt>
<rscale>  0 0.42906552E+03</rscale>
<asrwt>0</asrwt>
<pdfrwt beam="2">  1        1 0.13059805E+00 0.42906552E+03</pdfrwt>
<pdfrwt beam="1">  1       -1 0.83411094E-02 0.42906552E+03</pdfrwt>
<totfact> 0.16965820E+03</totfact>
</mgrwt>
</event>
<event>
 6    1  0.1464686E-005  0.1487688E+03  0.7546771E-02  0.1217773E+00
          1   -1    0    0  501    0  0.00000000000E+00  0.00000000000E+00  0.40851926462E+03  0.40851926462E+03  0.00000000000E+00 0. -1.
         -1   -1    0    0    0  501 -0.00000000000E+00 -0.00000000000E+00 -0.41117241660E+02  0.41117241660E+02  0.00000000000E+00 0.  1.
          5    1    1    2  502    0  0.13560049739E+02  0.14685776238E+02 -0.10272263927E+02  0.22959886298E+02  0.47000000000E+01 0.  1.
         -5    1    1    2    0  502  0.20186814567E+02  0.58577535440E+02  0.26356724940E+03  0.27079257763E+03  0.47000000000E+01 0.  1.
        -11    1    1    2    0    0 -0.13294454835E+02 -0.39826758258E+02  0.79645706071E+01  0.42735788136E+02  0.00000000000E+00 0.  1.
         11    1    1    2    0    0 -0.20452409471E+02 -0.33436553420E+02  0.10614246688E+03  0.11314825422E+03  0.00000000000E+00 0. -1.
<mgrwt>
<rscale>  0 0.13674762E+03</rscale>
<asrwt>0</asrwt>
<pdfrwt beam="1">  1        1 0.62849115E-01 0.14876882E+03</pdfrwt>
<pdfrwt beam="2">  1       -1 0.63257297E-02 0.14876882E+03</pdfrwt>
<totfact> 0.69869471E+03</totfact>
</mgrwt>
</event>
<event>
 6    1  0.5258538E-006  0.1251861E+03  0.7546771E-02  0.1250480E+00
         -2   -1    0    0    0  501 -0.00000000000E+00  0.00000000000E+00  0.81298676806E+02  0.81298676806E+02  0.00000000000E+00 0.  1.
          2   -1    0    0  501    0  0.00000000000E+00 -0.00000000000E+00 -0.14552440355E+03  0.14552440355E+03  0.00000000000E+00 0. -1.
          5    1    1    2  502    0 -0.13301294452E+02 -0.45673882526E+02  0.15888856531E+02  0.50374336134E+02  0.47000000000E+01 0. -1.
         -5    1    1    2    0  502  0.11023038545E+02  0.52091839795E+02 -0.64864557814E+02  0.84050984601E+02  0.47000000000E+01 0. -1.
        -11    1    1    2    0    0 -0.11302669620E+02  0.17205537855E+02  0.31885024686E+02  0.37953071979E+02  0.00000000000E+00 0.  1.
         11    1    1    2    0    0  0.13580925527E+02 -0.23623495124E+02 -0.47135050151E+02  0.54444687646E+02  0.00000000000E+00 0. -1.
<mgrwt>
<rscale>  0 0.11563332E+03</rscale>
<asrwt>0</asrwt>
<pdfrwt beam="2">  1        2 0.22388369E-01 0.12518605E+03</pdfrwt>
<pdfrwt beam="1">  1       -2 0.12507489E-01 0.12518605E+03</pdfrwt>
<totfact> 0.10523446E+04</totfact>
</mgrwt>
</event>
<event>
 6    1  0.5258538E-006  0.4123732E+03  0.7546771E-02  0.1039578E+00
          2   -1    0    0  501    0  0.00000000000E+00  0.00000000000E+00  0.22482919165E+03  0.22482919165E+03  0.00000000000E+00 0. -1.
         -2   -1    0    0    0  501 -0.00000000000E+00 -0.00000000000E+00 -0.18908980032E+03  0.18908980032E+03  0.00000000000E+00 0.  1.
          5    1    1    2  502    0 -0.79396547090E+01  0.29753975592E+02  0.31813040007E+02  0.44525236607E+02  0.47000000000E+01 0. -1.
         -5    1    1    2    0  502 -0.16655205523E+03 -0.43765126442E+02 -0.43277854055E+01  0.17232467357E+03  0.47000000000E+01 0. -1.
        -11    1    1    2    0    0  0.47225008155E+02  0.18936082161E+02  0.41251937698E+02  0.65501900481E+02  0.00000000000E+00 0.  1.
         11    1    1    2    0    0  0.12726670178E+03 -0.49249313112E+01 -0.32997800966E+02  0.13156718132E+03  0.00000000000E+00 0. -1.
<mgrwt>
<rscale>  0 0.41237317E+03</rscale>
<asrwt>0</asrwt>
<pdfrwt beam="1">  1        2 0.34589107E-01 0.41237317E+03</pdfrwt>
<pdfrwt beam="2">  1       -2 0.29090738E-01 0.41237317E+03</pdfrwt>
<totfact> 0.16326582E+03</totfact>
</mgrwt>
</event>
<event>
 6    1  0.5258538E-006  0.1551152E+03  0.7546771E-02  0.1202736E+00
          2   -1    0    0  501    0  0.00000000000E+00  0.00000000000E+00  0.68386361839E+03  0.68386361839E+03  0.00000000000E+00 0. -1.
         -2   -1    0    0    0  501 -0.00000000000E+00 -0.00000000000E+00 -0.29866204963E+02  0.29866204963E+02  0.00000000000E+00 0.  1.
          5    1    1    2  502    0  0.35439446399E+02  0.11422421522E+03  0.33443488055E+03  0.35520684823E+03  0.47000000000E+01 0.  1.
         -5    1    1    2    0  502  0.61234381794E+01 -0.32313424704E+02  0.59151874905E+02  0.67843114728E+02  0.47000000000E+01 0.  1.
        -11    1    1    2    0    0 -0.65265633367E+02 -0.76867062374E+02  0.17579426467E+03  0.20266171732E+03  0.00000000000E+00 0.  1.
         11    1    1    2    0    0  0.23702748789E+02 -0.50437281459E+01  0.84616393309E+02  0.88018143075E+02  0.00000000000E+00 0. -1.
<mgrwt>
<rscale>  0 0.14817292E+03</rscale>
<asrwt>0</asrwt>
<pdfrwt beam="1">  1        2 0.10520978E+00 0.15511524E+03</pdfrwt>
<pdfrwt beam="2">  1       -2 0.45948013E-02 0.15511524E+03</pdfrwt>
<totfact> 0.92878012E+03</totfact>
</mgrwt>
</event>
<event>
 6    1  0.5258538E-006  0.2014284E+03  0.7546771E-02  0.1154160E+00
          2   -1    0    0  501    0  0.00000000000E+00  0.00000000000E+00  0.52451855875E+03  0.52451855875E+03  0.00000000000E+00 0. -1.
         -2   -1    0    0    0  501 -0.00000000000E+00 -0.00000000000E+00 -0.78871622222E+02  0.78871622222E+02  0.00000000000E+00 0.  1.
          5    1    1    2  502    0 -0.48983771729E+01  0.26493654936E+02  0.20947341568E+03  0.21125129521E+03  0.47000000000E+01 0.  1.
         -5    1    1    2    0  502 -0.27216362863E+02  0.12816194020E+03  0.13774017080E+03  0.19015955925E+03  0.47000000000E+01 0.  1.
        -11    1    1    2    0    0 -0.12038952827E+02 -0.57591121747E+02  0.30593224224E+01  0.58915474562E+02  0.00000000000E+00 0.  1.
         11    1    1    2    0    0  0.44153692863E+02 -0.97064473392E+02  0.95374027634E+02  0.14306385195E+03  0.00000000000E+00 0. -1.
<mgrwt>
<rscale>  0 0.19484845E+03</rscale>
<asrwt>0</asrwt>
<pdfrwt beam="1">  1        2 0.80695161E-01 0.20142840E+03</pdfrwt>
<pdfrwt beam="2">  1       -2 0.12134096E-01 0.20142840E+03</pdfrwt>
<totfact> 0.28297120E+03</totfact>
</mgrwt>
</event>
<event>
 6    1  0.5258538E-006  0.1286011E+03  0.7546771E-02  0.1255865E+00
         -2   -1    0    0    0  501 -0.00000000000E+00  0.00000000000E+00  0.19449736645E+03  0.19449736645E+03  0.00000000000E+00 0.  1.
          2   -1    0    0  501    0  0.00000000000E+00 -0.00000000000E+00 -0.54150913847E+02  0.54150913847E+02  0.00000000000E+00 0. -1.
          5    1    1    2  502    0 -0.29779158969E+02 -0.42618195649E+02  0.72527569655E+02  0.89361329832E+02  0.47000000000E+01 0.  1.
         -5    1    1    2    0  502  0.46474760908E+01  0.59402037128E+02  0.31437344756E+01  0.59851266615E+02  0.47000000000E+01 0.  1.
        -11    1    1    2    0    0 -0.10089586113E+02  0.19515172460E+02  0.77718545979E+01  0.23303292213E+02  0.00000000000E+00 0. -1.
         11    1    1    2    0    0  0.35221268992E+02 -0.36299013939E+02  0.56903293872E+02  0.76132391633E+02  0.00000000000E+00 0.  1.
<mgrwt>
<rscale>  0 0.11258008E+03</rscale>
<asrwt>0</asrwt>
<pdfrwt beam="2">  1        2 0.83309099E-02 0.12860114E+03</pdfrwt>
<pdfrwt beam="1">  1       -2 0.29922671E-01 0.12860114E+03</pdfrwt>
<totfact> 0.77829554E+03</totfact>
</mgrwt>
</event>
<event>
 6    1  0.5258538E-006  0.1555144E+03  0.7546771E-02  0.1201921E+00
         -1   -1    0    0    0  501 -0.00000000000E+00  0.00000000000E+00  0.19890768058E+03  0.19890768058E+03  0.00000000000E+00 0.  1.
          1   -1    0    0  501    0  0.00000000000E+00 -0.00000000000E+00 -0.10638517774E+03  0.10638517774E+03  0.00000000000E+00 0. -1.
          5    1    1    2  502    0 -0.27652163611E+02  0.62451104288E+01  0.42745779138E+02  0.51506651908E+02  0.47000000000E+01 0.  1.
         -5    1    1    2    0  502  0.70399546901E+02  0.75799888308E+02 -0.20575500682E+02  0.10558011413E+03  0.47000000000E+01 0.  1.
        -11    1    1    2    0    0 -0.39269678199E+02  0.80444595840E+01  0.25502704372E+02  0.47510092466E+02  0.00000000000E+00 0.  1.
         11    1    1    2    0    0 -0.34777050917E+01 -0.90089458320E+02  0.44849520018E+02  0.10069599982E+03  0.00000000000E+00 0. -1.
<mgrwt>
<rscale>  0 0.14882775E+03</rscale>
<asrwt>0</asrwt>
<pdfrwt beam="2">  1        1 0.16366951E-01 0.15551441E+03</pdfrwt>
<pdfrwt beam="1">  1       -1 0.30601181E-01 0.15551441E+03</pdfrwt>
<totfact> 0.31833806E+03</totfact>
</mgrwt>
</event>
<event>
 6    1  0.5258538E-006  0.2791248E+03  0.7546771E-02  0.1096168E+00
          1   -1    0    0  501    0  0.00000000000E+00  0.00000000000E+00  0.21838724798E+03  0.21838724798E+03  0.00000000000E+00 0. -1.
         -1   -1    0    0    0  501 -0.00000000000E+00 -0.00000000000E+00 -0.89188674935E+02  0.89188674935E+02  0.00000000000E+00 0.  1.
          5    1    1    2  502    0 -0.15198229635E+02  0.35500311755E+02  0.19246033421E+02  0.43402282442E+02  0.47000000000E+01 0.  1.
         -5    1    1    2    0  502  0.94880032765E+02 -0.57035953634E+02  0.45127070263E+02  0.11964055790E+03  0.47000000000E+01 0.  1.
        -11    1    1    2    0    0 -0.42443323465E+02  0.12619305948E+02 -0.22143527154E+02  0.49507760848E+02  0.00000000000E+00 0.  1.
         11    1    1    2    0    0 -0.37238479665E+02  0.89163359317E+01  0.86968996516E+02  0.95025321727E+02  0.00000000000E+00 0. -1.
<mgrwt>
<rscale>  0 0.27912484E+03</rscale>
<asrwt>0</asrwt>
<pdfrwt beam="1">  1        1 0.33598038E-01 0.27912484E+03</pdfrwt>
<pdfrwt beam="2">  1       -1 0.13721335E-01 0.27912484E+03</pdfrwt>
<totfact> 0.48293844E+03</totfact>
</mgrwt>
</event>
<event>
 6    1  0.5258538E-006  0.3313562E+03  0.7546771E-02  0.1070538E+00
         -2   -1    0    0    0  501 -0.00000000000E+00  0.00000000000E+00  0.41390820848E+02  0.41390820848E+02  0.00000000000E+00 0.  1.
          2   -1    0    0  501    0  0.00000000000E+00 -0.00000000000E+00 -0.66317192419E+03  0.66317192419E+03  0.00000000000E+00 0. -1.
          5    1    1    2  502    0  0.69845657716E+02 -0.71300975305E+02 -0.51745833589E+03  0.52701751808E+03  0.47000000000E+01 0.  1.
         -5    1    1    2    0  502 -0.12445678932E+02  0.38163933329E+01 -0.13097308715E+01  0.13901984646E+02  0.47000000000E+01 0.  1.
        -11    1    1    2    0    0  0.18723310491E+02  0.24294901306E+02 -0.57082495360E+02  0.64801356943E+02  0.00000000000E+00 0. -1.
         11    1    1    2    0    0 -0.76123289275E+02  0.43189680666E+02 -0.45930541217E+02  0.98841885365E+02  0.00000000000E+00 0.  1.
<mgrwt>
<rscale>  0 0.33135618E+03</rscale>
<asrwt>0</asrwt>
<pdfrwt beam="2">  1        2 0.10202645E+00 0.33135618E+03</pdfrwt>
<pdfrwt beam="1">  1       -2 0.63678185E-02 0.33135618E+03</pdfrwt>
<totfact> 0.60639831E+03</totfact>
</mgrwt>
</event>
<event>
 6    1  0.5258538E-006  0.1276805E+03  0.7546771E-02  0.1245642E+00
          2   -1    0    0  501    0  0.00000000000E+00  0.00000000000E+00  0.80010157116E+02  0.80010157116E+02  0.00000000000E+00 0.  1.
         -2   -1    0    0    0  501 -0.00000000000E+00 -0.00000000000E+00 -0.15814332990E+03  0.15814332990E+03  0.00000000000E+00 0. -1.
          5    1    1    2  502    0 -0.18637731059E+02  0.72098811201E+02  0.32173895214E+00  0.74617672918E+02  0.47000000000E+01 0. -1.
         -5    1    1    2    0  502  0.14443603777E+02 -0.46427151031E+02 -0.27022739595E+02  0.55824873472E+02  0.47000000000E+01 0. -1.
        -11    1    1    2    0    0 -0.24750772492E+02  0.19055606277E+02 -0.43938912503E+02  0.53910526815E+02  0.00000000000E+00 0. -1.
         11    1    1    2    0    0  0.28944899773E+02 -0.44727266447E+02 -0.74932596423E+01  0.53800413816E+02  0.00000000000E+00 0.  1.
<mgrwt>
<rscale>  0 0.11847045E+03</rscale>
<asrwt>0</asrwt>
<pdfrwt beam="1">  1        2 0.12309255E-01 0.12768052E+03</pdfrwt>
<pdfrwt beam="2">  1       -2 0.24329743E-01 0.12768052E+03</pdfrwt>
<totfact> 0.69535540E+03</totfact>
</mgrwt>
</event>
<event>
 6    1  0.5258538E-006  0.4137750E+03  0.7546771E-02  0.1039112E+00
          2   -1    0    0  501    0  0.00000000000E+00  0.00000000000E+00  0.20182435691E+04  0.20182435691E+04  0.00000000000E+00 0. -1.
         -2   -1    0    0    0  501 -0.00000000000E+00 -0.00000000000E+00 -0.21207771075E+02  0.21207771075E+02  0.00000000000E+00 0.  1.
          5    1    1    2  502    0 -0.14724209199E+02  0.38829473991E+02  0.48306931828E+03  0.48487378425E+03  0.47000000000E+01 0.  1.
         -5    1    1    2    0  502  0.12577303437E+03 -0.14424907474E+02  0.12257463247E+04  0.12322755684E+04  0.47000000000E+01 0.  1.
        -11    1    1    2    0    0 -0.65378468180E+02  0.91212748204E+01  0.23667314382E+03  0.24570657044E+03  0.00000000000E+00 0. -1.
         11    1    1    2    0    0 -0.45670356993E+02 -0.33525841336E+02  0.51547011319E+02  0.76595417102E+02  0.00000000000E+00 0.  1.
<mgrwt>
<rscale>  0 0.41377505E+03</rscale>
<asrwt>0</asrwt>
<pdfrwt beam="1">  1        2 0.31049886E+00 0.41377505E+03</pdfrwt>
<pdfrwt beam="2">  1       -2 0.32627356E-02 0.41377505E+03</pdfrwt>
<totfact> 0.26970987E+03</totfact>
</mgrwt>
</event>
<event>
 6    1  0.5258538E-006  0.2925070E+03  0.7546771E-02  0.1089047E+00
          2   -1    0    0  501    0  0.00000000000E+00  0.00000000000E+00  0.40272856418E+03  0.40272856418E+03  0.00000000000E+00 0. -1.
         -2   -1    0    0    0  501 -0.00000000000E+00 -0.00000000000E+00 -0.53112894459E+02  0.53112894459E+02  0.00000000000E+00 0.  1.
          5    1    1    2  502    0  0.17228747962E+02  0.20572731787E+02  0.52951277932E+00  0.27247705101E+02  0.47000000000E+01 0.  1.
         -5    1    1    2    0  502 -0.52515212732E+02  0.46722642378E+02  0.28494382956E+03  0.29352330211E+03  0.47000000000E+01 0.  1.
        -11    1    1    2    0    0 -0.11597590173E+02 -0.52773457900E+02 -0.33968188526E+00  0.54033853650E+02  0.00000000000E+00 0.  1.
         11    1    1    2    0    0  0.46884054943E+02 -0.14521916265E+02  0.64482009266E+02  0.81036597774E+02  0.00000000000E+00 0. -1.
<mgrwt>
<rscale>  0 0.29250696E+03</rscale>
<asrwt>0</asrwt>
<pdfrwt beam="1">  1        2 0.61958239E-01 0.29250696E+03</pdfrwt>
<pdfrwt beam="2">  1       -2 0.81712148E-02 0.29250696E+03</pdfrwt>
<totfact> 0.72218904E+03</totfact>
</mgrwt>
</event>
<event>
 6    1  0.5258538E-006  0.1277424E+03  0.7546771E-02  0.1247513E+00
          1   -1    0    0  501    0  0.00000000000E+00  0.00000000000E+00  0.30268991594E+03  0.30268991594E+03  0.00000000000E+00 0. -1.
         -1   -1    0    0    0  501 -0.00000000000E+00 -0.00000000000E+00 -0.52158142985E+02  0.52158142985E+02  0.00000000000E+00 0.  1.
          5    1    1    2  502    0  0.20366726716E+02 -0.53094754542E+02  0.19628819514E+03  0.20441380108E+03  0.47000000000E+01 0. -1.
         -5    1    1    2    0  502  0.51634157569E+01  0.46606147779E+02  0.31299500783E+02  0.56573338441E+02  0.47000000000E+01 0. -1.
        -11    1    1    2    0    0 -0.10203422151E+02 -0.76915275526E+01 -0.32335902195E+02  0.34768951529E+02  0.00000000000E+00 0.  1.
         11    1    1    2    0    0 -0.15326720321E+02  0.14180134315E+02  0.55279979226E+02  0.59091967882E+02  0.00000000000E+00 0. -1.
<mgrwt>
<rscale>  0 0.11736206E+03</rscale>
<asrwt>0</asrwt>
<pdfrwt beam="1">  1        1 0.46567678E-01 0.12774243E+03</pdfrwt>
<pdfrwt beam="2">  1       -1 0.80243299E-02 0.12774243E+03</pdfrwt>
<totfact> 0.70411896E+03</totfact>
</mgrwt>
</event>
<event>
 6    1  0.5258538E-006  0.1339810E+03  0.7546771E-02  0.1229795E+00
         -3   -1    0    0    0  501 -0.00000000000E+00  0.00000000000E+00  0.20107861724E+03  0.20107861724E+03  0.00000000000E+00 0.  1.
          3   -1    0    0  501    0  0.00000000000E+00 -0.00000000000E+00 -0.18251435358E+03  0.18251435358E+03  0.00000000000E+00 0. -1.
          5    1    1    2  502    0 -0.66883494875E+02 -0.71881864765E+02 -0.12562359864E+03  0.15951107455E+03  0.47000000000E+01 0. -1.
         -5    1    1    2    0  502  0.16552909495E+02  0.24491504817E+02 -0.11122058937E+02  0.31931533254E+02  0.47000000000E+01 0.  1.
        -11    1    1    2    0    0 -0.10215204865E+02 -0.16920860420E+02  0.10124080340E+02  0.22207272019E+02  0.00000000000E+00 0. -1.
         11    1    1    2    0    0  0.60545790245E+02  0.64311220369E+02  0.14518584089E+03  0.16994309100E+03  0.00000000000E+00 0.  1.
<mgrwt>
<rscale>  0 0.12843579E+03</rscale>
<asrwt>0</asrwt>
<pdfrwt beam="2">  1        3 0.28079131E-01 0.13398096E+03</pdfrwt>
<pdfrwt beam="1">  1       -3 0.30935172E-01 0.13398096E+03</pdfrwt>
<totfact> 0.28634845E+02</totfact>
</mgrwt>
</event>
<event>
 6    1  0.5258538E-006  0.1271960E+03  0.7546771E-02  0.1245094E+00
         -1   -1    0    0    0  501 -0.00000000000E+00  0.00000000000E+00  0.26680023415E+02  0.26680023415E+02  0.00000000000E+00 0.  1.
          1   -1    0    0  501    0  0.00000000000E+00 -0.00000000000E+00 -0.63090362503E+03  0.63090362503E+03  0.00000000000E+00 0. -1.
          5    1    1    2  502    0 -0.45171714064E+02 -0.10227923139E+02 -0.31157173884E+03  0.31503036775E+03  0.47000000000E+01 0. -1.
         -5    1    1    2    0  502  0.68664844333E+02  0.92431186483E+01 -0.18596113537E+03  0.19850423159E+03  0.47000000000E+01 0. -1.
        -11    1    1    2    0    0 -0.16231243897E+02 -0.26420889218E+02  0.26224998607E+01  0.31119032296E+02  0.00000000000E+00 0.  1.
         11    1    1    2    0    0 -0.72618863724E+01  0.27405693708E+02 -0.10931322727E+03  0.11293001681E+03  0.00000000000E+00 0. -1.
<mgrwt>
<rscale>  0 0.11879726E+03</rscale>
<asrwt>0</asrwt>
<pdfrwt beam="2">  1        1 0.97062082E-01 0.12719601E+03</pdfrwt>
<pdfrwt beam="1">  1       -1 0.41046196E-02 0.12719601E+03</pdfrwt>
<totfact> 0.74210186E+03</totfact>
</mgrwt>
</event>
<event>
 6    1  0.5258538E-006  0.2653115E+03  0.7546771E-02  0.1103993E+00
          2   -1    0    0  501    0  0.00000000000E+00  0.00000000000E+00  0.36648949643E+02  0.36648949643E+02  0.00000000000E+00 0. -1.
         -2   -1    0    0    0  501 -0.00000000000E+00 -0.00000000000E+00 -0.48016499200E+03  0.48016499200E+03  0.00000000000E+00 0.  1.
          5    1    1    2  502    0 -0.95074112555E+02  0.13861954534E+02 -0.90141169943E+02  0.13182852946E+03  0.47000000000E+01 0.  1.
         -5    1    1    2    0  502  0.39491031195E+02 -0.12794208279E+01 -0.56609847524E+02  0.69194965852E+02  0.47000000000E+01 0.  1.
        -11    1    1    2    0    0  0.40164496634E+02  0.33679341104E+02 -0.20810828207E+03  0.21460787933E+03  0.00000000000E+00 0.  1.
         11    1    1    2    0    0  0.15418584726E+02 -0.46261874809E+02 -0.88656742827E+02  0.10118256700E+03  0.00000000000E+00 0. -1.
<mgrwt>
<rscale>  0 0.26531146E+03</rscale>
<asrwt>0</asrwt>
<pdfrwt beam="1">  1        2 0.56383004E-02 0.26531146E+03</pdfrwt>
<pdfrwt beam="2">  1       -2 0.73871532E-01 0.26531146E+03</pdfrwt>
<totfact> 0.22668893E+03</totfact>
</mgrwt>
</event>
<event>
 6    1  0.5258538E-006  0.6134032E+03  0.7546771E-02  0.9877982E-01
          1   -1    0    0  501    0  0.00000000000E+00  0.00000000000E+00  0.11053317119E+04  0.11053317119E+04  0.00000000000E+00 0. -1.
         -1   -1    0    0    0  501 -0.00000000000E+00 -0.00000000000E+00 -0.85101937244E+02  0.85101937244E+02  0.00000000000E+00 0.  1.
          5    1    1    2  502    0  0.10479169069E+03  0.10059723246E+03  0.96281032850E+03  0.97371809077E+03  0.47000000000E+01 0. -1.
         -5    1    1    2    0  502  0.11931462138E+02 -0.20513749459E+02  0.41540830040E+02  0.48071865639E+02  0.47000000000E+01 0.  1.
        -11    1    1    2    0    0 -0.26881606845E+02 -0.72700924127E+02  0.28620183567E+01  0.77564401013E+02  0.00000000000E+00 0.  1.
         11    1    1    2    0    0 -0.89841545984E+02 -0.73825588775E+01  0.13016597735E+02  0.91079291702E+02  0.00000000000E+00 0. -1.
<mgrwt>
<rscale>  0 0.61340320E+03</rscale>
<asrwt>0</asrwt>
<pdfrwt beam="1">  1        1 0.17005102E+00 0.61340320E+03</pdfrwt>
<pdfrwt beam="2">  1       -1 0.13092607E-01 0.61340320E+03</pdfrwt>
<totfact> 0.52372109E+02</totfact>
</mgrwt>
</event>
<event>
 6    1  0.5258538E-006  0.2602402E+03  0.7546771E-02  0.1106999E+00
          2   -1    0    0  501    0  0.00000000000E+00  0.00000000000E+00  0.66328523078E+02  0.66328523078E+02  0.00000000000E+00 0. -1.
         -2   -1    0    0    0  501 -0.00000000000E+00 -0.00000000000E+00 -0.25526341042E+03  0.25526341042E+03  0.00000000000E+00 0.  1.
          5    1    1    2  502    0  0.67123615201E+02  0.17788988729E+02 -0.78619944627E+02  0.10500101681E+03  0.47000000000E+01 0. -1.
         -5    1    1    2    0  502 -0.16919187267E+02 -0.11933519175E+01  0.33650326353E+02  0.37975221530E+02  0.47000000000E+01 0. -1.
        -11    1    1    2    0    0 -0.49913571893E+02  0.30564769367E+02 -0.77456341900E+02  0.97082720842E+02  0.00000000000E+00 0. -1.
         11    1    1    2    0    0 -0.29085604098E+00 -0.47160406178E+02 -0.66508927168E+02  0.81532974318E+02  0.00000000000E+00 0.  1.
<mgrwt>
<rscale>  0 0.26024024E+03</rscale>
<asrwt>0</asrwt>
<pdfrwt beam="1">  1        2 0.10204388E-01 0.26024024E+03</pdfrwt>
<pdfrwt beam="2">  1       -2 0.39271294E-01 0.26024024E+03</pdfrwt>
<totfact> 0.38264667E+03</totfact>
</mgrwt>
</event>
<event>
 6    1  0.5258538E-006  0.1275543E+03  0.7546771E-02  0.1246152E+00
          1   -1    0    0  501    0  0.00000000000E+00  0.00000000000E+00  0.13404348718E+04  0.13404348718E+04  0.00000000000E+00 0. -1.
         -1   -1    0    0    0  501 -0.00000000000E+00 -0.00000000000E+00 -0.94860310058E+01  0.94860310058E+01  0.00000000000E+00 0.  1.
          5    1    1    2  502    0  0.16900687893E+02  0.48890149922E+02  0.75635274172E+03  0.75813418332E+03  0.47000000000E+01 0.  1.
         -5    1    1    2    0  502  0.79579408967E+01 -0.43622781453E+02  0.13197573777E+03  0.13930528075E+03  0.47000000000E+01 0.  1.
        -11    1    1    2    0    0 -0.40832317113E+02  0.32544927008E+02  0.22030698928E+03  0.22641029111E+03  0.00000000000E+00 0.  1.
         11    1    1    2    0    0  0.15973688323E+02 -0.37812295476E+02  0.22231337198E+03  0.22607114758E+03  0.00000000000E+00 0. -1.
<mgrwt>
<rscale>  0 0.11816694E+03</rscale>
<asrwt>0</asrwt>
<pdfrwt beam="1">  1        1 0.20622060E+00 0.12755432E+03</pdfrwt>
<pdfrwt beam="2">  1       -1 0.14593904E-02 0.12755432E+03</pdfrwt>
<totfact> 0.96323776E+03</totfact>
</mgrwt>
</event>
<event>
 6    1  0.5258538E-006  0.1456936E+03  0.7546771E-02  0.1216217E+00
         -2   -1    0    0    0  501 -0.00000000000E+00  0.00000000000E+00  0.40745694480E+02  0.40745694480E+02  0.00000000000E+00 0.  1.
          2   -1    0    0  501    0  0.00000000000E+00 -0.00000000000E+00 -0.43763148458E+03  0.43763148458E+03  0.00000000000E+00 0. -1.
          5    1    1    2  502    0  0.72366941026E+02 -0.14430535180E+02 -0.19398367943E+03  0.20759810304E+03  0.47000000000E+01 0. -1.
         -5    1    1    2    0  502 -0.13140620618E+01 -0.90980416879E+01  0.18071766353E+02  0.20812973377E+02  0.47000000000E+01 0. -1.
        -11    1    1    2    0    0 -0.86455468406E+02  0.18682027635E+02 -0.21545098389E+03  0.23290060677E+03  0.00000000000E+00 0. -1.
         11    1    1    2    0    0  0.15402589442E+02  0.48465492330E+01 -0.55228931295E+01  0.17065495876E+02  0.00000000000E+00 0.  1.
<mgrwt>
<rscale>  0 0.13787521E+03</rscale>
<asrwt>0</asrwt>
<pdfrwt beam="2">  1        2 0.67327923E-01 0.14569358E+03</pdfrwt>
<pdfrwt beam="1">  1       -2 0.62685682E-02 0.14569358E+03</pdfrwt>
<totfact> 0.95563331E+03</totfact>
</mgrwt>
</event>
<event>
 6    1  0.5258538E-006  0.1336714E+03  0.7546771E-02  0.1235753E+00
         -2   -1    0    0    0  501 -0.00000000000E+00  0.00000000000E+00  0.15880227615E+02  0.15880227615E+02  0.00000000000E+00 0.  1.
          2   -1    0    0  501    0  0.00000000000E+00 -0.00000000000E+00 -0.98593872770E+03  0.98593872770E+03  0.00000000000E+00 0. -1.
          5    1    1    2  502    0 -0.48117911059E+02 -0.12579867546E+02 -0.19897247344E+03  0.20514804805E+03  0.47000000000E+01 0. -1.
         -5    1    1    2    0  502  0.53412744142E+02  0.59641986177E+02 -0.51932592089E+03  0.52548224505E+03  0.47000000000E+01 0. -1.
        -11    1    1    2    0    0 -0.14626440998E+02 -0.67177446629E+02 -0.12645009794E+03  0.14393182199E+03  0.00000000000E+00 0.  1.
         11    1    1    2    0    0  0.93316079142E+01  0.20115327998E+02 -0.12531000781E+03  0.12725684022E+03  0.00000000000E+00 0. -1.
<mgrwt>
<rscale>  0 0.12456365E+03</rscale>
<asrwt>0</asrwt>
<pdfrwt beam="2">  1        2 0.15168293E+00 0.13367140E+03</pdfrwt>
<pdfrwt beam="1">  1       -2 0.24431111E-02 0.13367140E+03</pdfrwt>
<totfact> 0.14740788E+04</totfact>
</mgrwt>
</event>
<event>
 6    1  0.5258538E-006  0.2323463E+03  0.7546771E-02  0.1145939E+00
          1   -1    0    0  501    0  0.00000000000E+00  0.00000000000E+00  0.10109039835E+04  0.10109039835E+04  0.00000000000E+00 0. -1.
         -1   -1    0    0    0  501 -0.00000000000E+00 -0.00000000000E+00 -0.44269590731E+02  0.44269590731E+02  0.00000000000E+00 0.  1.
          5    1    1    2  502    0 -0.12812848914E+03  0.94479752402E+02  0.72434554003E+03  0.74164808683E+03  0.47000000000E+01 0. -1.
         -5    1    1    2    0  502  0.40244743575E+02 -0.38540940614E+02  0.97378959214E+02  0.11229334435E+03  0.47000000000E+01 0.  1.
        -11    1    1    2    0    0  0.50697027053E+02 -0.72154705407E+02  0.58645690553E+02  0.10590470757E+03  0.00000000000E+00 0. -1.
         11    1    1    2    0    0  0.37186718506E+02  0.16215893619E+02  0.86264202938E+02  0.95327435441E+02  0.00000000000E+00 0.  1.
<mgrwt>
<rscale>  0 0.20457080E+03</rscale>
<asrwt>0</asrwt>
<pdfrwt beam="1">  1        1 0.15552367E+00 0.23234633E+03</pdfrwt>
<pdfrwt beam="2">  1       -1 0.68107070E-02 0.23234633E+03</pdfrwt>
<totfact> 0.17277396E+03</totfact>
</mgrwt>
</event>
<event>
 6    1  0.5258538E-006  0.1803856E+03  0.7546771E-02  0.1193013E+00
          2   -1    0    0  501    0  0.00000000000E+00  0.00000000000E+00  0.67603307898E+03  0.67603307898E+03  0.00000000000E+00 0. -1.
         -2   -1    0    0    0  501 -0.00000000000E+00 -0.00000000000E+00 -0.29407091341E+02  0.29407091341E+02  0.00000000000E+00 0.  1.
          5    1    1    2  502    0 -0.60207119165E+02  0.51427099434E+02  0.39532651159E+03  0.40320563552E+03  0.47000000000E+01 0. -1.
         -5    1    1    2    0  502  0.31738950701E+02 -0.21949085578E+02  0.95400276817E+01  0.40027808802E+02  0.47000000000E+01 0.  1.
        -11    1    1    2    0    0  0.54255145985E+02 -0.48296739069E+01  0.81509603565E+02  0.98034494385E+02  0.00000000000E+00 0.  1.
         11    1    1    2    0    0 -0.25786977521E+02 -0.24648339949E+02  0.16024984480E+03  0.16417223161E+03  0.00000000000E+00 0. -1.
<mgrwt>
<rscale>  0 0.15623598E+03</rscale>
<asrwt>0</asrwt>
<pdfrwt beam="1">  1        2 0.10400508E+00 0.18038562E+03</pdfrwt>
<pdfrwt beam="2">  1       -2 0.45241684E-02 0.18038562E+03</pdfrwt>
<totfact> 0.97212719E+03</totfact>
</mgrwt>
</event>
<event>
 6    1  0.5258538E-006  0.1308728E+03  0.7546771E-02  0.1238942E+00
         -3   -1    0    0    0  501 -0.00000000000E+00  0.00000000000E+00  0.55225695953E+02  0.55225695953E+02  0.00000000000E+00 0.  1.
          3   -1    0    0  501    0  0.00000000000E+00 -0.00000000000E+00 -0.24274209909E+03  0.24274209909E+03  0.00000000000E+00 0. -1.
          5    1    1    2  502    0  0.43658484214E+02 -0.22837698070E+02 -0.47964945340E+02  0.68922780548E+02  0.47000000000E+01 0.  1.
         -5    1    1    2    0  502 -0.79950554722E+02  0.92026172807E+01 -0.54843221877E+02  0.97502042804E+02  0.47000000000E+01 0.  1.
        -11    1    1    2    0    0 -0.22360437903E+01  0.18129550897E+02 -0.90498624938E+02  0.92323786876E+02  0.00000000000E+00 0. -1.
         11    1    1    2    0    0  0.38528114299E+02 -0.44944701073E+01  0.57903890120E+01  0.39219184819E+02  0.00000000000E+00 0.  1.
<mgrwt>
<rscale>  0 0.12255414E+03</rscale>
<asrwt>0</asrwt>
<pdfrwt beam="2">  1        3 0.37344939E-01 0.13087285E+03</pdfrwt>
<pdfrwt beam="1">  1       -3 0.84962608E-02 0.13087285E+03</pdfrwt>
<totfact> 0.15653301E+03</totfact>
</mgrwt>
</event>
<event>
 6    1  0.5258538E-006  0.2711702E+03  0.7546771E-02  0.1100612E+00
          1   -1    0    0  501    0  0.00000000000E+00  0.00000000000E+00  0.10430875698E+04  0.10430875698E+04  0.00000000000E+00 0. -1.
         -1   -1    0    0    0  501 -0.00000000000E+00 -0.00000000000E+00 -0.17623947724E+02  0.17623947724E+02  0.00000000000E+00 0.  1.
          5    1    1    2  502    0 -0.12289957937E+01 -0.24472936591E+02  0.21914691421E+02  0.33208112806E+02  0.47000000000E+01 0. -1.
         -5    1    1    2    0  502 -0.60857796722E+02  0.72302481566E+02  0.51437460812E+03  0.52300539934E+03  0.47000000000E+01 0. -1.
        -11    1    1    2    0    0  0.76603947877E+02 -0.36065433598E+01  0.29169035994E+03  0.30160311349E+03  0.00000000000E+00 0. -1.
         11    1    1    2    0    0 -0.14517155361E+02 -0.44223001615E+02  0.19748396264E+03  0.20289489193E+03  0.00000000000E+00 0.  1.
<mgrwt>
<rscale>  0 0.27117021E+03</rscale>
<asrwt>0</asrwt>
<pdfrwt beam="1">  1        1 0.16047496E+00 0.27117021E+03</pdfrwt>
<pdfrwt beam="2">  1       -1 0.27113774E-02 0.27117021E+03</pdfrwt>
<totfact> 0.64992279E+03</totfact>
</mgrwt>
</event>
<event>
 6    1  0.5258538E-006  0.3066775E+03  0.7546771E-02  0.1088830E+00
          2   -1    0    0  501    0  0.00000000000E+00  0.00000000000E+00  0.19542600447E+04  0.19542600447E+04  0.00000000000E+00 0. -1.
         -2   -1    0    0    0  501 -0.00000000000E+00 -0.00000000000E+00 -0.43331177161E+02  0.43331177161E+02  0.00000000000E+00 0.  1.
          5    1    1    2  502    0  0.21196727239E+03 -0.91256217327E+02  0.11503435552E+04  0.11732732873E+04  0.47000000000E+01 0. -1.
         -5    1    1    2    0  502 -0.24556548908E+02 -0.57305373427E+02  0.14548078182E+03  0.15834670125E+03  0.47000000000E+01 0.  1.
        -11    1    1    2    0    0 -0.18735256467E+03  0.11369025314E+03  0.50568920928E+03  0.55113340811E+03  0.00000000000E+00 0.  1.
         11    1    1    2    0    0 -0.58158812177E-01  0.34871337611E+02  0.10941532123E+03  0.11483782517E+03  0.00000000000E+00 0. -1.
<mgrwt>
<rscale>  0 0.29292907E+03</rscale>
<asrwt>0</asrwt>
<pdfrwt beam="1">  1        2 0.30065532E+00 0.30667749E+03</pdfrwt>
<pdfrwt beam="2">  1       -2 0.66663365E-02 0.30667749E+03</pdfrwt>
<totfact> 0.98381015E+02</totfact>
</mgrwt>
</event>
<event>
 6    1  0.5258538E-006  0.1348518E+03  0.7546771E-02  0.1232525E+00
         -2   -1    0    0    0  501 -0.00000000000E+00  0.00000000000E+00  0.36943939416E+02  0.36943939416E+02  0.00000000000E+00 0. -1.
          2   -1    0    0  501    0  0.00000000000E+00 -0.00000000000E+00 -0.40571230470E+03  0.40571230470E+03  0.00000000000E+00 0.  1.
          5    1    1    2  502    0  0.15677075930E+02  0.88526230949E+02 -0.20623646315E+03  0.22502940477E+03  0.47000000000E+01 0.  1.
         -5    1    1    2    0  502 -0.36843311214E+01 -0.39379966269E+02 -0.44885532200E+02  0.60009641226E+02  0.47000000000E+01 0.  1.
        -11    1    1    2    0    0 -0.35086929472E+02 -0.24712294375E+02 -0.89492557327E+01  0.43839243734E+02  0.00000000000E+00 0. -1.
         11    1    1    2    0    0  0.23094184662E+02 -0.24433970305E+02 -0.10869711420E+03  0.11377795439E+03  0.00000000000E+00 0.  1.
<mgrwt>
<rscale>  0 0.12664236E+03</rscale>
<asrwt>0</asrwt>
<pdfrwt beam="2">  1        2 0.62417278E-01 0.13485177E+03</pdfrwt>
<pdfrwt beam="1">  1       -2 0.56836830E-02 0.13485177E+03</pdfrwt>
<totfact> 0.11961628E+04</totfact>
</mgrwt>
</event>
<event>
 6    1  0.5258538E-006  0.1430772E+03  0.7546771E-02  0.1219705E+00
          3   -1    0    0  501    0  0.00000000000E+00  0.00000000000E+00  0.37821379735E+02  0.37821379735E+02  0.00000000000E+00 0. -1.
         -3   -1    0    0    0  501 -0.00000000000E+00 -0.00000000000E+00 -0.44483292035E+03  0.44483292035E+03  0.00000000000E+00 0.  1.
          5    1    1    2  502    0  0.49863659836E+02 -0.71833558581E+02 -0.93397250152E+02  0.12802961004E+03  0.47000000000E+01 0. -1.
         -5    1    1    2    0  502  0.15546514834E+02  0.48011997370E+02 -0.10482462302E+03  0.11643512188E+03  0.47000000000E+01 0. -1.
        -11    1    1    2    0    0 -0.44699582818E+02  0.39661985579E+02 -0.51906253841E+02  0.79154184931E+02  0.00000000000E+00 0. -1.
         11    1    1    2    0    0 -0.20710591853E+02 -0.15840424368E+02 -0.15688341360E+03  0.15903538324E+03  0.00000000000E+00 0.  1.
<mgrwt>
<rscale>  0 0.13536521E+03</rscale>
<asrwt>0</asrwt>
<pdfrwt beam="1">  1        3 0.58186742E-02 0.14307723E+03</pdfrwt>
<pdfrwt beam="2">  1       -3 0.68435829E-01 0.14307723E+03</pdfrwt>
<totfact> 0.86936458E+02</totfact>
</mgrwt>
</event>
<event>
 6    1  0.5258538E-006  0.1535788E+03  0.7546771E-02  0.1204726E+00
         -1   -1    0    0    0  501 -0.00000000000E+00  0.00000000000E+00  0.40760018473E+03  0.40760018473E+03  0.00000000000E+00 0.  1.
          1   -1    0    0  501    0  0.00000000000E+00 -0.00000000000E+00 -0.60721462170E+02  0.60721462170E+02  0.00000000000E+00 0. -1.
          5    1    1    2  502    0 -0.11305368745E+02  0.53276059667E+02  0.18864112646E+02  0.57828147489E+02  0.47000000000E+01 0.  1.
         -5    1    1    2    0  502  0.94987039650E+02 -0.22322981486E+02  0.62522294221E+02  0.11598267318E+03  0.47000000000E+01 0.  1.
        -11    1    1    2    0    0 -0.94124819133E+02 -0.47725587746E+02  0.20044582274E+03  0.22652977985E+03  0.00000000000E+00 0.  1.
         11    1    1    2    0    0  0.10443148227E+02  0.16772509565E+02  0.65046492948E+02  0.67981046379E+02  0.00000000000E+00 0. -1.
<mgrwt>
<rscale>  0 0.14659079E+03</rscale>
<asrwt>0</asrwt>
<pdfrwt beam="2">  1        1 0.93417637E-02 0.15357882E+03</pdfrwt>
<pdfrwt beam="1">  1       -1 0.62707719E-01 0.15357882E+03</pdfrwt>
<totfact> 0.18366752E+03</totfact>
</mgrwt>
</event>
<event>
 6    1  0.5258538E-006  0.1360160E+03  0.7546771E-02  0.1230308E+00
          1   -1    0    0  501    0  0.00000000000E+00  0.00000000000E+00  0.28699339018E+03  0.28699339018E+03  0.00000000000E+00 0. -1.
         -1   -1    0    0    0  501 -0.00000000000E+00 -0.00000000000E+00 -0.54319852694E+02  0.54319852694E+02  0.00000000000E+00 0.  1.
          5    1    1    2  502    0  0.40038809962E+02  0.20322493073E+02 -0.35436486031E+00  0.45147819464E+02  0.47000000000E+01 0.  1.
         -5    1    1    2    0  502  0.13427017083E+02 -0.25769035199E+02  0.16884680139E+03  0.17139329129E+03  0.47000000000E+01 0.  1.
        -11    1    1    2    0    0 -0.18587448707E+02 -0.37820202109E+02  0.53628617925E+02  0.68204762279E+02  0.00000000000E+00 0. -1.
         11    1    1    2    0    0 -0.34878378338E+02  0.43266744234E+02  0.10552483037E+02  0.56567369838E+02  0.00000000000E+00 0.  1.
<mgrwt>
<rscale>  0 0.12809667E+03</rscale>
<asrwt>0</asrwt>
<pdfrwt beam="1">  1        1 0.44152828E-01 0.13601600E+03</pdfrwt>
<pdfrwt beam="2">  1       -1 0.83569006E-02 0.13601600E+03</pdfrwt>
<totfact> 0.71032211E+03</totfact>
</mgrwt>
</event>
<event>
 6    1  0.5258538E-006  0.1558989E+03  0.7546771E-02  0.1201621E+00
          3   -1    0    0  501    0  0.00000000000E+00  0.00000000000E+00  0.10524643706E+03  0.10524643706E+03  0.00000000000E+00 0. -1.
         -3   -1    0    0    0  501 -0.00000000000E+00 -0.00000000000E+00 -0.19503357002E+03  0.19503357002E+03  0.00000000000E+00 0.  1.
          5    1    1    2  502    0 -0.44037203535E+02  0.92155391577E+02 -0.58232751570E+02  0.11766492616E+03  0.47000000000E+01 0. -1.
         -5    1    1    2    0  502  0.40276297917E+02  0.95493606435E+00  0.16396917480E+02  0.43749754053E+02  0.47000000000E+01 0. -1.
        -11    1    1    2    0    0 -0.32320389522E+02 -0.86859241090E+02 -0.42062049379E+02  0.10177598607E+03  0.00000000000E+00 0.  1.
         11    1    1    2    0    0  0.36081295139E+02 -0.62510865514E+01 -0.58892494940E+01  0.37089340808E+02  0.00000000000E+00 0. -1.
<mgrwt>
<rscale>  0 0.14906925E+03</rscale>
<asrwt>0</asrwt>
<pdfrwt beam="1">  1        3 0.16191760E-01 0.15589888E+03</pdfrwt>
<pdfrwt beam="2">  1       -3 0.30005164E-01 0.15589888E+03</pdfrwt>
<totfact> 0.82306223E+02</totfact>
</mgrwt>
</event>
<event>
 6    1  0.5258538E-006  0.3667316E+03  0.7546771E-02  0.1055950E+00
          2   -1    0    0  501    0  0.00000000000E+00  0.00000000000E+00  0.50317681833E+03  0.50317681833E+03  0.00000000000E+00 0. -1.
         -2   -1    0    0    0  501 -0.00000000000E+00 -0.00000000000E+00 -0.66821489011E+02  0.66821489011E+02  0.00000000000E+00 0.  1.
          5    1    1    2  502    0 -0.11126763659E+03 -0.11921676465E+03  0.25174407807E+03  0.29998382418E+03  0.47000000000E+01 0.  1.
         -5    1    1    2    0  502  0.19305695361E+02  0.13253714659E+02  0.51378804580E+02  0.56659000924E+02  0.47000000000E+01 0.  1.
        -11    1    1    2    0    0  0.11065979047E+02  0.51924865843E+02  0.94998896731E+02  0.10882756069E+03  0.00000000000E+00 0. -1.
         11    1    1    2    0    0  0.80895962181E+02  0.54038184146E+02  0.38233549936E+02  0.10452792155E+03  0.00000000000E+00 0.  1.
<mgrwt>
<rscale>  0 0.36673164E+03</rscale>
<asrwt>0</asrwt>
<pdfrwt beam="1">  1        2 0.77411816E-01 0.36673164E+03</pdfrwt>
<pdfrwt beam="2">  1       -2 0.10280229E-01 0.36673164E+03</pdfrwt>
<totfact> 0.39420465E+03</totfact>
</mgrwt>
</event>
<event>
 6    1  0.5258538E-006  0.1855536E+03  0.7546771E-02  0.1168669E+00
         -2   -1    0    0    0  501 -0.00000000000E+00  0.00000000000E+00  0.73516881488E+02  0.73516881488E+02  0.00000000000E+00 0.  1.
          2   -1    0    0  501    0  0.00000000000E+00 -0.00000000000E+00 -0.48396071377E+03  0.48396071377E+03  0.00000000000E+00 0. -1.
          5    1    1    2  502    0  0.95743964637E+02 -0.11206214898E+03 -0.25669760984E+03  0.29604152563E+03  0.47000000000E+01 0. -1.
         -5    1    1    2    0  502 -0.35995150474E+02 -0.11369839032E+02 -0.70509537698E+02  0.80116221850E+02  0.47000000000E+01 0. -1.
        -11    1    1    2    0    0 -0.64336535000E+02  0.10602872998E+03 -0.97979491890E+02  0.15805461761E+03  0.00000000000E+00 0. -1.
         11    1    1    2    0    0  0.45877208365E+01  0.17403258036E+02  0.14742807139E+02  0.23265230174E+02  0.00000000000E+00 0.  1.
<mgrwt>
<rscale>  0 0.17910847E+03</rscale>
<asrwt>0</asrwt>
<pdfrwt beam="2">  1        2 0.74455494E-01 0.18555359E+03</pdfrwt>
<pdfrwt beam="1">  1       -2 0.11310290E-01 0.18555359E+03</pdfrwt>
<totfact> 0.34556715E+03</totfact>
</mgrwt>
</event>
<event>
 6    1  0.5258538E-006  0.2620570E+03  0.7546771E-02  0.1108144E+00
         -2   -1    0    0    0  501 -0.00000000000E+00  0.00000000000E+00  0.62795810101E+03  0.62795810101E+03  0.00000000000E+00 0.  1.
          2   -1    0    0  501    0  0.00000000000E+00 -0.00000000000E+00 -0.17936904679E+03  0.17936904679E+03  0.00000000000E+00 0. -1.
          5    1    1    2  502    0 -0.14395161680E+03 -0.48584366302E+02  0.55568978800E-01  0.15200197931E+03  0.47000000000E+01 0.  1.
         -5    1    1    2    0  502 -0.85897232141E+02  0.63342974815E+02 -0.34758431728E+02  0.11234280361E+03  0.47000000000E+01 0.  1.
        -11    1    1    2    0    0  0.22090253709E+03 -0.76003209864E+01  0.48338640890E+03  0.53152433254E+03  0.00000000000E+00 0.  1.
         11    1    1    2    0    0  0.89463118452E+01 -0.71582875264E+01 -0.94491931612E-01  0.11458032321E+02  0.00000000000E+00 0. -1.
<mgrwt>
<rscale>  0 0.25834072E+03</rscale>
<asrwt>0</asrwt>
<pdfrwt beam="2">  1        2 0.27595238E-01 0.26205701E+03</pdfrwt>
<pdfrwt beam="1">  1       -2 0.96608938E-01 0.26205701E+03</pdfrwt>
<totfact> 0.17992341E+02</totfact>
</mgrwt>
</event>
<event>
 6    1  0.5258538E-006  0.1482163E+03  0.7546771E-02  0.1212597E+00
          1   -1    0    0  501    0  0.00000000000E+00  0.00000000000E+00  0.11040763379E+04  0.11040763379E+04  0.00000000000E+00 0. -1.
         -1   -1    0    0    0  501 -0.00000000000E+00 -0.00000000000E+00 -0.16277984440E+02  0.16277984440E+02  0.00000000000E+00 0.  1.
          5    1    1    2  502    0 -0.52585522272E+02 -0.27000366822E+02  0.60599731059E+03  0.60889168775E+03  0.47000000000E+01 0.  1.
         -5    1    1    2    0  502 -0.15902687343E+02 -0.13661743047E+02  0.82994165920E+01  0.23032781065E+02  0.47000000000E+01 0.  1.
        -11    1    1    2    0    0  0.47298581920E+02  0.68425267004E+02  0.36851738298E+03  0.37778861096E+03  0.00000000000E+00 0. -1.
         11    1    1    2    0    0  0.21189627695E+02 -0.27763157135E+02  0.10498424331E+03  0.11064124258E+03  0.00000000000E+00 0.  1.
<mgrwt>
<rscale>  0 0.14054519E+03</rscale>
<asrwt>0</asrwt>
<pdfrwt beam="1">  1        1 0.16985784E+00 0.14821628E+03</pdfrwt>
<pdfrwt beam="2">  1       -1 0.25043062E-02 0.14821628E+03</pdfrwt>
<totfact> 0.64522984E+03</totfact>
</mgrwt>
</event>
<event>
 6    1  0.5258538E-006  0.1344443E+03  0.7546771E-02  0.1232088E+00
         -1   -1    0    0    0  501 -0.00000000000E+00  0.00000000000E+00  0.63057441490E+03  0.63057441490E+03  0.00000000000E+00 0.  1.
          1   -1    0    0  501    0  0.00000000000E+00 -0.00000000000E+00 -0.28477549488E+02  0.28477549488E+02  0.00000000000E+00 0. -1.
          5    1    1    2  502    0 -0.63388827338E+02 -0.97199778468E+01  0.35212832026E+02  0.73312038165E+02  0.47000000000E+01 0.  1.
         -5    1    1    2    0  502  0.16082540364E+02  0.36971186648E+02  0.15101409951E+03  0.15637411869E+03  0.47000000000E+01 0.  1.
        -11    1    1    2    0    0 -0.16276630196E+02 -0.35420701756E+02  0.10615261360E+03  0.11308373966E+03  0.00000000000E+00 0. -1.
         11    1    1    2    0    0  0.63582917170E+02  0.81694929552E+01  0.30971732029E+03  0.31628206787E+03  0.00000000000E+00 0.  1.
<mgrwt>
<rscale>  0 0.12692702E+03</rscale>
<asrwt>0</asrwt>
<pdfrwt beam="2">  1        1 0.43811619E-02 0.13444427E+03</pdfrwt>
<pdfrwt beam="1">  1       -1 0.97011438E-01 0.13444427E+03</pdfrwt>
<totfact> 0.20930901E+03</totfact>
</mgrwt>
</event>
<event>
 6    1  0.5258538E-006  0.1456503E+03  0.7546771E-02  0.1214752E+00
          3   -1    0    0  501    0  0.00000000000E+00  0.00000000000E+00  0.23745985743E+03  0.23745985743E+03  0.00000000000E+00 0. -1.
         -3   -1    0    0    0  501 -0.00000000000E+00 -0.00000000000E+00 -0.75660934283E+02  0.75660934283E+02  0.00000000000E+00 0.  1.
          5    1    1    2  502    0 -0.93135200736E+02  0.29323505499E+02  0.11215581118E+03  0.14877852524E+03  0.47000000000E+01 0. -1.
         -5    1    1    2    0  502  0.18532260581E+02 -0.24485800017E+02 -0.57575989682E+01  0.31594920962E+02  0.47000000000E+01 0. -1.
        -11    1    1    2    0    0  0.53643907305E+01  0.34945959243E+02  0.36233819535E+02  0.50624958601E+02  0.00000000000E+00 0. -1.
         11    1    1    2    0    0  0.69238549424E+02 -0.39783664725E+02  0.19166891396E+02  0.82122386906E+02  0.00000000000E+00 0.  1.
<mgrwt>
<rscale>  0 0.13894762E+03</rscale>
<asrwt>0</asrwt>
<pdfrwt beam="1">  1        3 0.36532285E-01 0.14565027E+03</pdfrwt>
<pdfrwt beam="2">  1       -3 0.11640144E-01 0.14565027E+03</pdfrwt>
<totfact> 0.98686745E+02</totfact>
</mgrwt>
</event>
<event>
 6    1  0.5258538E-006  0.1992667E+03  0.7546771E-02  0.1156079E+00
         -2   -1    0    0    0  501 -0.00000000000E+00  0.00000000000E+00  0.64465995834E+02  0.64465995834E+02  0.00000000000E+00 0.  1.
          2   -1    0    0  501    0  0.00000000000E+00 -0.00000000000E+00 -0.72208039642E+03  0.72208039642E+03  0.00000000000E+00 0. -1.
          5    1    1    2  502    0  0.14394474346E+03  0.34635919488E+02 -0.51375395393E+03  0.53468210300E+03  0.47000000000E+01 0. -1.
         -5    1    1    2    0  502 -0.10448432581E+02  0.30075799249E+02 -0.28366891783E+02  0.42900978932E+02  0.47000000000E+01 0.  1.
        -11    1    1    2    0    0 -0.14698703032E+03 -0.64841442852E+02 -0.10675334589E+03  0.19288824912E+03  0.00000000000E+00 0.  1.
         11    1    1    2    0    0  0.13490719441E+02  0.12972411469E+00 -0.87402089785E+01  0.16075061193E+02  0.00000000000E+00 0. -1.
<mgrwt>
<rscale>  0 0.19266574E+03</rscale>
<asrwt>0</asrwt>
<pdfrwt beam="2">  1        2 0.11108928E+00 0.19926667E+03</pdfrwt>
<pdfrwt beam="1">  1       -2 0.99178462E-02 0.19926667E+03</pdfrwt>
<totfact> 0.26907534E+03</totfact>
</mgrwt>
</event>
<event>
 6    1  0.5258538E-006  0.1686975E+03  0.7546771E-02  0.1185846E+00
         -2   -1    0    0    0  501 -0.00000000000E+00  0.00000000000E+00  0.40263799009E+02  0.40263799009E+02  0.00000000000E+00 0.  1.
          2   -1    0    0  501    0  0.00000000000E+00 -0.00000000000E+00 -0.87125761658E+03  0.87125761658E+03  0.00000000000E+00 0. -1.
          5    1    1    2  502    0  0.10393613169E+03 -0.53674540948E+02 -0.41897152765E+03  0.43502058204E+03  0.47000000000E+01 0.  1.
         -5    1    1    2    0  502  0.91886824968E+01  0.47580693369E+02 -0.26598877811E+03  0.27040797760E+03  0.47000000000E+01 0.  1.
        -11    1    1    2    0    0 -0.92598924574E+02  0.42893239310E+02 -0.90620172944E+02  0.13647859376E+03  0.00000000000E+00 0.  1.
         11    1    1    2    0    0 -0.20525889609E+02 -0.36799391730E+02 -0.55413338864E+02  0.69614262188E+02  0.00000000000E+00 0. -1.
<mgrwt>
<rscale>  0 0.16255162E+03</rscale>
<asrwt>0</asrwt>
<pdfrwt beam="2">  1        2 0.13403962E+00 0.16869746E+03</pdfrwt>
<pdfrwt beam="1">  1       -2 0.61944311E-02 0.16869746E+03</pdfrwt>
<totfact> 0.43957538E+03</totfact>
</mgrwt>
</event>
<event>
 6    1  0.5258538E-006  0.1523618E+03  0.7546771E-02  0.1206126E+00
          1   -1    0    0  501    0  0.00000000000E+00  0.00000000000E+00  0.29623654808E+02  0.29623654808E+02  0.00000000000E+00 0. -1.
         -1   -1    0    0    0  501 -0.00000000000E+00 -0.00000000000E+00 -0.66415927697E+03  0.66415927697E+03  0.00000000000E+00 0.  1.
          5    1    1    2  502    0  0.27138926096E+02  0.34116650071E+02 -0.28472434784E+03  0.28808073760E+03  0.47000000000E+01 0.  1.
         -5    1    1    2    0  502  0.51421076286E+02  0.35928152782E+01 -0.25856020947E+02  0.57858959784E+02  0.47000000000E+01 0.  1.
        -11    1    1    2    0    0  0.14497750501E+02 -0.27422365163E+02 -0.56210662700E+02  0.64201319939E+02  0.00000000000E+00 0. -1.
         11    1    1    2    0    0 -0.93057752883E+02 -0.10287100187E+02 -0.26774459067E+03  0.28364191446E+03  0.00000000000E+00 0.  1.
<mgrwt>
<rscale>  0 0.14549039E+03</rscale>
<asrwt>0</asrwt>
<pdfrwt beam="1">  1        1 0.45574855E-02 0.15236177E+03</pdfrwt>
<pdfrwt beam="2">  1       -1 0.10217835E+00 0.15236177E+03</pdfrwt>
<totfact> 0.17788571E+03</totfact>
</mgrwt>
</event>
<event>
 6    1  0.5258538E-006  0.1579989E+03  0.7546771E-02  0.1199789E+00
         -4   -1    0    0    0  501 -0.00000000000E+00  0.00000000000E+00  0.13318139131E+03  0.13318139131E+03  0.00000000000E+00 0.  1.
          4   -1    0    0  501    0  0.00000000000E+00 -0.00000000000E+00 -0.16803271136E+03  0.16803271136E+03  0.00000000000E+00 0. -1.
          5    1    1    2  502    0  0.34094377838E+02  0.38023745020E+02 -0.75593536983E+01  0.51840771733E+02  0.47000000000E+01 0. -1.
         -5    1    1    2    0  502 -0.99343062884E+02  0.33253186039E+02 -0.51564026089E+02  0.11685785088E+03  0.47000000000E+01 0. -1.
        -11    1    1    2    0    0  0.61821758728E+02 -0.53742612944E+02  0.53799981217E+02  0.98003246258E+02  0.00000000000E+00 0.  1.
         11    1    1    2    0    0  0.34269263181E+01 -0.17534318115E+02 -0.29527921472E+02  0.34512233805E+02  0.00000000000E+00 0. -1.
<mgrwt>
<rscale>  0 0.15055829E+03</rscale>
<asrwt>0</asrwt>
<pdfrwt beam="2">  1        4 0.25851186E-01 0.15799890E+03</pdfrwt>
<pdfrwt beam="1">  1       -4 0.20489445E-01 0.15799890E+03</pdfrwt>
<totfact> 0.51889298E+02</totfact>
</mgrwt>
</event>
<event>
 6    1  0.5258538E-006  0.1265612E+03  0.7546771E-02  0.1248321E+00
         -1   -1    0    0    0  501 -0.00000000000E+00  0.00000000000E+00  0.39680140992E+02  0.39680140992E+02  0.00000000000E+00 0. -1.
          1   -1    0    0  501    0  0.00000000000E+00 -0.00000000000E+00 -0.43870316637E+03  0.43870316637E+03  0.00000000000E+00 0.  1.
          5    1    1    2  502    0 -0.48249133115E+02  0.13646833344E+02 -0.22704048175E+03  0.23255899307E+03  0.47000000000E+01 0. -1.
         -5    1    1    2    0  502  0.59217682973E+02 -0.30161512380E+02 -0.12683932051E+03  0.14327160930E+03  0.47000000000E+01 0. -1.
        -11    1    1    2    0    0  0.20876542918E+02  0.16003005367E+02  0.17971356144E+02  0.31857430321E+02  0.00000000000E+00 0. -1.
         11    1    1    2    0    0 -0.31845092776E+02  0.51167366934E+00 -0.63114579267E+02  0.70695274665E+02  0.00000000000E+00 0.  1.
<mgrwt>
<rscale>  0 0.11688785E+03</rscale>
<asrwt>0</asrwt>
<pdfrwt beam="2">  1        1 0.67492799E-01 0.12656116E+03</pdfrwt>
<pdfrwt beam="1">  1       -1 0.61046367E-02 0.12656116E+03</pdfrwt>
<totfact> 0.66633528E+03</totfact>
</mgrwt>
</event>
<event>
 6    1  0.5258538E-006  0.2866144E+03  0.7546771E-02  0.1092130E+00
         -2   -1    0    0    0  501 -0.00000000000E+00  0.00000000000E+00  0.28649257971E+02  0.28649257971E+02  0.00000000000E+00 0.  1.
          2   -1    0    0  501    0  0.00000000000E+00 -0.00000000000E+00 -0.71684055674E+03  0.71684055674E+03  0.00000000000E+00 0. -1.
          5    1    1    2  502    0  0.91393782585E+02  0.11203607206E+02 -0.20380981894E+03  0.22369371159E+03  0.47000000000E+01 0.  1.
         -5    1    1    2    0  502 -0.12041789199E+02 -0.41841269745E+01 -0.33100149296E+03  0.33128022873E+03  0.47000000000E+01 0.  1.
        -11    1    1    2    0    0 -0.35064904774E+01  0.28336025198E+02 -0.49255889540E+02  0.56933017256E+02  0.00000000000E+00 0. -1.
         11    1    1    2    0    0 -0.75845502909E+02 -0.35355505429E+02 -0.10412409733E+03  0.13358285714E+03  0.00000000000E+00 0.  1.
<mgrwt>
<rscale>  0 0.28661438E+03</rscale>
<asrwt>0</asrwt>
<pdfrwt beam="2">  1        2 0.11028314E+00 0.28661438E+03</pdfrwt>
<pdfrwt beam="1">  1       -2 0.44075790E-02 0.28661438E+03</pdfrwt>
<totfact> 0.96458202E+03</totfact>
</mgrwt>
</event>
<event>
 6    1  0.5258538E-006  0.1184639E+03  0.7546771E-02  0.1253360E+00
          1   -1    0    0  501    0  0.00000000000E+00  0.00000000000E+00  0.62413860546E+03  0.62413860546E+03  0.00000000000E+00 0. -1.
         -1   -1    0    0    0  501 -0.00000000000E+00 -0.00000000000E+00 -0.27175046100E+02  0.27175046100E+02  0.00000000000E+00 0.  1.
          5    1    1    2  502    0 -0.53334030648E+02 -0.68440672431E+01  0.40280285400E+03  0.40640323482E+03  0.47000000000E+01 0. -1.
         -5    1    1    2    0  502  0.38041635709E+02  0.21372442604E+02  0.86008839529E+02  0.96558572004E+02  0.47000000000E+01 0.  1.
        -11    1    1    2    0    0  0.45202345239E+02  0.25247303672E+02  0.54533498808E+02  0.75196947079E+02  0.00000000000E+00 0.  1.
         11    1    1    2    0    0 -0.29909950300E+02 -0.39775679032E+02  0.53618367029E+02  0.73154897664E+02  0.00000000000E+00 0. -1.
<mgrwt>
<rscale>  0 0.11398681E+03</rscale>
<asrwt>0</asrwt>
<pdfrwt beam="1">  1        1 0.96021313E-01 0.11846395E+03</pdfrwt>
<pdfrwt beam="2">  1       -1 0.41807768E-02 0.11846395E+03</pdfrwt>
<totfact> 0.72995376E+03</totfact>
</mgrwt>
</event>
<event>
 6    1  0.5258538E-006  0.1264803E+03  0.7546771E-02  0.1247404E+00
         -4   -1    0    0    0  501 -0.00000000000E+00  0.00000000000E+00  0.47918103151E+03  0.47918103151E+03  0.00000000000E+00 0.  1.
          4   -1    0    0  501    0  0.00000000000E+00 -0.00000000000E+00 -0.27552329887E+02  0.27552329887E+02  0.00000000000E+00 0. -1.
          5    1    1    2  502    0 -0.46224827137E+02 -0.27146693551E+02  0.77783389712E+02  0.94583419951E+02  0.47000000000E+01 0.  1.
         -5    1    1    2    0  502  0.60159833942E+02  0.40475418989E+02  0.10784582710E+03  0.13003952316E+03  0.47000000000E+01 0.  1.
        -11    1    1    2    0    0  0.34888509337E+02  0.10989315121E+02  0.74513051873E+02  0.83007036027E+02  0.00000000000E+00 0. -1.
         11    1    1    2    0    0 -0.48823516143E+02 -0.24318040559E+02  0.19148643294E+03  0.19910338226E+03  0.00000000000E+00 0.  1.
<mgrwt>
<rscale>  0 0.11742637E+03</rscale>
<asrwt>0</asrwt>
<pdfrwt beam="2">  1        4 0.42388203E-02 0.12648028E+03</pdfrwt>
<pdfrwt beam="1">  1       -4 0.73720153E-01 0.12648028E+03</pdfrwt>
<totfact> 0.86512382E+02</totfact>
</mgrwt>
</event>
<event>
 6    1  0.5258538E-006  0.1457238E+03  0.7546771E-02  0.1216105E+00
          1   -1    0    0  501    0  0.00000000000E+00  0.00000000000E+00  0.49986216353E+03  0.49986216353E+03  0.00000000000E+00 0. -1.
         -1   -1    0    0    0  501 -0.00000000000E+00 -0.00000000000E+00 -0.44789605541E+02  0.44789605541E+02  0.00000000000E+00 0.  1.
          5    1    1    2  502    0 -0.45474066024E+02 -0.60885279764E+02  0.37552353784E+03  0.38316435827E+03  0.47000000000E+01 0. -1.
         -5    1    1    2    0  502 -0.13443777486E+02  0.14641112230E+02  0.85878252565E+00  0.20443209823E+02  0.47000000000E+01 0. -1.
        -11    1    1    2    0    0  0.35984660050E+02  0.42767271059E+02  0.96691403133E+02  0.11168331421E+03  0.00000000000E+00 0. -1.
         11    1    1    2    0    0  0.22933183460E+02  0.34768964747E+01 -0.18001165508E+02  0.29360886777E+02  0.00000000000E+00 0.  1.
<mgrwt>
<rscale>  0 0.13795679E+03</rscale>
<asrwt>0</asrwt>
<pdfrwt beam="1">  1        1 0.76901868E-01 0.14572377E+03</pdfrwt>
<pdfrwt beam="2">  1       -1 0.68907089E-02 0.14572377E+03</pdfrwt>
<totfact> 0.47362410E+03</totfact>
</mgrwt>
</event>
<event>
 6    1  0.5258538E-006  0.1262045E+03  0.7546771E-02  0.1248695E+00
          2   -1    0    0  501    0  0.00000000000E+00  0.00000000000E+00  0.47984583398E+02  0.47984583398E+02  0.00000000000E+00 0. -1.
         -2   -1    0    0    0  501 -0.00000000000E+00 -0.00000000000E+00 -0.25097297807E+03  0.25097297807E+03  0.00000000000E+00 0.  1.
          5    1    1    2  502    0 -0.35433024807E+02 -0.49143162772E+02 -0.10053064440E+03  0.11746935838E+03  0.47000000000E+01 0. -1.
         -5    1    1    2    0  502  0.21003338274E+02  0.39516635302E+02 -0.18422736485E+01  0.45035415580E+02  0.47000000000E+01 0. -1.
        -11    1    1    2    0    0 -0.86392104365E+01 -0.36251477528E+02 -0.24371702309E+02  0.44528479127E+02  0.00000000000E+00 0.  1.
         11    1    1    2    0    0  0.23068896970E+02  0.45878004998E+02 -0.76243774314E+02  0.91924308383E+02  0.00000000000E+00 0. -1.
<mgrwt>
<rscale>  0 0.11666950E+03</rscale>
<asrwt>0</asrwt>
<pdfrwt beam="1">  1        2 0.73822436E-02 0.12620455E+03</pdfrwt>
<pdfrwt beam="2">  1       -2 0.38611227E-01 0.12620455E+03</pdfrwt>
<totfact> 0.56653768E+03</totfact>
</mgrwt>
</event>
<event>
 6    1  0.5258538E-006  0.1303727E+03  0.7546771E-02  0.1233837E+00
         -2   -1    0    0    0  501 -0.00000000000E+00  0.00000000000E+00  0.18888604366E+03  0.18888604366E+03  0.00000000000E+00 0. -1.
          2   -1    0    0  501    0  0.00000000000E+00 -0.00000000000E+00 -0.12521663611E+03  0.12521663611E+03  0.00000000000E+00 0.  1.
          5    1    1    2  502    0  0.42561744403E+02  0.11432098086E+02  0.26507939806E+02  0.51642577647E+02  0.47000000000E+01 0. -1.
         -5    1    1    2    0  502  0.21644457356E+02 -0.14548320230E+02 -0.89137694581E+02  0.92993304871E+02  0.47000000000E+01 0.  1.
        -11    1    1    2    0    0 -0.50284014960E+02 -0.41674165199E+02  0.63554537178E+02  0.91128466472E+02  0.00000000000E+00 0.  1.
         11    1    1    2    0    0 -0.13922186798E+02  0.44790387342E+02  0.62744625155E+02  0.78338330780E+02  0.00000000000E+00 0. -1.
<mgrwt>
<rscale>  0 0.12579211E+03</rscale>
<asrwt>0</asrwt>
<pdfrwt beam="2">  1        2 0.19264098E-01 0.13037274E+03</pdfrwt>
<pdfrwt beam="1">  1       -2 0.29059391E-01 0.13037274E+03</pdfrwt>
<totfact> 0.30217285E+03</totfact>
</mgrwt>
</event>
<event>
 6    1  0.5258538E-006  0.1435105E+03  0.7546771E-02  0.1214240E+00
         -2   -1    0    0    0  501 -0.00000000000E+00  0.00000000000E+00  0.76087677985E+02  0.76087677985E+02  0.00000000000E+00 0.  1.
          2   -1    0    0  501    0  0.00000000000E+00 -0.00000000000E+00 -0.54923173668E+03  0.54923173668E+03  0.00000000000E+00 0. -1.
          5    1    1    2  502    0 -0.69993973982E+02  0.46386478200E+02 -0.23263771830E+03  0.24737271420E+03  0.47000000000E+01 0. -1.
         -5    1    1    2    0  502  0.44211253499E+02  0.34465939600E+02 -0.24400976585E+03  0.25041044659E+03  0.47000000000E+01 0.  1.
        -11    1    1    2    0    0  0.35510238646E+01  0.21931814667E+02  0.26210219826E+01  0.22371500203E+02  0.00000000000E+00 0. -1.
         11    1    1    2    0    0  0.22231696618E+02 -0.10278423247E+03  0.88240348395E+00  0.10516475367E+03  0.00000000000E+00 0.  1.
<mgrwt>
<rscale>  0 0.13932533E+03</rscale>
<asrwt>0</asrwt>
<pdfrwt beam="2">  1        2 0.84497191E-01 0.14351046E+03</pdfrwt>
<pdfrwt beam="1">  1       -2 0.11705796E-01 0.14351046E+03</pdfrwt>
<totfact> 0.28157180E+03</totfact>
</mgrwt>
</event>
<event>
 6    1  0.5258538E-006  0.9271119E+03  0.7546771E-02  0.9392311E-01
         -1   -1    0    0    0  501 -0.00000000000E+00  0.00000000000E+00  0.36096484676E+03  0.36096484676E+03  0.00000000000E+00 0.  1.
          1   -1    0    0  501    0  0.00000000000E+00 -0.00000000000E+00 -0.59530479938E+03  0.59530479938E+03  0.00000000000E+00 0. -1.
          5    1    1    2  502    0 -0.88647746396E+02  0.24045691505E+03 -0.31643123131E+03  0.40722078174E+03  0.47000000000E+01 0. -1.
         -5    1    1    2    0  502 -0.17370667028E+02 -0.45278729585E+01 -0.23639686867E+00  0.18557682776E+02  0.47000000000E+01 0.  1.
        -11    1    1    2    0    0 -0.49904091421E+02 -0.26345163293E+03  0.19891671570E+03  0.33386380609E+03  0.00000000000E+00 0.  1.
         11    1    1    2    0    0  0.15592250485E+03  0.27522590838E+02 -0.11658904015E+03  0.19662737553E+03  0.00000000000E+00 0. -1.
<mgrwt>
<rscale>  0 0.92711187E+03</rscale>
<asrwt>0</asrwt>
<pdfrwt beam="2">  1        1 0.91585354E-01 0.92711187E+03</pdfrwt>
<pdfrwt beam="1">  1       -1 0.55533053E-01 0.92711187E+03</pdfrwt>
<totfact> 0.11432576E+02</totfact>
</mgrwt>
</event>
<event>
 6    1  0.5258538E-006  0.1392455E+03  0.7546771E-02  0.1225617E+00
          2   -1    0    0  501    0  0.00000000000E+00  0.00000000000E+00  0.52590779777E+03  0.52590779777E+03  0.00000000000E+00 0. -1.
         -2   -1    0    0    0  501 -0.00000000000E+00 -0.00000000000E+00 -0.30228320665E+02  0.30228320665E+02  0.00000000000E+00 0.  1.
          5    1    1    2  502    0 -0.29849585790E+02  0.55727128567E+02  0.90286362571E+02  0.11031875587E+03  0.47000000000E+01 0.  1.
         -5    1    1    2    0  502 -0.31698063260E+02 -0.56467476393E+02  0.22865079616E+03  0.23769017583E+03  0.47000000000E+01 0.  1.
        -11    1    1    2    0    0 -0.73802937958E+01 -0.31461812387E+02  0.37897478591E+02  0.49804952151E+02  0.00000000000E+00 0. -1.
         11    1    1    2    0    0  0.68927942846E+02  0.32202160214E+02  0.13884483978E+03  0.15832223458E+03  0.00000000000E+00 0.  1.
<mgrwt>
<rscale>  0 0.13124721E+03</rscale>
<asrwt>0</asrwt>
<pdfrwt beam="1">  1        2 0.80908885E-01 0.13924549E+03</pdfrwt>
<pdfrwt beam="2">  1       -2 0.46505113E-02 0.13924549E+03</pdfrwt>
<totfact> 0.12228467E+04</totfact>
</mgrwt>
</event>
<event>
 6    1  0.5258538E-006  0.3705638E+03  0.7546771E-02  0.1054478E+00
          2   -1    0    0  501    0  0.00000000000E+00  0.00000000000E+00  0.15230310431E+04  0.15230310431E+04  0.00000000000E+00 0. -1.
         -2   -1    0    0    0  501 -0.00000000000E+00 -0.00000000000E+00 -0.22540174385E+02  0.22540174385E+02  0.00000000000E+00 0.  1.
          5    1    1    2  502    0 -0.27544794749E+02 -0.48086467038E+01  0.84353306193E+03  0.84400945218E+03  0.47000000000E+01 0. -1.
         -5    1    1    2    0  502 -0.12624083794E+02  0.87869656372E+02  0.43955073308E+03  0.44844997598E+03  0.47000000000E+01 0. -1.
        -11    1    1    2    0    0  0.61482099237E+02 -0.32213338651E+02  0.15504483912E+03  0.16987245172E+03  0.00000000000E+00 0.  1.
         11    1    1    2    0    0 -0.21313220695E+02 -0.50847671017E+02  0.62362234590E+02  0.83239337619E+02  0.00000000000E+00 0. -1.
<mgrwt>
<rscale>  0 0.37056382E+03</rscale>
<asrwt>0</asrwt>
<pdfrwt beam="1">  1        2 0.23431239E+00 0.37056382E+03</pdfrwt>
<pdfrwt beam="2">  1       -2 0.34677203E-02 0.37056382E+03</pdfrwt>
<totfact> 0.45297604E+03</totfact>
</mgrwt>
</event>
<event>
 6    1  0.5258538E-006  0.1366153E+03  0.7546771E-02  0.1230248E+00
          3   -1    0    0  501    0  0.00000000000E+00  0.00000000000E+00  0.10772915161E+03  0.10772915161E+03  0.00000000000E+00 0. -1.
         -3   -1    0    0    0  501 -0.00000000000E+00 -0.00000000000E+00 -0.14416069640E+03  0.14416069640E+03  0.00000000000E+00 0.  1.
          5    1    1    2  502    0  0.33415294125E+02  0.38362116527E+02  0.27844959231E+02  0.58186472831E+02  0.47000000000E+01 0. -1.
         -5    1    1    2    0  502  0.69458919680E+01 -0.75907904325E+02 -0.19055590547E+02  0.78711250056E+02  0.47000000000E+01 0. -1.
        -11    1    1    2    0    0  0.88934738540E+01  0.40031346635E+02 -0.50883410970E+02  0.65350777368E+02  0.00000000000E+00 0.  1.
         11    1    1    2    0    0 -0.49254659947E+02 -0.24855588377E+01  0.56624975005E+01  0.49641347758E+02  0.00000000000E+00 0. -1.
<mgrwt>
<rscale>  0 0.12813601E+03</rscale>
<asrwt>0</asrwt>
<pdfrwt beam="1">  1        3 0.16573716E-01 0.13661528E+03</pdfrwt>
<pdfrwt beam="2">  1       -3 0.22178569E-01 0.13661528E+03</pdfrwt>
<totfact> 0.13415030E+03</totfact>
</mgrwt>
</event>
<event>
 6    1  0.5258538E-006  0.1763575E+03  0.7546771E-02  0.1177373E+00
          2   -1    0    0  501    0  0.00000000000E+00  0.00000000000E+00  0.42772267579E+03  0.42772267579E+03  0.00000000000E+00 0. -1.
         -2   -1    0    0    0  501 -0.00000000000E+00 -0.00000000000E+00 -0.81882835164E+02  0.81882835164E+02  0.00000000000E+00 0.  1.
          5    1    1    2  502    0 -0.63603722868E+02  0.56493234360E+02  0.70975974932E+02  0.11089002709E+03  0.47000000000E+01 0.  1.
         -5    1    1    2    0  502  0.15846847286E+02  0.58380626513E+02  0.23077036493E+03  0.23861364473E+03  0.47000000000E+01 0.  1.
        -11    1    1    2    0    0  0.42357164290E+01 -0.10290467962E+03  0.50163151677E+02  0.11455852726E+03  0.00000000000E+00 0. -1.
         11    1    1    2    0    0  0.43521159153E+02 -0.11969181253E+02 -0.60696509160E+01  0.45543311871E+02  0.00000000000E+00 0.  1.
<mgrwt>
<rscale>  0 0.17045600E+03</rscale>
<asrwt>0</asrwt>
<pdfrwt beam="1">  1        2 0.65803487E-01 0.17635749E+03</pdfrwt>
<pdfrwt beam="2">  1       -2 0.12597359E-01 0.17635749E+03</pdfrwt>
<totfact> 0.33205939E+03</totfact>
</mgrwt>
</event>
<event>
 6    1  0.5258538E-006  0.1326146E+03  0.7546771E-02  0.1238549E+00
          2   -1    0    0  501    0  0.00000000000E+00  0.00000000000E+00  0.46768330023E+03  0.46768330023E+03  0.00000000000E+00 0. -1.
         -2   -1    0    0    0  501 -0.00000000000E+00 -0.00000000000E+00 -0.34011206712E+02  0.34011206712E+02  0.00000000000E+00 0.  1.
          5    1    1    2  502    0  0.39606300587E+02 -0.20744532636E+02  0.24680895651E+03  0.25086997766E+03  0.47000000000E+01 0.  1.
         -5    1    1    2    0  502 -0.64971729480E+02 -0.15564159640E+02  0.99299638249E+02  0.11977510949E+03  0.47000000000E+01 0.  1.
        -11    1    1    2    0    0 -0.26579454063E+02  0.30186627630E+02  0.59139965663E+02  0.71520873907E+02  0.00000000000E+00 0. -1.
         11    1    1    2    0    0  0.51944882955E+02  0.61220646460E+01  0.28423533096E+02  0.59528545878E+02  0.00000000000E+00 0.  1.
<mgrwt>
<rscale>  0 0.12279946E+03</rscale>
<asrwt>0</asrwt>
<pdfrwt beam="1">  1        2 0.71951272E-01 0.13261456E+03</pdfrwt>
<pdfrwt beam="2">  1       -2 0.52324937E-02 0.13261456E+03</pdfrwt>
<totfact> 0.11611829E+04</totfact>
</mgrwt>
</event>
<event>
 6    1  0.5258538E-006  0.1498800E+03  0.7546771E-02  0.1212396E+00
         -2   -1    0    0    0  501 -0.00000000000E+00  0.00000000000E+00  0.42625699504E+02  0.42625699504E+02  0.00000000000E+00 0.  1.
          2   -1    0    0  501    0  0.00000000000E+00 -0.00000000000E+00 -0.41954955949E+03  0.41954955949E+03  0.00000000000E+00 0. -1.
          5    1    1    2  502    0 -0.67493413745E+02  0.76506461525E+01 -0.80435755199E+02  0.10538450550E+03  0.47000000000E+01 0.  1.
         -5    1    1    2    0  502  0.36980702951E+02  0.69219011918E+02 -0.15317014269E+03  0.17216859938E+03  0.47000000000E+01 0.  1.
        -11    1    1    2    0    0  0.14610305722E+02 -0.55246746032E+02 -0.23423930590E+02  0.61760379733E+02  0.00000000000E+00 0.  1.
         11    1    1    2    0    0  0.15902405072E+02 -0.21622912038E+02 -0.11989403151E+03  0.12286177438E+03  0.00000000000E+00 0. -1.
<mgrwt>
<rscale>  0 0.14069586E+03</rscale>
<asrwt>0</asrwt>
<pdfrwt beam="2">  1        2 0.64546084E-01 0.14987999E+03</pdfrwt>
<pdfrwt beam="1">  1       -2 0.65578002E-02 0.14987999E+03</pdfrwt>
<totfact> 0.93542854E+03</totfact>
</mgrwt>
</event>
<event>
 6    1  0.5258538E-006  0.1270773E+03  0.7546771E-02  0.1247375E+00
         -1   -1    0    0    0  501 -0.00000000000E+00  0.00000000000E+00  0.14905860164E+03  0.14905860164E+03  0.00000000000E+00 0.  1.
          1   -1    0    0  501    0  0.00000000000E+00 -0.00000000000E+00 -0.10312608171E+03  0.10312608171E+03  0.00000000000E+00 0. -1.
          5    1    1    2  502    0 -0.13897616569E+02  0.43454662484E+02 -0.49833407547E+02  0.67726729920E+02  0.47000000000E+01 0.  1.
         -5    1    1    2    0  502 -0.12892810054E+01 -0.60576566694E+02  0.17800771249E+02  0.63325667269E+02  0.47000000000E+01 0.  1.
        -11    1    1    2    0    0 -0.20325962698E+02 -0.26996385821E+02  0.42545880376E+02  0.54333245292E+02  0.00000000000E+00 0. -1.
         11    1    1    2    0    0  0.35512860272E+02  0.44118290032E+02  0.35419275852E+02  0.66799040876E+02  0.00000000000E+00 0.  1.
<mgrwt>
<rscale>  0 0.11744333E+03</rscale>
<asrwt>0</asrwt>
<pdfrwt beam="2">  1        1 0.15865551E-01 0.12707730E+03</pdfrwt>
<pdfrwt beam="1">  1       -1 0.22932093E-01 0.12707730E+03</pdfrwt>
<totfact> 0.52811378E+03</totfact>
</mgrwt>
</event>
<event>
 6    1  0.5258538E-006  0.1317664E+03  0.7546771E-02  0.1237577E+00
         -1   -1    0    0    0  501 -0.00000000000E+00  0.00000000000E+00  0.23236981835E+02  0.23236981835E+02  0.00000000000E+00 0.  1.
          1   -1    0    0  501    0  0.00000000000E+00 -0.00000000000E+00 -0.58570463007E+03  0.58570463007E+03  0.00000000000E+00 0. -1.
          5    1    1    2  502    0  0.81241316328E+02 -0.68465405038E+01 -0.24890377276E+03  0.26195840259E+03  0.47000000000E+01 0.  1.
         -5    1    1    2    0  502 -0.41580992892E+02  0.19626649689E+02 -0.80550509394E+02  0.92869041728E+02  0.47000000000E+01 0.  1.
        -11    1    1    2    0    0  0.12444405745E+02  0.60341058242E+01  0.77519052856E+00  0.13851880298E+02  0.00000000000E+00 0.  1.
         11    1    1    2    0    0 -0.52104729181E+02 -0.18814215009E+02 -0.23378855661E+03  0.24026228728E+03  0.00000000000E+00 0. -1.
<mgrwt>
<rscale>  0 0.12340884E+03</rscale>
<asrwt>0</asrwt>
<pdfrwt beam="2">  1        1 0.90108395E-01 0.13176643E+03</pdfrwt>
<pdfrwt beam="1">  1       -1 0.35749207E-02 0.13176643E+03</pdfrwt>
<totfact> 0.10078030E+04</totfact>
</mgrwt>
</event>
<event>
 6    1  0.5258538E-006  0.1812574E+03  0.7546771E-02  0.1171819E+00
         -3   -1    0    0    0  501 -0.00000000000E+00  0.00000000000E+00  0.11092559622E+03  0.11092559622E+03  0.00000000000E+00 0.  1.
          3   -1    0    0  501    0  0.00000000000E+00 -0.00000000000E+00 -0.28236050431E+03  0.28236050431E+03  0.00000000000E+00 0. -1.
          5    1    1    2  502    0 -0.57033084527E+02  0.90910634473E+02 -0.12688970562E+03  0.16625463477E+03  0.47000000000E+01 0. -1.
         -5    1    1    2    0  502  0.46875147858E+02  0.39974511186E+02 -0.14080628732E+02  0.63368723647E+02  0.47000000000E+01 0. -1.
        -11    1    1    2    0    0  0.46829902419E+02 -0.77316738025E+02  0.33707125223E+01  0.90455953051E+02  0.00000000000E+00 0.  1.
         11    1    1    2    0    0 -0.36671965750E+02 -0.53568407633E+02 -0.33835286261E+02  0.73206789062E+02  0.00000000000E+00 0. -1.
<mgrwt>
<rscale>  0 0.17591179E+03</rscale>
<asrwt>0</asrwt>
<pdfrwt beam="2">  1        3 0.43440077E-01 0.18125742E+03</pdfrwt>
<pdfrwt beam="1">  1       -3 0.17065476E-01 0.18125742E+03</pdfrwt>
<totfact> 0.37863711E+02</totfact>
</mgrwt>
</event>
<event>
 6    1  0.5258538E-006  0.1653478E+03  0.7546771E-02  0.1201305E+00
         -1   -1    0    0    0  501 -0.00000000000E+00  0.00000000000E+00  0.65186454590E+03  0.65186454590E+03  0.00000000000E+00 0.  1.
          1   -1    0    0  501    0  0.00000000000E+00 -0.00000000000E+00 -0.45924908787E+02  0.45924908787E+02  0.00000000000E+00 0. -1.
          5    1    1    2  502    0  0.67558772227E+02 -0.62188820486E+02  0.23992451279E+02  0.95022969942E+02  0.47000000000E+01 0. -1.
         -5    1    1    2    0  502 -0.42429390778E+02  0.56105582925E+01  0.10892356377E+03  0.11712456749E+03  0.47000000000E+01 0.  1.
        -11    1    1    2    0    0 -0.27033252807E+02  0.78585917872E+02  0.42097636854E+03  0.42910097426E+03  0.00000000000E+00 0.  1.
         11    1    1    2    0    0  0.19038713584E+01 -0.22007655678E+02  0.52047253524E+02  0.56540942988E+02  0.00000000000E+00 0. -1.
<mgrwt>
<rscale>  0 0.14932495E+03</rscale>
<asrwt>0</asrwt>
<pdfrwt beam="2">  1        1 0.70653711E-02 0.16534785E+03</pdfrwt>
<pdfrwt beam="1">  1       -1 0.10028685E+00 0.16534785E+03</pdfrwt>
<totfact> 0.10213171E+03</totfact>
</mgrwt>
</event>
<event>
 6    1  0.5258538E-006  0.1260751E+03  0.7546771E-02  0.1249166E+00
         -1   -1    0    0    0  501 -0.00000000000E+00  0.00000000000E+00  0.72116547041E+02  0.72116547041E+02  0.00000000000E+00 0.  1.
          1   -1    0    0  501    0  0.00000000000E+00 -0.00000000000E+00 -0.16755816530E+03  0.16755816530E+03  0.00000000000E+00 0. -1.
          5    1    1    2  502    0 -0.21417920384E+02 -0.38238072402E+02 -0.63706614204E+02  0.77469349990E+02  0.47000000000E+01 0. -1.
         -5    1    1    2    0  502  0.77188930409E+01  0.47277709850E+02  0.25231443302E+02  0.54345918794E+02  0.47000000000E+01 0. -1.
        -11    1    1    2    0    0  0.19420204793E+02  0.24019857314E+02  0.10406799587E+02  0.32594468507E+02  0.00000000000E+00 0.  1.
         11    1    1    2    0    0 -0.57211774501E+01 -0.33059494763E+02 -0.67373246949E+02  0.75264975054E+02  0.00000000000E+00 0. -1.
<mgrwt>
<rscale>  0 0.11639448E+03</rscale>
<asrwt>0</asrwt>
<pdfrwt beam="2">  1        1 0.25778179E-01 0.12607508E+03</pdfrwt>
<pdfrwt beam="1">  1       -1 0.11094854E-01 0.12607508E+03</pdfrwt>
<totfact> 0.89425212E+03</totfact>
</mgrwt>
</event>
<event>
 6    1  0.5258538E-006  0.1491919E+03  0.7546771E-02  0.1210080E+00
         -1   -1    0    0    0  501 -0.00000000000E+00  0.00000000000E+00  0.97689070021E+02  0.97689070021E+02  0.00000000000E+00 0.  1.
          1   -1    0    0  501    0  0.00000000000E+00 -0.00000000000E+00 -0.19104854637E+03  0.19104854637E+03  0.00000000000E+00 0. -1.
          5    1    1    2  502    0  0.53603947880E+02 -0.32895894593E+02 -0.86297463281E+02  0.10688716143E+03  0.47000000000E+01 0. -1.
         -5    1    1    2    0  502  0.26257375046E+02  0.16933929718E+02  0.38471453109E+02  0.49783033499E+02  0.47000000000E+01 0. -1.
        -11    1    1    2    0    0 -0.13649771573E+02  0.96354004948E+01  0.28192995570E+02  0.32771972872E+02  0.00000000000E+00 0.  1.
         11    1    1    2    0    0 -0.66211551354E+02  0.63265643803E+01 -0.73726461746E+02  0.99295448592E+02  0.00000000000E+00 0. -1.
<mgrwt>
<rscale>  0 0.14244194E+03</rscale>
<asrwt>0</asrwt>
<pdfrwt beam="2">  1        1 0.29392084E-01 0.14919190E+03</pdfrwt>
<pdfrwt beam="1">  1       -1 0.15029088E-01 0.14919190E+03</pdfrwt>
<totfact> 0.47948677E+03</totfact>
</mgrwt>
</event>
<event>
 6    1  0.5258538E-006  0.1655042E+03  0.7546771E-02  0.1189647E+00
          2   -1    0    0  501    0  0.00000000000E+00  0.00000000000E+00  0.10921800490E+03  0.10921800490E+03  0.00000000000E+00 0. -1.
         -2   -1    0    0    0  501 -0.00000000000E+00 -0.00000000000E+00 -0.21815099185E+03  0.21815099185E+03  0.00000000000E+00 0.  1.
          5    1    1    2  502    0  0.78608570707E+02  0.59363410596E+02 -0.23663205230E+02  0.10141675990E+03  0.47000000000E+01 0.  1.
         -5    1    1    2    0  502  0.29856790893E+02 -0.59648049194E+02 -0.18126187476E+02  0.69281789869E+02  0.47000000000E+01 0.  1.
        -11    1    1    2    0    0 -0.10246119124E+03 -0.18833391627E+02 -0.81291002581E+02  0.13214090756E+03  0.00000000000E+00 0.  1.
         11    1    1    2    0    0 -0.60041703643E+01  0.19118030225E+02  0.14147408343E+02  0.24529539423E+02  0.00000000000E+00 0. -1.
<mgrwt>
<rscale>  0 0.15916107E+03</rscale>
<asrwt>0</asrwt>
<pdfrwt beam="1">  1        2 0.16802770E-01 0.16550420E+03</pdfrwt>
<pdfrwt beam="2">  1       -2 0.33561691E-01 0.16550420E+03</pdfrwt>
<totfact> 0.27559961E+03</totfact>
</mgrwt>
</event>
<event>
 6    1  0.5258538E-006  0.1570688E+03  0.7546771E-02  0.1199955E+00
         -1   -1    0    0    0  501 -0.00000000000E+00  0.00000000000E+00  0.19893858382E+03  0.19893858382E+03  0.00000000000E+00 0.  1.
          1   -1    0    0  501    0  0.00000000000E+00 -0.00000000000E+00 -0.12119250162E+03  0.12119250162E+03  0.00000000000E+00 0. -1.
          5    1    1    2  502    0  0.60461785729E+02  0.33220281459E+02  0.44096877629E+02  0.82011214174E+02  0.47000000000E+01 0.  1.
         -5    1    1    2    0  502  0.34584914194E+02 -0.29806496084E+02 -0.60459272007E+02  0.75907556081E+02  0.47000000000E+01 0.  1.
        -11    1    1    2    0    0 -0.10041866704E+02 -0.49461464358E+01 -0.18191547804E+02  0.21359678438E+02  0.00000000000E+00 0. -1.
         11    1    1    2    0    0 -0.85004833219E+02  0.15323610601E+01  0.11230002439E+03  0.14085263675E+03  0.00000000000E+00 0.  1.
<mgrwt>
<rscale>  0 0.15042218E+03</rscale>
<asrwt>0</asrwt>
<pdfrwt beam="2">  1        1 0.18645000E-01 0.15706881E+03</pdfrwt>
<pdfrwt beam="1">  1       -1 0.30605936E-01 0.15706881E+03</pdfrwt>
<totfact> 0.26922902E+03</totfact>
</mgrwt>
</event>
<event>
 6    1  0.5258538E-006  0.1305168E+03  0.7546771E-02  0.1234119E+00
          1   -1    0    0  501    0  0.00000000000E+00  0.00000000000E+00  0.32640491293E+03  0.32640491293E+03  0.00000000000E+00 0. -1.
         -1   -1    0    0    0  501 -0.00000000000E+00 -0.00000000000E+00 -0.51801808233E+02  0.51801808233E+02  0.00000000000E+00 0.  1.
          5    1    1    2  502    0  0.39450690760E+02 -0.12272122586E+02  0.11512090819E+03  0.12240047180E+03  0.47000000000E+01 0. -1.
         -5    1    1    2    0  502 -0.67522639414E+02 -0.45878519943E+02  0.99479063288E+02  0.12877235518E+03  0.47000000000E+01 0.  1.
        -11    1    1    2    0    0  0.18090592445E+02  0.62915166435E+02  0.80490814020E+02  0.10375142815E+03  0.00000000000E+00 0. -1.
         11    1    1    2    0    0  0.99813562080E+01 -0.47645239062E+01 -0.20487680802E+02  0.23282466030E+02  0.00000000000E+00 0.  1.
<mgrwt>
<rscale>  0 0.12561025E+03</rscale>
<asrwt>0</asrwt>
<pdfrwt beam="1">  1        1 0.50216139E-01 0.13051682E+03</pdfrwt>
<pdfrwt beam="2">  1       -1 0.79695092E-02 0.13051682E+03</pdfrwt>
<totfact> 0.64893944E+03</totfact>
</mgrwt>
</event>
<event>
 6    1  0.5258538E-006  0.2231328E+03  0.7546771E-02  0.1135476E+00
         -3   -1    0    0    0  501 -0.00000000000E+00  0.00000000000E+00  0.19148569451E+03  0.19148569451E+03  0.00000000000E+00 0.  1.
          3   -1    0    0  501    0  0.00000000000E+00 -0.00000000000E+00 -0.24014649405E+03  0.24014649405E+03  0.00000000000E+00 0. -1.
          5    1    1    2  502    0  0.53721410624E+02  0.17310524444E+03 -0.65325883039E+02  0.19271994346E+03  0.47000000000E+01 0.  1.
         -5    1    1    2    0  502 -0.30876165016E+02  0.10311244181E+02  0.14792693017E+02  0.36063459198E+02  0.47000000000E+01 0.  1.
        -11    1    1    2    0    0 -0.28017810604E+02 -0.15530767967E+03  0.32318213002E+02  0.16108985060E+03  0.00000000000E+00 0.  1.
         11    1    1    2    0    0  0.51725649955E+01 -0.28108808949E+02 -0.30445822515E+02  0.41758935305E+02  0.00000000000E+00 0. -1.
<mgrwt>
<rscale>  0 0.21787682E+03</rscale>
<asrwt>0</asrwt>
<pdfrwt beam="2">  1        3 0.36945615E-01 0.22313279E+03</pdfrwt>
<pdfrwt beam="1">  1       -3 0.29459337E-01 0.22313279E+03</pdfrwt>
<totfact> 0.19855896E+02</totfact>
</mgrwt>
</event>
<event>
 6    1  0.5258538E-006  0.1322403E+03  0.7546771E-02  0.1237238E+00
          2   -1    0    0  501    0  0.00000000000E+00  0.00000000000E+00  0.73244981979E+02  0.73244981979E+02  0.00000000000E+00 0. -1.
         -2   -1    0    0    0  501 -0.00000000000E+00 -0.00000000000E+00 -0.19500822790E+03  0.19500822790E+03  0.00000000000E+00 0.  1.
          5    1    1    2  502    0 -0.48986610760E+02  0.29870137140E+02 -0.85491669435E+01  0.58198723198E+02  0.47000000000E+01 0.  1.
         -5    1    1    2    0  502  0.28275235599E+02 -0.67749727087E+02 -0.31003516064E+02  0.79829959770E+02  0.47000000000E+01 0.  1.
        -11    1    1    2    0    0  0.35890283328E+02 -0.17356499981E+02 -0.51812238264E+02  0.65374831265E+02  0.00000000000E+00 0.  1.
         11    1    1    2    0    0 -0.15178908168E+02  0.55236089928E+02 -0.30398324646E+02  0.64849695643E+02  0.00000000000E+00 0. -1.
<mgrwt>
<rscale>  0 0.12362239E+03</rscale>
<asrwt>0</asrwt>
<pdfrwt beam="1">  1        2 0.11268459E-01 0.13224032E+03</pdfrwt>
<pdfrwt beam="2">  1       -2 0.30001265E-01 0.13224032E+03</pdfrwt>
<totfact> 0.53554522E+03</totfact>
</mgrwt>
</event>
<event>
 6    1  0.5258538E-006  0.2021024E+03  0.7546771E-02  0.1152108E+00
          1   -1    0    0  501    0  0.00000000000E+00  0.00000000000E+00  0.13169805400E+04  0.13169805400E+04  0.00000000000E+00 0. -1.
         -1   -1    0    0    0  501 -0.00000000000E+00 -0.00000000000E+00 -0.44958657211E+02  0.44958657211E+02  0.00000000000E+00 0.  1.
          5    1    1    2  502    0 -0.92967090977E+02  0.45770394058E+00  0.26375191764E+03  0.27969671710E+03  0.47000000000E+01 0.  1.
         -5    1    1    2    0  502 -0.63428424631E+02  0.27132792896E+02  0.80732410203E+03  0.81027998200E+03  0.47000000000E+01 0.  1.
        -11    1    1    2    0    0  0.41909487954E+02  0.33005024095E+02  0.66767135513E+02  0.85461027262E+02  0.00000000000E+00 0.  1.
         11    1    1    2    0    0  0.11448602765E+03 -0.60595520931E+02  0.13417872757E+03  0.18650147081E+03  0.00000000000E+00 0. -1.
<mgrwt>
<rscale>  0 0.19721760E+03</rscale>
<asrwt>0</asrwt>
<pdfrwt beam="1">  1        1 0.20261236E+00 0.20210236E+03</pdfrwt>
<pdfrwt beam="2">  1       -1 0.69167175E-02 0.20210236E+03</pdfrwt>
<totfact> 0.10274015E+03</totfact>
</mgrwt>
</event>
<event>
 6    1  0.5258538E-006  0.3246287E+03  0.7546771E-02  0.1073539E+00
          1   -1    0    0  501    0  0.00000000000E+00  0.00000000000E+00  0.64579312488E+03  0.64579312488E+03  0.00000000000E+00 0. -1.
         -1   -1    0    0    0  501 -0.00000000000E+00 -0.00000000000E+00 -0.40796261653E+02  0.40796261653E+02  0.00000000000E+00 0.  1.
          5    1    1    2  502    0  0.44476048196E+01  0.91853200414E+02  0.39268376450E+03  0.40333536978E+03  0.47000000000E+01 0. -1.
         -5    1    1    2    0  502 -0.16803032662E+02 -0.38662372279E+02  0.11673427587E+03  0.12420186029E+03  0.47000000000E+01 0.  1.
        -11    1    1    2    0    0  0.54756839117E+02 -0.36591734477E+02  0.92317235756E+02  0.11340078694E+03  0.00000000000E+00 0. -1.
         11    1    1    2    0    0 -0.42401411275E+02 -0.16599093659E+02  0.32615871020E+01  0.45651369517E+02  0.00000000000E+00 0.  1.
<mgrwt>
<rscale>  0 0.32462868E+03</rscale>
<asrwt>0</asrwt>
<pdfrwt beam="1">  1        1 0.99352780E-01 0.32462868E+03</pdfrwt>
<pdfrwt beam="2">  1       -1 0.62763485E-02 0.32462868E+03</pdfrwt>
<totfact> 0.39614103E+03</totfact>
</mgrwt>
</event>
<event>
 6    1  0.5258538E-006  0.2561404E+03  0.7546771E-02  0.1109485E+00
          2   -1    0    0  501    0  0.00000000000E+00  0.00000000000E+00  0.72198438727E+03  0.72198438727E+03  0.00000000000E+00 0. -1.
         -2   -1    0    0    0  501 -0.00000000000E+00 -0.00000000000E+00 -0.22717914806E+02  0.22717914806E+02  0.00000000000E+00 0.  1.
          5    1    1    2  502    0 -0.73875227570E+02  0.35873304359E+02  0.24424950683E+03  0.25772922768E+03  0.47000000000E+01 0. -1.
         -5    1    1    2    0  502  0.36297240680E+02 -0.14484343594E+02  0.28954547071E+03  0.29220875329E+03  0.47000000000E+01 0. -1.
        -11    1    1    2    0    0  0.43112010542E+02  0.25104552721E+02  0.52244468089E+02  0.72238275631E+02  0.00000000000E+00 0.  1.
         11    1    1    2    0    0 -0.55340236518E+01 -0.46493513486E+02  0.11322702684E+03  0.12252604548E+03  0.00000000000E+00 0. -1.
<mgrwt>
<rscale>  0 0.25614043E+03</rscale>
<asrwt>0</asrwt>
<pdfrwt beam="1">  1        2 0.11107450E+00 0.25614043E+03</pdfrwt>
<pdfrwt beam="2">  1       -2 0.34950644E-02 0.25614043E+03</pdfrwt>
<totfact> 0.13493202E+04</totfact>
</mgrwt>
</event>
<event>
 6    1  0.5258538E-006  0.1617086E+03  0.7546771E-02  0.1201853E+00
          2   -1    0    0  501    0  0.00000000000E+00  0.00000000000E+00  0.22782636769E+04  0.22782636769E+04  0.00000000000E+00 0. -1.
         -2   -1    0    0    0  501 -0.00000000000E+00 -0.00000000000E+00 -0.15665324548E+02  0.15665324548E+02  0.00000000000E+00 0.  1.
          5    1    1    2  502    0  0.84621273651E+02 -0.74815833003E+02  0.13716472342E+04  0.13762980760E+04  0.47000000000E+01 0. -1.
         -5    1    1    2    0  502 -0.20276155383E+02  0.43894453179E+02  0.63131582109E+03  0.63318212344E+03  0.47000000000E+01 0.  1.
        -11    1    1    2    0    0 -0.86909081872E+02  0.15639685264E+02  0.21029419261E+03  0.22808208109E+03  0.00000000000E+00 0.  1.
         11    1    1    2    0    0  0.22563963604E+02  0.15281694559E+02  0.49341104474E+02  0.56366720969E+02  0.00000000000E+00 0. -1.
<mgrwt>
<rscale>  0 0.14888265E+03</rscale>
<asrwt>0</asrwt>
<pdfrwt beam="1">  1        2 0.35050184E+00 0.16170860E+03</pdfrwt>
<pdfrwt beam="2">  1       -2 0.24100517E-02 0.16170860E+03</pdfrwt>
<totfact> 0.31163912E+03</totfact>
</mgrwt>
</event>
<event>
 6    1  0.5258538E-006  0.1378807E+03  0.7546771E-02  0.1227898E+00
          1   -1    0    0  501    0  0.00000000000E+00  0.00000000000E+00  0.80565777914E+02  0.80565777914E+02  0.00000000000E+00 0. -1.
         -1   -1    0    0    0  501 -0.00000000000E+00 -0.00000000000E+00 -0.19141507946E+03  0.19141507946E+03  0.00000000000E+00 0.  1.
          5    1    1    2  502    0  0.33446844798E+02  0.27090091201E+02  0.18681280386E+02  0.47155537374E+02  0.47000000000E+01 0. -1.
         -5    1    1    2    0  502 -0.73631836491E+02  0.14977912207E+02 -0.61523793032E+02  0.97227837105E+02  0.47000000000E+01 0. -1.
        -11    1    1    2    0    0  0.11067566476E+02 -0.41853623870E+02 -0.83909712326E+02  0.94419577851E+02  0.00000000000E+00 0.  1.
         11    1    1    2    0    0  0.29117425216E+02 -0.21437953760E+00  0.15902923424E+02  0.33177905046E+02  0.00000000000E+00 0. -1.
<mgrwt>
<rscale>  0 0.12970214E+03</rscale>
<asrwt>0</asrwt>
<pdfrwt beam="1">  1        1 0.12394735E-01 0.13788067E+03</pdfrwt>
<pdfrwt beam="2">  1       -1 0.29448473E-01 0.13788067E+03</pdfrwt>
<totfact> 0.48430787E+03</totfact>
</mgrwt>
</event>
<event>
 6    1  0.5258538E-006  0.2978185E+03  0.7546771E-02  0.1131496E+00
         -2   -1    0    0    0  501 -0.00000000000E+00  0.00000000000E+00  0.66273337892E+02  0.66273337892E+02  0.00000000000E+00 0.  1.
          2   -1    0    0  501    0  0.00000000000E+00 -0.00000000000E+00 -0.65445142012E+03  0.65445142012E+03  0.00000000000E+00 0. -1.
          5    1    1    2  502    0 -0.68842796925E+02 -0.81188744810E+02 -0.50680815867E+03  0.51788757725E+03  0.47000000000E+01 0. -1.
         -5    1    1    2    0  502  0.59396349349E+02  0.68449229260E+02 -0.29251890733E+02  0.95346664408E+02  0.47000000000E+01 0.  1.
        -11    1    1    2    0    0 -0.40256618832E+02 -0.56661796331E+01 -0.18021675388E+02  0.44468885023E+02  0.00000000000E+00 0. -1.
         11    1    1    2    0    0  0.49703066408E+02  0.18405695183E+02 -0.34096357435E+02  0.63021631333E+02  0.00000000000E+00 0.  1.
<mgrwt>
<rscale>  0 0.22323255E+03</rscale>
<asrwt>0</asrwt>
<pdfrwt beam="2">  1        2 0.10068483E+00 0.29781850E+03</pdfrwt>
<pdfrwt beam="1">  1       -2 0.10195899E-01 0.29781850E+03</pdfrwt>
<totfact> 0.29254910E+03</totfact>
</mgrwt>
</event>
<event>
 6    1  0.5258538E-006  0.1301519E+03  0.7546771E-02  0.1242114E+00
         -2   -1    0    0    0  501 -0.00000000000E+00  0.00000000000E+00  0.73928491812E+01  0.73928491812E+01  0.00000000000E+00 0.  1.
          2   -1    0    0  501    0  0.00000000000E+00 -0.00000000000E+00 -0.23629813460E+04  0.23629813460E+04  0.00000000000E+00 0. -1.
          5    1    1    2  502    0 -0.28058402888E+02  0.53396313131E+02 -0.71695880841E+03  0.71950709738E+03  0.47000000000E+01 0.  1.
         -5    1    1    2    0  502  0.58033118889E+02 -0.33004102727E+02 -0.12001065522E+04  0.12019712727E+04  0.47000000000E+01 0.  1.
        -11    1    1    2    0    0 -0.22253112711E+02  0.32190786051E+02 -0.12770160125E+03  0.13356326850E+03  0.00000000000E+00 0.  1.
         11    1    1    2    0    0 -0.77216032896E+01 -0.52582996455E+02 -0.31082153498E+03  0.31533255665E+03  0.00000000000E+00 0. -1.
<mgrwt>
<rscale>  0 0.12059811E+03</rscale>
<asrwt>0</asrwt>
<pdfrwt beam="2">  1        2 0.36353550E+00 0.13015195E+03</pdfrwt>
<pdfrwt beam="1">  1       -2 0.11373617E-02 0.13015195E+03</pdfrwt>
<totfact> 0.83331838E+03</totfact>
</mgrwt>
</event>
<event>
 6    1  0.5258538E-006  0.1916649E+03  0.7546771E-02  0.1161888E+00
          2   -1    0    0  501    0  0.00000000000E+00  0.00000000000E+00  0.71376473656E+02  0.71376473656E+02  0.00000000000E+00 0. -1.
         -2   -1    0    0    0  501 -0.00000000000E+00 -0.00000000000E+00 -0.46232547744E+03  0.46232547744E+03  0.00000000000E+00 0.  1.
          5    1    1    2  502    0  0.65642191015E+02  0.15509169618E+02 -0.72432444407E+02  0.99085723423E+02  0.47000000000E+01 0. -1.
         -5    1    1    2    0  502  0.37298787001E+02 -0.11803866218E+03 -0.11714944953E+03  0.17050046571E+03  0.47000000000E+01 0. -1.
        -11    1    1    2    0    0 -0.11466139173E+03  0.67785971766E+02 -0.16919882855E+03  0.21533791190E+03  0.00000000000E+00 0.  1.
         11    1    1    2    0    0  0.11720413708E+02  0.34743520797E+02 -0.32168281303E+02  0.48777850064E+02  0.00000000000E+00 0. -1.
<mgrwt>
<rscale>  0 0.18624962E+03</rscale>
<asrwt>0</asrwt>
<pdfrwt beam="1">  1        2 0.10980996E-01 0.19166486E+03</pdfrwt>
<pdfrwt beam="2">  1       -2 0.71126994E-01 0.19166486E+03</pdfrwt>
<totfact> 0.10389445E+03</totfact>
</mgrwt>
</event>
<event>
 6    1  0.5258538E-006  0.1613901E+03  0.7546771E-02  0.1196754E+00
          2   -1    0    0  501    0  0.00000000000E+00  0.00000000000E+00  0.20172244913E+03  0.20172244913E+03  0.00000000000E+00 0. -1.
         -2   -1    0    0    0  501 -0.00000000000E+00 -0.00000000000E+00 -0.13503379224E+03  0.13503379224E+03  0.00000000000E+00 0.  1.
          5    1    1    2  502    0 -0.53803339826E+02 -0.13801291663E+02  0.12096492166E+03  0.13319113071E+03  0.47000000000E+01 0. -1.
         -5    1    1    2    0  502 -0.31795785230E+02  0.55604523996E+02 -0.66708648083E+01  0.64571088612E+02  0.47000000000E+01 0.  1.
        -11    1    1    2    0    0  0.99810845926E+02 -0.50046421606E+02 -0.31560831221E+02  0.11602988989E+03  0.00000000000E+00 0.  1.
         11    1    1    2    0    0 -0.14211720869E+02  0.82431892731E+01 -0.16044568741E+02  0.22964132153E+02  0.00000000000E+00 0. -1.
<mgrwt>
<rscale>  0 0.15306749E+03</rscale>
<asrwt>0</asrwt>
<pdfrwt beam="1">  1        2 0.31034223E-01 0.16139010E+03</pdfrwt>
<pdfrwt beam="2">  1       -2 0.20774430E-01 0.16139010E+03</pdfrwt>
<totfact> 0.32345862E+03</totfact>
</mgrwt>
</event>
<event>
 6    1  0.5258538E-006  0.1805132E+03  0.7546771E-02  0.1176648E+00
         -1   -1    0    0    0  501 -0.00000000000E+00  0.00000000000E+00  0.33615795622E+03  0.33615795622E+03  0.00000000000E+00 0.  1.
          1   -1    0    0  501    0  0.00000000000E+00 -0.00000000000E+00 -0.90787753466E+02  0.90787753466E+02  0.00000000000E+00 0. -1.
          5    1    1    2  502    0  0.41977382931E+02 -0.96008761585E+02  0.13444971573E+01  0.10489843017E+03  0.47000000000E+01 0. -1.
         -5    1    1    2    0  502  0.52653143350E+02  0.33970234183E+02  0.56922819402E+02  0.84785775244E+02  0.47000000000E+01 0.  1.
        -11    1    1    2    0    0 -0.62149794513E+02  0.75622836539E+02  0.86329719528E+02  0.13051525136E+03  0.00000000000E+00 0.  1.
         11    1    1    2    0    0 -0.32480731768E+02 -0.13584309136E+02  0.10077316667E+03  0.10674625291E+03  0.00000000000E+00 0. -1.
<mgrwt>
<rscale>  0 0.17115607E+03</rscale>
<asrwt>0</asrwt>
<pdfrwt beam="2">  1        1 0.13967347E-01 0.18051321E+03</pdfrwt>
<pdfrwt beam="1">  1       -1 0.51716608E-01 0.18051321E+03</pdfrwt>
<totfact> 0.15600346E+03</totfact>
</mgrwt>
</event>
<event>
 6    1  0.5258538E-006  0.1277935E+03  0.7546771E-02  0.1245059E+00
         -1   -1    0    0    0  501 -0.00000000000E+00  0.00000000000E+00  0.10351739342E+02  0.10351739342E+02  0.00000000000E+00 0.  1.
          1   -1    0    0  501    0  0.00000000000E+00 -0.00000000000E+00 -0.14500679081E+04  0.14500679081E+04  0.00000000000E+00 0. -1.
          5    1    1    2  502    0  0.53516759763E+02  0.31501192689E+02 -0.83540626782E+03  0.83772435266E+03  0.47000000000E+01 0. -1.
         -5    1    1    2    0  502 -0.51922734262E+02 -0.49734618251E+01 -0.26897778989E+03  0.27402891655E+03  0.47000000000E+01 0. -1.
        -11    1    1    2    0    0 -0.39251122265E+02  0.94688481022E+01 -0.19098787729E+03  0.19520932087E+03  0.00000000000E+00 0. -1.
         11    1    1    2    0    0  0.37657096764E+02 -0.35996578966E+02 -0.14434423375E+03  0.15345705735E+03  0.00000000000E+00 0.  1.
<mgrwt>
<rscale>  0 0.11881867E+03</rscale>
<asrwt>0</asrwt>
<pdfrwt beam="2">  1        1 0.22308743E+00 0.12779352E+03</pdfrwt>
<pdfrwt beam="1">  1       -1 0.15925748E-02 0.12779352E+03</pdfrwt>
<totfact> 0.72031843E+03</totfact>
</mgrwt>
</event>
<event>
 6    1  0.5258538E-006  0.3442486E+03  0.7546771E-02  0.1065001E+00
          1   -1    0    0  501    0  0.00000000000E+00  0.00000000000E+00  0.17518566238E+03  0.17518566238E+03  0.00000000000E+00 0.  1.
         -1   -1    0    0    0  501 -0.00000000000E+00 -0.00000000000E+00 -0.16911641817E+03  0.16911641817E+03  0.00000000000E+00 0. -1.
          5    1    1    2  502    0  0.34917188884E+02 -0.14850989063E+02  0.81052899067E+02  0.89618214683E+02  0.47000000000E+01 0.  1.
         -5    1    1    2    0  502  0.81859310759E+02 -0.30337036700E+02 -0.33441566709E+02  0.93604011333E+02  0.47000000000E+01 0.  1.
        -11    1    1    2    0    0 -0.81962588244E+02 -0.11209084431E+02  0.25146969181E+00  0.82725888828E+02  0.00000000000E+00 0.  1.
         11    1    1    2    0    0 -0.34813911400E+02  0.56397110193E+02 -0.41793557837E+02  0.78353965705E+02  0.00000000000E+00 0. -1.
<mgrwt>
<rscale>  0 0.34424858E+03</rscale>
<asrwt>0</asrwt>
<pdfrwt beam="1">  1        1 0.26951640E-01 0.34424858E+03</pdfrwt>
<pdfrwt beam="2">  1       -1 0.26017911E-01 0.34424858E+03</pdfrwt>
<totfact> 0.22684698E+03</totfact>
</mgrwt>
</event>
<event>
 6    1  0.5258538E-006  0.1291956E+03  0.7546771E-02  0.1240021E+00
         -2   -1    0    0    0  501 -0.00000000000E+00  0.00000000000E+00  0.21733079534E+02  0.21733079534E+02  0.00000000000E+00 0.  1.
          2   -1    0    0  501    0  0.00000000000E+00 -0.00000000000E+00 -0.76410032297E+03  0.76410032297E+03  0.00000000000E+00 0. -1.
          5    1    1    2  502    0  0.51658593584E+02  0.22141884411E+02 -0.53846607370E+03  0.54141174338E+03  0.47000000000E+01 0.  1.
         -5    1    1    2    0  502 -0.19126854985E+02 -0.25031966103E+02 -0.39118285952E+02  0.50445675775E+02  0.47000000000E+01 0.  1.
        -11    1    1    2    0    0 -0.43661015317E+02 -0.12693675205E+02 -0.16844960217E+03  0.17447831418E+03  0.00000000000E+00 0. -1.
         11    1    1    2    0    0  0.11129276718E+02  0.15583756897E+02  0.36667183908E+01  0.19497669170E+02  0.00000000000E+00 0.  1.
<mgrwt>
<rscale>  0 0.12188387E+03</rscale>
<asrwt>0</asrwt>
<pdfrwt beam="2">  1        2 0.11755389E+00 0.12919563E+03</pdfrwt>
<pdfrwt beam="1">  1       -2 0.33435509E-02 0.12919563E+03</pdfrwt>
<totfact> 0.12887369E+04</totfact>
</mgrwt>
</event>
<event>
 6    1  0.5258538E-006  0.1335533E+03  0.7546771E-02  0.1236942E+00
          1   -1    0    0  501    0  0.00000000000E+00  0.00000000000E+00  0.18466026006E+03  0.18466026006E+03  0.00000000000E+00 0. -1.
         -1   -1    0    0    0  501 -0.00000000000E+00 -0.00000000000E+00 -0.85050124996E+02  0.85050124996E+02  0.00000000000E+00 0.  1.
          5    1    1    2  502    0  0.29626703167E+02  0.56415897490E+02  0.39250332405E+02  0.74987823172E+02  0.47000000000E+01 0.  1.
         -5    1    1    2    0  502 -0.63731966912E+02 -0.24015523725E+02  0.67268115239E+02  0.95841527085E+02  0.47000000000E+01 0.  1.
        -11    1    1    2    0    0  0.56670637125E+01 -0.57068212636E+02 -0.17165076086E+02  0.59862645629E+02  0.00000000000E+00 0.  1.
         11    1    1    2    0    0  0.28438200033E+02  0.24667838871E+02  0.10256763504E+02  0.39018389168E+02  0.00000000000E+00 0. -1.
<mgrwt>
<rscale>  0 0.12380940E+03</rscale>
<asrwt>0</asrwt>
<pdfrwt beam="1">  1        1 0.28409271E-01 0.13355331E+03</pdfrwt>
<pdfrwt beam="2">  1       -1 0.13084635E-01 0.13355331E+03</pdfrwt>
<totfact> 0.61684968E+03</totfact>
</mgrwt>
</event>
<event>
 6    1  0.5258538E-006  0.4310166E+03  0.7546771E-02  0.1034182E+00
         -1   -1    0    0    0  501 -0.00000000000E+00  0.00000000000E+00  0.13498854899E+03  0.13498854899E+03  0.00000000000E+00 0.  1.
          1   -1    0    0  501    0  0.00000000000E+00 -0.00000000000E+00 -0.18456906901E+04  0.18456906901E+04  0.00000000000E+00 0. -1.
          5    1    1    2  502    0  0.39672482868E+02 -0.29400802595E+03 -0.10536007616E+04  0.10945826968E+04  0.47000000000E+01 0.  1.
         -5    1    1    2    0  502  0.81013285575E+02 -0.10043989542E+03 -0.32059852782E+03  0.34562527551E+03  0.47000000000E+01 0.  1.
        -11    1    1    2    0    0 -0.48279028930E+01  0.13227367513E+03 -0.14172362835E+03  0.19392065545E+03  0.00000000000E+00 0.  1.
         11    1    1    2    0    0 -0.11585786555E+03  0.26217424624E+03 -0.19477922340E+03  0.34655061141E+03  0.00000000000E+00 0. -1.
<mgrwt>
<rscale>  0 0.42898214E+03</rscale>
<asrwt>0</asrwt>
<pdfrwt beam="2">  1        1 0.28395240E+00 0.43101661E+03</pdfrwt>
<pdfrwt beam="1">  1       -1 0.20767470E-01 0.43101661E+03</pdfrwt>
<totfact> 0.78248741E+01</totfact>
</mgrwt>
</event>
<event>
 6    1  0.5258538E-006  0.3937309E+03  0.7546771E-02  0.1045972E+00
         -1   -1    0    0    0  501 -0.00000000000E+00  0.00000000000E+00  0.15621225764E+02  0.15621225764E+02  0.00000000000E+00 0.  1.
          1   -1    0    0  501    0  0.00000000000E+00 -0.00000000000E+00 -0.24809832333E+04  0.24809832333E+04  0.00000000000E+00 0. -1.
          5    1    1    2  502    0 -0.51247452793E+01 -0.23035027357E+02 -0.41466566004E+02  0.47942064992E+02  0.47000000000E+01 0.  1.
         -5    1    1    2    0  502  0.57589269326E+02 -0.12492031428E+03 -0.15569832373E+04  0.15630548615E+04  0.47000000000E+01 0.  1.
        -11    1    1    2    0    0 -0.42516773571E+02  0.18181946093E+02 -0.14962343281E+03  0.15660597321E+03  0.00000000000E+00 0.  1.
         11    1    1    2    0    0 -0.99477504764E+01  0.12977339555E+03 -0.71728877140E+03  0.72900155933E+03  0.00000000000E+00 0. -1.
<mgrwt>
<rscale>  0 0.39373087E+03</rscale>
<asrwt>0</asrwt>
<pdfrwt beam="2">  1        1 0.38168963E+00 0.39373087E+03</pdfrwt>
<pdfrwt beam="1">  1       -1 0.24032661E-02 0.39373087E+03</pdfrwt>
<totfact> 0.84298253E+02</totfact>
</mgrwt>
</event>
<event>
 6    1  0.5258538E-006  0.1684684E+03  0.7546771E-02  0.1186106E+00
          1   -1    0    0  501    0  0.00000000000E+00  0.00000000000E+00  0.35242007936E+02  0.35242007936E+02  0.00000000000E+00 0. -1.
         -1   -1    0    0    0  501 -0.00000000000E+00 -0.00000000000E+00 -0.69791787586E+03  0.69791787586E+03  0.00000000000E+00 0.  1.
          5    1    1    2  502    0  0.78499121339E+02  0.15038639755E+02 -0.90908146302E+02  0.12113898547E+03  0.47000000000E+01 0.  1.
         -5    1    1    2    0  502  0.12143153994E+01  0.64945107396E+02 -0.26119585751E+03  0.26919269588E+03  0.47000000000E+01 0.  1.
        -11    1    1    2    0    0 -0.89683630471E+01 -0.73537855332E+02 -0.15378444499E+03  0.17069828126E+03  0.00000000000E+00 0. -1.
         11    1    1    2    0    0 -0.70745073692E+02 -0.64458918187E+01 -0.15678741913E+03  0.17212992119E+03  0.00000000000E+00 0.  1.
<mgrwt>
<rscale>  0 0.16231665E+03</rscale>
<asrwt>0</asrwt>
<pdfrwt beam="1">  1        1 0.54218476E-02 0.16846837E+03</pdfrwt>
<pdfrwt beam="2">  1       -1 0.10737198E+00 0.16846837E+03</pdfrwt>
<totfact> 0.12582962E+03</totfact>
</mgrwt>
</event>
<event>
 6    1  0.5258538E-006  0.3691301E+03  0.7546771E-02  0.1102342E+00
          1   -1    0    0  501    0  0.00000000000E+00  0.00000000000E+00  0.47445834663E+03  0.47445834663E+03  0.00000000000E+00 0. -1.
         -1   -1    0    0    0  501 -0.00000000000E+00 -0.00000000000E+00 -0.12249440168E+03  0.12249440168E+03  0.00000000000E+00 0.  1.
          5    1    1    2  502    0  0.89550100630E+02  0.77285159154E+02  0.30355875126E+03  0.32582544685E+03  0.47000000000E+01 0. -1.
         -5    1    1    2    0  502 -0.13834099549E+03 -0.86129468147E+02  0.18545582123E+02  0.16408090971E+03  0.47000000000E+01 0.  1.
        -11    1    1    2    0    0  0.29560057934E+02 -0.25881858398E+02 -0.19371338703E+02  0.43805437817E+02  0.00000000000E+00 0.  1.
         11    1    1    2    0    0  0.19230836923E+02  0.34726167391E+02  0.49230950260E+02  0.63240953930E+02  0.00000000000E+00 0. -1.
<mgrwt>
<rscale>  0 0.26815153E+03</rscale>
<asrwt>0</asrwt>
<pdfrwt beam="1">  1        1 0.72993591E-01 0.36913011E+03</pdfrwt>
<pdfrwt beam="2">  1       -1 0.18845293E-01 0.36913011E+03</pdfrwt>
<totfact> 0.10787740E+03</totfact>
</mgrwt>
</event>
<event>
 6    1  0.5258538E-006  0.3365873E+03  0.7546771E-02  0.1068259E+00
         -2   -1    0    0    0  501 -0.00000000000E+00  0.00000000000E+00  0.20960798139E+02  0.20960798139E+02  0.00000000000E+00 0.  1.
          2   -1    0    0  501    0  0.00000000000E+00 -0.00000000000E+00 -0.13512251945E+04  0.13512251945E+04  0.00000000000E+00 0. -1.
          5    1    1    2  502    0  0.74450244141E+02 -0.29745774269E+02 -0.10481549804E+04  0.10512271890E+04  0.47000000000E+01 0.  1.
         -5    1    1    2    0  502  0.18935199989E+02  0.15190781661E+02 -0.33055805198E+02  0.41280478478E+02  0.47000000000E+01 0.  1.
        -11    1    1    2    0    0 -0.49883695705E+02 -0.31041365169E+02 -0.79972388026E+02  0.99234733311E+02  0.00000000000E+00 0.  1.
         11    1    1    2    0    0 -0.43501748426E+02  0.45596357778E+02 -0.16908122265E+03  0.18044359177E+03  0.00000000000E+00 0. -1.
<mgrwt>
<rscale>  0 0.33658734E+03</rscale>
<asrwt>0</asrwt>
<pdfrwt beam="2">  1        2 0.20788075E+00 0.33658734E+03</pdfrwt>
<pdfrwt beam="1">  1       -2 0.32247389E-02 0.33658734E+03</pdfrwt>
<totfact> 0.62682448E+03</totfact>
</mgrwt>
</event>
<event>
 6    1  0.5258538E-006  0.1294196E+03  0.7546771E-02  0.1244301E+00
         -4   -1    0    0    0  501 -0.00000000000E+00  0.00000000000E+00  0.15274639142E+03  0.15274639142E+03  0.00000000000E+00 0.  1.
          4   -1    0    0  501    0  0.00000000000E+00 -0.00000000000E+00 -0.85685320257E+02  0.85685320257E+02  0.00000000000E+00 0. -1.
          5    1    1    2  502    0  0.88501534755E+01  0.51424857624E+02 -0.42462974081E+02  0.67439123408E+02  0.47000000000E+01 0.  1.
         -5    1    1    2    0  502  0.14251436499E+02 -0.27116604045E+02  0.54298347906E+02  0.62520510575E+02  0.47000000000E+01 0.  1.
        -11    1    1    2    0    0 -0.41912122136E+00 -0.37718744379E+02 -0.92337180390E+01  0.38834789673E+02  0.00000000000E+00 0. -1.
         11    1    1    2    0    0 -0.22682468753E+02  0.13410490800E+02  0.64459415380E+02  0.69637288024E+02  0.00000000000E+00 0.  1.
<mgrwt>
<rscale>  0 0.11927286E+03</rscale>
<asrwt>0</asrwt>
<pdfrwt beam="2">  1        4 0.13182357E-01 0.12941959E+03</pdfrwt>
<pdfrwt beam="1">  1       -4 0.23499445E-01 0.12941959E+03</pdfrwt>
<totfact> 0.12943245E+03</totfact>
</mgrwt>
</event>
<event>
 6    1  0.5258538E-006  0.2804415E+03  0.7546771E-02  0.1095448E+00
          1   -1    0    0  501    0  0.00000000000E+00  0.00000000000E+00  0.14651328481E+04  0.14651328481E+04  0.00000000000E+00 0. -1.
         -1   -1    0    0    0  501 -0.00000000000E+00 -0.00000000000E+00 -0.13419845289E+02  0.13419845289E+02  0.00000000000E+00 0.  1.
          5    1    1    2  502    0 -0.56781090843E+01 -0.33107795158E+02  0.12007817253E+03  0.12477669871E+03  0.47000000000E+01 0. -1.
         -5    1    1    2    0  502 -0.45177251459E+02  0.94894994263E+02  0.87698681789E+03  0.88327459645E+03  0.47000000000E+01 0. -1.
        -11    1    1    2    0    0 -0.40025391335E+01 -0.54721297092E+02  0.32422292497E+03  0.32883270177E+03  0.00000000000E+00 0. -1.
         11    1    1    2    0    0  0.54857899676E+02 -0.70659020122E+01  0.13042508743E+03  0.14166869647E+03  0.00000000000E+00 0.  1.
<mgrwt>
<rscale>  0 0.28044148E+03</rscale>
<asrwt>0</asrwt>
<pdfrwt beam="1">  1        1 0.22540493E+00 0.28044148E+03</pdfrwt>
<pdfrwt beam="2">  1       -1 0.20645927E-02 0.28044148E+03</pdfrwt>
<totfact> 0.49418224E+03</totfact>
</mgrwt>
</event>
<event>
 6    1  0.5258538E-006  0.1208385E+03  0.7546771E-02  0.1251963E+00
          3   -1    0    0  501    0  0.00000000000E+00  0.00000000000E+00  0.24080003610E+03  0.24080003610E+03  0.00000000000E+00 0. -1.
         -3   -1    0    0    0  501 -0.00000000000E+00 -0.00000000000E+00 -0.54626437647E+02  0.54626437647E+02  0.00000000000E+00 0.  1.
          5    1    1    2  502    0 -0.28842638816E+02  0.27329346901E+02  0.11598690037E+03  0.12269409959E+03  0.47000000000E+01 0. -1.
         -5    1    1    2    0  502  0.16127668272E+02 -0.56951354197E+02  0.29102701949E+02  0.66125756627E+02  0.47000000000E+01 0.  1.
        -11    1    1    2    0    0 -0.31345561447E+02  0.20815039041E+02  0.48164785082E+02  0.61120017954E+02  0.00000000000E+00 0. -1.
         11    1    1    2    0    0  0.44060531991E+02  0.88069682555E+01 -0.70807889479E+01  0.45486599579E+02  0.00000000000E+00 0.  1.
<mgrwt>
<rscale>  0 0.11478154E+03</rscale>
<asrwt>0</asrwt>
<pdfrwt beam="1">  1        3 0.37046159E-01 0.12083851E+03</pdfrwt>
<pdfrwt beam="2">  1       -3 0.84040675E-02 0.12083851E+03</pdfrwt>
<totfact> 0.15954896E+03</totfact>
</mgrwt>
</event>
<event>
 6    1  0.5258538E-006  0.1307803E+03  0.7546771E-02  0.1242344E+00
          1   -1    0    0  501    0  0.00000000000E+00  0.00000000000E+00  0.64514551473E+03  0.64514551473E+03  0.00000000000E+00 0. -1.
         -1   -1    0    0    0  501 -0.00000000000E+00 -0.00000000000E+00 -0.24515883161E+02  0.24515883161E+02  0.00000000000E+00 0.  1.
          5    1    1    2  502    0 -0.25975325834E+02 -0.92780375090E+01  0.23532797294E+02  0.36560663023E+02  0.47000000000E+01 0.  1.
         -5    1    1    2    0  502  0.59474680109E+02 -0.95567775229E+01  0.47553418356E+03  0.47935729816E+03  0.47000000000E+01 0.  1.
        -11    1    1    2    0    0 -0.11209647968E+02 -0.16259765143E+02  0.10832718008E+03  0.11011273366E+03  0.00000000000E+00 0. -1.
         11    1    1    2    0    0 -0.22289706307E+02  0.35094580174E+02  0.13235470633E+02  0.43630703040E+02  0.00000000000E+00 0.  1.
<mgrwt>
<rscale>  0 0.12045736E+03</rscale>
<asrwt>0</asrwt>
<pdfrwt beam="1">  1        1 0.99253143E-01 0.13078032E+03</pdfrwt>
<pdfrwt beam="2">  1       -1 0.37716748E-02 0.13078032E+03</pdfrwt>
<totfact> 0.81590812E+03</totfact>
</mgrwt>
</event>
<event>
 6    1  0.5258538E-006  0.1466858E+03  0.7546771E-02  0.1214434E+00
         -2   -1    0    0    0  501 -0.00000000000E+00  0.00000000000E+00  0.11551471904E+02  0.11551471904E+02  0.00000000000E+00 0.  1.
          2   -1    0    0  501    0  0.00000000000E+00 -0.00000000000E+00 -0.24175325670E+04  0.24175325670E+04  0.00000000000E+00 0. -1.
          5    1    1    2  502    0 -0.45751946045E+01  0.15202195100E+02 -0.31371047515E+02  0.35472126574E+02  0.47000000000E+01 0. -1.
         -5    1    1    2    0  502 -0.69407911476E+02  0.52423879008E+01 -0.19858997390E+04  0.19871247580E+04  0.47000000000E+01 0. -1.
        -11    1    1    2    0    0  0.91516902491E+02 -0.10381389301E+02 -0.35845785852E+03  0.37010154420E+03  0.00000000000E+00 0.  1.
         11    1    1    2    0    0 -0.17533796410E+02 -0.10063193699E+02 -0.30252450053E+02  0.36385610043E+02  0.00000000000E+00 0. -1.
<mgrwt>
<rscale>  0 0.13918176E+03</rscale>
<asrwt>0</asrwt>
<pdfrwt beam="2">  1        2 0.37192848E+00 0.14668583E+03</pdfrwt>
<pdfrwt beam="1">  1       -2 0.17771476E-02 0.14668583E+03</pdfrwt>
<totfact> 0.41043575E+03</totfact>
</mgrwt>
</event>
<event>
 6    1  0.5258538E-006  0.2626747E+03  0.7546771E-02  0.1107836E+00
          1   -1    0    0  501    0  0.00000000000E+00  0.00000000000E+00  0.16517678790E+04  0.16517678790E+04  0.00000000000E+00 0. -1.
         -1   -1    0    0    0  501 -0.00000000000E+00 -0.00000000000E+00 -0.39437132166E+02  0.39437132166E+02  0.00000000000E+00 0.  1.
          5    1    1    2  502    0 -0.57411566619E+01  0.12885810622E+03  0.45859840516E+03  0.47641574243E+03  0.47000000000E+01 0.  1.
         -5    1    1    2    0  502 -0.11255865855E+03  0.69583247406E+02  0.38527722595E+03  0.40739650314E+03  0.47000000000E+01 0.  1.
        -11    1    1    2    0    0  0.87801960837E+02 -0.12519828807E+03  0.62525492812E+03  0.64368277963E+03  0.00000000000E+00 0. -1.
         11    1    1    2    0    0  0.30497854375E+02 -0.73243065561E+02  0.14320018763E+03  0.16370998599E+03  0.00000000000E+00 0.  1.
<mgrwt>
<rscale>  0 0.25885062E+03</rscale>
<asrwt>0</asrwt>
<pdfrwt beam="1">  1        1 0.25411808E+00 0.26267471E+03</pdfrwt>
<pdfrwt beam="2">  1       -1 0.60672524E-02 0.26267471E+03</pdfrwt>
<totfact> 0.74771742E+02</totfact>
</mgrwt>
</event>
<event>
 6    1  0.5258538E-006  0.4001532E+03  0.7546771E-02  0.1044503E+00
          2   -1    0    0  501    0  0.00000000000E+00  0.00000000000E+00  0.11531391272E+04  0.11531391272E+04  0.00000000000E+00 0. -1.
         -2   -1    0    0    0  501 -0.00000000000E+00 -0.00000000000E+00 -0.18715369517E+03  0.18715369517E+03  0.00000000000E+00 0.  1.
          5    1    1    2  502    0  0.27372019825E+02 -0.34336444143E+03  0.79798434352E+03  0.86916596206E+03  0.47000000000E+01 0.  1.
         -5    1    1    2    0  502 -0.23704559762E+02 -0.36747303713E+02  0.39972298139E+02  0.59431852589E+02  0.47000000000E+01 0.  1.
        -11    1    1    2    0    0 -0.27584994560E+02  0.62873426360E+02 -0.27328659173E+00  0.68659117040E+02  0.00000000000E+00 0. -1.
         11    1    1    2    0    0  0.23917534498E+02  0.31723831878E+03  0.12830207701E+03  0.34303589072E+03  0.00000000000E+00 0.  1.
<mgrwt>
<rscale>  0 0.39791664E+03</rscale>
<asrwt>0</asrwt>
<pdfrwt beam="1">  1        2 0.17740601E+00 0.40015318E+03</pdfrwt>
<pdfrwt beam="2">  1       -2 0.28792877E-01 0.40015318E+03</pdfrwt>
<totfact> 0.23252263E+02</totfact>
</mgrwt>
</event>
<event>
 6    1  0.5258538E-006  0.6276387E+03  0.7546771E-02  0.9849668E-01
         -3   -1    0    0    0  501 -0.00000000000E+00  0.00000000000E+00  0.33353958081E+03  0.33353958081E+03  0.00000000000E+00 0.  1.
          3   -1    0    0  501    0  0.00000000000E+00 -0.00000000000E+00 -0.29526508528E+03  0.29526508528E+03  0.00000000000E+00 0. -1.
          5    1    1    2  502    0 -0.41141462674E+01  0.15799650253E+03 -0.12211931227E+03  0.19978748069E+03  0.47000000000E+01 0. -1.
         -5    1    1    2    0  502  0.99861767574E+01 -0.53724493683E+01 -0.10682769504E+03  0.10753061595E+03  0.47000000000E+01 0.  1.
        -11    1    1    2    0    0 -0.37351423792E+02 -0.22962589632E+02  0.84946018474E+02  0.95594118210E+02  0.00000000000E+00 0. -1.
         11    1    1    2    0    0  0.31479393302E+02 -0.12966146353E+03  0.18227548437E+03  0.22589245124E+03  0.00000000000E+00 0.  1.
<mgrwt>
<rscale>  0 0.62763873E+03</rscale>
<asrwt>0</asrwt>
<pdfrwt beam="2">  1        3 0.45425398E-01 0.62763873E+03</pdfrwt>
<pdfrwt beam="1">  1       -3 0.51313781E-01 0.62763873E+03</pdfrwt>
<totfact> 0.47701398E+01</totfact>
</mgrwt>
</event>
<event>
 6    1  0.5258538E-006  0.2575886E+03  0.7546771E-02  0.1110881E+00
          2   -1    0    0  501    0  0.00000000000E+00  0.00000000000E+00  0.10626900939E+04  0.10626900939E+04  0.00000000000E+00 0.  1.
         -2   -1    0    0    0  501 -0.00000000000E+00 -0.00000000000E+00 -0.68364330552E+02  0.68364330552E+02  0.00000000000E+00 0. -1.
          5    1    1    2  502    0 -0.86138645005E+02  0.12375852271E+03  0.27685818134E+03  0.31529126325E+03  0.47000000000E+01 0.  1.
         -5    1    1    2    0  502 -0.49615269062E+02  0.55954659538E+02  0.44240372938E+03  0.44870452262E+03  0.47000000000E+01 0.  1.
        -11    1    1    2    0    0  0.55358674933E+02 -0.66403922479E+02  0.42929925423E+02  0.96524827416E+02  0.00000000000E+00 0. -1.
         11    1    1    2    0    0  0.80395239135E+02 -0.11330925977E+03  0.23213392721E+03  0.27053381118E+03  0.00000000000E+00 0.  1.
<mgrwt>
<rscale>  0 0.25387361E+03</rscale>
<asrwt>0</asrwt>
<pdfrwt beam="1">  1        2 0.16349077E+00 0.25758856E+03</pdfrwt>
<pdfrwt beam="2">  1       -2 0.10517590E-01 0.25758856E+03</pdfrwt>
<totfact> 0.14722363E+03</totfact>
</mgrwt>
</event>
<event>
 6    1  0.5258538E-006  0.1298155E+03  0.7546771E-02  0.1241415E+00
          1   -1    0    0  501    0  0.00000000000E+00  0.00000000000E+00  0.72014551129E+03  0.72014551129E+03  0.00000000000E+00 0. -1.
         -1   -1    0    0    0  501 -0.00000000000E+00 -0.00000000000E+00 -0.18028043289E+02  0.18028043289E+02  0.00000000000E+00 0.  1.
          5    1    1    2  502    0 -0.75373117905E+01 -0.45764828265E+02  0.68156479883E+02  0.82574973964E+02  0.47000000000E+01 0.  1.
         -5    1    1    2    0  502 -0.25107925766E+02  0.58477753128E+02  0.33312389034E+03  0.33918088369E+03  0.47000000000E+01 0.  1.
        -11    1    1    2    0    0  0.40748466301E+02 -0.46996079210E+02  0.17420504818E+03  0.18497693850E+03  0.00000000000E+00 0. -1.
         11    1    1    2    0    0 -0.81032287451E+01  0.34283154347E+02  0.12663204960E+03  0.13144075842E+03  0.00000000000E+00 0.  1.
<mgrwt>
<rscale>  0 0.12102526E+03</rscale>
<asrwt>0</asrwt>
<pdfrwt beam="1">  1        1 0.11079160E+00 0.12981552E+03</pdfrwt>
<pdfrwt beam="2">  1       -1 0.27735457E-02 0.12981552E+03</pdfrwt>
<totfact> 0.10926206E+04</totfact>
</mgrwt>
</event>
<event>
 6    1  0.5258538E-006  0.1464871E+03  0.7546771E-02  0.1212023E+00
          1   -1    0    0  501    0  0.00000000000E+00  0.00000000000E+00  0.29490071790E+03  0.29490071790E+03  0.00000000000E+00 0. -1.
         -1   -1    0    0    0  501 -0.00000000000E+00 -0.00000000000E+00 -0.70532785548E+02  0.70532785548E+02  0.00000000000E+00 0.  1.
          5    1    1    2  502    0  0.37292959528E+02 -0.12176050725E+02  0.10246914339E+02  0.40818014345E+02  0.47000000000E+01 0. -1.
         -5    1    1    2    0  502 -0.17962348255E+02  0.86070382384E+02  0.16998658894E+03  0.19143742345E+03  0.47000000000E+01 0. -1.
        -11    1    1    2    0    0 -0.19529991689E+02  0.20820894340E+02 -0.32085669444E+00  0.28548785710E+02  0.00000000000E+00 0.  1.
         11    1    1    2    0    0  0.19938041615E+00 -0.94715225998E+02  0.44455285770E+02  0.10462927994E+03  0.00000000000E+00 0. -1.
<mgrwt>
<rscale>  0 0.14097507E+03</rscale>
<asrwt>0</asrwt>
<pdfrwt beam="1">  1        1 0.45369341E-01 0.14648711E+03</pdfrwt>
<pdfrwt beam="2">  1       -1 0.10851198E-01 0.14648711E+03</pdfrwt>
<totfact> 0.46335789E+03</totfact>
</mgrwt>
</event>
<event>
 6    1  0.5258538E-006  0.2470342E+03  0.7546771E-02  0.1117906E+00
         -2   -1    0    0    0  501 -0.00000000000E+00  0.00000000000E+00  0.86458878027E+03  0.86458878027E+03  0.00000000000E+00 0.  1.
          2   -1    0    0  501    0  0.00000000000E+00 -0.00000000000E+00 -0.70087206396E+02  0.70087206396E+02  0.00000000000E+00 0. -1.
          5    1    1    2  502    0  0.11588300914E+03  0.16842622375E+02  0.16725010508E+03  0.20422348882E+03  0.47000000000E+01 0.  1.
         -5    1    1    2    0  502  0.49259108285E+02  0.11780105671E+03  0.13001562455E+03  0.18229015699E+03  0.47000000000E+01 0.  1.
        -11    1    1    2    0    0 -0.40538984380E+02 -0.89303717691E+02  0.21783966207E+03  0.23889889413E+03  0.00000000000E+00 0.  1.
         11    1    1    2    0    0 -0.12460313304E+03 -0.45339961393E+02  0.27939618218E+03  0.30926344672E+03  0.00000000000E+00 0. -1.
<mgrwt>
<rscale>  0 0.24285440E+03</rscale>
<asrwt>0</asrwt>
<pdfrwt beam="2">  1        2 0.10782648E-01 0.24703418E+03</pdfrwt>
<pdfrwt beam="1">  1       -2 0.13301365E+00 0.24703418E+03</pdfrwt>
<totfact> 0.25135663E+02</totfact>
</mgrwt>
</event>
<event>
 6    1  0.5258538E-006  0.1272634E+03  0.7546771E-02  0.1246643E+00
         -2   -1    0    0    0  501 -0.00000000000E+00  0.00000000000E+00  0.21776797637E+03  0.21776797637E+03  0.00000000000E+00 0.  1.
          2   -1    0    0  501    0  0.00000000000E+00 -0.00000000000E+00 -0.56579223170E+02  0.56579223170E+02  0.00000000000E+00 0. -1.
          5    1    1    2  502    0 -0.44536614924E+02  0.29610760279E+02  0.47791614069E+02  0.71877921287E+02  0.47000000000E+01 0. -1.
         -5    1    1    2    0  502  0.47366441300E+02 -0.53282783254E+02  0.31638418760E+02  0.78139070217E+02  0.47000000000E+01 0. -1.
        -11    1    1    2    0    0  0.19503513486E+02  0.21601755514E+01  0.90105803193E+02  0.92217726960E+02  0.00000000000E+00 0.  1.
         11    1    1    2    0    0 -0.22333339863E+02  0.21511847423E+02 -0.83470828242E+01  0.32112481073E+02  0.00000000000E+00 0. -1.
<mgrwt>
<rscale>  0 0.11787570E+03</rscale>
<asrwt>0</asrwt>
<pdfrwt beam="2">  1        2 0.87044960E-02 0.12726338E+03</pdfrwt>
<pdfrwt beam="1">  1       -2 0.33502765E-01 0.12726338E+03</pdfrwt>
<totfact> 0.59992828E+03</totfact>
</mgrwt>
</event>
<event>
 6    1  0.5258538E-006  0.1608569E+03  0.7546771E-02  0.1194888E+00
         -1   -1    0    0    0  501 -0.00000000000E+00  0.00000000000E+00  0.45314587606E+02  0.45314587606E+02  0.00000000000E+00 0.  1.
          1   -1    0    0  501    0  0.00000000000E+00 -0.00000000000E+00 -0.69897794636E+03  0.69897794636E+03  0.00000000000E+00 0. -1.
          5    1    1    2  502    0  0.98045139600E+02 -0.80730104961E+02 -0.49084196582E+03  0.50702872172E+03  0.47000000000E+01 0. -1.
         -5    1    1    2    0  502 -0.27332089524E+02  0.82434591799E+01 -0.56737291951E+02  0.63688366559E+02  0.47000000000E+01 0. -1.
        -11    1    1    2    0    0 -0.85145882547E+02  0.66537027168E+02 -0.11313164315E+03  0.15644732654E+03  0.00000000000E+00 0. -1.
         11    1    1    2    0    0  0.14432832471E+02  0.59496186129E+01  0.70475421672E+01  0.17128119143E+02  0.00000000000E+00 0.  1.
<mgrwt>
<rscale>  0 0.15463740E+03</rscale>
<asrwt>0</asrwt>
<pdfrwt beam="2">  1        1 0.10753506E+00 0.16085693E+03</pdfrwt>
<pdfrwt beam="1">  1       -1 0.69714756E-02 0.16085693E+03</pdfrwt>
<totfact> 0.29562397E+03</totfact>
</mgrwt>
</event>
<event>
 6    1  0.5258538E-006  0.1279684E+03  0.7546771E-02  0.1244253E+00
          1   -1    0    0  501    0  0.00000000000E+00  0.00000000000E+00  0.26251783933E+03  0.26251783933E+03  0.00000000000E+00 0. -1.
         -1   -1    0    0    0  501 -0.00000000000E+00 -0.00000000000E+00 -0.48112815747E+02  0.48112815747E+02  0.00000000000E+00 0.  1.
          5    1    1    2  502    0 -0.15335145711E+02  0.43945088558E+02  0.11648707713E+02  0.48209126665E+02  0.47000000000E+01 0. -1.
         -5    1    1    2    0  502 -0.34314136682E+01 -0.63922730604E+02  0.11579357819E+03  0.13239385499E+03  0.47000000000E+01 0. -1.
        -11    1    1    2    0    0  0.18944777486E+02 -0.10102631676E+02  0.96195079489E+02  0.98561965679E+02  0.00000000000E+00 0. -1.
         11    1    1    2    0    0 -0.17821810678E+00  0.30080273722E+02 -0.92323418083E+01  0.31465707749E+02  0.00000000000E+00 0.  1.
<mgrwt>
<rscale>  0 0.11930194E+03</rscale>
<asrwt>0</asrwt>
<pdfrwt beam="1">  1        1 0.40387359E-01 0.12796836E+03</pdfrwt>
<pdfrwt beam="2">  1       -1 0.74019718E-02 0.12796836E+03</pdfrwt>
<totfact> 0.94779656E+03</totfact>
</mgrwt>
</event>
<event>
 6    1  0.5258538E-006  0.2573275E+03  0.7546771E-02  0.1108760E+00
          2   -1    0    0  501    0  0.00000000000E+00  0.00000000000E+00  0.12450172510E+04  0.12450172510E+04  0.00000000000E+00 0. -1.
         -2   -1    0    0    0  501 -0.00000000000E+00 -0.00000000000E+00 -0.13296486262E+02  0.13296486262E+02  0.00000000000E+00 0.  1.
          5    1    1    2  502    0  0.12252663792E+02  0.28764585197E+02  0.58654157956E+03  0.58739309128E+03  0.47000000000E+01 0. -1.
         -5    1    1    2    0  502 -0.16741656279E+01 -0.77418754538E+02  0.33153383538E+03  0.34048970673E+03  0.47000000000E+01 0. -1.
        -11    1    1    2    0    0 -0.51185882104E+02  0.27691227501E+02  0.16915793932E+03  0.17888881195E+03  0.00000000000E+00 0.  1.
         11    1    1    2    0    0  0.40607383939E+02  0.20962941840E+02  0.14448741051E+03  0.15154212733E+03  0.00000000000E+00 0. -1.
<mgrwt>
<rscale>  0 0.25732746E+03</rscale>
<asrwt>0</asrwt>
<pdfrwt beam="1">  1        2 0.19154102E+00 0.25732746E+03</pdfrwt>
<pdfrwt beam="2">  1       -2 0.20456143E-02 0.25732746E+03</pdfrwt>
<totfact> 0.14035045E+04</totfact>
</mgrwt>
</event>
<event>
 6    1  0.5258538E-006  0.1566776E+03  0.7546771E-02  0.1200533E+00
          2   -1    0    0  501    0  0.00000000000E+00  0.00000000000E+00  0.94631084302E+02  0.94631084302E+02  0.00000000000E+00 0. -1.
         -2   -1    0    0    0  501 -0.00000000000E+00 -0.00000000000E+00 -0.26028917531E+03  0.26028917531E+03  0.00000000000E+00 0.  1.
          5    1    1    2  502    0  0.42658999850E+02 -0.94990721289E+02 -0.24183040043E+02  0.10700437760E+03  0.47000000000E+01 0.  1.
         -5    1    1    2    0  502  0.32761069611E+02  0.38148285315E+02  0.54138116484E+01  0.50793490834E+02  0.47000000000E+01 0.  1.
        -11    1    1    2    0    0 -0.72590561251E+02  0.56378393064E+01 -0.52709398118E+02  0.89885791228E+02  0.00000000000E+00 0. -1.
         11    1    1    2    0    0 -0.28295082103E+01  0.51204596668E+02 -0.94179464492E+02  0.10723659995E+03  0.00000000000E+00 0.  1.
<mgrwt>
<rscale>  0 0.14995159E+03</rscale>
<asrwt>0</asrwt>
<pdfrwt beam="1">  1        2 0.14558628E-01 0.15667764E+03</pdfrwt>
<pdfrwt beam="2">  1       -2 0.40044488E-01 0.15667764E+03</pdfrwt>
<totfact> 0.23372101E+03</totfact>
</mgrwt>
</event>
<event>
 6    1  0.5258538E-006  0.1256470E+03  0.7546771E-02  0.1248546E+00
          3   -1    0    0  501    0  0.00000000000E+00  0.00000000000E+00  0.18326539889E+02  0.18326539889E+02  0.00000000000E+00 0. -1.
         -3   -1    0    0    0  501 -0.00000000000E+00 -0.00000000000E+00 -0.65629696187E+03  0.65629696187E+03  0.00000000000E+00 0.  1.
          5    1    1    2  502    0  0.39392259110E+01  0.89745304499E+00  0.94196358020E+01  0.11275746600E+02  0.47000000000E+01 0.  1.
         -5    1    1    2    0  502  0.84140004106E+01  0.29688929137E+01 -0.37795895077E+03  0.37809346489E+03  0.47000000000E+01 0.  1.
        -11    1    1    2    0    0 -0.52696790082E+02 -0.68986833415E+00 -0.13739803800E+03  0.14715858265E+03  0.00000000000E+00 0.  1.
         11    1    1    2    0    0  0.40343563760E+02 -0.31764776246E+01 -0.13203306901E+03  0.13809570761E+03  0.00000000000E+00 0. -1.
<mgrwt>
<rscale>  0 0.11675663E+03</rscale>
<asrwt>0</asrwt>
<pdfrwt beam="1">  1        3 0.28194676E-02 0.12564695E+03</pdfrwt>
<pdfrwt beam="2">  1       -3 0.10096877E+00 0.12564695E+03</pdfrwt>
<totfact> 0.11313111E+03</totfact>
</mgrwt>
</event>
<event>
 6    1  0.5258538E-006  0.1266687E+03  0.7546771E-02  0.1247832E+00
         -3   -1    0    0    0  501 -0.00000000000E+00  0.00000000000E+00  0.58509549398E+02  0.58509549398E+02  0.00000000000E+00 0.  1.
          3   -1    0    0  501    0  0.00000000000E+00 -0.00000000000E+00 -0.21127661587E+03  0.21127661587E+03  0.00000000000E+00 0. -1.
          5    1    1    2  502    0  0.21116170648E+02  0.67342219543E+02 -0.51383119243E+02  0.87425294618E+02  0.47000000000E+01 0. -1.
         -5    1    1    2    0  502 -0.51404849952E+01 -0.54550707713E+02 -0.58119889286E+02  0.80013847730E+02  0.47000000000E+01 0. -1.
        -11    1    1    2    0    0  0.25165473512E+02 -0.36578365418E+02 -0.27742069810E+02  0.52353608386E+02  0.00000000000E+00 0. -1.
         11    1    1    2    0    0 -0.41141159165E+02  0.23786853588E+02 -0.15521988131E+02  0.49993414532E+02  0.00000000000E+00 0.  1.
<mgrwt>
<rscale>  0 0.11717475E+03</rscale>
<asrwt>0</asrwt>
<pdfrwt beam="2">  1        3 0.32504095E-01 0.12666869E+03</pdfrwt>
<pdfrwt beam="1">  1       -3 0.90014690E-02 0.12666869E+03</pdfrwt>
<totfact> 0.18397557E+03</totfact>
</mgrwt>
</event>
<event>
 6    1  0.5258538E-006  0.1632482E+03  0.7546771E-02  0.1192144E+00
         -1   -1    0    0    0  501 -0.00000000000E+00  0.00000000000E+00  0.12043358320E+03  0.12043358320E+03  0.00000000000E+00 0.  1.
          1   -1    0    0  501    0  0.00000000000E+00 -0.00000000000E+00 -0.19042605222E+03  0.19042605222E+03  0.00000000000E+00 0. -1.
          5    1    1    2  502    0 -0.43489971965E+02 -0.91359717475E+02 -0.11199493054E+02  0.10190924533E+03  0.47000000000E+01 0. -1.
         -5    1    1    2    0  502 -0.46397295483E+02  0.37102024494E+02 -0.28699981831E+02  0.66144147185E+02  0.47000000000E+01 0. -1.
        -11    1    1    2    0    0  0.41751329355E+02 -0.21770882834E+02 -0.23377310728E+02  0.52570367120E+02  0.00000000000E+00 0. -1.
         11    1    1    2    0    0  0.48135938094E+02  0.76028575815E+02 -0.67156834096E+01  0.90235875794E+02  0.00000000000E+00 0.  1.
<mgrwt>
<rscale>  0 0.15698469E+03</rscale>
<asrwt>0</asrwt>
<pdfrwt beam="2">  1        1 0.29296316E-01 0.16324820E+03</pdfrwt>
<pdfrwt beam="1">  1       -1 0.18528244E-01 0.16324820E+03</pdfrwt>
<totfact> 0.34709946E+03</totfact>
</mgrwt>
</event>
<event>
 6    1  0.5258538E-006  0.1335834E+03  0.7546771E-02  0.1233527E+00
         -2   -1    0    0    0  501 -0.00000000000E+00  0.00000000000E+00  0.79658050448E+01  0.79658050448E+01  0.00000000000E+00 0.  1.
          2   -1    0    0  501    0  0.00000000000E+00 -0.00000000000E+00 -0.19271455814E+04  0.19271455814E+04  0.00000000000E+00 0. -1.
          5    1    1    2  502    0 -0.10478714637E+02 -0.29763847217E+02 -0.76060165238E+02  0.82479869045E+02  0.47000000000E+01 0.  1.
         -5    1    1    2    0  502  0.25172005093E+02 -0.14947976003E+02 -0.12375187365E+04  0.12378738971E+04  0.47000000000E+01 0.  1.
        -11    1    1    2    0    0  0.25138202538E+02  0.58408734435E+02 -0.36361045517E+03  0.36912880217E+03  0.00000000000E+00 0.  1.
         11    1    1    2    0    0 -0.39831492994E+02 -0.13696911215E+02 -0.24199041944E+03  0.24562881816E+03  0.00000000000E+00 0. -1.
<mgrwt>
<rscale>  0 0.12599202E+03</rscale>
<asrwt>0</asrwt>
<pdfrwt beam="2">  1        2 0.29648424E+00 0.13358344E+03</pdfrwt>
<pdfrwt beam="1">  1       -2 0.12255072E-02 0.13358344E+03</pdfrwt>
<totfact> 0.12575342E+04</totfact>
</mgrwt>
</event>
<event>
 6    1  0.5258538E-006  0.1871562E+03  0.7546771E-02  0.1167214E+00
          1   -1    0    0  501    0  0.00000000000E+00  0.00000000000E+00  0.38965136940E+03  0.38965136940E+03  0.00000000000E+00 0. -1.
         -1   -1    0    0    0  501 -0.00000000000E+00 -0.00000000000E+00 -0.79045379467E+02  0.79045379467E+02  0.00000000000E+00 0.  1.
          5    1    1    2  502    0 -0.23723171789E+02  0.14345883304E+02  0.16769710036E+03  0.17003823310E+03  0.47000000000E+01 0. -1.
         -5    1    1    2    0  502 -0.80629275729E+01  0.92598753360E+02  0.20340824314E+02  0.95264783938E+02  0.47000000000E+01 0.  1.
        -11    1    1    2    0    0 -0.13417032180E+02  0.13458118735E+02  0.54844783366E+02  0.58043845280E+02  0.00000000000E+00 0.  1.
         11    1    1    2    0    0  0.45203131542E+02 -0.12040275540E+03  0.67723281891E+02  0.14534988655E+03  0.00000000000E+00 0. -1.
<mgrwt>
<rscale>  0 0.18061034E+03</rscale>
<asrwt>0</asrwt>
<pdfrwt beam="1">  1        1 0.59946363E-01 0.18715616E+03</pdfrwt>
<pdfrwt beam="2">  1       -1 0.12160828E-01 0.18715616E+03</pdfrwt>
<totfact> 0.27693115E+03</totfact>
</mgrwt>
</event>
<event>
 6    1  0.5258538E-006  0.1728336E+03  0.7546771E-02  0.1181518E+00
         -1   -1    0    0    0  501 -0.00000000000E+00  0.00000000000E+00  0.65847317472E+03  0.65847317472E+03  0.00000000000E+00 0.  1.
          1   -1    0    0  501    0  0.00000000000E+00 -0.00000000000E+00 -0.40365183963E+02  0.40365183963E+02  0.00000000000E+00 0. -1.
          5    1    1    2  502    0 -0.87659444331E+02 -0.10339898655E+02  0.23801813952E+03  0.25390119422E+03  0.47000000000E+01 0. -1.
         -5    1    1    2    0  502 -0.83629435753E+01  0.81235686324E+02  0.14960045862E+03  0.17050384974E+03  0.47000000000E+01 0. -1.
        -11    1    1    2    0    0  0.21774327952E+02 -0.61765966051E+02  0.15446657427E+03  0.16777687113E+03  0.00000000000E+00 0.  1.
         11    1    1    2    0    0  0.74248059954E+02 -0.91298216182E+01  0.76022818346E+02  0.10665644359E+03  0.00000000000E+00 0. -1.
<mgrwt>
<rscale>  0 0.16652777E+03</rscale>
<asrwt>0</asrwt>
<pdfrwt beam="2">  1        1 0.62100288E-02 0.17283363E+03</pdfrwt>
<pdfrwt beam="1">  1       -1 0.10130356E+00 0.17283363E+03</pdfrwt>
<totfact> 0.11917825E+03</totfact>
</mgrwt>
</event>
<event>
 6    1  0.5258538E-006  0.1253782E+03  0.7546771E-02  0.1249628E+00
         -3   -1    0    0    0  501 -0.00000000000E+00  0.00000000000E+00  0.21943123771E+02  0.21943123771E+02  0.00000000000E+00 0.  1.
          3   -1    0    0  501    0  0.00000000000E+00 -0.00000000000E+00 -0.84488426984E+03  0.84488426984E+03  0.00000000000E+00 0. -1.
          5    1    1    2  502    0 -0.49817788895E+01  0.57607986300E+02 -0.54859259089E+03  0.55165153764E+03  0.47000000000E+01 0.  1.
         -5    1    1    2    0  502 -0.20658470376E+01 -0.50944068881E+02 -0.16141770586E+03  0.16934382670E+03  0.47000000000E+01 0.  1.
        -11    1    1    2    0    0  0.13108939598E+02 -0.23502160173E+02 -0.12258087099E+03  0.12550006280E+03  0.00000000000E+00 0. -1.
         11    1    1    2    0    0 -0.60613136713E+01  0.16838242754E+02  0.96500216619E+01  0.20331966470E+02  0.00000000000E+00 0.  1.
<mgrwt>
<rscale>  0 0.11612633E+03</rscale>
<asrwt>0</asrwt>
<pdfrwt beam="2">  1        3 0.12998219E+00 0.12537820E+03</pdfrwt>
<pdfrwt beam="1">  1       -3 0.33758652E-02 0.12537820E+03</pdfrwt>
<totfact> 0.47661537E+02</totfact>
</mgrwt>
</event>
<event>
 6    1  0.5258538E-006  0.1262328E+03  0.7546771E-02  0.1248843E+00
         -2   -1    0    0    0  501 -0.00000000000E+00  0.00000000000E+00  0.53062314393E+02  0.53062314393E+02  0.00000000000E+00 0.  1.
          2   -1    0    0  501    0  0.00000000000E+00 -0.00000000000E+00 -0.25679708488E+03  0.25679708488E+03  0.00000000000E+00 0. -1.
          5    1    1    2  502    0  0.26710946240E+02 -0.56502842500E+02 -0.52712285390E+02  0.81894571802E+02  0.47000000000E+01 0. -1.
         -5    1    1    2    0  502 -0.36410932240E+02  0.41717259149E+02 -0.11789140914E+03  0.13033249805E+03  0.47000000000E+01 0. -1.
        -11    1    1    2    0    0  0.38876417355E+02  0.20971453697E+02 -0.47208895798E+02  0.64651817755E+02  0.00000000000E+00 0. -1.
         11    1    1    2    0    0 -0.29176431355E+02 -0.61858703465E+01  0.14077819843E+02  0.32980511671E+02  0.00000000000E+00 0.  1.
<mgrwt>
<rscale>  0 0.11658317E+03</rscale>
<asrwt>0</asrwt>
<pdfrwt beam="2">  1        2 0.39507243E-01 0.12623276E+03</pdfrwt>
<pdfrwt beam="1">  1       -2 0.81634331E-02 0.12623276E+03</pdfrwt>
<totfact> 0.11120523E+04</totfact>
</mgrwt>
</event>
<event>
 6    1  0.5258538E-006  0.1254864E+03  0.7546771E-02  0.1248506E+00
         -2   -1    0    0    0  501 -0.00000000000E+00  0.00000000000E+00  0.14371154612E+03  0.14371154612E+03  0.00000000000E+00 0.  1.
          2   -1    0    0  501    0  0.00000000000E+00 -0.00000000000E+00 -0.84902605448E+02  0.84902605448E+02  0.00000000000E+00 0. -1.
          5    1    1    2  502    0  0.22392513006E+02  0.22302938983E+02  0.81983251619E+02  0.87989711171E+02  0.47000000000E+01 0. -1.
         -5    1    1    2    0  502 -0.11612927926E+02 -0.24922414194E+02 -0.36100804858E+02  0.45621759454E+02  0.47000000000E+01 0. -1.
        -11    1    1    2    0    0 -0.25202157596E+02  0.15347397395E+02  0.47220790599E+02  0.55682083465E+02  0.00000000000E+00 0.  1.
         11    1    1    2    0    0  0.14422572516E+02 -0.12727922183E+02 -0.34294296685E+02  0.39320597480E+02  0.00000000000E+00 0. -1.
<mgrwt>
<rscale>  0 0.11677958E+03</rscale>
<asrwt>0</asrwt>
<pdfrwt beam="2">  1        2 0.13061939E-01 0.12548636E+03</pdfrwt>
<pdfrwt beam="1">  1       -2 0.22109469E-01 0.12548636E+03</pdfrwt>
<totfact> 0.76304842E+03</totfact>
</mgrwt>
</event>
<event>
 6    1  0.5258538E-006  0.2003941E+03  0.7546771E-02  0.1155565E+00
         -2   -1    0    0    0  501 -0.00000000000E+00  0.00000000000E+00  0.10870233363E+03  0.10870233363E+03  0.00000000000E+00 0.  1.
          2   -1    0    0  501    0  0.00000000000E+00 -0.00000000000E+00 -0.36575413128E+03  0.36575413128E+03  0.00000000000E+00 0. -1.
          5    1    1    2  502    0 -0.54715037817E+02  0.67698477281E+02 -0.26559368539E+02  0.91127982786E+02  0.47000000000E+01 0.  1.
         -5    1    1    2    0  502 -0.62975795498E+02  0.35654010134E+02 -0.19278605520E+03  0.20597502843E+03  0.47000000000E+01 0.  1.
        -11    1    1    2    0    0  0.69296805294E+02 -0.79624545886E+02  0.91277635358E+01  0.10595013732E+03  0.00000000000E+00 0.  1.
         11    1    1    2    0    0  0.48394028021E+02 -0.23727941529E+02 -0.46834137443E+02  0.71403316361E+02  0.00000000000E+00 0. -1.
<mgrwt>
<rscale>  0 0.19324691E+03</rscale>
<asrwt>0</asrwt>
<pdfrwt beam="2">  1        2 0.56269865E-01 0.20039407E+03</pdfrwt>
<pdfrwt beam="1">  1       -2 0.16723436E-01 0.20039407E+03</pdfrwt>
<totfact> 0.24816711E+03</totfact>
</mgrwt>
</event>
<event>
 6    1  0.5258538E-006  0.1555444E+03  0.7546771E-02  0.1205060E+00
         -1   -1    0    0    0  501 -0.00000000000E+00  0.00000000000E+00  0.17611609695E+03  0.17611609695E+03  0.00000000000E+00 0.  1.
          1   -1    0    0  501    0  0.00000000000E+00 -0.00000000000E+00 -0.10938510092E+03  0.10938510092E+03  0.00000000000E+00 0. -1.
          5    1    1    2  502    0  0.16959107126E+02  0.34513613620E+02 -0.42984947368E+00  0.38743717041E+02  0.47000000000E+01 0. -1.
         -5    1    1    2    0  502 -0.27822139303E+01 -0.11548457037E+03  0.32171890129E+02  0.12000644658E+03  0.47000000000E+01 0.  1.
        -11    1    1    2    0    0 -0.46339693437E+02  0.54062873991E+02  0.44211919189E+02  0.83814410041E+02  0.00000000000E+00 0.  1.
         11    1    1    2    0    0  0.32162800242E+02  0.26908082757E+02 -0.92229638163E+01  0.42936624211E+02  0.00000000000E+00 0. -1.
<mgrwt>
<rscale>  0 0.14632746E+03</rscale>
<asrwt>0</asrwt>
<pdfrwt beam="2">  1        1 0.16828477E-01 0.15554439E+03</pdfrwt>
<pdfrwt beam="1">  1       -1 0.27094784E-01 0.15554439E+03</pdfrwt>
<totfact> 0.37663890E+03</totfact>
</mgrwt>
</event>
<event>
 6    1  0.5258538E-006  0.2775087E+03  0.7546771E-02  0.1098396E+00
          1   -1    0    0  501    0  0.00000000000E+00  0.00000000000E+00  0.46647507918E+03  0.46647507918E+03  0.00000000000E+00 0. -1.
         -1   -1    0    0    0  501 -0.00000000000E+00 -0.00000000000E+00 -0.16006685908E+03  0.16006685908E+03  0.00000000000E+00 0.  1.
          5    1    1    2  502    0  0.78169134258E+02 -0.18309049619E+03  0.10274511864E+03  0.22407854148E+03  0.47000000000E+01 0. -1.
         -5    1    1    2    0  502  0.73598628464E+02 -0.12727788579E+02  0.72092240739E+02  0.10391407936E+03  0.47000000000E+01 0. -1.
        -11    1    1    2    0    0 -0.10813010272E+03  0.62053509541E+02  0.41100835276E+02  0.13127084909E+03  0.00000000000E+00 0.  1.
         11    1    1    2    0    0 -0.43637660006E+02  0.13376477523E+03  0.90470025450E+02  0.16727846833E+03  0.00000000000E+00 0. -1.
<mgrwt>
<rscale>  0 0.27509880E+03</rscale>
<asrwt>0</asrwt>
<pdfrwt beam="1">  1        1 0.71765396E-01 0.27750866E+03</pdfrwt>
<pdfrwt beam="2">  1       -1 0.24625671E-01 0.27750866E+03</pdfrwt>
<totfact> 0.70984679E+02</totfact>
</mgrwt>
</event>
<event>
 6    1  0.5258538E-006  0.1288102E+03  0.7546771E-02  0.1241574E+00
         -2   -1    0    0    0  501 -0.00000000000E+00  0.00000000000E+00  0.96367070300E+02  0.96367070300E+02  0.00000000000E+00 0.  1.
          2   -1    0    0  501    0  0.00000000000E+00 -0.00000000000E+00 -0.16044840272E+03  0.16044840272E+03  0.00000000000E+00 0. -1.
          5    1    1    2  502    0  0.96854438429E+01 -0.19028827243E+02  0.25849107725E+02  0.33855139327E+02  0.47000000000E+01 0. -1.
         -5    1    1    2    0  502  0.52424492906E+01  0.46318155952E+02 -0.11119938372E+03  0.12066585177E+03  0.47000000000E+01 0. -1.
        -11    1    1    2    0    0  0.35617338053E+02 -0.16248483125E+02  0.30642843918E+02  0.49715106931E+02  0.00000000000E+00 0.  1.
         11    1    1    2    0    0 -0.50545231186E+02 -0.11040845584E+02 -0.93739003515E+01  0.52579374993E+02  0.00000000000E+00 0. -1.
<mgrwt>
<rscale>  0 0.12092794E+03</rscale>
<asrwt>0</asrwt>
<pdfrwt beam="2">  1        2 0.24684369E-01 0.12881020E+03</pdfrwt>
<pdfrwt beam="1">  1       -2 0.14825703E-01 0.12881020E+03</pdfrwt>
<totfact> 0.71931463E+03</totfact>
</mgrwt>
</event>
<event>
 6    1  0.5258538E-006  0.3444147E+03  0.7546771E-02  0.1064931E+00
          2   -1    0    0  501    0  0.00000000000E+00  0.00000000000E+00  0.11150656948E+04  0.11150656948E+04  0.00000000000E+00 0. -1.
         -2   -1    0    0    0  501 -0.00000000000E+00 -0.00000000000E+00 -0.26595175478E+02  0.26595175478E+02  0.00000000000E+00 0.  1.
          5    1    1    2  502    0  0.24832739875E+02 -0.20785110878E+02  0.50368971948E+03  0.50475153226E+03  0.47000000000E+01 0.  1.
         -5    1    1    2    0  502 -0.87849987787E+02 -0.45283045796E+02  0.39712362388E+03  0.40926450767E+03  0.47000000000E+01 0.  1.
        -11    1    1    2    0    0  0.14403985358E+02  0.63767280079E+02  0.52034369810E+02  0.83554272449E+02  0.00000000000E+00 0.  1.
         11    1    1    2    0    0  0.48613262554E+02  0.23008765945E+01  0.13562280611E+03  0.14409055787E+03  0.00000000000E+00 0. -1.
<mgrwt>
<rscale>  0 0.34441468E+03</rscale>
<asrwt>0</asrwt>
<pdfrwt beam="1">  1        2 0.17154853E+00 0.34441468E+03</pdfrwt>
<pdfrwt beam="2">  1       -2 0.40915663E-02 0.34441468E+03</pdfrwt>
<totfact> 0.59674825E+03</totfact>
</mgrwt>
</event>
<event>
 6    1  0.5258538E-006  0.3364795E+03  0.7546771E-02  0.1068305E+00
         -1   -1    0    0    0  501 -0.00000000000E+00  0.00000000000E+00  0.22955524307E+03  0.22955524307E+03  0.00000000000E+00 0.  1.
          1   -1    0    0  501    0  0.00000000000E+00 -0.00000000000E+00 -0.12330198380E+03  0.12330198380E+03  0.00000000000E+00 0. -1.
          5    1    1    2  502    0  0.50770879175E+02  0.13484461569E+03  0.51480620551E+02  0.15307872761E+03  0.47000000000E+01 0.  1.
         -5    1    1    2    0  502  0.11704073137E+02 -0.24067221470E+02 -0.11766568541E+02  0.29610109971E+02  0.47000000000E+01 0.  1.
        -11    1    1    2    0    0 -0.43639429402E+02  0.16061052135E+00  0.12861328466E+02  0.45495487294E+02  0.00000000000E+00 0.  1.
         11    1    1    2    0    0 -0.18835522910E+02 -0.11093800474E+03  0.53677878801E+02  0.12467290200E+03  0.00000000000E+00 0. -1.
<mgrwt>
<rscale>  0 0.33647952E+03</rscale>
<asrwt>0</asrwt>
<pdfrwt beam="2">  1        1 0.18969536E-01 0.33647952E+03</pdfrwt>
<pdfrwt beam="1">  1       -1 0.35316191E-01 0.33647952E+03</pdfrwt>
<totfact> 0.21119766E+03</totfact>
</mgrwt>
</event>
<event>
 6    1  0.1031976E-005  0.2346998E+03  0.7546771E-02  0.1126160E+00
          1   -1    0    0  501    0  0.00000000000E+00  0.00000000000E+00  0.11786537839E+04  0.11786537839E+04  0.00000000000E+00 0. -1.
         -1   -1    0    0    0  501 -0.00000000000E+00 -0.00000000000E+00 -0.43969794649E+02  0.43969794649E+02  0.00000000000E+00 0.  1.
          5    1    1    2  502    0 -0.54311433107E+02 -0.83080539358E+02  0.49888725866E+03  0.50868722674E+03  0.47000000000E+01 0. -1.
         -5    1    1    2    0  502 -0.54919887223E+02 -0.82831956894E+02  0.13846639360E+03  0.17050618538E+03  0.47000000000E+01 0. -1.
        -11    1    1    2    0    0  0.16768752915E+02  0.98866165980E+02  0.17819233247E+03  0.20447057783E+03  0.00000000000E+00 0.  1.
         11    1    1    2    0    0  0.92462567415E+02  0.67046330272E+02  0.31913800454E+03  0.33895958862E+03  0.00000000000E+00 0. -1.
<mgrwt>
<rscale>  0 0.23068314E+03</rscale>
<asrwt>0</asrwt>
<pdfrwt beam="1">  1        1 0.18133133E+00 0.23469984E+03</pdfrwt>
<pdfrwt beam="2">  1       -1 0.67645847E-02 0.23469984E+03</pdfrwt>
<totfact> 0.13213359E+03</totfact>
</mgrwt>
</event>
<event>
 6    1  0.5258538E-006  0.2044344E+03  0.7546771E-02  0.1156713E+00
          1   -1    0    0  501    0  0.00000000000E+00  0.00000000000E+00  0.28441315048E+03  0.28441315048E+03  0.00000000000E+00 0. -1.
         -1   -1    0    0    0  501 -0.00000000000E+00 -0.00000000000E+00 -0.20528059502E+03  0.20528059502E+03  0.00000000000E+00 0.  1.
          5    1    1    2  502    0 -0.11645269845E+01 -0.82262693802E+02  0.21875573776E+03  0.23376199374E+03  0.47000000000E+01 0. -1.
         -5    1    1    2    0  502 -0.22304530243E+02 -0.46850645174E+02 -0.15662868165E+02  0.54404875349E+02  0.47000000000E+01 0.  1.
        -11    1    1    2    0    0  0.22002964389E+01 -0.13090141766E+02 -0.20365053459E+02  0.24309021335E+02  0.00000000000E+00 0. -1.
         11    1    1    2    0    0  0.21268760789E+02  0.14220348074E+03 -0.10359526068E+03  0.17721785507E+03  0.00000000000E+00 0.  1.
<mgrwt>
<rscale>  0 0.19195152E+03</rscale>
<asrwt>0</asrwt>
<pdfrwt beam="1">  1        1 0.43755869E-01 0.20443442E+03</pdfrwt>
<pdfrwt beam="2">  1       -1 0.31581630E-01 0.20443442E+03</pdfrwt>
<totfact> 0.87706754E+02</totfact>
</mgrwt>
</event>
<event>
 6    1  0.5258538E-006  0.1780806E+03  0.7546771E-02  0.1175460E+00
          1   -1    0    0  501    0  0.00000000000E+00  0.00000000000E+00  0.87210271006E+03  0.87210271006E+03  0.00000000000E+00 0. -1.
         -1   -1    0    0    0  501 -0.00000000000E+00 -0.00000000000E+00 -0.33575278953E+02  0.33575278953E+02  0.00000000000E+00 0.  1.
          5    1    1    2  502    0  0.40517085372E+02  0.58811203136E+02  0.21388928652E+03  0.22554624517E+03  0.47000000000E+01 0.  1.
         -5    1    1    2    0  502 -0.88913469782E+02  0.58410753415E+02  0.32915279145E+03  0.34594952138E+03  0.47000000000E+01 0.  1.
        -11    1    1    2    0    0 -0.19306880459E+01 -0.10206478358E+03  0.21575353977E+03  0.23868501739E+03  0.00000000000E+00 0.  1.
         11    1    1    2    0    0  0.50327072456E+02 -0.15157172968E+02  0.79731813372E+02  0.95497205079E+02  0.00000000000E+00 0. -1.
<mgrwt>
<rscale>  0 0.17231017E+03</rscale>
<asrwt>0</asrwt>
<pdfrwt beam="1">  1        1 0.13416963E+00 0.17808064E+03</pdfrwt>
<pdfrwt beam="2">  1       -1 0.51654282E-02 0.17808064E+03</pdfrwt>
<totfact> 0.33292946E+03</totfact>
</mgrwt>
</event>
<event>
 6    1  0.5258538E-006  0.1483725E+03  0.7546771E-02  0.1211519E+00
         -1   -1    0    0    0  501 -0.00000000000E+00  0.00000000000E+00  0.54676391982E+02  0.54676391982E+02  0.00000000000E+00 0.  1.
          1   -1    0    0  501    0  0.00000000000E+00 -0.00000000000E+00 -0.37156849001E+03  0.37156849001E+03  0.00000000000E+00 0. -1.
          5    1    1    2  502    0 -0.28695666130E+02 -0.61711166980E+02 -0.34913986628E+02  0.76634103681E+02  0.47000000000E+01 0.  1.
         -5    1    1    2    0  502 -0.13407638984E+02 -0.62965645284E+01 -0.20408058607E+03  0.20467141256E+03  0.47000000000E+01 0.  1.
        -11    1    1    2    0    0  0.65932390415E+02  0.72449138916E+02 -0.63680753498E+02  0.11683833361E+03  0.00000000000E+00 0.  1.
         11    1    1    2    0    0 -0.23829085302E+02 -0.44414074071E+01 -0.14216771835E+02  0.28101032143E+02  0.00000000000E+00 0. -1.
<mgrwt>
<rscale>  0 0.14135351E+03</rscale>
<asrwt>0</asrwt>
<pdfrwt beam="2">  1        1 0.57164384E-01 0.14837246E+03</pdfrwt>
<pdfrwt beam="1">  1       -1 0.84117525E-02 0.14837246E+03</pdfrwt>
<totfact> 0.51260427E+03</totfact>
</mgrwt>
</event>
<event>
 6    1  0.5258538E-006  0.1725970E+03  0.7546771E-02  0.1182754E+00
          2   -1    0    0  501    0  0.00000000000E+00  0.00000000000E+00  0.61362752433E+03  0.61362752433E+03  0.00000000000E+00 0. -1.
         -2   -1    0    0    0  501 -0.00000000000E+00 -0.00000000000E+00 -0.59219566035E+02  0.59219566035E+02  0.00000000000E+00 0.  1.
          5    1    1    2  502    0 -0.19383603503E+02 -0.43194014078E+02  0.18257160241E+03  0.18866882876E+03  0.47000000000E+01 0. -1.
         -5    1    1    2    0  502  0.11996985312E+03 -0.20446808120E+02  0.29607639404E+03  0.32014708920E+03  0.47000000000E+01 0. -1.
        -11    1    1    2    0    0 -0.45371195990E+02 -0.72860961925E+01  0.55201382909E+02  0.71824962919E+02  0.00000000000E+00 0.  1.
         11    1    1    2    0    0 -0.55215053626E+02  0.70926918391E+02  0.20558578932E+02  0.92206209482E+02  0.00000000000E+00 0. -1.
<mgrwt>
<rscale>  0 0.16537944E+03</rscale>
<asrwt>0</asrwt>
<pdfrwt beam="1">  1        2 0.94404230E-01 0.17259703E+03</pdfrwt>
<pdfrwt beam="2">  1       -2 0.91107029E-02 0.17259703E+03</pdfrwt>
<totfact> 0.37142688E+03</totfact>
</mgrwt>
</event>
<event>
 6    1  0.5258538E-006  0.1389974E+03  0.7546771E-02  0.1225802E+00
         -2   -1    0    0    0  501 -0.00000000000E+00  0.00000000000E+00  0.26209560224E+03  0.26209560224E+03  0.00000000000E+00 0.  1.
          2   -1    0    0  501    0  0.00000000000E+00 -0.00000000000E+00 -0.59945658364E+02  0.59945658364E+02  0.00000000000E+00 0. -1.
          5    1    1    2  502    0  0.14076091960E+02 -0.53846872679E+02  0.11894765510E+03  0.13140873912E+03  0.47000000000E+01 0.  1.
         -5    1    1    2    0  502  0.25711907198E+02  0.78950628301E+01 -0.24464190985E+02  0.36660889643E+02  0.47000000000E+01 0.  1.
        -11    1    1    2    0    0  0.88355713864E+01 -0.11973140797E+02  0.65936841960E+02  0.67595048265E+02  0.00000000000E+00 0.  1.
         11    1    1    2    0    0 -0.48623570545E+02  0.57924950646E+02  0.41729637802E+02  0.86376583580E+02  0.00000000000E+00 0. -1.
<mgrwt>
<rscale>  0 0.13112071E+03</rscale>
<asrwt>0</asrwt>
<pdfrwt beam="2">  1        2 0.92224091E-02 0.13899739E+03</pdfrwt>
<pdfrwt beam="1">  1       -2 0.40322400E-01 0.13899739E+03</pdfrwt>
<totfact> 0.39797534E+03</totfact>
</mgrwt>
</event>
<event>
 6    1  0.5258538E-006  0.2210848E+03  0.7546771E-02  0.1146134E+00
          2   -1    0    0  501    0  0.00000000000E+00  0.00000000000E+00  0.75185909997E+03  0.75185909997E+03  0.00000000000E+00 0. -1.
         -2   -1    0    0    0  501 -0.00000000000E+00 -0.00000000000E+00 -0.12448782346E+03  0.12448782346E+03  0.00000000000E+00 0.  1.
          5    1    1    2  502    0  0.75718986196E+02 -0.27057254047E+02  0.40907643983E+03  0.41693054997E+03  0.47000000000E+01 0. -1.
         -5    1    1    2    0  502 -0.61956258376E+02 -0.10693625423E+03  0.26418291172E+03  0.29169957365E+03  0.47000000000E+01 0.  1.
        -11    1    1    2    0    0 -0.82933093136E+01  0.14569656232E+03 -0.49838658907E+02  0.15420816830E+03  0.00000000000E+00 0.  1.
         11    1    1    2    0    0 -0.54694185069E+01 -0.11703054037E+02  0.39505838632E+01  0.13508631517E+02  0.00000000000E+00 0. -1.
<mgrwt>
<rscale>  0 0.20433337E+03</rscale>
<asrwt>0</asrwt>
<pdfrwt beam="1">  1        2 0.11567063E+00 0.22108482E+03</pdfrwt>
<pdfrwt beam="2">  1       -2 0.19151973E-01 0.22108482E+03</pdfrwt>
<totfact> 0.87242459E+02</totfact>
</mgrwt>
</event>
<event>
 6    1  0.5258538E-006  0.1260766E+03  0.7546771E-02  0.1247990E+00
          2   -1    0    0  501    0  0.00000000000E+00  0.00000000000E+00  0.17785593001E+02  0.17785593001E+02  0.00000000000E+00 0. -1.
         -2   -1    0    0    0  501 -0.00000000000E+00 -0.00000000000E+00 -0.69692504553E+03  0.69692504553E+03  0.00000000000E+00 0.  1.
          5    1    1    2  502    0 -0.58153824845E+01  0.58194058118E+02 -0.96132929214E+02  0.11262325316E+03  0.47000000000E+01 0. -1.
         -5    1    1    2    0  502 -0.73973029147E+01 -0.55667865014E+02 -0.23597016682E+03  0.24260593751E+03  0.47000000000E+01 0. -1.
        -11    1    1    2    0    0 -0.28663587923E+02  0.26631180321E+02 -0.20137990219E+03  0.20514552406E+03  0.00000000000E+00 0.  1.
         11    1    1    2    0    0  0.41876273322E+02 -0.29157373425E+02 -0.14565645431E+03  0.15433592380E+03  0.00000000000E+00 0. -1.
<mgrwt>
<rscale>  0 0.11708225E+03</rscale>
<asrwt>0</asrwt>
<pdfrwt beam="1">  1        2 0.27362456E-02 0.12607661E+03</pdfrwt>
<pdfrwt beam="2">  1       -2 0.10721922E+00 0.12607661E+03</pdfrwt>
<totfact> 0.24569741E+03</totfact>
</mgrwt>
</event>
<event>
 6    1  0.5258538E-006  0.1362595E+03  0.7546771E-02  0.1230625E+00
         -1   -1    0    0    0  501 -0.00000000000E+00  0.00000000000E+00  0.45577614178E+03  0.45577614178E+03  0.00000000000E+00 0.  1.
          1   -1    0    0  501    0  0.00000000000E+00 -0.00000000000E+00 -0.40088019938E+02  0.40088019938E+02  0.00000000000E+00 0. -1.
          5    1    1    2  502    0 -0.80284603014E+02  0.37682707906E+02  0.73116353947E+02  0.11503779888E+03  0.47000000000E+01 0. -1.
         -5    1    1    2    0  502  0.46775300361E+02  0.48347345421E+01  0.45915488286E+02  0.65891011880E+02  0.47000000000E+01 0. -1.
        -11    1    1    2    0    0  0.37549248547E+02  0.16976971341E+02  0.17029971481E+03  0.17521460124E+03  0.00000000000E+00 0.  1.
         11    1    1    2    0    0 -0.40399458936E+01 -0.59494413789E+02  0.12635656479E+03  0.13972074972E+03  0.00000000000E+00 0. -1.
<mgrwt>
<rscale>  0 0.12788720E+03</rscale>
<asrwt>0</asrwt>
<pdfrwt beam="2">  1        1 0.61673880E-02 0.13625951E+03</pdfrwt>
<pdfrwt beam="1">  1       -1 0.70119403E-01 0.13625951E+03</pdfrwt>
<totfact> 0.25700880E+03</totfact>
</mgrwt>
</event>
<event>
 6    1  0.5258538E-006  0.1468969E+03  0.7546771E-02  0.1213926E+00
          1   -1    0    0  501    0  0.00000000000E+00  0.00000000000E+00  0.14589345474E+03  0.14589345474E+03  0.00000000000E+00 0. -1.
         -1   -1    0    0    0  501 -0.00000000000E+00 -0.00000000000E+00 -0.12990592123E+03  0.12990592123E+03  0.00000000000E+00 0.  1.
          5    1    1    2  502    0  0.86793855483E+02 -0.63816319192E+02  0.12246366985E+02  0.10852538620E+03  0.47000000000E+01 0.  1.
         -5    1    1    2    0  502 -0.20532157013E+02  0.24278996626E+02  0.30877179624E+02  0.44570498879E+02  0.47000000000E+01 0.  1.
        -11    1    1    2    0    0  0.12590629073E+02 -0.14233541992E+02  0.85118903566E+01  0.20822342220E+02  0.00000000000E+00 0. -1.
         11    1    1    2    0    0 -0.78852327544E+02  0.53770864558E+02 -0.35647903462E+02  0.10188114868E+03  0.00000000000E+00 0.  1.
<mgrwt>
<rscale>  0 0.13955699E+03</rscale>
<asrwt>0</asrwt>
<pdfrwt beam="1">  1        1 0.22445147E-01 0.14689694E+03</pdfrwt>
<pdfrwt beam="2">  1       -1 0.19985526E-01 0.14689694E+03</pdfrwt>
<totfact> 0.42742454E+03</totfact>
</mgrwt>
</event>
<event>
 6    1  0.5258538E-006  0.1748274E+03  0.7546771E-02  0.1178878E+00
          1   -1    0    0  501    0  0.00000000000E+00  0.00000000000E+00  0.11894198769E+03  0.11894198769E+03  0.00000000000E+00 0. -1.
         -1   -1    0    0    0  501 -0.00000000000E+00 -0.00000000000E+00 -0.23371073021E+03  0.23371073021E+03  0.00000000000E+00 0.  1.
          5    1    1    2  502    0 -0.11096176130E+02 -0.73532538222E+02 -0.73443894297E+02  0.10462435143E+03  0.47000000000E+01 0. -1.
         -5    1    1    2    0  502  0.30963269288E+02 -0.47071002989E+02  0.45308668935E+02  0.72452528238E+02  0.47000000000E+01 0. -1.
        -11    1    1    2    0    0  0.36769396429E+02  0.41836041642E+02 -0.31816037016E+02  0.64144392627E+02  0.00000000000E+00 0.  1.
         11    1    1    2    0    0 -0.56636489587E+02  0.78767499568E+02 -0.54817480141E+02  0.11143144561E+03  0.00000000000E+00 0. -1.
<mgrwt>
<rscale>  0 0.16901559E+03</rscale>
<asrwt>0</asrwt>
<pdfrwt beam="1">  1        1 0.18298767E-01 0.17482743E+03</pdfrwt>
<pdfrwt beam="2">  1       -1 0.35955497E-01 0.17482743E+03</pdfrwt>
<totfact> 0.21022749E+03</totfact>
</mgrwt>
</event>
<event>
 6    1  0.5258538E-006  0.1642729E+03  0.7546771E-02  0.1190390E+00
          2   -1    0    0  501    0  0.00000000000E+00  0.00000000000E+00  0.21203014562E+03  0.21203014562E+03  0.00000000000E+00 0. -1.
         -2   -1    0    0    0  501 -0.00000000000E+00 -0.00000000000E+00 -0.11090439055E+03  0.11090439055E+03  0.00000000000E+00 0.  1.
          5    1    1    2  502    0 -0.77118697378E+02  0.52091431764E+02 -0.20718517477E+02  0.95457622613E+02  0.47000000000E+01 0.  1.
         -5    1    1    2    0  502 -0.14155899390E+02  0.29574097369E+01  0.76547161682E+02  0.78042896675E+02  0.47000000000E+01 0.  1.
        -11    1    1    2    0    0  0.84441198600E+02 -0.76206990093E+02  0.19545157169E+02  0.11541158750E+03  0.00000000000E+00 0.  1.
         11    1    1    2    0    0  0.68333981678E+01  0.21158148592E+02  0.25751953690E+02  0.34022429384E+02  0.00000000000E+00 0. -1.
<mgrwt>
<rscale>  0 0.15850921E+03</rscale>
<asrwt>0</asrwt>
<pdfrwt beam="1">  1        2 0.32620022E-01 0.16427292E+03</pdfrwt>
<pdfrwt beam="2">  1       -2 0.17062214E-01 0.16427292E+03</pdfrwt>
<totfact> 0.42742836E+03</totfact>
</mgrwt>
</event>
<event>
 6    1  0.5258538E-006  0.1508048E+03  0.7546771E-02  0.1208736E+00
         -2   -1    0    0    0  501 -0.00000000000E+00  0.00000000000E+00  0.31271234278E+02  0.31271234278E+02  0.00000000000E+00 0.  1.
          2   -1    0    0  501    0  0.00000000000E+00 -0.00000000000E+00 -0.63377142989E+03  0.63377142989E+03  0.00000000000E+00 0. -1.
          5    1    1    2  502    0 -0.54085620508E+02  0.43777034074E+02 -0.28156513594E+03  0.29007360934E+03  0.47000000000E+01 0. -1.
         -5    1    1    2    0  502  0.57210040879E+02  0.40525076688E+02 -0.12258446748E+03  0.14129512478E+03  0.47000000000E+01 0. -1.
        -11    1    1    2    0    0 -0.28806760182E+02 -0.21397242357E+02 -0.13867596579E+03  0.14324348118E+03  0.00000000000E+00 0. -1.
         11    1    1    2    0    0  0.25682339811E+02 -0.62904868405E+02 -0.59674626398E+02  0.90430448871E+02  0.00000000000E+00 0.  1.
<mgrwt>
<rscale>  0 0.14346885E+03</rscale>
<asrwt>0</asrwt>
<pdfrwt beam="2">  1        2 0.97503294E-01 0.15080478E+03</pdfrwt>
<pdfrwt beam="1">  1       -2 0.48109593E-02 0.15080478E+03</pdfrwt>
<totfact> 0.94602114E+03</totfact>
</mgrwt>
</event>
<event>
 6    1  0.5258538E-006  0.1203682E+03  0.7546771E-02  0.1251876E+00
         -1   -1    0    0    0  501 -0.00000000000E+00  0.00000000000E+00  0.39879665042E+02  0.39879665042E+02  0.00000000000E+00 0.  1.
          1   -1    0    0  501    0  0.00000000000E+00 -0.00000000000E+00 -0.58315601718E+03  0.58315601718E+03  0.00000000000E+00 0. -1.
          5    1    1    2  502    0  0.10097218407E+02  0.56181039876E+02 -0.37919529982E+03  0.38349632132E+03  0.47000000000E+01 0. -1.
         -5    1    1    2    0  502  0.29080846940E+02 -0.40562953721E+02 -0.12091342353E+03  0.13089383050E+03  0.47000000000E+01 0.  1.
        -11    1    1    2    0    0  0.18483011858E+02 -0.33002698139E+02 -0.26408092288E+02  0.46132278830E+02  0.00000000000E+00 0. -1.
         11    1    1    2    0    0 -0.57661077205E+02  0.17384611984E+02 -0.16759536502E+02  0.62513251571E+02  0.00000000000E+00 0.  1.
<mgrwt>
<rscale>  0 0.11483102E+03</rscale>
<asrwt>0</asrwt>
<pdfrwt beam="2">  1        1 0.89716302E-01 0.12036816E+03</pdfrwt>
<pdfrwt beam="1">  1       -1 0.61353336E-02 0.12036816E+03</pdfrwt>
<totfact> 0.45494498E+03</totfact>
</mgrwt>
</event>
<event>
 6    1  0.5258538E-006  0.2608021E+03  0.7546771E-02  0.1109088E+00
         -3   -1    0    0    0  501 -0.00000000000E+00  0.00000000000E+00  0.94955204102E+02  0.94955204102E+02  0.00000000000E+00 0.  1.
          3   -1    0    0  501    0  0.00000000000E+00 -0.00000000000E+00 -0.67404787182E+03  0.67404787182E+03  0.00000000000E+00 0. -1.
          5    1    1    2  502    0 -0.76553586249E+02 -0.31887535069E+02 -0.18146044604E+03  0.19956765755E+03  0.47000000000E+01 0.  1.
         -5    1    1    2    0  502 -0.80257775308E+02 -0.13487708673E+03 -0.11102402144E+03  0.19230590828E+03  0.47000000000E+01 0.  1.
        -11    1    1    2    0    0  0.55213885792E+02  0.96167775725E+02 -0.81580558432E+02  0.13766699599E+03  0.00000000000E+00 0.  1.
         11    1    1    2    0    0  0.10159747576E+03  0.70596846073E+02 -0.20502764180E+03  0.23946251410E+03  0.00000000000E+00 0. -1.
<mgrwt>
<rscale>  0 0.25678917E+03</rscale>
<asrwt>0</asrwt>
<pdfrwt beam="2">  1        3 0.10369967E+00 0.26080209E+03</pdfrwt>
<pdfrwt beam="1">  1       -3 0.14608493E-01 0.26080209E+03</pdfrwt>
<totfact> 0.80812358E+01</totfact>
</mgrwt>
</event>
<event>
 6    1  0.5258538E-006  0.3505656E+03  0.7546771E-02  0.1069997E+00
          1   -1    0    0  501    0  0.00000000000E+00  0.00000000000E+00  0.11261913534E+04  0.11261913534E+04  0.00000000000E+00 0. -1.
         -1   -1    0    0    0  501 -0.00000000000E+00 -0.00000000000E+00 -0.89569872912E+02  0.89569872912E+02  0.00000000000E+00 0.  1.
          5    1    1    2  502    0 -0.88113395312E+02  0.66144908774E+02  0.22631132131E+03  0.25174992263E+03  0.47000000000E+01 0. -1.
         -5    1    1    2    0  502 -0.15554448750E+03 -0.18034132516E+03  0.37334822445E+03  0.44286348670E+03  0.47000000000E+01 0.  1.
        -11    1    1    2    0    0  0.22821562275E+03  0.74232239780E+02  0.38656852908E+03  0.45500332259E+03  0.00000000000E+00 0. -1.
         11    1    1    2    0    0  0.15442260053E+02  0.39964176602E+02  0.50393405667E+02  0.66144494418E+02  0.00000000000E+00 0.  1.
<mgrwt>
<rscale>  0 0.33258967E+03</rscale>
<asrwt>0</asrwt>
<pdfrwt beam="1">  1        1 0.17326020E+00 0.35056557E+03</pdfrwt>
<pdfrwt beam="2">  1       -1 0.13779981E-01 0.35056557E+03</pdfrwt>
<totfact> 0.47387780E+02</totfact>
</mgrwt>
</event>
<event>
 6    1  0.5258538E-006  0.2095063E+03  0.7546771E-02  0.1145819E+00
          2   -1    0    0  501    0  0.00000000000E+00  0.00000000000E+00  0.12628394842E+04  0.12628394842E+04  0.00000000000E+00 0. -1.
         -2   -1    0    0    0  501 -0.00000000000E+00 -0.00000000000E+00 -0.34081720024E+02  0.34081720024E+02  0.00000000000E+00 0.  1.
          5    1    1    2  502    0 -0.16618895828E+03  0.31146588346E+02  0.67020513726E+03  0.69122058406E+03  0.47000000000E+01 0.  1.
         -5    1    1    2    0  502  0.12815788183E+02  0.37718799088E+02  0.13991877865E+03  0.14555516772E+03  0.47000000000E+01 0.  1.
        -11    1    1    2    0    0  0.11239094392E+03 -0.78252785810E+02  0.37645304042E+03  0.40058970831E+03  0.00000000000E+00 0.  1.
         11    1    1    2    0    0  0.40982226171E+02  0.93873983757E+01  0.42180807891E+02  0.59555744178E+02  0.00000000000E+00 0. -1.
<mgrwt>
<rscale>  0 0.20471705E+03</rscale>
<asrwt>0</asrwt>
<pdfrwt beam="1">  1        2 0.19428296E+00 0.20950632E+03</pdfrwt>
<pdfrwt beam="2">  1       -2 0.52433425E-02 0.20950632E+03</pdfrwt>
<totfact> 0.33385821E+03</totfact>
</mgrwt>
</event>
<event>
 6    1  0.5258538E-006  0.1544560E+03  0.7546771E-02  0.1203219E+00
         -1   -1    0    0    0  501 -0.00000000000E+00  0.00000000000E+00  0.28097293594E+03  0.28097293594E+03  0.00000000000E+00 0.  1.
          1   -1    0    0  501    0  0.00000000000E+00 -0.00000000000E+00 -0.71777314534E+02  0.71777314534E+02  0.00000000000E+00 0. -1.
          5    1    1    2  502    0 -0.49111790511E+02  0.64695445113E+02  0.11480464318E+03  0.14071128129E+03  0.47000000000E+01 0.  1.
         -5    1    1    2    0  502 -0.37686445983E+02 -0.38329574818E+02  0.39175755552E+01  0.54100479801E+02  0.47000000000E+01 0.  1.
        -11    1    1    2    0    0  0.71067551997E+02  0.73278214087E+01  0.13857835646E+02  0.72775913064E+02  0.00000000000E+00 0. -1.
         11    1    1    2    0    0  0.15730684497E+02 -0.33693691705E+02  0.76615567025E+02  0.85162576323E+02  0.00000000000E+00 0.  1.
<mgrwt>
<rscale>  0 0.14778659E+03</rscale>
<asrwt>0</asrwt>
<pdfrwt beam="2">  1        1 0.11042664E-01 0.15445600E+03</pdfrwt>
<pdfrwt beam="1">  1       -1 0.43226605E-01 0.15445600E+03</pdfrwt>
<totfact> 0.29259848E+03</totfact>
</mgrwt>
</event>
<event>
 6    1  0.5258538E-006  0.2905849E+03  0.7546771E-02  0.1091363E+00
          2   -1    0    0  501    0  0.00000000000E+00  0.00000000000E+00  0.34305002279E+03  0.34305002279E+03  0.00000000000E+00 0.  1.
         -2   -1    0    0    0  501 -0.00000000000E+00 -0.00000000000E+00 -0.23782050749E+03  0.23782050749E+03  0.00000000000E+00 0. -1.
          5    1    1    2  502    0 -0.31190788601E+02  0.19934944653E+03  0.56796046505E+02  0.20966866248E+03  0.47000000000E+01 0.  1.
         -5    1    1    2    0  502 -0.76523205113E+02  0.39841416417E+02 -0.68605666376E-01  0.86401586153E+02  0.47000000000E+01 0.  1.
        -11    1    1    2    0    0  0.47609453418E+02 -0.19380678328E+03  0.90396069468E+01  0.19977348121E+03  0.00000000000E+00 0.  1.
         11    1    1    2    0    0  0.60104540296E+02 -0.45384079666E+02  0.39462467510E+02  0.85026800442E+02  0.00000000000E+00 0. -1.
<mgrwt>
<rscale>  0 0.28806609E+03</rscale>
<asrwt>0</asrwt>
<pdfrwt beam="1">  1        2 0.52776927E-01 0.29058491E+03</pdfrwt>
<pdfrwt beam="2">  1       -2 0.36587770E-01 0.29058491E+03</pdfrwt>
<totfact> 0.66964880E+02</totfact>
</mgrwt>
</event>
<event>
 6    1  0.5258538E-006  0.3714040E+03  0.7546771E-02  0.1054157E+00
          2   -1    0    0  501    0  0.00000000000E+00  0.00000000000E+00  0.28588740167E+03  0.28588740167E+03  0.00000000000E+00 0.  1.
         -2   -1    0    0    0  501 -0.00000000000E+00 -0.00000000000E+00 -0.12062523364E+03  0.12062523364E+03  0.00000000000E+00 0. -1.
          5    1    1    2  502    0 -0.11312438083E+03  0.47093624573E+02  0.64867347825E+02  0.13872562066E+03  0.47000000000E+01 0.  1.
         -5    1    1    2    0  502 -0.23830603617E+02 -0.44241013036E+02  0.88686541505E+02  0.10204194014E+03  0.47000000000E+01 0.  1.
        -11    1    1    2    0    0  0.55482421797E+02  0.43443839036E+02  0.14721899624E+02  0.71988892248E+02  0.00000000000E+00 0. -1.
         11    1    1    2    0    0  0.81472562653E+02 -0.46296450573E+02 -0.30136209150E+01  0.93756182260E+02  0.00000000000E+00 0.  1.
<mgrwt>
<rscale>  0 0.37140401E+03</rscale>
<asrwt>0</asrwt>
<pdfrwt beam="1">  1        2 0.43982677E-01 0.37140401E+03</pdfrwt>
<pdfrwt beam="2">  1       -2 0.18557728E-01 0.37140401E+03</pdfrwt>
<totfact> 0.27684184E+03</totfact>
</mgrwt>
</event>
<event>
 6    1  0.5258538E-006  0.1591741E+03  0.7546771E-02  0.1211634E+00
          2   -1    0    0  501    0  0.00000000000E+00  0.00000000000E+00  0.13913240895E+04  0.13913240895E+04  0.00000000000E+00 0. -1.
         -2   -1    0    0    0  501 -0.00000000000E+00 -0.00000000000E+00 -0.17060369933E+02  0.17060369933E+02  0.00000000000E+00 0.  1.
          5    1    1    2  502    0  0.19342287468E+02  0.26562224270E+02  0.99749317365E+03  0.99804528821E+03  0.47000000000E+01 0. -1.
         -5    1    1    2    0  502 -0.26220222369E+02 -0.55263633509E+02  0.18021757720E+03  0.19037340776E+03  0.47000000000E+01 0.  1.
        -11    1    1    2    0    0 -0.27538424827E+02  0.50754449635E+02  0.10944505874E+03  0.12374409029E+03  0.00000000000E+00 0.  1.
         11    1    1    2    0    0  0.34416359728E+02 -0.22053040396E+02  0.87107910005E+02  0.96221673198E+02  0.00000000000E+00 0. -1.
<mgrwt>
<rscale>  0 0.14126683E+03</rscale>
<asrwt>0</asrwt>
<pdfrwt beam="1">  1        2 0.21404977E+00 0.15917407E+03</pdfrwt>
<pdfrwt beam="2">  1       -2 0.26246734E-02 0.15917407E+03</pdfrwt>
<totfact> 0.79358359E+03</totfact>
</mgrwt>
</event>
<event>
 6    1  0.5258538E-006  0.1359443E+03  0.7546771E-02  0.1231350E+00
          2   -1    0    0  501    0  0.00000000000E+00  0.00000000000E+00  0.33430985991E+03  0.33430985991E+03  0.00000000000E+00 0. -1.
         -2   -1    0    0    0  501 -0.00000000000E+00 -0.00000000000E+00 -0.44419072066E+02  0.44419072066E+02  0.00000000000E+00 0.  1.
          5    1    1    2  502    0  0.77122879655E+02 -0.16668577606E+01  0.72687625379E+02  0.10609570144E+03  0.47000000000E+01 0.  1.
         -5    1    1    2    0  502 -0.35097216144E+02  0.34533711002E+02  0.11931842209E+03  0.12916411122E+03  0.47000000000E+01 0.  1.
        -11    1    1    2    0    0  0.15561366423E+02  0.26246645301E+01 -0.80984861379E+01  0.17737825869E+02  0.00000000000E+00 0.  1.
         11    1    1    2    0    0 -0.57587029933E+02 -0.35491517771E+02  0.10598322651E+03  0.12573129345E+03  0.00000000000E+00 0. -1.
<mgrwt>
<rscale>  0 0.12741031E+03</rscale>
<asrwt>0</asrwt>
<pdfrwt beam="1">  1        2 0.51432285E-01 0.13594432E+03</pdfrwt>
<pdfrwt beam="2">  1       -2 0.68337036E-02 0.13594432E+03</pdfrwt>
<totfact> 0.11115552E+04</totfact>
</mgrwt>
</event>
<event>
 6    1  0.5258538E-006  0.1270815E+03  0.7546771E-02  0.1246697E+00
         -2   -1    0    0    0  501 -0.00000000000E+00  0.00000000000E+00  0.19015704786E+02  0.19015704786E+02  0.00000000000E+00 0.  1.
          2   -1    0    0  501    0  0.00000000000E+00 -0.00000000000E+00 -0.64894461224E+03  0.64894461224E+03  0.00000000000E+00 0. -1.
          5    1    1    2  502    0 -0.19490036372E+01 -0.40734990522E+02 -0.30238556776E+03  0.30515940040E+03  0.47000000000E+01 0. -1.
         -5    1    1    2    0  502 -0.19770408092E+02  0.33477777924E+02 -0.26130740956E+02  0.47080104862E+02  0.47000000000E+01 0. -1.
        -11    1    1    2    0    0 -0.24856649107E+02  0.29225403642E+02 -0.84870536232E+02  0.93139600296E+02  0.00000000000E+00 0.  1.
         11    1    1    2    0    0  0.46576060837E+02 -0.21968191045E+02 -0.21654206250E+03  0.22258121146E+03  0.00000000000E+00 0. -1.
<mgrwt>
<rscale>  0 0.11784394E+03</rscale>
<asrwt>0</asrwt>
<pdfrwt beam="2">  1        2 0.99837638E-01 0.12708149E+03</pdfrwt>
<pdfrwt beam="1">  1       -2 0.29254929E-02 0.12708149E+03</pdfrwt>
<totfact> 0.19015355E+04</totfact>
</mgrwt>
</event>
<event>
 6    1  0.5258538E-006  0.2503995E+03  0.7546771E-02  0.1116785E+00
          1   -1    0    0  501    0  0.00000000000E+00  0.00000000000E+00  0.33144867801E+03  0.33144867801E+03  0.00000000000E+00 0. -1.
         -1   -1    0    0    0  501 -0.00000000000E+00 -0.00000000000E+00 -0.17922889703E+03  0.17922889703E+03  0.00000000000E+00 0.  1.
          5    1    1    2  502    0  0.33878331410E+02  0.68765525345E+02  0.25416733782E+02  0.80898326133E+02  0.47000000000E+01 0. -1.
         -5    1    1    2    0  502 -0.12157616154E+03  0.12158639524E+03  0.10340066438E+03  0.20069330322E+03  0.47000000000E+01 0.  1.
        -11    1    1    2    0    0 -0.18260690612E+02 -0.33614631732E+02 -0.13680514874E+01  0.38278817288E+02  0.00000000000E+00 0.  1.
         11    1    1    2    0    0  0.10595852074E+03 -0.15673728885E+03  0.24770434300E+02  0.19080712840E+03  0.00000000000E+00 0. -1.
<mgrwt>
<rscale>  0 0.24457116E+03</rscale>
<asrwt>0</asrwt>
<pdfrwt beam="1">  1        1 0.50992104E-01 0.25039953E+03</pdfrwt>
<pdfrwt beam="2">  1       -1 0.27573676E-01 0.25039953E+03</pdfrwt>
<totfact> 0.91196721E+02</totfact>
</mgrwt>
</event>
<event>
 6    1  0.5258538E-006  0.1338949E+03  0.7546771E-02  0.1234369E+00
          2   -1    0    0  501    0  0.00000000000E+00  0.00000000000E+00  0.64868136760E+03  0.64868136760E+03  0.00000000000E+00 0. -1.
         -2   -1    0    0    0  501 -0.00000000000E+00 -0.00000000000E+00 -0.24436064156E+02  0.24436064156E+02  0.00000000000E+00 0.  1.
          5    1    1    2  502    0  0.10121834395E+02 -0.82220555502E+02  0.40033943946E+03  0.40884768321E+03  0.47000000000E+01 0.  1.
         -5    1    1    2    0  502  0.48492587718E+01  0.36574535382E+02  0.60215131545E+02  0.70775447833E+02  0.47000000000E+01 0.  1.
        -11    1    1    2    0    0  0.17570355273E+02  0.37012304575E+02  0.19407592351E+02  0.45335225986E+02  0.00000000000E+00 0.  1.
         11    1    1    2    0    0 -0.32541448439E+02  0.86337155449E+01  0.14428314009E+03  0.14815907473E+03  0.00000000000E+00 0. -1.
<mgrwt>
<rscale>  0 0.12544927E+03</rscale>
<asrwt>0</asrwt>
<pdfrwt beam="1">  1        2 0.99797121E-01 0.13389487E+03</pdfrwt>
<pdfrwt beam="2">  1       -2 0.37593950E-02 0.13389487E+03</pdfrwt>
<totfact> 0.13199967E+04</totfact>
</mgrwt>
</event>
<event>
 6    1  0.5258538E-006  0.3029406E+03  0.7546771E-02  0.1083780E+00
          2   -1    0    0  501    0  0.00000000000E+00  0.00000000000E+00  0.12139285178E+04  0.12139285178E+04  0.00000000000E+00 0. -1.
         -2   -1    0    0    0  501 -0.00000000000E+00 -0.00000000000E+00 -0.18899998336E+02  0.18899998336E+02  0.00000000000E+00 0.  1.
          5    1    1    2  502    0  0.84375520769E+02  0.93857226252E+02  0.63362314503E+03  0.64608729080E+03  0.47000000000E+01 0. -1.
         -5    1    1    2    0  502 -0.17105901407E+02 -0.25312016454E+02  0.18738558292E+03  0.18991776306E+03  0.47000000000E+01 0. -1.
        -11    1    1    2    0    0 -0.18071288921E+02 -0.49502083402E+02  0.66684565517E+02  0.84993288103E+02  0.00000000000E+00 0.  1.
         11    1    1    2    0    0 -0.49198330440E+02 -0.19043126397E+02  0.30733522605E+03  0.31183017421E+03  0.00000000000E+00 0. -1.
<mgrwt>
<rscale>  0 0.30294057E+03</rscale>
<asrwt>0</asrwt>
<pdfrwt beam="1">  1        2 0.18675817E+00 0.30294057E+03</pdfrwt>
<pdfrwt beam="2">  1       -2 0.29076930E-02 0.30294057E+03</pdfrwt>
<totfact> 0.87210782E+03</totfact>
</mgrwt>
</event>
<event>
 6    1  0.5258538E-006  0.1463087E+03  0.7546771E-02  0.1215806E+00
         -1   -1    0    0    0  501 -0.00000000000E+00  0.00000000000E+00  0.60228346063E+02  0.60228346063E+02  0.00000000000E+00 0.  1.
          1   -1    0    0  501    0  0.00000000000E+00 -0.00000000000E+00 -0.33449965298E+03  0.33449965298E+03  0.00000000000E+00 0. -1.
          5    1    1    2  502    0 -0.41389694109E+02 -0.90660744075E+02 -0.16816741260E+03  0.19553732625E+03  0.47000000000E+01 0. -1.
         -5    1    1    2    0  502 -0.17038467899E+02  0.41997502655E+02 -0.56732988283E+02  0.72765524647E+02  0.47000000000E+01 0. -1.
        -11    1    1    2    0    0  0.17113809624E+02  0.35168482981E+02 -0.68547120414E+02  0.78920291383E+02  0.00000000000E+00 0. -1.
         11    1    1    2    0    0  0.41314352384E+02  0.13494758440E+02  0.19176214382E+02  0.47504856765E+02  0.00000000000E+00 0.  1.
<mgrwt>
<rscale>  0 0.13817462E+03</rscale>
<asrwt>0</asrwt>
<pdfrwt beam="2">  1        1 0.51461485E-01 0.14630868E+03</pdfrwt>
<pdfrwt beam="1">  1       -1 0.92658993E-02 0.14630868E+03</pdfrwt>
<totfact> 0.50439292E+03</totfact>
</mgrwt>
</event>
<event>
 6    1  0.5258538E-006  0.1309388E+03  0.7546771E-02  0.1239877E+00
          2   -1    0    0  501    0  0.00000000000E+00  0.00000000000E+00  0.11164078935E+03  0.11164078935E+03  0.00000000000E+00 0. -1.
         -2   -1    0    0    0  501 -0.00000000000E+00 -0.00000000000E+00 -0.13651531442E+03  0.13651531442E+03  0.00000000000E+00 0.  1.
          5    1    1    2  502    0 -0.26971749811E+02  0.61273485397E+02 -0.22868936443E+02  0.70901294449E+02  0.47000000000E+01 0.  1.
         -5    1    1    2    0  502 -0.26579932062E-01 -0.33149268592E+02  0.54243089250E+02  0.63743842417E+02  0.47000000000E+01 0.  1.
        -11    1    1    2    0    0  0.28092624477E+02  0.67258340459E+01  0.16192500215E+02  0.33115396070E+02  0.00000000000E+00 0. -1.
         11    1    1    2    0    0 -0.10942947344E+01 -0.34850050850E+02 -0.72441178096E+02  0.80395570831E+02  0.00000000000E+00 0.  1.
<mgrwt>
<rscale>  0 0.12197314E+03</rscale>
<asrwt>0</asrwt>
<pdfrwt beam="1">  1        2 0.17175506E-01 0.13093882E+03</pdfrwt>
<pdfrwt beam="2">  1       -2 0.21002356E-01 0.13093882E+03</pdfrwt>
<totfact> 0.60682972E+03</totfact>
</mgrwt>
</event>
<event>
 6    1  0.5258538E-006  0.1959839E+03  0.7546771E-02  0.1157619E+00
          1   -1    0    0  501    0  0.00000000000E+00  0.00000000000E+00  0.55551902972E+03  0.55551902972E+03  0.00000000000E+00 0. -1.
         -1   -1    0    0    0  501 -0.00000000000E+00 -0.00000000000E+00 -0.63588852656E+02  0.63588852656E+02  0.00000000000E+00 0.  1.
          5    1    1    2  502    0 -0.10779287205E+03 -0.44449629176E+02  0.59830305496E+02  0.13113667776E+03  0.47000000000E+01 0.  1.
         -5    1    1    2    0  502 -0.35198567088E+02 -0.39176101124E+01  0.15753854222E+03  0.16153875411E+03  0.47000000000E+01 0.  1.
        -11    1    1    2    0    0  0.11382449134E+03  0.56023946587E+02  0.14170688088E+03  0.19019867904E+03  0.00000000000E+00 0.  1.
         11    1    1    2    0    0  0.29166947797E+02 -0.76567072987E+01  0.13285444846E+03  0.13623377146E+03  0.00000000000E+00 0. -1.
<mgrwt>
<rscale>  0 0.19093685E+03</rscale>
<asrwt>0</asrwt>
<pdfrwt beam="1">  1        1 0.85464463E-01 0.19598391E+03</pdfrwt>
<pdfrwt beam="2">  1       -1 0.97829008E-02 0.19598391E+03</pdfrwt>
<totfact> 0.24440668E+03</totfact>
</mgrwt>
</event>
<event>
 6    1  0.5258538E-006  0.2657351E+03  0.7546771E-02  0.1103746E+00
         -1   -1    0    0    0  501 -0.00000000000E+00  0.00000000000E+00  0.11365432225E+03  0.11365432225E+03  0.00000000000E+00 0.  1.
          1   -1    0    0  501    0  0.00000000000E+00 -0.00000000000E+00 -0.15532878734E+03  0.15532878734E+03  0.00000000000E+00 0. -1.
          5    1    1    2  502    0 -0.23812077688E+01 -0.10513191861E+02  0.43810145443E+02  0.45360954545E+02  0.47000000000E+01 0. -1.
         -5    1    1    2    0  502  0.39330969455E+02 -0.55443069813E+02 -0.80103210783E+02  0.10516403152E+03  0.47000000000E+01 0. -1.
        -11    1    1    2    0    0 -0.65312148238E+02  0.34332279675E+02 -0.14027824712E+02  0.75107669390E+02  0.00000000000E+00 0. -1.
         11    1    1    2    0    0  0.28362386552E+02  0.31623981999E+02  0.86464249573E+01  0.43350454126E+02  0.00000000000E+00 0.  1.
<mgrwt>
<rscale>  0 0.26573512E+03</rscale>
<asrwt>0</asrwt>
<pdfrwt beam="2">  1        1 0.23896736E-01 0.26573512E+03</pdfrwt>
<pdfrwt beam="1">  1       -1 0.17485281E-01 0.26573512E+03</pdfrwt>
<totfact> 0.50463176E+03</totfact>
</mgrwt>
</event>
<event>
 6    1  0.5258538E-006  0.2332491E+03  0.7546771E-02  0.1124374E+00
         -2   -1    0    0    0  501 -0.00000000000E+00  0.00000000000E+00  0.12466696645E+03  0.12466696645E+03  0.00000000000E+00 0.  1.
          2   -1    0    0  501    0  0.00000000000E+00 -0.00000000000E+00 -0.10910094726E+03  0.10910094726E+03  0.00000000000E+00 0. -1.
          5    1    1    2  502    0 -0.63099973095E+01 -0.83390328214E+01  0.59651283187E+02  0.60743074669E+02  0.47000000000E+01 0.  1.
         -5    1    1    2    0  502  0.40601092059E+02  0.35300881242E+02 -0.47869737697E+02  0.72167878450E+02  0.47000000000E+01 0.  1.
        -11    1    1    2    0    0 -0.16589933730E+02 -0.57361836016E+02 -0.14156892240E+02  0.61367937315E+02  0.00000000000E+00 0. -1.
         11    1    1    2    0    0 -0.17701161019E+02  0.30399987596E+02  0.17941365939E+02  0.39489023272E+02  0.00000000000E+00 0.  1.
<mgrwt>
<rscale>  0 0.23324909E+03</rscale>
<asrwt>0</asrwt>
<pdfrwt beam="2">  1        2 0.16784761E-01 0.23324909E+03</pdfrwt>
<pdfrwt beam="1">  1       -2 0.19179533E-01 0.23324909E+03</pdfrwt>
<totfact> 0.75584272E+03</totfact>
</mgrwt>
</event>
<event>
 6    1  0.5258538E-006  0.2075833E+03  0.7546771E-02  0.1147291E+00
         -2   -1    0    0    0  501 -0.00000000000E+00  0.00000000000E+00  0.20809938121E+02  0.20809938121E+02  0.00000000000E+00 0.  1.
          2   -1    0    0  501    0  0.00000000000E+00 -0.00000000000E+00 -0.18951608094E+04  0.18951608094E+04  0.00000000000E+00 0. -1.
          5    1    1    2  502    0  0.94411603476E+02 -0.24364231125E+02 -0.77707929011E+03  0.78318674641E+03  0.47000000000E+01 0. -1.
         -5    1    1    2    0  502  0.70340942377E+02  0.42299781620E+02 -0.21076334480E+03  0.22623084938E+03  0.47000000000E+01 0. -1.
        -11    1    1    2    0    0 -0.10372652626E+02  0.14255736420E+01 -0.53385984947E+01  0.11752651471E+02  0.00000000000E+00 0.  1.
         11    1    1    2    0    0 -0.15437989323E+03 -0.19361124138E+02 -0.88116963783E+03  0.89480050022E+03  0.00000000000E+00 0. -1.
<mgrwt>
<rscale>  0 0.20292903E+03</rscale>
<asrwt>0</asrwt>
<pdfrwt beam="2">  1        2 0.29156331E+00 0.20758326E+03</pdfrwt>
<pdfrwt beam="1">  1       -2 0.32015278E-02 0.20758326E+03</pdfrwt>
<totfact> 0.32413615E+03</totfact>
</mgrwt>
</event>
<event>
 6    1  0.5258538E-006  0.1313970E+03  0.7546771E-02  0.1239605E+00
         -2   -1    0    0    0  501 -0.00000000000E+00  0.00000000000E+00  0.26360116175E+02  0.26360116175E+02  0.00000000000E+00 0.  1.
          2   -1    0    0  501    0  0.00000000000E+00 -0.00000000000E+00 -0.50273143141E+03  0.50273143141E+03  0.00000000000E+00 0. -1.
          5    1    1    2  502    0  0.19482169236E+02  0.67348382692E+02 -0.12363864809E+03  0.14221098717E+03  0.47000000000E+01 0.  1.
         -5    1    1    2    0  502 -0.44973212707E+02 -0.35690865536E+02 -0.16972697744E+03  0.17923661628E+03  0.47000000000E+01 0.  1.
        -11    1    1    2    0    0  0.51970619968E+02 -0.44734866796E+02 -0.12846991912E+03  0.14562511379E+03  0.00000000000E+00 0. -1.
         11    1    1    2    0    0 -0.26479576497E+02  0.13077349640E+02 -0.54535770583E+02  0.62018830351E+02  0.00000000000E+00 0.  1.
<mgrwt>
<rscale>  0 0.12214164E+03</rscale>
<asrwt>0</asrwt>
<pdfrwt beam="2">  1        2 0.77343297E-01 0.13139700E+03</pdfrwt>
<pdfrwt beam="1">  1       -2 0.40554025E-02 0.13139700E+03</pdfrwt>
<totfact> 0.15694007E+04</totfact>
</mgrwt>
</event>
<event>
 6    1  0.5258538E-006  0.3268774E+03  0.7546771E-02  0.1072527E+00
          2   -1    0    0  501    0  0.00000000000E+00  0.00000000000E+00  0.88367143827E+03  0.88367143827E+03  0.00000000000E+00 0. -1.
         -2   -1    0    0    0  501 -0.00000000000E+00 -0.00000000000E+00 -0.30228671820E+02  0.30228671820E+02  0.00000000000E+00 0.  1.
          5    1    1    2  502    0  0.11535048933E+03 -0.57294660966E+02  0.50091156584E+03  0.51722615977E+03  0.47000000000E+01 0. -1.
         -5    1    1    2    0  502 -0.23281461079E+02 -0.15940846179E+02  0.33370069888E+02  0.43952116800E+02  0.47000000000E+01 0. -1.
        -11    1    1    2    0    0 -0.90371364377E+02  0.14698464923E+02  0.19055590117E+03  0.21141092649E+03  0.00000000000E+00 0. -1.
         11    1    1    2    0    0 -0.16976638733E+01  0.58537042222E+02  0.12860522956E+03  0.14131090702E+03  0.00000000000E+00 0.  1.
<mgrwt>
<rscale>  0 0.32687743E+03</rscale>
<asrwt>0</asrwt>
<pdfrwt beam="1">  1        2 0.13594943E+00 0.32687743E+03</pdfrwt>
<pdfrwt beam="2">  1       -2 0.46505656E-02 0.32687743E+03</pdfrwt>
<totfact> 0.68294951E+03</totfact>
</mgrwt>
</event>
<event>
 6    1  0.5258538E-006  0.1776157E+03  0.7546771E-02  0.1198561E+00
         -1   -1    0    0    0  501 -0.00000000000E+00  0.00000000000E+00  0.40475310558E+02  0.40475310558E+02  0.00000000000E+00 0.  1.
          1   -1    0    0  501    0  0.00000000000E+00 -0.00000000000E+00 -0.21981644147E+04  0.21981644147E+04  0.00000000000E+00 0. -1.
          5    1    1    2  502    0 -0.48645929466E+02 -0.58696890218E+02 -0.10584766346E+04  0.10612288289E+04  0.47000000000E+01 0.  1.
         -5    1    1    2    0  502  0.37476707378E+02  0.92451544951E+02 -0.10757167088E+04  0.10803426860E+04  0.47000000000E+01 0. -1.
        -11    1    1    2    0    0 -0.16267887677E+02  0.17389996597E+02 -0.30403691237E+02  0.38619173890E+02  0.00000000000E+00 0. -1.
         11    1    1    2    0    0  0.27437109764E+02 -0.51144651330E+02  0.69079304592E+01  0.58449036392E+02  0.00000000000E+00 0.  1.
<mgrwt>
<rscale>  0 0.15156627E+03</rscale>
<asrwt>0</asrwt>
<pdfrwt beam="2">  1        1 0.33817907E+00 0.17761567E+03</pdfrwt>
<pdfrwt beam="1">  1       -1 0.62269722E-02 0.17761567E+03</pdfrwt>
<totfact> 0.32363575E+02</totfact>
</mgrwt>
</event>
<event>
 6    1  0.5258538E-006  0.1252331E+03  0.7546771E-02  0.1250462E+00
         -1   -1    0    0    0  501 -0.00000000000E+00  0.00000000000E+00  0.70489797320E+02  0.70489797320E+02  0.00000000000E+00 0.  1.
          1   -1    0    0  501    0  0.00000000000E+00 -0.00000000000E+00 -0.38909809297E+03  0.38909809297E+03  0.00000000000E+00 0. -1.
          5    1    1    2  502    0  0.28703912284E+02  0.52079476943E+02 -0.20821314151E+03  0.21658944757E+03  0.47000000000E+01 0.  1.
         -5    1    1    2    0  502 -0.36208019440E+02 -0.50696130904E+02 -0.13492966985E+03  0.14869170846E+03  0.47000000000E+01 0.  1.
        -11    1    1    2    0    0  0.50568881955E+01  0.35229383528E+02 -0.16525071307E+02  0.39239770179E+02  0.00000000000E+00 0. -1.
         11    1    1    2    0    0  0.24472189600E+01 -0.36612729567E+02  0.41059587018E+02  0.55066964081E+02  0.00000000000E+00 0.  1.
<mgrwt>
<rscale>  0 0.11564334E+03</rscale>
<asrwt>0</asrwt>
<pdfrwt beam="2">  1        1 0.59861246E-01 0.12523312E+03</pdfrwt>
<pdfrwt beam="1">  1       -1 0.10844584E-01 0.12523312E+03</pdfrwt>
<totfact> 0.32584259E+03</totfact>
</mgrwt>
</event>
<event>
 6    1  0.5258538E-006  0.1390669E+03  0.7546771E-02  0.1223074E+00
         -2   -1    0    0    0  501 -0.00000000000E+00  0.00000000000E+00  0.20795813640E+02  0.20795813640E+02  0.00000000000E+00 0.  1.
          2   -1    0    0  501    0  0.00000000000E+00 -0.00000000000E+00 -0.10274618107E+04  0.10274618107E+04  0.00000000000E+00 0. -1.
          5    1    1    2  502    0  0.24581698722E+02 -0.69200178069E+02 -0.28793335858E+03  0.29718787583E+03  0.47000000000E+01 0. -1.
         -5    1    1    2    0  502 -0.51591610576E+02  0.14552880523E+02 -0.50386143875E+03  0.50672667195E+03  0.47000000000E+01 0. -1.
        -11    1    1    2    0    0  0.63200891089E+02  0.35847797522E+02 -0.11010094896E+03  0.13191526138E+03  0.00000000000E+00 0.  1.
         11    1    1    2    0    0 -0.36190979235E+02  0.18799500024E+02 -0.10477025074E+03  0.11242781515E+03  0.00000000000E+00 0. -1.
<mgrwt>
<rscale>  0 0.13299818E+03</rscale>
<asrwt>0</asrwt>
<pdfrwt beam="2">  1        2 0.15807104E+00 0.13906689E+03</pdfrwt>
<pdfrwt beam="1">  1       -2 0.31993561E-02 0.13906689E+03</pdfrwt>
<totfact> 0.93981535E+03</totfact>
</mgrwt>
</event>
<event>
 6    1  0.5258538E-006  0.1257734E+03  0.7546771E-02  0.1258491E+00
          2   -1    0    0  501    0  0.00000000000E+00  0.00000000000E+00  0.23473107521E+03  0.23473107521E+03  0.00000000000E+00 0. -1.
         -2   -1    0    0    0  501 -0.00000000000E+00 -0.00000000000E+00 -0.55357911783E+02  0.55357911783E+02  0.00000000000E+00 0.  1.
          5    1    1    2  502    0  0.43275342116E+02  0.46769196908E+02  0.12421459619E+03  0.13968345973E+03  0.47000000000E+01 0. -1.
         -5    1    1    2    0  502 -0.29336525393E+02 -0.47124639423E+02  0.47780827707E+02  0.73392512283E+02  0.47000000000E+01 0. -1.
        -11    1    1    2    0    0 -0.15061262872E+01 -0.13559833566E+02  0.38432968834E+02  0.40782724236E+02  0.00000000000E+00 0. -1.
         11    1    1    2    0    0 -0.12432690436E+02  0.13915276081E+02 -0.31055229308E+02  0.36230290742E+02  0.00000000000E+00 0.  1.
<mgrwt>
<rscale>  0 0.11113020E+03</rscale>
<asrwt>0</asrwt>
<pdfrwt beam="1">  1        2 0.36112473E-01 0.12577338E+03</pdfrwt>
<pdfrwt beam="2">  1       -2 0.85166019E-02 0.12577338E+03</pdfrwt>
<totfact> 0.11457383E+04</totfact>
</mgrwt>
</event>
<event>
 6    1  0.5258538E-006  0.1460298E+03  0.7546771E-02  0.1215141E+00
          2   -1    0    0  501    0  0.00000000000E+00  0.00000000000E+00  0.22098080535E+04  0.22098080535E+04  0.00000000000E+00 0. -1.
         -2   -1    0    0    0  501 -0.00000000000E+00 -0.00000000000E+00 -0.93910308929E+01  0.93910308929E+01  0.00000000000E+00 0.  1.
          5    1    1    2  502    0 -0.95254705163E+02  0.48644201725E+01  0.10864149841E+04  0.10906038369E+04  0.47000000000E+01 0. -1.
         -5    1    1    2    0  502  0.33037405114E+02  0.37892156214E+02  0.54543746135E+03  0.54776947695E+03  0.47000000000E+01 0. -1.
        -11    1    1    2    0    0  0.79806766477E+02 -0.44789751406E+02  0.53601867004E+03  0.54377500534E+03  0.00000000000E+00 0. -1.
         11    1    1    2    0    0 -0.17589466429E+02  0.20331750190E+01  0.32545907169E+02  0.37050765220E+02  0.00000000000E+00 0.  1.
<mgrwt>
<rscale>  0 0.13866161E+03</rscale>
<asrwt>0</asrwt>
<pdfrwt beam="1">  1        2 0.33997006E+00 0.14602983E+03</pdfrwt>
<pdfrwt beam="2">  1       -2 0.14447757E-02 0.14602983E+03</pdfrwt>
<totfact> 0.71174989E+03</totfact>
</mgrwt>
</event>
<event>
 6    1  0.5258538E-006  0.1278319E+03  0.7546771E-02  0.1244771E+00
         -4   -1    0    0    0  501 -0.00000000000E+00  0.00000000000E+00  0.39097899774E+02  0.39097899774E+02  0.00000000000E+00 0.  1.
          4   -1    0    0  501    0  0.00000000000E+00 -0.00000000000E+00 -0.34741487081E+03  0.34741487081E+03  0.00000000000E+00 0. -1.
          5    1    1    2  502    0  0.62792920664E+02  0.38698880738E+02 -0.10477412395E+03  0.12821958238E+03  0.47000000000E+01 0. -1.
         -5    1    1    2    0  502 -0.47405527269E+02 -0.16788418793E+02 -0.12313044742E+03  0.13308768577E+03  0.47000000000E+01 0. -1.
        -11    1    1    2    0    0 -0.54221781636E+02 -0.85600688079E+01 -0.45031532659E+02  0.71000812076E+02  0.00000000000E+00 0.  1.
         11    1    1    2    0    0  0.38834388242E+02 -0.13350393137E+02 -0.35380867003E+02  0.54204690359E+02  0.00000000000E+00 0. -1.
<mgrwt>
<rscale>  0 0.11899082E+03</rscale>
<asrwt>0</asrwt>
<pdfrwt beam="2">  1        4 0.53448440E-01 0.12783190E+03</pdfrwt>
<pdfrwt beam="1">  1       -4 0.60150617E-02 0.12783190E+03</pdfrwt>
<totfact> 0.97524196E+02</totfact>
</mgrwt>
</event>
<event>
 6    1  0.5258538E-006  0.2042698E+03  0.7546771E-02  0.1156400E+00
         -2   -1    0    0    0  501 -0.00000000000E+00  0.00000000000E+00  0.24782414477E+02  0.24782414477E+02  0.00000000000E+00 0.  1.
          2   -1    0    0  501    0  0.00000000000E+00 -0.00000000000E+00 -0.18129049339E+04  0.18129049339E+04  0.00000000000E+00 0. -1.
          5    1    1    2  502    0  0.11196984248E+03  0.34484945862E+02 -0.13367185051E+04  0.13418512991E+04  0.47000000000E+01 0. -1.
         -5    1    1    2    0  502 -0.96310412569E+01  0.43354803794E+02 -0.10271379304E+03  0.11200271983E+03  0.47000000000E+01 0.  1.
        -11    1    1    2    0    0 -0.11670920446E+03 -0.47006143945E+02 -0.26001937017E+03  0.28886101993E+03  0.00000000000E+00 0.  1.
         11    1    1    2    0    0  0.14370403238E+02 -0.30833605710E+02 -0.88670851071E+02  0.94972309438E+02  0.00000000000E+00 0. -1.
<mgrwt>
<rscale>  0 0.19230293E+03</rscale>
<asrwt>0</asrwt>
<pdfrwt beam="2">  1        2 0.27890843E+00 0.20426984E+03</pdfrwt>
<pdfrwt beam="1">  1       -2 0.38126794E-02 0.20426984E+03</pdfrwt>
<totfact> 0.27555055E+03</totfact>
</mgrwt>
</event>
<event>
 6    1  0.5258538E-006  0.1468412E+03  0.7546771E-02  0.1213908E+00
          1   -1    0    0  501    0  0.00000000000E+00  0.00000000000E+00  0.33081158408E+03  0.33081158408E+03  0.00000000000E+00 0. -1.
         -1   -1    0    0    0  501 -0.00000000000E+00 -0.00000000000E+00 -0.53748879735E+02  0.53748879735E+02  0.00000000000E+00 0.  1.
          5    1    1    2  502    0 -0.71060483208E+02  0.21215136495E+02  0.33247941253E+02  0.81407554243E+02  0.47000000000E+01 0.  1.
         -5    1    1    2    0  502  0.29125964216E+02  0.43427127343E+02  0.11924778885E+03  0.13029337023E+03  0.47000000000E+01 0.  1.
        -11    1    1    2    0    0  0.26987665537E+02 -0.53755971659E+02  0.13764315443E+03  0.15021210518E+03  0.00000000000E+00 0. -1.
         11    1    1    2    0    0  0.14946853455E+02 -0.10886292179E+02 -0.13076180193E+02  0.22647434160E+02  0.00000000000E+00 0.  1.
<mgrwt>
<rscale>  0 0.13957043E+03</rscale>
<asrwt>0</asrwt>
<pdfrwt beam="1">  1        1 0.50894089E-01 0.14684119E+03</pdfrwt>
<pdfrwt beam="2">  1       -1 0.82690586E-02 0.14684119E+03</pdfrwt>
<totfact> 0.60801285E+03</totfact>
</mgrwt>
</event>
<event>
 6    1  0.5258538E-006  0.1880305E+03  0.7546771E-02  0.1165074E+00
          1   -1    0    0  501    0  0.00000000000E+00  0.00000000000E+00  0.88965671322E+03  0.88965671322E+03  0.00000000000E+00 0. -1.
         -1   -1    0    0    0  501 -0.00000000000E+00 -0.00000000000E+00 -0.37207695961E+02  0.37207695961E+02  0.00000000000E+00 0.  1.
          5    1    1    2  502    0  0.22954840593E+02 -0.71813503260E+02  0.38409133719E+03  0.39144903788E+03  0.47000000000E+01 0.  1.
         -5    1    1    2    0  502 -0.67261295617E+02 -0.61475851005E+02  0.15963632329E+03  0.18387280347E+03  0.47000000000E+01 0.  1.
        -11    1    1    2    0    0  0.20471695264E+02  0.75495246477E+02  0.70664564779E+02  0.10541396142E+03  0.00000000000E+00 0.  1.
         11    1    1    2    0    0  0.23834759760E+02  0.57794107788E+02  0.23805679200E+03  0.24612860640E+03  0.00000000000E+00 0. -1.
<mgrwt>
<rscale>  0 0.18284926E+03</rscale>
<asrwt>0</asrwt>
<pdfrwt beam="1">  1        1 0.13687025E+00 0.18803046E+03</pdfrwt>
<pdfrwt beam="2">  1       -1 0.57242615E-02 0.18803046E+03</pdfrwt>
<totfact> 0.27697998E+03</totfact>
</mgrwt>
</event>
<event>
 6    1  0.5258538E-006  0.1360945E+03  0.7546771E-02  0.1231003E+00
          3   -1    0    0  501    0  0.00000000000E+00  0.00000000000E+00  0.57514592857E+02  0.57514592857E+02  0.00000000000E+00 0. -1.
         -3   -1    0    0    0  501 -0.00000000000E+00 -0.00000000000E+00 -0.27939489465E+03  0.27939489465E+03  0.00000000000E+00 0.  1.
          5    1    1    2  502    0  0.46262714319E+02  0.20720124043E+01  0.18974720752E+02  0.50265912895E+02  0.47000000000E+01 0. -1.
         -5    1    1    2    0  502 -0.15720658823E+02 -0.46399540143E+02 -0.91624219687E+02  0.10400550020E+03  0.47000000000E+01 0. -1.
        -11    1    1    2    0    0 -0.91827927780E+01  0.26578980633E+02  0.26444946005E+01  0.28244632170E+02  0.00000000000E+00 0. -1.
         11    1    1    2    0    0 -0.21359262718E+02  0.17748547106E+02 -0.15187529746E+03  0.15439344224E+03  0.00000000000E+00 0.  1.
<mgrwt>
<rscale>  0 0.12763842E+03</rscale>
<asrwt>0</asrwt>
<pdfrwt beam="1">  1        3 0.88483990E-02 0.13609452E+03</pdfrwt>
<pdfrwt beam="2">  1       -3 0.42983829E-01 0.13609452E+03</pdfrwt>
<totfact> 0.11241115E+03</totfact>
</mgrwt>
</event>
<event>
 6    1  0.5258538E-006  0.1327041E+03  0.7546771E-02  0.1235859E+00
         -2   -1    0    0    0  501 -0.00000000000E+00  0.00000000000E+00  0.23056040249E+02  0.23056040249E+02  0.00000000000E+00 0.  1.
          2   -1    0    0  501    0  0.00000000000E+00 -0.00000000000E+00 -0.60176888339E+03  0.60176888339E+03  0.00000000000E+00 0. -1.
          5    1    1    2  502    0  0.48989603421E+01  0.68075506519E+02 -0.17447189491E+03  0.18740546020E+03  0.47000000000E+01 0. -1.
         -5    1    1    2    0  502 -0.43797273554E+02 -0.46505388124E+02 -0.14352222757E+03  0.15716765603E+03  0.47000000000E+01 0. -1.
        -11    1    1    2    0    0  0.51067307677E+02  0.23377614789E+02 -0.14749404687E+03  0.15782546261E+03  0.00000000000E+00 0. -1.
         11    1    1    2    0    0 -0.12168994466E+02 -0.44947733185E+02 -0.11322467379E+03  0.12242634479E+03  0.00000000000E+00 0.  1.
<mgrwt>
<rscale>  0 0.12449624E+03</rscale>
<asrwt>0</asrwt>
<pdfrwt beam="2">  1        2 0.92579814E-01 0.13270407E+03</pdfrwt>
<pdfrwt beam="1">  1       -2 0.35470837E-02 0.13270407E+03</pdfrwt>
<totfact> 0.15671009E+04</totfact>
</mgrwt>
</event>
<event>
 6    1  0.5258538E-006  0.1396456E+03  0.7546771E-02  0.1224820E+00
          2   -1    0    0  501    0  0.00000000000E+00  0.00000000000E+00  0.10784287659E+03  0.10784287659E+03  0.00000000000E+00 0. -1.
         -2   -1    0    0    0  501 -0.00000000000E+00 -0.00000000000E+00 -0.17345339213E+03  0.17345339213E+03  0.00000000000E+00 0.  1.
          5    1    1    2  502    0 -0.59582952110E+02 -0.68203597785E+02  0.38045220535E+02  0.98343213993E+02  0.47000000000E+01 0. -1.
         -5    1    1    2    0  502  0.49771961325E+01  0.38301000917E+02 -0.17757067278E+02  0.42768476602E+02  0.47000000000E+01 0. -1.
        -11    1    1    2    0    0 -0.19306827465E+02  0.31383295426E+02 -0.29474012746E+02  0.47184555163E+02  0.00000000000E+00 0.  1.
         11    1    1    2    0    0  0.73912583443E+02 -0.14806985581E+01 -0.56424656052E+02  0.93000022957E+02  0.00000000000E+00 0. -1.
<mgrwt>
<rscale>  0 0.13179227E+03</rscale>
<asrwt>0</asrwt>
<pdfrwt beam="1">  1        2 0.16591212E-01 0.13964562E+03</pdfrwt>
<pdfrwt beam="2">  1       -2 0.26685137E-01 0.13964562E+03</pdfrwt>
<totfact> 0.41884459E+03</totfact>
</mgrwt>
</event>
<event>
 6    1  0.5258538E-006  0.4125916E+03  0.7546771E-02  0.1039505E+00
         -2   -1    0    0    0  501 -0.00000000000E+00  0.00000000000E+00  0.14477783719E+03  0.14477783719E+03  0.00000000000E+00 0.  1.
          2   -1    0    0  501    0  0.00000000000E+00 -0.00000000000E+00 -0.29395350595E+03  0.29395350595E+03  0.00000000000E+00 0. -1.
          5    1    1    2  502    0 -0.95644911644E+02 -0.91853007156E+02 -0.13373978784E+03  0.18839677518E+03  0.47000000000E+01 0. -1.
         -5    1    1    2    0  502 -0.38599902845E+02  0.42104565432E+02 -0.53769689667E+02  0.78587635521E+02  0.47000000000E+01 0. -1.
        -11    1    1    2    0    0  0.79234836575E+02  0.38422229290E+00  0.54395569327E+02  0.96110274770E+02  0.00000000000E+00 0.  1.
         11    1    1    2    0    0  0.55009977914E+02  0.49364219431E+02 -0.16061760580E+02  0.75636657667E+02  0.00000000000E+00 0. -1.
<mgrwt>
<rscale>  0 0.41259158E+03</rscale>
<asrwt>0</asrwt>
<pdfrwt beam="2">  1        2 0.45223616E-01 0.41259158E+03</pdfrwt>
<pdfrwt beam="1">  1       -2 0.22273514E-01 0.41259158E+03</pdfrwt>
<totfact> 0.19618013E+03</totfact>
</mgrwt>
</event>
<event>
 6    1  0.5258538E-006  0.1324097E+03  0.7546771E-02  0.1235515E+00
         -1   -1    0    0    0  501 -0.00000000000E+00  0.00000000000E+00  0.41783136056E+03  0.41783136056E+03  0.00000000000E+00 0.  1.
          1   -1    0    0  501    0  0.00000000000E+00 -0.00000000000E+00 -0.36128671870E+02  0.36128671870E+02  0.00000000000E+00 0. -1.
          5    1    1    2  502    0 -0.29059765065E+02 -0.31908432606E+02 -0.30419499800E+01  0.43519667699E+02  0.47000000000E+01 0. -1.
         -5    1    1    2    0  502 -0.14423534617E+02  0.27911487931E+02  0.15416693112E+03  0.15740591526E+03  0.47000000000E+01 0. -1.
        -11    1    1    2    0    0  0.50218928340E+02 -0.23468260996E+02  0.21217103582E+03  0.21929260926E+03  0.00000000000E+00 0.  1.
         11    1    1    2    0    0 -0.67356286582E+01  0.27465205671E+02  0.18406671731E+02  0.33741840201E+02  0.00000000000E+00 0. -1.
<mgrwt>
<rscale>  0 0.12471548E+03</rscale>
<asrwt>0</asrwt>
<pdfrwt beam="2">  1        1 0.55582575E-02 0.13240970E+03</pdfrwt>
<pdfrwt beam="1">  1       -1 0.64281744E-01 0.13240970E+03</pdfrwt>
<totfact> 0.35018869E+03</totfact>
</mgrwt>
</event>
<event>
 6    1  0.5258538E-006  0.1265017E+03  0.7546771E-02  0.1252337E+00
         -1   -1    0    0    0  501 -0.00000000000E+00  0.00000000000E+00  0.13289164101E+03  0.13289164101E+03  0.00000000000E+00 0.  1.
          1   -1    0    0  501    0  0.00000000000E+00 -0.00000000000E+00 -0.99314840167E+02  0.99314840167E+02  0.00000000000E+00 0. -1.
          5    1    1    2  502    0 -0.13826673900E+02 -0.48021252799E+02 -0.41677753595E+02  0.65240652788E+02  0.47000000000E+01 0. -1.
         -5    1    1    2    0  502  0.32907620891E+02  0.51681777955E+02  0.16755572355E+02  0.63692675326E+02  0.47000000000E+01 0. -1.
        -11    1    1    2    0    0 -0.42387261755E+02 -0.15048951881E+02  0.68795503862E+01  0.45502517791E+02  0.00000000000E+00 0.  1.
         11    1    1    2    0    0  0.23306314764E+02  0.11388426725E+02  0.51619431698E+02  0.57770635274E+02  0.00000000000E+00 0. -1.
<mgrwt>
<rscale>  0 0.11456811E+03</rscale>
<asrwt>0</asrwt>
<pdfrwt beam="2">  1        1 0.15279206E-01 0.12650173E+03</pdfrwt>
<pdfrwt beam="1">  1       -1 0.20444868E-01 0.12650173E+03</pdfrwt>
<totfact> 0.66711056E+03</totfact>
</mgrwt>
</event>
<event>
 6    1  0.5258538E-006  0.1489474E+03  0.7546771E-02  0.1212839E+00
         -2   -1    0    0    0  501 -0.00000000000E+00  0.00000000000E+00  0.16543224657E+02  0.16543224657E+02  0.00000000000E+00 0. -1.
          2   -1    0    0  501    0  0.00000000000E+00 -0.00000000000E+00 -0.14324097257E+04  0.14324097257E+04  0.00000000000E+00 0.  1.
          5    1    1    2  502    0 -0.22456160498E+02  0.84325114401E+01 -0.68809359676E+03  0.68852761332E+03  0.47000000000E+01 0.  1.
         -5    1    1    2    0  502  0.18879961975E+02 -0.89346530816E+02 -0.44365438440E+03  0.45297964449E+03  0.47000000000E+01 0.  1.
        -11    1    1    2    0    0  0.23220383623E+02 -0.12265570504E+01 -0.21827334638E+02  0.31892368918E+02  0.00000000000E+00 0. -1.
         11    1    1    2    0    0 -0.19644185100E+02  0.82140576427E+02 -0.26229118521E+03  0.27555332360E+03  0.00000000000E+00 0.  1.
<mgrwt>
<rscale>  0 0.14036463E+03</rscale>
<asrwt>0</asrwt>
<pdfrwt beam="2">  1        2 0.22037073E+00 0.14894740E+03</pdfrwt>
<pdfrwt beam="1">  1       -2 0.25451115E-02 0.14894740E+03</pdfrwt>
<totfact> 0.78771317E+03</totfact>
</mgrwt>
</event>
<event>
 6    1  0.5258538E-006  0.1262305E+03  0.7546771E-02  0.1245252E+00
          3   -1    0    0  501    0  0.00000000000E+00  0.00000000000E+00  0.23583500360E+03  0.23583500360E+03  0.00000000000E+00 0. -1.
         -3   -1    0    0    0  501 -0.00000000000E+00 -0.00000000000E+00 -0.53946680922E+02  0.53946680922E+02  0.00000000000E+00 0.  1.
          5    1    1    2  502    0  0.67070421191E+02 -0.10310770059E+02  0.11407977293E+03  0.13281956923E+03  0.47000000000E+01 0. -1.
         -5    1    1    2    0  502 -0.31318017055E+02  0.18185890961E+02 -0.11736439625E+01  0.36537819618E+02  0.47000000000E+01 0.  1.
        -11    1    1    2    0    0 -0.24535978158E+02 -0.18235370916E+02 -0.15707200110E+02  0.34369450271E+02  0.00000000000E+00 0.  1.
         11    1    1    2    0    0 -0.11216425978E+02  0.10360250015E+02  0.84689393818E+02  0.86054845403E+02  0.00000000000E+00 0. -1.
<mgrwt>
<rscale>  0 0.11870318E+03</rscale>
<asrwt>0</asrwt>
<pdfrwt beam="1">  1        3 0.36282308E-01 0.12623047E+03</pdfrwt>
<pdfrwt beam="2">  1       -3 0.82994895E-02 0.12623047E+03</pdfrwt>
<totfact> 0.17070794E+03</totfact>
</mgrwt>
</event>
<event>
 6    1  0.5258538E-006  0.1290996E+03  0.7546771E-02  0.1244431E+00
          2   -1    0    0  501    0  0.00000000000E+00  0.00000000000E+00  0.27572048161E+03  0.27572048161E+03  0.00000000000E+00 0. -1.
         -2   -1    0    0    0  501 -0.00000000000E+00 -0.00000000000E+00 -0.51734622871E+02  0.51734622871E+02  0.00000000000E+00 0.  1.
          5    1    1    2  502    0 -0.59984396525E+02 -0.38978101303E+02  0.16742290542E+03  0.18212616360E+03  0.47000000000E+01 0. -1.
         -5    1    1    2    0  502  0.30854219909E+02  0.25070714036E+02  0.18196925365E+02  0.43974329798E+02  0.47000000000E+01 0. -1.
        -11    1    1    2    0    0  0.52378978948E+02  0.80280515022E+01  0.51601136358E+02  0.73964074523E+02  0.00000000000E+00 0. -1.
         11    1    1    2    0    0 -0.23248802332E+02  0.58793357646E+01 -0.13235108402E+02  0.27390536565E+02  0.00000000000E+00 0.  1.
<mgrwt>
<rscale>  0 0.11919527E+03</rscale>
<asrwt>0</asrwt>
<pdfrwt beam="1">  1        2 0.42418535E-01 0.12909962E+03</pdfrwt>
<pdfrwt beam="2">  1       -2 0.79591729E-02 0.12909962E+03</pdfrwt>
<totfact> 0.10744295E+04</totfact>
</mgrwt>
</event>
<event>
 6    1  0.5258538E-006  0.1451324E+03  0.7546771E-02  0.1216081E+00
          2   -1    0    0  501    0  0.00000000000E+00  0.00000000000E+00  0.59341912972E+03  0.59341912972E+03  0.00000000000E+00 0. -1.
         -2   -1    0    0    0  501 -0.00000000000E+00 -0.00000000000E+00 -0.51607520476E+02  0.51607520476E+02  0.00000000000E+00 0.  1.
          5    1    1    2  502    0  0.56285089205E+01  0.35246806434E+02  0.12818594408E+03  0.13314557348E+03  0.47000000000E+01 0.  1.
         -5    1    1    2    0  502 -0.31355846086E+01 -0.10895390009E+03  0.36968851268E+03  0.38545099642E+03  0.47000000000E+01 0.  1.
        -11    1    1    2    0    0  0.34867831086E+02  0.32785960764E+01  0.28662636819E+02  0.45255514430E+02  0.00000000000E+00 0. -1.
         11    1    1    2    0    0 -0.37360755398E+02  0.70428497575E+02  0.15274515660E+02  0.81174565864E+02  0.00000000000E+00 0.  1.
<mgrwt>
<rscale>  0 0.13797447E+03</rscale>
<asrwt>0</asrwt>
<pdfrwt beam="1">  1        2 0.91295246E-01 0.14513245E+03</pdfrwt>
<pdfrwt beam="2">  1       -2 0.79396189E-02 0.14513245E+03</pdfrwt>
<totfact> 0.47477188E+03</totfact>
</mgrwt>
</event>
<event>
 6    1  0.5258538E-006  0.1304136E+03  0.7546771E-02  0.1240856E+00
         -2   -1    0    0    0  501 -0.00000000000E+00  0.00000000000E+00  0.28920540788E+02  0.28920540788E+02  0.00000000000E+00 0.  1.
          2   -1    0    0  501    0  0.00000000000E+00 -0.00000000000E+00 -0.69490058358E+03  0.69490058358E+03  0.00000000000E+00 0. -1.
          5    1    1    2  502    0  0.77091944814E+02 -0.30412010629E+02 -0.40870994524E+03  0.41705391460E+03  0.47000000000E+01 0.  1.
         -5    1    1    2    0  502 -0.43702873251E+02  0.14043041801E+02 -0.16837728615E+03  0.17458564845E+03  0.47000000000E+01 0.  1.
        -11    1    1    2    0    0 -0.52689524292E+02  0.61923372329E+01 -0.14995985765E+02  0.55130849799E+02  0.00000000000E+00 0.  1.
         11    1    1    2    0    0  0.19300452729E+02  0.10176631595E+02 -0.73896825637E+02  0.77050711517E+02  0.00000000000E+00 0. -1.
<mgrwt>
<rscale>  0 0.12136858E+03</rscale>
<asrwt>0</asrwt>
<pdfrwt beam="2">  1        2 0.10690778E+00 0.13041357E+03</pdfrwt>
<pdfrwt beam="1">  1       -2 0.44493141E-02 0.13041357E+03</pdfrwt>
<totfact> 0.94627135E+03</totfact>
</mgrwt>
</event>
<event>
 6    1  0.5258538E-006  0.1404136E+03  0.7546771E-02  0.1224868E+00
         -2   -1    0    0    0  501 -0.00000000000E+00  0.00000000000E+00  0.35837973848E+02  0.35837973848E+02  0.00000000000E+00 0.  1.
          2   -1    0    0  501    0  0.00000000000E+00 -0.00000000000E+00 -0.45959947206E+03  0.45959947206E+03  0.00000000000E+00 0. -1.
          5    1    1    2  502    0  0.42997992958E+02 -0.66575879840E+01 -0.11147397422E+03  0.11975678605E+03  0.47000000000E+01 0.  1.
         -5    1    1    2    0  502 -0.70670574559E+02  0.64323171094E+02 -0.18429187431E+03  0.20764726192E+03  0.47000000000E+01 0.  1.
        -11    1    1    2    0    0 -0.23960508573E+02 -0.37532492716E+02 -0.24980123859E+02  0.51056836649E+02  0.00000000000E+00 0.  1.
         11    1    1    2    0    0  0.51633090173E+02 -0.20133090394E+02 -0.10301552582E+03  0.11697656128E+03  0.00000000000E+00 0. -1.
<mgrwt>
<rscale>  0 0.13175962E+03</rscale>
<asrwt>0</asrwt>
<pdfrwt beam="2">  1        2 0.70707607E-01 0.14041358E+03</pdfrwt>
<pdfrwt beam="1">  1       -2 0.55135348E-02 0.14041358E+03</pdfrwt>
<totfact> 0.10981430E+04</totfact>
</mgrwt>
</event>
<event>
 6    1  0.5258538E-006  0.1377659E+03  0.7546771E-02  0.1230950E+00
          1   -1    0    0  501    0  0.00000000000E+00  0.00000000000E+00  0.24030779817E+03  0.24030779817E+03  0.00000000000E+00 0. -1.
         -1   -1    0    0    0  501 -0.00000000000E+00 -0.00000000000E+00 -0.66344609548E+02  0.66344609548E+02  0.00000000000E+00 0.  1.
          5    1    1    2  502    0 -0.48623448639E+01 -0.43955444696E+02  0.85384333658E+02  0.96271999824E+02  0.47000000000E+01 0.  1.
         -5    1    1    2    0  502  0.60556458188E+02  0.59861064404E+02  0.61724255510E+02  0.10527300403E+03  0.47000000000E+01 0.  1.
        -11    1    1    2    0    0 -0.21008827236E+02 -0.46918679814E+02  0.44223086832E-01  0.51407541208E+02  0.00000000000E+00 0.  1.
         11    1    1    2    0    0 -0.34685286088E+02  0.31013060107E+02  0.26810376369E+02  0.53699862655E+02  0.00000000000E+00 0. -1.
<mgrwt>
<rscale>  0 0.12767327E+03</rscale>
<asrwt>0</asrwt>
<pdfrwt beam="1">  1        1 0.36970430E-01 0.13776593E+03</pdfrwt>
<pdfrwt beam="2">  1       -1 0.10206863E-01 0.13776593E+03</pdfrwt>
<totfact> 0.65333648E+03</totfact>
</mgrwt>
</event>
<event>
 6    1  0.5258538E-006  0.1345933E+03  0.7546771E-02  0.1233938E+00
          1   -1    0    0  501    0  0.00000000000E+00  0.00000000000E+00  0.65128968284E+03  0.65128968284E+03  0.00000000000E+00 0. -1.
         -1   -1    0    0    0  501 -0.00000000000E+00 -0.00000000000E+00 -0.29926876674E+02  0.29926876674E+02  0.00000000000E+00 0.  1.
          5    1    1    2  502    0 -0.38464296127E+02 -0.20329557932E+02  0.17892626012E+03  0.18419959165E+03  0.47000000000E+01 0. -1.
         -5    1    1    2    0  502  0.88359841831E+02  0.20078774255E+02  0.34084344814E+03  0.35271371531E+03  0.47000000000E+01 0. -1.
        -11    1    1    2    0    0 -0.23423190316E+02 -0.74602613586E+01  0.11212468399E+03  0.11478783081E+03  0.00000000000E+00 0. -1.
         11    1    1    2    0    0 -0.26472355388E+02  0.77110450357E+01 -0.10531586084E+02  0.29515421745E+02  0.00000000000E+00 0.  1.
<mgrwt>
<rscale>  0 0.12572682E+03</rscale>
<asrwt>0</asrwt>
<pdfrwt beam="1">  1        1 0.10019840E+00 0.13459327E+03</pdfrwt>
<pdfrwt beam="2">  1       -1 0.46041354E-02 0.13459327E+03</pdfrwt>
<totfact> 0.60167949E+03</totfact>
</mgrwt>
</event>
<event>
 6    1  0.5258538E-006  0.1337626E+03  0.7546771E-02  0.1237860E+00
         -1   -1    0    0    0  501 -0.00000000000E+00  0.00000000000E+00  0.23732736385E+02  0.23732736385E+02  0.00000000000E+00 0.  1.
          1   -1    0    0  501    0  0.00000000000E+00 -0.00000000000E+00 -0.56444544503E+03  0.56444544503E+03  0.00000000000E+00 0. -1.
          5    1    1    2  502    0  0.29100679535E+02 -0.69794798417E+02 -0.26778038686E+03  0.27829227266E+03  0.47000000000E+01 0. -1.
         -5    1    1    2    0  502 -0.24586496850E+02  0.42768800180E+02 -0.77460270695E+02  0.91955693855E+02  0.47000000000E+01 0.  1.
        -11    1    1    2    0    0  0.45542842387E+01  0.60728814794E+02 -0.13518977025E+03  0.14827341107E+03  0.00000000000E+00 0.  1.
         11    1    1    2    0    0 -0.90684669234E+01 -0.33702816557E+02 -0.60282280843E+02  0.69656803831E+02  0.00000000000E+00 0. -1.
<mgrwt>
<rscale>  0 0.12323087E+03</rscale>
<asrwt>0</asrwt>
<pdfrwt beam="2">  1        1 0.86837754E-01 0.13376264E+03</pdfrwt>
<pdfrwt beam="1">  1       -1 0.36511905E-02 0.13376264E+03</pdfrwt>
<totfact> 0.10280325E+04</totfact>
</mgrwt>
</event>
<event>
 6    1  0.5258538E-006  0.1410381E+03  0.7546771E-02  0.1222678E+00
          2   -1    0    0  501    0  0.00000000000E+00  0.00000000000E+00  0.26213202543E+03  0.26213202543E+03  0.00000000000E+00 0. -1.
         -2   -1    0    0    0  501 -0.00000000000E+00 -0.00000000000E+00 -0.63238193709E+02  0.63238193709E+02  0.00000000000E+00 0.  1.
          5    1    1    2  502    0  0.15740918333E+02  0.76196856619E+02  0.10136576873E+03  0.12787042871E+03  0.47000000000E+01 0.  1.
         -5    1    1    2    0  502  0.40453752087E+02 -0.42898843100E+02  0.37376274210E+02  0.69970655786E+02  0.47000000000E+01 0.  1.
        -11    1    1    2    0    0 -0.64033230755E+02 -0.10138846220E+02  0.24682920844E+01  0.64877910797E+02  0.00000000000E+00 0.  1.
         11    1    1    2    0    0  0.78385603344E+01 -0.23159167299E+02  0.57683496704E+02  0.62651223852E+02  0.00000000000E+00 0. -1.
<mgrwt>
<rscale>  0 0.13327357E+03</rscale>
<asrwt>0</asrwt>
<pdfrwt beam="1">  1        2 0.40328003E-01 0.14103808E+03</pdfrwt>
<pdfrwt beam="2">  1       -2 0.97289530E-02 0.14103808E+03</pdfrwt>
<totfact> 0.83502483E+03</totfact>
</mgrwt>
</event>
<event>
 6    1  0.5258538E-006  0.1291623E+03  0.7546771E-02  0.1243232E+00
          1   -1    0    0  501    0  0.00000000000E+00  0.00000000000E+00  0.37569907240E+03  0.37569907240E+03  0.00000000000E+00 0. -1.
         -1   -1    0    0    0  501 -0.00000000000E+00 -0.00000000000E+00 -0.35919258671E+02  0.35919258671E+02  0.00000000000E+00 0.  1.
          5    1    1    2  502    0  0.25194062964E+02  0.60461349946E+02  0.12511421912E+03  0.14130100308E+03  0.47000000000E+01 0.  1.
         -5    1    1    2    0  502  0.72335012481E+01 -0.62899857243E+02  0.11862099313E+03  0.13454272776E+03  0.47000000000E+01 0.  1.
        -11    1    1    2    0    0  0.19405324056E+02 -0.20257190728E+02  0.65988226092E+02  0.71703321825E+02  0.00000000000E+00 0. -1.
         11    1    1    2    0    0 -0.51832888268E+02  0.22695698025E+02  0.30056375386E+02  0.64071278404E+02  0.00000000000E+00 0.  1.
<mgrwt>
<rscale>  0 0.11991829E+03</rscale>
<asrwt>0</asrwt>
<pdfrwt beam="1">  1        1 0.57799855E-01 0.12916234E+03</pdfrwt>
<pdfrwt beam="2">  1       -1 0.55260400E-02 0.12916234E+03</pdfrwt>
<totfact> 0.94061744E+03</totfact>
</mgrwt>
</event>
<event>
 6    1  0.5258538E-006  0.1688087E+03  0.7546771E-02  0.1204494E+00
         -1   -1    0    0    0  501 -0.00000000000E+00  0.00000000000E+00  0.69914999115E+02  0.69914999115E+02  0.00000000000E+00 0.  1.
          1   -1    0    0  501    0  0.00000000000E+00 -0.00000000000E+00 -0.25631396233E+03  0.25631396233E+03  0.00000000000E+00 0. -1.
          5    1    1    2  502    0  0.56649658373E+02 -0.79015282355E+01 -0.16864530110E+03  0.17814304793E+03  0.47000000000E+01 0. -1.
         -5    1    1    2    0  502 -0.27616371676E+02 -0.41677690362E+01  0.29298402035E+02  0.40749486439E+02  0.47000000000E+01 0.  1.
        -11    1    1    2    0    0  0.25943950031E+02 -0.19710644058E+02 -0.11449683288E+02  0.34535391699E+02  0.00000000000E+00 0. -1.
         11    1    1    2    0    0 -0.54977236728E+02  0.31779941330E+02 -0.35602380864E+02  0.72801035380E+02  0.00000000000E+00 0.  1.
<mgrwt>
<rscale>  0 0.14677382E+03</rscale>
<asrwt>0</asrwt>
<pdfrwt beam="2">  1        1 0.39432917E-01 0.16880872E+03</pdfrwt>
<pdfrwt beam="1">  1       -1 0.10756154E-01 0.16880872E+03</pdfrwt>
<totfact> 0.56340285E+03</totfact>
</mgrwt>
</event>
<event>
 6    1  0.5258538E-006  0.1356938E+03  0.7546771E-02  0.1229431E+00
         -3   -1    0    0    0  501 -0.00000000000E+00  0.00000000000E+00  0.29492795529E+03  0.29492795529E+03  0.00000000000E+00 0.  1.
          3   -1    0    0  501    0  0.00000000000E+00 -0.00000000000E+00 -0.53294788035E+02  0.53294788035E+02  0.00000000000E+00 0. -1.
          5    1    1    2  502    0 -0.37922944432E+02 -0.69934880789E+02  0.62208144281E+02  0.10109886488E+03  0.47000000000E+01 0. -1.
         -5    1    1    2    0  502 -0.12461173090E+02  0.54152166298E+02  0.35372905196E+02  0.66038400735E+02  0.47000000000E+01 0. -1.
        -11    1    1    2    0    0  0.58987148290E+02 -0.27847955705E+02  0.83564399191E+02  0.10600943879E+03  0.00000000000E+00 0.  1.
         11    1    1    2    0    0 -0.86030307686E+01  0.43630670195E+02  0.60487718589E+02  0.75076038922E+02  0.00000000000E+00 0. -1.
<mgrwt>
<rscale>  0 0.12867747E+03</rscale>
<asrwt>0</asrwt>
<pdfrwt beam="2">  1        3 0.81991984E-02 0.13569379E+03</pdfrwt>
<pdfrwt beam="1">  1       -3 0.45373530E-01 0.13569379E+03</pdfrwt>
<totfact> 0.11447005E+03</totfact>
</mgrwt>
</event>
<event>
 6    1  0.5258538E-006  0.1267824E+03  0.7546771E-02  0.1246423E+00
         -3   -1    0    0    0  501 -0.00000000000E+00  0.00000000000E+00  0.26349225963E+03  0.26349225963E+03  0.00000000000E+00 0.  1.
          3   -1    0    0  501    0  0.00000000000E+00 -0.00000000000E+00 -0.50705518142E+02  0.50705518142E+02  0.00000000000E+00 0. -1.
          5    1    1    2  502    0 -0.48024810723E+02  0.47840403977E+01  0.62996574438E+02  0.79497974053E+02  0.47000000000E+01 0. -1.
         -5    1    1    2    0  502  0.67020101349E+02  0.45383049517E+01  0.13823470877E+02  0.68742043494E+02  0.47000000000E+01 0. -1.
        -11    1    1    2    0    0 -0.35069931755E+02  0.17695520765E+02  0.12747913662E+03  0.13339400976E+03  0.00000000000E+00 0.  1.
         11    1    1    2    0    0  0.16074641129E+02 -0.27017866115E+02  0.84875595552E+01  0.32563750460E+02  0.00000000000E+00 0. -1.
<mgrwt>
<rscale>  0 0.11800640E+03</rscale>
<asrwt>0</asrwt>
<pdfrwt beam="2">  1        3 0.78008491E-02 0.12678243E+03</pdfrwt>
<pdfrwt beam="1">  1       -3 0.40537270E-01 0.12678243E+03</pdfrwt>
<totfact> 0.15280861E+03</totfact>
</mgrwt>
</event>
<event>
 6    1  0.5258538E-006  0.2209684E+03  0.7546771E-02  0.1136171E+00
         -4   -1    0    0    0  501 -0.00000000000E+00  0.00000000000E+00  0.14677143285E+03  0.14677143285E+03  0.00000000000E+00 0. -1.
          4   -1    0    0  501    0  0.00000000000E+00 -0.00000000000E+00 -0.32993085445E+03  0.32993085445E+03  0.00000000000E+00 0.  1.
          5    1    1    2  502    0 -0.80914226603E+02 -0.22978038590E+02 -0.14186257410E+03  0.16499146116E+03  0.47000000000E+01 0. -1.
         -5    1    1    2    0  502 -0.75066131060E+02 -0.71214835669E+02 -0.12007595346E+02  0.10427247574E+03  0.47000000000E+01 0. -1.
        -11    1    1    2    0    0  0.99655971007E+02  0.12518394355E+02  0.95545864887E+01  0.10089258088E+03  0.00000000000E+00 0. -1.
         11    1    1    2    0    0  0.56324386656E+02  0.81674479903E+02 -0.38843838644E+02  0.10654576951E+03  0.00000000000E+00 0.  1.
<mgrwt>
<rscale>  0 0.21695852E+03</rscale>
<asrwt>0</asrwt>
<pdfrwt beam="2">  1        4 0.50758592E-01 0.22096841E+03</pdfrwt>
<pdfrwt beam="1">  1       -4 0.22580221E-01 0.22096841E+03</pdfrwt>
<totfact> 0.12249439E+02</totfact>
</mgrwt>
</event>
<event>
 6    1  0.5258538E-006  0.2669213E+03  0.7546771E-02  0.1103055E+00
         -2   -1    0    0    0  501 -0.00000000000E+00  0.00000000000E+00  0.39740208424E+02  0.39740208424E+02  0.00000000000E+00 0. -1.
          2   -1    0    0  501    0  0.00000000000E+00 -0.00000000000E+00 -0.44820450153E+03  0.44820450153E+03  0.00000000000E+00 0.  1.
          5    1    1    2  502    0  0.20774898573E+01 -0.36059025883E+02 -0.13798986873E+03  0.14271602287E+03  0.47000000000E+01 0.  1.
         -5    1    1    2    0  502  0.30586905764E+02  0.92172770601E+02 -0.16728860061E+03  0.19349145805E+03  0.47000000000E+01 0.  1.
        -11    1    1    2    0    0 -0.41340705740E+02 -0.20198678355E+02 -0.43447252199E+01  0.46215984200E+02  0.00000000000E+00 0. -1.
         11    1    1    2    0    0  0.86763101195E+01 -0.35915066364E+02 -0.98841098540E+02  0.10552124483E+03  0.00000000000E+00 0.  1.
<mgrwt>
<rscale>  0 0.26692126E+03</rscale>
<asrwt>0</asrwt>
<pdfrwt beam="2">  1        2 0.68954540E-01 0.26692126E+03</pdfrwt>
<pdfrwt beam="1">  1       -2 0.61138781E-02 0.26692126E+03</pdfrwt>
<totfact> 0.10038285E+04</totfact>
</mgrwt>
</event>
<event>
 6    1  0.5258538E-006  0.3646279E+03  0.7546771E-02  0.1056766E+00
          1   -1    0    0  501    0  0.00000000000E+00  0.00000000000E+00  0.43325200391E+03  0.43325200391E+03  0.00000000000E+00 0. -1.
         -1   -1    0    0    0  501 -0.00000000000E+00 -0.00000000000E+00 -0.76718357848E+02  0.76718357848E+02  0.00000000000E+00 0.  1.
          5    1    1    2  502    0  0.89376945436E+02  0.96749064090E+02  0.17831411459E+03  0.22173550288E+03  0.47000000000E+01 0.  1.
         -5    1    1    2    0  502 -0.42730876499E+02  0.32112305748E+02  0.79645595746E+02  0.96034571424E+02  0.47000000000E+01 0.  1.
        -11    1    1    2    0    0  0.19390592629E+02 -0.79811906867E+02  0.57463440912E+02  0.10023962590E+03  0.00000000000E+00 0. -1.
         11    1    1    2    0    0 -0.66036661566E+02 -0.49049462971E+02  0.41110494822E+02  0.91960661552E+02  0.00000000000E+00 0.  1.
<mgrwt>
<rscale>  0 0.36462793E+03</rscale>
<asrwt>0</asrwt>
<pdfrwt beam="1">  1        1 0.66654153E-01 0.36462793E+03</pdfrwt>
<pdfrwt beam="2">  1       -1 0.11802825E-01 0.36462793E+03</pdfrwt>
<totfact> 0.25765808E+03</totfact>
</mgrwt>
</event>
<event>
 6    1  0.5258538E-006  0.1284014E+03  0.7546771E-02  0.1236849E+00
          1   -1    0    0  501    0  0.00000000000E+00  0.00000000000E+00  0.94999521615E+02  0.94999521615E+02  0.00000000000E+00 0. -1.
         -1   -1    0    0    0  501 -0.00000000000E+00 -0.00000000000E+00 -0.17701578958E+03  0.17701578958E+03  0.00000000000E+00 0.  1.
          5    1    1    2  502    0  0.15820259279E+02 -0.66376507133E+02  0.16382058187E+02  0.70331949591E+02  0.47000000000E+01 0. -1.
         -5    1    1    2    0  502  0.43263319836E+02  0.38039353671E+02 -0.79610239202E+01  0.58345309775E+02  0.47000000000E+01 0.  1.
        -11    1    1    2    0    0 -0.58160071922E+02  0.60042439912E+01 -0.10245162147E+03  0.11796177200E+03  0.00000000000E+00 0.  1.
         11    1    1    2    0    0 -0.92350719328E+00  0.22332909472E+02  0.12014319240E+02  0.25376279826E+02  0.00000000000E+00 0. -1.
<mgrwt>
<rscale>  0 0.12386823E+03</rscale>
<asrwt>0</asrwt>
<pdfrwt beam="1">  1        1 0.14615311E-01 0.12840141E+03</pdfrwt>
<pdfrwt beam="2">  1       -1 0.27233198E-01 0.12840141E+03</pdfrwt>
<totfact> 0.44318560E+03</totfact>
</mgrwt>
</event>
<event>
 6    1  0.5258538E-006  0.1620002E+03  0.7546771E-02  0.1274165E+00
          2   -1    0    0  501    0  0.00000000000E+00  0.00000000000E+00  0.36761412188E+03  0.36761412188E+03  0.00000000000E+00 0.  1.
         -2   -1    0    0    0  501 -0.00000000000E+00 -0.00000000000E+00 -0.29178355564E+02  0.29178355564E+02  0.00000000000E+00 0. -1.
          5    1    1    2  502    0 -0.38373611262E+02 -0.20715329983E+02  0.33806648689E+03  0.34089983646E+03  0.47000000000E+01 0.  1.
         -5    1    1    2    0  502  0.15867684690E+02  0.22751384399E+02 -0.58275006222E+01  0.28730796595E+02  0.47000000000E+01 0. -1.
        -11    1    1    2    0    0  0.11410555982E+02  0.56900681222E+01  0.45660029792E+01  0.13543487227E+02  0.00000000000E+00 0. -1.
         11    1    1    2    0    0  0.11095370590E+02 -0.77261225381E+01  0.16307770676E+01  0.13618357164E+02  0.00000000000E+00 0.  1.
<mgrwt>
<rscale>  0 0.10297331E+03</rscale>
<asrwt>0</asrwt>
<pdfrwt beam="1">  1        2 0.56556015E-01 0.16200019E+03</pdfrwt>
<pdfrwt beam="2">  1       -2 0.44889780E-02 0.16200019E+03</pdfrwt>
<totfact> 0.19243291E+04</totfact>
</mgrwt>
</event>
<event>
 6    1  0.5258538E-006  0.1274540E+03  0.7546771E-02  0.1245694E+00
          1   -1    0    0  501    0  0.00000000000E+00  0.00000000000E+00  0.25923287321E+03  0.25923287321E+03  0.00000000000E+00 0. -1.
         -1   -1    0    0    0  501 -0.00000000000E+00 -0.00000000000E+00 -0.54818406683E+02  0.54818406683E+02  0.00000000000E+00 0.  1.
          5    1    1    2  502    0 -0.32329351854E+02 -0.50852486483E+02  0.12410101717E+03  0.13803736754E+03  0.47000000000E+01 0. -1.
         -5    1    1    2    0  502  0.84922999202E+01  0.58039084967E+02  0.46966368170E+02  0.75290001201E+02  0.47000000000E+01 0. -1.
        -11    1    1    2    0    0  0.48092418953E+02 -0.19984723111E+02  0.46943411786E+02  0.70113863313E+02  0.00000000000E+00 0. -1.
         11    1    1    2    0    0 -0.24255367019E+02  0.12798124627E+02 -0.13596330602E+02  0.30610047844E+02  0.00000000000E+00 0.  1.
<mgrwt>
<rscale>  0 0.11843927E+03</rscale>
<asrwt>0</asrwt>
<pdfrwt beam="1">  1        1 0.39881980E-01 0.12745398E+03</pdfrwt>
<pdfrwt beam="2">  1       -1 0.84336012E-02 0.12745398E+03</pdfrwt>
<totfact> 0.79073107E+03</totfact>
</mgrwt>
</event>
<event>
 6    1  0.5258538E-006  0.3093912E+03  0.7546771E-02  0.1080638E+00
          1   -1    0    0  501    0  0.00000000000E+00  0.00000000000E+00  0.84180651218E+03  0.84180651218E+03  0.00000000000E+00 0. -1.
         -1   -1    0    0    0  501 -0.00000000000E+00 -0.00000000000E+00 -0.28427832679E+02  0.28427832679E+02  0.00000000000E+00 0.  1.
          5    1    1    2  502    0 -0.31141479652E+02 -0.10212180136E+03  0.60636900651E+03  0.61571431372E+03  0.47000000000E+01 0.  1.
         -5    1    1    2    0  502  0.58675197774E+01  0.13886669429E+02  0.75604805238E+01  0.17507662377E+02  0.47000000000E+01 0.  1.
        -11    1    1    2    0    0  0.55803373590E+02  0.51401761425E+02  0.90991218096E+02  0.11847176605E+03  0.00000000000E+00 0. -1.
         11    1    1    2    0    0 -0.30529413716E+02  0.36833370505E+02  0.10845797437E+03  0.11854060270E+03  0.00000000000E+00 0.  1.
<mgrwt>
<rscale>  0 0.30939124E+03</rscale>
<asrwt>0</asrwt>
<pdfrwt beam="1">  1        1 0.12950868E+00 0.30939124E+03</pdfrwt>
<pdfrwt beam="2">  1       -1 0.43735134E-02 0.30939124E+03</pdfrwt>
<totfact> 0.45843757E+03</totfact>
</mgrwt>
</event>
<event>
 6    1  0.5258538E-006  0.1540901E+03  0.7546771E-02  0.1204482E+00
          1   -1    0    0  501    0  0.00000000000E+00  0.00000000000E+00  0.25196966834E+03  0.25196966834E+03  0.00000000000E+00 0. -1.
         -1   -1    0    0    0  501 -0.00000000000E+00 -0.00000000000E+00 -0.78665286839E+02  0.78665286839E+02  0.00000000000E+00 0.  1.
          5    1    1    2  502    0 -0.37666828989E+02  0.86840899318E+01  0.29849866107E+02  0.49064324419E+02  0.47000000000E+01 0. -1.
         -5    1    1    2    0  502  0.65716832360E+02 -0.94306988442E+02  0.75969467196E+02  0.13786210527E+03  0.47000000000E+01 0. -1.
        -11    1    1    2    0    0 -0.98631947161E+01 -0.11213448434E+02 -0.10328581206E+02  0.18157742853E+02  0.00000000000E+00 0.  1.
         11    1    1    2    0    0 -0.18186808655E+02  0.96836346944E+02  0.77813629399E+02  0.12555078263E+03  0.00000000000E+00 0. -1.
<mgrwt>
<rscale>  0 0.14678350E+03</rscale>
<asrwt>0</asrwt>
<pdfrwt beam="1">  1        1 0.38764564E-01 0.15409010E+03</pdfrwt>
<pdfrwt beam="2">  1       -1 0.12102352E-01 0.15409010E+03</pdfrwt>
<totfact> 0.47724076E+03</totfact>
</mgrwt>
</event>
<event>
 6    1  0.5258538E-006  0.3042719E+03  0.7546771E-02  0.1084503E+00
         -2   -1    0    0    0  501 -0.00000000000E+00  0.00000000000E+00  0.32284999721E+03  0.32284999721E+03  0.00000000000E+00 0.  1.
          2   -1    0    0  501    0  0.00000000000E+00 -0.00000000000E+00 -0.27808681716E+03  0.27808681716E+03  0.00000000000E+00 0. -1.
          5    1    1    2  502    0 -0.16772721536E+03  0.21829859763E+03  0.18064066951E+02  0.27592589044E+03  0.47000000000E+01 0.  1.
         -5    1    1    2    0  502 -0.12841779341E+02 -0.77019284711E+01  0.27604393326E+02  0.31754110438E+02  0.47000000000E+01 0.  1.
        -11    1    1    2    0    0  0.12967604320E+03 -0.11579129201E+03  0.39567755962E+02  0.17829499936E+03  0.00000000000E+00 0.  1.
         11    1    1    2    0    0  0.50892951504E+02 -0.94805377148E+02 -0.40473036196E+02  0.11496181413E+03  0.00000000000E+00 0. -1.
<mgrwt>
<rscale>  0 0.30147956E+03</rscale>
<asrwt>0</asrwt>
<pdfrwt beam="2">  1        2 0.42782587E-01 0.30427188E+03</pdfrwt>
<pdfrwt beam="1">  1       -2 0.49669230E-01 0.30427188E+03</pdfrwt>
<totfact> 0.46418695E+02</totfact>
</mgrwt>
</event>
<event>
 6    1  0.5258538E-006  0.1281425E+03  0.7546771E-02  0.1244346E+00
         -1   -1    0    0    0  501 -0.00000000000E+00  0.00000000000E+00  0.27089350332E+02  0.27089350332E+02  0.00000000000E+00 0.  1.
          1   -1    0    0  501    0  0.00000000000E+00 -0.00000000000E+00 -0.47627579539E+03  0.47627579539E+03  0.00000000000E+00 0. -1.
          5    1    1    2  502    0  0.32251657943E+02 -0.29229517339E+02 -0.19307275349E+03  0.19797401916E+03  0.47000000000E+01 0. -1.
         -5    1    1    2    0  502 -0.59250396899E+02  0.37244486678E+02 -0.10272840080E+03  0.12439041623E+03  0.47000000000E+01 0. -1.
        -11    1    1    2    0    0  0.56708475606E+02  0.10490306776E+02 -0.11740273674E+03  0.13080252419E+03  0.00000000000E+00 0.  1.
         11    1    1    2    0    0 -0.29709736649E+02 -0.18505276115E+02 -0.35982554028E+02  0.50198186125E+02  0.00000000000E+00 0. -1.
<mgrwt>
<rscale>  0 0.11924630E+03</rscale>
<asrwt>0</asrwt>
<pdfrwt beam="2">  1        1 0.73273195E-01 0.12814252E+03</pdfrwt>
<pdfrwt beam="1">  1       -1 0.41675926E-02 0.12814252E+03</pdfrwt>
<totfact> 0.10550961E+04</totfact>
</mgrwt>
</event>
<event>
 6    1  0.5258538E-006  0.1417686E+03  0.7546771E-02  0.1223063E+00
          3   -1    0    0  501    0  0.00000000000E+00  0.00000000000E+00  0.66179836658E+03  0.66179836658E+03  0.00000000000E+00 0. -1.
         -3   -1    0    0    0  501 -0.00000000000E+00 -0.00000000000E+00 -0.24166260628E+02  0.24166260628E+02  0.00000000000E+00 0.  1.
          5    1    1    2  502    0 -0.39366558870E+02 -0.79179554875E+02  0.22254351780E+03  0.23951374737E+03  0.47000000000E+01 0. -1.
         -5    1    1    2    0  502 -0.19713649674E+02  0.48085450454E+02  0.17110316225E+03  0.17888325987E+03  0.47000000000E+01 0. -1.
        -11    1    1    2    0    0  0.80222204025E+02  0.24968267349E+02  0.21728974659E+03  0.23296748779E+03  0.00000000000E+00 0.  1.
         11    1    1    2    0    0 -0.21141995481E+02  0.61258370716E+01  0.26695679314E+02  0.34600132178E+02  0.00000000000E+00 0. -1.
<mgrwt>
<rscale>  0 0.13300547E+03</rscale>
<asrwt>0</asrwt>
<pdfrwt beam="1">  1        3 0.10181512E+00 0.14176864E+03</pdfrwt>
<pdfrwt beam="2">  1       -3 0.37178868E-02 0.14176864E+03</pdfrwt>
<totfact> 0.73839235E+02</totfact>
</mgrwt>
</event>
<event>
 6    1  0.5258538E-006  0.1250051E+03  0.7546771E-02  0.1249760E+00
         -2   -1    0    0    0  501 -0.00000000000E+00  0.00000000000E+00  0.21504599561E+02  0.21504599561E+02  0.00000000000E+00 0.  1.
          2   -1    0    0  501    0  0.00000000000E+00 -0.00000000000E+00 -0.63992718804E+03  0.63992718804E+03  0.00000000000E+00 0. -1.
          5    1    1    2  502    0  0.28437171500E+01  0.60838130612E+02 -0.17690066753E+03  0.18715047699E+03  0.47000000000E+01 0.  1.
         -5    1    1    2    0  502 -0.30449532053E+01 -0.59785935939E+02 -0.29325470799E+03  0.29933934528E+03  0.47000000000E+01 0.  1.
        -11    1    1    2    0    0 -0.12014372058E+02  0.29027700928E+02 -0.13703218593E+03  0.14058724174E+03  0.00000000000E+00 0. -1.
         11    1    1    2    0    0  0.12215608113E+02 -0.30079895601E+02 -0.11235027021E+02  0.34354723593E+02  0.00000000000E+00 0.  1.
<mgrwt>
<rscale>  0 0.11604963E+03</rscale>
<asrwt>0</asrwt>
<pdfrwt beam="2">  1        2 0.98450330E-01 0.12500508E+03</pdfrwt>
<pdfrwt beam="1">  1       -2 0.33084001E-02 0.12500508E+03</pdfrwt>
<totfact> 0.16109238E+04</totfact>
</mgrwt>
</event>
<event>
 6    1  0.5258538E-006  0.1528283E+03  0.7546771E-02  0.1205575E+00
          1   -1    0    0  501    0  0.00000000000E+00  0.00000000000E+00  0.27286639072E+03  0.27286639072E+03  0.00000000000E+00 0.  1.
         -1   -1    0    0    0  501 -0.00000000000E+00 -0.00000000000E+00 -0.13901940627E+03  0.13901940627E+03  0.00000000000E+00 0. -1.
          5    1    1    2  502    0 -0.37229969997E+02  0.18573868981E+02  0.16119237186E+03  0.16654167653E+03  0.47000000000E+01 0. -1.
         -5    1    1    2    0  502  0.40454459537E+02  0.69294987225E+02  0.51855689175E+02  0.95652815174E+02  0.47000000000E+01 0. -1.
        -11    1    1    2    0    0  0.17467387633E+01  0.18986761056E+02 -0.56951194164E+01  0.19899310965E+02  0.00000000000E+00 0.  1.
         11    1    1    2    0    0 -0.49712283037E+01 -0.10685561726E+03 -0.73505957172E+02  0.12979199433E+03  0.00000000000E+00 0. -1.
<mgrwt>
<rscale>  0 0.14592267E+03</rscale>
<asrwt>0</asrwt>
<pdfrwt beam="1">  1        1 0.41979445E-01 0.15282825E+03</pdfrwt>
<pdfrwt beam="2">  1       -1 0.21387601E-01 0.15282825E+03</pdfrwt>
<totfact> 0.17558359E+03</totfact>
</mgrwt>
</event>
<event>
 6    1  0.5258538E-006  0.1691525E+03  0.7546771E-02  0.1185128E+00
          2   -1    0    0  501    0  0.00000000000E+00  0.00000000000E+00  0.65255780300E+03  0.65255780300E+03  0.00000000000E+00 0. -1.
         -2   -1    0    0    0  501 -0.00000000000E+00 -0.00000000000E+00 -0.40387541556E+02  0.40387541556E+02  0.00000000000E+00 0.  1.
          5    1    1    2  502    0  0.31022866868E+02  0.82228857297E+02  0.34408021931E+03  0.35515812051E+03  0.47000000000E+01 0. -1.
         -5    1    1    2    0  502  0.57085378831E+02 -0.99501948333E+01  0.63310278210E+02  0.85953639716E+02  0.47000000000E+01 0. -1.
        -11    1    1    2    0    0 -0.94960578545E+01 -0.63394017756E+02  0.65460079817E+02  0.91618768010E+02  0.00000000000E+00 0.  1.
         11    1    1    2    0    0 -0.78612187844E+02 -0.88846447072E+01  0.13931968410E+03  0.16021481632E+03  0.00000000000E+00 0. -1.
<mgrwt>
<rscale>  0 0.16320248E+03</rscale>
<asrwt>0</asrwt>
<pdfrwt beam="1">  1        2 0.10039350E+00 0.16915250E+03</pdfrwt>
<pdfrwt beam="2">  1       -2 0.62134684E-02 0.16915250E+03</pdfrwt>
<totfact> 0.62451886E+03</totfact>
</mgrwt>
</event>
<event>
 6    1  0.5258538E-006  0.4226267E+03  0.7546771E-02  0.1036215E+00
         -1   -1    0    0    0  501 -0.00000000000E+00  0.00000000000E+00  0.11076663186E+03  0.11076663186E+03  0.00000000000E+00 0.  1.
          1   -1    0    0  501    0  0.00000000000E+00 -0.00000000000E+00 -0.40312972817E+03  0.40312972817E+03  0.00000000000E+00 0. -1.
          5    1    1    2  502    0 -0.14116323746E+03  0.12521892172E+03 -0.80650890111E+02  0.20526444905E+03  0.47000000000E+01 0. -1.
         -5    1    1    2    0  502  0.15852287418E+02  0.35564177842E+01 -0.42833147124E+02  0.46051184744E+02  0.47000000000E+01 0. -1.
        -11    1    1    2    0    0  0.49433082957E+02 -0.11991619379E+02 -0.10979582492E+02  0.52038253792E+02  0.00000000000E+00 0.  1.
         11    1    1    2    0    0  0.75877867085E+02 -0.11678372013E+03 -0.15789947659E+03  0.21054247245E+03  0.00000000000E+00 0. -1.
<mgrwt>
<rscale>  0 0.42262665E+03</rscale>
<asrwt>0</asrwt>
<pdfrwt beam="2">  1        1 0.62019958E-01 0.42262665E+03</pdfrwt>
<pdfrwt beam="1">  1       -1 0.17041020E-01 0.42262665E+03</pdfrwt>
<totfact> 0.15769805E+03</totfact>
</mgrwt>
</event>
<event>
 6    1  0.5258538E-006  0.4249937E+03  0.7546771E-02  0.1035453E+00
         -2   -1    0    0    0  501 -0.00000000000E+00  0.00000000000E+00  0.23351805318E+03  0.23351805318E+03  0.00000000000E+00 0.  1.
          2   -1    0    0  501    0  0.00000000000E+00 -0.00000000000E+00 -0.19336796292E+03  0.19336796292E+03  0.00000000000E+00 0. -1.
          5    1    1    2  502    0  0.13590316716E+03  0.97960673756E+02 -0.62857951149E+02  0.17899490627E+03  0.47000000000E+01 0. -1.
         -5    1    1    2    0  502 -0.10403402358E+02 -0.20034160999E+02 -0.23469153682E+02  0.32901209128E+02  0.47000000000E+01 0. -1.
        -11    1    1    2    0    0 -0.64981130298E+02 -0.18429656727E+02  0.10917107623E+03  0.12837649094E+03  0.00000000000E+00 0.  1.
         11    1    1    2    0    0 -0.60518634508E+02 -0.59496856030E+02  0.17306118874E+02  0.86613409762E+02  0.00000000000E+00 0. -1.
<mgrwt>
<rscale>  0 0.42499370E+03</rscale>
<asrwt>0</asrwt>
<pdfrwt beam="2">  1        2 0.29748917E-01 0.42499370E+03</pdfrwt>
<pdfrwt beam="1">  1       -2 0.35925854E-01 0.42499370E+03</pdfrwt>
<totfact> 0.13040677E+03</totfact>
</mgrwt>
</event>
<event>
 6    1  0.5258538E-006  0.1782435E+03  0.7546771E-02  0.1187641E+00
         -2   -1    0    0    0  501 -0.00000000000E+00  0.00000000000E+00  0.55082072335E+02  0.55082072335E+02  0.00000000000E+00 0.  1.
          2   -1    0    0  501    0  0.00000000000E+00 -0.00000000000E+00 -0.40213781424E+03  0.40213781424E+03  0.00000000000E+00 0. -1.
          5    1    1    2  502    0 -0.27460957279E+02 -0.59818550294E+02 -0.67929554538E+02  0.94704157848E+02  0.47000000000E+01 0. -1.
         -5    1    1    2    0  502 -0.37620581963E+02  0.10427157329E+03 -0.15820904894E+03  0.19323576881E+03  0.47000000000E+01 0.  1.
        -11    1    1    2    0    0  0.15745422476E+02  0.26640888979E+02 -0.22698406130E+02  0.38378026726E+02  0.00000000000E+00 0.  1.
         11    1    1    2    0    0  0.49336116767E+02 -0.71093911973E+02 -0.98218732295E+02  0.13090193318E+03  0.00000000000E+00 0. -1.
<mgrwt>
<rscale>  0 0.16093882E+03</rscale>
<asrwt>0</asrwt>
<pdfrwt beam="2">  1        2 0.61867357E-01 0.17824347E+03</pdfrwt>
<pdfrwt beam="1">  1       -2 0.84741648E-02 0.17824347E+03</pdfrwt>
<totfact> 0.66610745E+03</totfact>
</mgrwt>
</event>
<event>
 6    1  0.5258538E-006  0.2658454E+03  0.7546771E-02  0.1105463E+00
          2   -1    0    0  501    0  0.00000000000E+00  0.00000000000E+00  0.50620484959E+03  0.50620484959E+03  0.00000000000E+00 0.  1.
         -2   -1    0    0    0  501 -0.00000000000E+00 -0.00000000000E+00 -0.20838058130E+03  0.20838058130E+03  0.00000000000E+00 0. -1.
          5    1    1    2  502    0  0.40341118213E+02  0.67823687275E+02  0.13351056915E+03  0.15515998340E+03  0.47000000000E+01 0.  1.
         -5    1    1    2    0  502 -0.90602500909E+02  0.16135426804E+03  0.23183099579E+03  0.29666768209E+03  0.47000000000E+01 0.  1.
        -11    1    1    2    0    0  0.68105688445E+02 -0.13369549150E+03 -0.70049351312E+02  0.16558919308E+03  0.00000000000E+00 0. -1.
         11    1    1    2    0    0 -0.17844305749E+02 -0.95482463817E+02  0.25320546603E+01  0.97168572311E+02  0.00000000000E+00 0.  1.
<mgrwt>
<rscale>  0 0.26281647E+03</rscale>
<asrwt>0</asrwt>
<pdfrwt beam="1">  1        2 0.77877669E-01 0.26584541E+03</pdfrwt>
<pdfrwt beam="2">  1       -2 0.32058551E-01 0.26584541E+03</pdfrwt>
<totfact> 0.55822483E+02</totfact>
</mgrwt>
</event>
<event>
 6    1  0.5258538E-006  0.1459500E+03  0.7546771E-02  0.1214047E+00
          2   -1    0    0  501    0  0.00000000000E+00  0.00000000000E+00  0.20465601390E+03  0.20465601390E+03  0.00000000000E+00 0.  1.
         -2   -1    0    0    0  501 -0.00000000000E+00 -0.00000000000E+00 -0.92012137187E+02  0.92012137187E+02  0.00000000000E+00 0. -1.
          5    1    1    2  502    0  0.59816760477E+02 -0.33533109849E+02 -0.54565523281E+01  0.68951999634E+02  0.47000000000E+01 0.  1.
         -5    1    1    2    0  502  0.15367511273E+02  0.28511456411E+02  0.99324639776E+02  0.10457790214E+03  0.47000000000E+01 0.  1.
        -11    1    1    2    0    0 -0.86120262075E+02  0.21594536182E+01  0.43091257352E+02  0.96323513432E+02  0.00000000000E+00 0.  1.
         11    1    1    2    0    0  0.10935990324E+02  0.28621998198E+01 -0.24315468086E+02  0.26814735882E+02  0.00000000000E+00 0. -1.
<mgrwt>
<rscale>  0 0.13946792E+03</rscale>
<asrwt>0</asrwt>
<pdfrwt beam="1">  1        2 0.31485541E-01 0.14595002E+03</pdfrwt>
<pdfrwt beam="2">  1       -2 0.14155713E-01 0.14595002E+03</pdfrwt>
<totfact> 0.59972606E+03</totfact>
</mgrwt>
</event>
<event>
 6    1  0.5258538E-006  0.1401375E+03  0.7546771E-02  0.1224518E+00
          2   -1    0    0  501    0  0.00000000000E+00  0.00000000000E+00  0.14734073297E+03  0.14734073297E+03  0.00000000000E+00 0.  1.
         -2   -1    0    0    0  501 -0.00000000000E+00 -0.00000000000E+00 -0.10711863185E+03  0.10711863185E+03  0.00000000000E+00 0. -1.
          5    1    1    2  502    0  0.49318415507E+02  0.19296775168E+02  0.22213583988E+02  0.57621219647E+02  0.47000000000E+01 0. -1.
         -5    1    1    2    0  502 -0.30618119983E+02 -0.79834016468E+02  0.10410341932E+02  0.86263576762E+02  0.47000000000E+01 0. -1.
        -11    1    1    2    0    0  0.18426154135E+02  0.54960945452E+02  0.31593971742E+02  0.66018237871E+02  0.00000000000E+00 0.  1.
         11    1    1    2    0    0 -0.37126449659E+02  0.55762958484E+01 -0.23995796536E+02  0.44556330539E+02  0.00000000000E+00 0. -1.
<mgrwt>
<rscale>  0 0.13199960E+03</rscale>
<asrwt>0</asrwt>
<pdfrwt beam="1">  1        2 0.22667805E-01 0.14013748E+03</pdfrwt>
<pdfrwt beam="2">  1       -2 0.16479790E-01 0.14013748E+03</pdfrwt>
<totfact> 0.66861478E+03</totfact>
</mgrwt>
</event>
<event>
 6    1  0.5258538E-006  0.3398640E+03  0.7546771E-02  0.1113803E+00
          1   -1    0    0  501    0  0.00000000000E+00  0.00000000000E+00  0.66512914058E+02  0.66512914058E+02  0.00000000000E+00 0. -1.
         -1   -1    0    0    0  501 -0.00000000000E+00 -0.00000000000E+00 -0.94774895018E+03  0.94774895018E+03  0.00000000000E+00 0.  1.
          5    1    1    2  502    0  0.11309087317E+03 -0.54797636787E+02 -0.35002060800E+02  0.13053566889E+03  0.47000000000E+01 0. -1.
         -5    1    1    2    0  502 -0.14197581898E+03  0.32015369821E+02 -0.37336527836E+03  0.40075658218E+03  0.47000000000E+01 0.  1.
        -11    1    1    2    0    0 -0.31011907967E+02  0.21356910407E+02 -0.21109133019E+03  0.21442342628E+03  0.00000000000E+00 0.  1.
         11    1    1    2    0    0  0.59896853770E+02  0.14253565581E+01 -0.26177736678E+03  0.26854618688E+03  0.00000000000E+00 0. -1.
<mgrwt>
<rscale>  0 0.24921379E+03</rscale>
<asrwt>0</asrwt>
<pdfrwt beam="1">  1        1 0.10232757E-01 0.33986405E+03</pdfrwt>
<pdfrwt beam="2">  1       -1 0.14580751E+00 0.33986405E+03</pdfrwt>
<totfact> 0.25266840E+02</totfact>
</mgrwt>
</event>
<event>
 6    1  0.5258538E-006  0.3973494E+03  0.7546771E-02  0.1044701E+00
          1   -1    0    0  501    0  0.00000000000E+00  0.00000000000E+00  0.60883867157E+03  0.60883867157E+03  0.00000000000E+00 0. -1.
         -1   -1    0    0    0  501 -0.00000000000E+00 -0.00000000000E+00 -0.64831020844E+02  0.64831020844E+02  0.00000000000E+00 0.  1.
          5    1    1    2  502    0 -0.13222078750E+02  0.28929389802E+02  0.12270446748E+03  0.12684718878E+03  0.47000000000E+01 0. -1.
         -5    1    1    2    0  502  0.14921903754E+03 -0.99621734469E+01  0.32193116117E+03  0.35500327970E+03  0.47000000000E+01 0. -1.
        -11    1    1    2    0    0 -0.84605417533E+02 -0.29215133276E+02  0.10629423938E+03  0.13896066355E+03  0.00000000000E+00 0. -1.
         11    1    1    2    0    0 -0.51391541260E+02  0.10247916922E+02 -0.69222173024E+01  0.52858560392E+02  0.00000000000E+00 0.  1.
<mgrwt>
<rscale>  0 0.39734938E+03</rscale>
<asrwt>0</asrwt>
<pdfrwt beam="1">  1        1 0.93667484E-01 0.39734938E+03</pdfrwt>
<pdfrwt beam="2">  1       -1 0.99740036E-02 0.39734938E+03</pdfrwt>
<totfact> 0.21164500E+03</totfact>
</mgrwt>
</event>
<event>
 6    1  0.5258538E-006  0.1326656E+03  0.7546771E-02  0.1236935E+00
          1   -1    0    0  501    0  0.00000000000E+00  0.00000000000E+00  0.24628776113E+03  0.24628776113E+03  0.00000000000E+00 0. -1.
         -1   -1    0    0    0  501 -0.00000000000E+00 -0.00000000000E+00 -0.55316323410E+02  0.55316323410E+02  0.00000000000E+00 0.  1.
          5    1    1    2  502    0  0.64841906099E+02  0.73802543882E+01  0.85318233817E+02  0.10751851916E+03  0.47000000000E+01 0. -1.
         -5    1    1    2    0  502 -0.38402717724E+02 -0.43210717989E+02  0.18304861941E+02  0.60820168105E+02  0.47000000000E+01 0. -1.
        -11    1    1    2    0    0 -0.19205614125E+02 -0.19212141685E+01  0.92491868294E+02  0.94484349912E+02  0.00000000000E+00 0. -1.
         11    1    1    2    0    0 -0.72335742494E+01  0.37751677769E+02 -0.51435263360E+01  0.38781047355E+02  0.00000000000E+00 0.  1.
<mgrwt>
<rscale>  0 0.12381396E+03</rscale>
<asrwt>0</asrwt>
<pdfrwt beam="1">  1        1 0.37890424E-01 0.13266562E+03</pdfrwt>
<pdfrwt beam="2">  1       -1 0.85102037E-02 0.13266562E+03</pdfrwt>
<totfact> 0.83339442E+03</totfact>
</mgrwt>
</event>
<event>
 6    1  0.5258538E-006  0.1258226E+03  0.7546771E-02  0.1247155E+00
          2   -1    0    0  501    0  0.00000000000E+00  0.00000000000E+00  0.34244071971E+03  0.34244071971E+03  0.00000000000E+00 0. -1.
         -2   -1    0    0    0  501 -0.00000000000E+00 -0.00000000000E+00 -0.53181557628E+02  0.53181557628E+02  0.00000000000E+00 0.  1.
          5    1    1    2  502    0 -0.36494571712E+02  0.68457225392E+02  0.24979007075E+03  0.26160163401E+03  0.47000000000E+01 0. -1.
         -5    1    1    2    0  502  0.43170324648E+01 -0.29380451998E+02  0.20068058080E+02  0.36147817140E+02  0.47000000000E+01 0.  1.
        -11    1    1    2    0    0  0.19589825884E+02  0.11588896232E+02  0.36433327609E+02  0.42958714537E+02  0.00000000000E+00 0. -1.
         11    1    1    2    0    0  0.12587713363E+02 -0.50665669626E+02 -0.17032294361E+02  0.54914111644E+02  0.00000000000E+00 0.  1.
<mgrwt>
<rscale>  0 0.11757320E+03</rscale>
<asrwt>0</asrwt>
<pdfrwt beam="1">  1        2 0.52683186E-01 0.12582260E+03</pdfrwt>
<pdfrwt beam="2">  1       -2 0.81817783E-02 0.12582260E+03</pdfrwt>
<totfact> 0.81716428E+03</totfact>
</mgrwt>
</event>
<event>
 6    1  0.5258538E-006  0.1328485E+03  0.7546771E-02  0.1233906E+00
         -1   -1    0    0    0  501 -0.00000000000E+00  0.00000000000E+00  0.14734740584E+02  0.14734740584E+02  0.00000000000E+00 0.  1.
          1   -1    0    0  501    0  0.00000000000E+00 -0.00000000000E+00 -0.97605942810E+03  0.97605942810E+03  0.00000000000E+00 0. -1.
          5    1    1    2  502    0 -0.36433742200E+02  0.12087521610E+01 -0.32119922288E+02  0.48812478530E+02  0.47000000000E+01 0.  1.
         -5    1    1    2    0  502 -0.33083504604E+01  0.19884246352E+02 -0.47402092129E+03  0.47447260432E+03  0.47000000000E+01 0.  1.
        -11    1    1    2    0    0 -0.76338030201E+01  0.26547467201E+02 -0.53147908923E+02  0.59897772799E+02  0.00000000000E+00 0.  1.
         11    1    1    2    0    0  0.47375895681E+02 -0.47640465714E+02 -0.40203593502E+03  0.40761131303E+03  0.00000000000E+00 0. -1.
<mgrwt>
<rscale>  0 0.12574742E+03</rscale>
<asrwt>0</asrwt>
<pdfrwt beam="2">  1        1 0.15016301E+00 0.13284850E+03</pdfrwt>
<pdfrwt beam="1">  1       -1 0.22668829E-02 0.13284850E+03</pdfrwt>
<totfact> 0.91712684E+03</totfact>
</mgrwt>
</event>
<event>
 6    1  0.5258538E-006  0.1412332E+03  0.7546771E-02  0.1222292E+00
          1   -1    0    0  501    0  0.00000000000E+00  0.00000000000E+00  0.18547414347E+03  0.18547414347E+03  0.00000000000E+00 0. -1.
         -1   -1    0    0    0  501 -0.00000000000E+00 -0.00000000000E+00 -0.10016470426E+03  0.10016470426E+03  0.00000000000E+00 0.  1.
          5    1    1    2  502    0 -0.94275510528E+01 -0.39278864918E+02 -0.23779476715E+02  0.47109037996E+02  0.47000000000E+01 0. -1.
         -5    1    1    2    0  502  0.40286862063E+01 -0.26187341418E+02  0.12197016084E+03  0.12490323174E+03  0.47000000000E+01 0. -1.
        -11    1    1    2    0    0 -0.17394064684E+02  0.51070249745E+02 -0.46016427939E+02  0.70910052429E+02  0.00000000000E+00 0.  1.
         11    1    1    2    0    0  0.22792929531E+02  0.14395956591E+02  0.33135183023E+02  0.42716525570E+02  0.00000000000E+00 0. -1.
<mgrwt>
<rscale>  0 0.13354276E+03</rscale>
<asrwt>0</asrwt>
<pdfrwt beam="1">  1        1 0.28534484E-01 0.14123318E+03</pdfrwt>
<pdfrwt beam="2">  1       -1 0.15409955E-01 0.14123318E+03</pdfrwt>
<totfact> 0.47683798E+03</totfact>
</mgrwt>
</event>
<event>
 6    1  0.5258538E-006  0.2545880E+03  0.7546771E-02  0.1110439E+00
         -1   -1    0    0    0  501 -0.00000000000E+00  0.00000000000E+00  0.48061862785E+02  0.48061862785E+02  0.00000000000E+00 0.  1.
          1   -1    0    0  501    0  0.00000000000E+00 -0.00000000000E+00 -0.33714386399E+03  0.33714386399E+03  0.00000000000E+00 0. -1.
          5    1    1    2  502    0  0.45006725185E+01 -0.62491509733E+01 -0.25600979708E+03  0.25616872202E+03  0.47000000000E+01 0.  1.
         -5    1    1    2    0  502  0.20493621802E+02  0.14597437586E+02  0.44392904566E+01  0.25978279743E+02  0.47000000000E+01 0.  1.
        -11    1    1    2    0    0 -0.47015574198E+02  0.22421680491E+02 -0.39187805602E+02  0.65183434100E+02  0.00000000000E+00 0. -1.
         11    1    1    2    0    0  0.22021279877E+02 -0.30769967103E+02  0.16763110204E+01  0.37875290911E+02  0.00000000000E+00 0.  1.
<mgrwt>
<rscale>  0 0.25458800E+03</rscale>
<asrwt>0</asrwt>
<pdfrwt beam="2">  1        1 0.51868286E-01 0.25458800E+03</pdfrwt>
<pdfrwt beam="1">  1       -1 0.73941328E-02 0.25458800E+03</pdfrwt>
<totfact> 0.72562823E+03</totfact>
</mgrwt>
</event>
<event>
 6    1  0.5258538E-006  0.2861681E+03  0.7546771E-02  0.1097869E+00
         -2   -1    0    0    0  501 -0.00000000000E+00  0.00000000000E+00  0.12196724004E+03  0.12196724004E+03  0.00000000000E+00 0.  1.
          2   -1    0    0  501    0  0.00000000000E+00 -0.00000000000E+00 -0.65523888303E+03  0.65523888303E+03  0.00000000000E+00 0. -1.
          5    1    1    2  502    0 -0.44792164700E+02  0.16954610176E+03 -0.40375644535E+03  0.44021991754E+03  0.47000000000E+01 0. -1.
         -5    1    1    2    0  502 -0.39827018025E+02  0.45077785749E+02 -0.74943868658E+01  0.60798470107E+02  0.47000000000E+01 0.  1.
        -11    1    1    2    0    0  0.10408805994E+03 -0.17518670277E+03 -0.99228910840E+02  0.22665189564E+03  0.00000000000E+00 0.  1.
         11    1    1    2    0    0 -0.19468877216E+02 -0.39437184742E+02 -0.22791899942E+02  0.49535839787E+02  0.00000000000E+00 0. -1.
<mgrwt>
<rscale>  0 0.27604420E+03</rscale>
<asrwt>0</asrwt>
<pdfrwt beam="2">  1        2 0.10080598E+00 0.28616809E+03</pdfrwt>
<pdfrwt beam="1">  1       -2 0.18764191E-01 0.28616809E+03</pdfrwt>
<totfact> 0.10677326E+03</totfact>
</mgrwt>
</event>
<event>
 6    1  0.5258538E-006  0.1351939E+03  0.7546771E-02  0.1231912E+00
         -1   -1    0    0    0  501 -0.00000000000E+00  0.00000000000E+00  0.12449611320E+03  0.12449611320E+03  0.00000000000E+00 0.  1.
          1   -1    0    0  501    0  0.00000000000E+00 -0.00000000000E+00 -0.16934218423E+03  0.16934218423E+03  0.00000000000E+00 0. -1.
          5    1    1    2  502    0  0.14389798547E+02 -0.31509777837E+01 -0.11005378376E+03  0.11113469432E+03  0.47000000000E+01 0.  1.
         -5    1    1    2    0  502 -0.49801135166E+02 -0.34258414707E+02  0.39007356885E+01  0.60754405445E+02  0.47000000000E+01 0.  1.
        -11    1    1    2    0    0  0.38318448390E+02  0.65939287999E+02  0.49594254118E+02  0.90971881537E+02  0.00000000000E+00 0.  1.
         11    1    1    2    0    0 -0.29071117703E+01 -0.28529895509E+02  0.11712722917E+02  0.30977316131E+02  0.00000000000E+00 0. -1.
<mgrwt>
<rscale>  0 0.12704192E+03</rscale>
<asrwt>0</asrwt>
<pdfrwt beam="2">  1        1 0.26052644E-01 0.13519391E+03</pdfrwt>
<pdfrwt beam="1">  1       -1 0.19153248E-01 0.13519391E+03</pdfrwt>
<totfact> 0.37761107E+03</totfact>
</mgrwt>
</event>
<event>
 6    1  0.5258538E-006  0.1343769E+03  0.7546771E-02  0.1229651E+00
          1   -1    0    0  501    0  0.00000000000E+00  0.00000000000E+00  0.11979361264E+03  0.11979361264E+03  0.00000000000E+00 0. -1.
         -1   -1    0    0    0  501 -0.00000000000E+00 -0.00000000000E+00 -0.13290389790E+03  0.13290389790E+03  0.00000000000E+00 0.  1.
          5    1    1    2  502    0  0.21358814693E+02  0.36321889186E+02  0.62311590681E+02  0.75367784446E+02  0.47000000000E+01 0.  1.
         -5    1    1    2    0  502  0.27698311459E+02 -0.31303386726E+02 -0.43277969099E+02  0.60350402547E+02  0.47000000000E+01 0.  1.
        -11    1    1    2    0    0 -0.45174205531E+02 -0.17266379549E+02  0.27726443567E+02  0.55745783527E+02  0.00000000000E+00 0. -1.
         11    1    1    2    0    0 -0.38829206208E+01  0.12247877090E+02 -0.59870350403E+02  0.61233540018E+02  0.00000000000E+00 0.  1.
<mgrwt>
<rscale>  0 0.12853125E+03</rscale>
<asrwt>0</asrwt>
<pdfrwt beam="1">  1        1 0.18429787E-01 0.13437689E+03</pdfrwt>
<pdfrwt beam="2">  1       -1 0.20446754E-01 0.13437689E+03</pdfrwt>
<totfact> 0.52653371E+03</totfact>
</mgrwt>
</event>
<event>
 6    1  0.5258538E-006  0.1257435E+03  0.7546771E-02  0.1248972E+00
          3   -1    0    0  501    0  0.00000000000E+00  0.00000000000E+00  0.21264180860E+03  0.21264180860E+03  0.00000000000E+00 0. -1.
         -3   -1    0    0    0  501 -0.00000000000E+00 -0.00000000000E+00 -0.58943600818E+02  0.58943600818E+02  0.00000000000E+00 0.  1.
          5    1    1    2  502    0 -0.25974864801E+01 -0.28593189926E+02 -0.33548662080E+02  0.44406307812E+02  0.47000000000E+01 0.  1.
         -5    1    1    2    0  502 -0.70156351018E+01  0.18945529976E+02  0.91908658155E+02  0.94220187252E+02  0.47000000000E+01 0.  1.
        -11    1    1    2    0    0  0.42483990257E+02 -0.21192995546E+02  0.52352013178E+02  0.70673656847E+02  0.00000000000E+00 0.  1.
         11    1    1    2    0    0 -0.32870868675E+02  0.30840655495E+02  0.42986198530E+02  0.62285257508E+02  0.00000000000E+00 0. -1.
<mgrwt>
<rscale>  0 0.11650779E+03</rscale>
<asrwt>0</asrwt>
<pdfrwt beam="1">  1        3 0.32714124E-01 0.12574345E+03</pdfrwt>
<pdfrwt beam="2">  1       -3 0.90682464E-02 0.12574345E+03</pdfrwt>
<totfact> 0.17935532E+03</totfact>
</mgrwt>
</event>
<event>
 6    1  0.5258538E-006  0.1355322E+03  0.7546771E-02  0.1232997E+00
          2   -1    0    0  501    0  0.00000000000E+00  0.00000000000E+00  0.21885284578E+03  0.21885284578E+03  0.00000000000E+00 0. -1.
         -2   -1    0    0    0  501 -0.00000000000E+00 -0.00000000000E+00 -0.67495383357E+02  0.67495383357E+02  0.00000000000E+00 0.  1.
          5    1    1    2  502    0  0.44318624911E+02  0.75931979449E+02  0.45582361928E+02  0.99144579962E+02  0.47000000000E+01 0.  1.
         -5    1    1    2    0  502 -0.23907118881E+02 -0.27649005296E+02  0.69455825733E+02  0.78627091738E+02  0.47000000000E+01 0.  1.
        -11    1    1    2    0    0  0.20271086827E+01  0.19664903281E+02 -0.11158992292E+02  0.22701116705E+02  0.00000000000E+00 0.  1.
         11    1    1    2    0    0 -0.22438614713E+02 -0.67947877435E+02  0.47478267053E+02  0.85875440730E+02  0.00000000000E+00 0. -1.
<mgrwt>
<rscale>  0 0.12633512E+03</rscale>
<asrwt>0</asrwt>
<pdfrwt beam="1">  1        2 0.33669668E-01 0.13553222E+03</pdfrwt>
<pdfrwt beam="2">  1       -2 0.10383905E-01 0.13553222E+03</pdfrwt>
<totfact> 0.91141512E+03</totfact>
</mgrwt>
</event>
<event>
 6    1  0.5258538E-006  0.2794985E+03  0.7546771E-02  0.1120944E+00
         -4   -1    0    0    0  501 -0.00000000000E+00  0.00000000000E+00  0.36238211709E+03  0.36238211709E+03  0.00000000000E+00 0.  1.
          4   -1    0    0  501    0  0.00000000000E+00 -0.00000000000E+00 -0.25727949316E+03  0.25727949316E+03  0.00000000000E+00 0. -1.
          5    1    1    2  502    0  0.11131884209E+03 -0.10209308014E+03 -0.11335292375E+03  0.18890700606E+03  0.47000000000E+01 0. -1.
         -5    1    1    2    0  502  0.31106943424E+01  0.12387732889E+03 -0.42367265647E+02  0.13104329144E+03  0.47000000000E+01 0.  1.
        -11    1    1    2    0    0 -0.12775665591E+03 -0.83749163843E+01  0.23619991942E+03  0.26866764652E+03  0.00000000000E+00 0.  1.
         11    1    1    2    0    0  0.13327119478E+02 -0.13409332375E+02  0.24622893912E+02  0.31043666229E+02  0.00000000000E+00 0. -1.
<mgrwt>
<rscale>  0 0.23827996E+03</rscale>
<asrwt>0</asrwt>
<pdfrwt beam="2">  1        4 0.39581460E-01 0.27949851E+03</pdfrwt>
<pdfrwt beam="1">  1       -4 0.55751095E-01 0.27949851E+03</pdfrwt>
<totfact> 0.35368070E+01</totfact>
</mgrwt>
</event>
<event>
 6    1  0.5258538E-006  0.1499917E+03  0.7546771E-02  0.1208933E+00
         -2   -1    0    0    0  501 -0.00000000000E+00  0.00000000000E+00  0.33203849690E+02  0.33203849690E+02  0.00000000000E+00 0.  1.
          2   -1    0    0  501    0  0.00000000000E+00 -0.00000000000E+00 -0.77055873719E+03  0.77055873719E+03  0.00000000000E+00 0. -1.
          5    1    1    2  502    0  0.86508802671E+01  0.35217592741E+02 -0.13975577278E+03  0.14446066106E+03  0.47000000000E+01 0.  1.
         -5    1    1    2    0  502 -0.75091824101E+02 -0.84822410191E+02 -0.45833291477E+03  0.47214910154E+03  0.47000000000E+01 0.  1.
        -11    1    1    2    0    0  0.76245017480E+02  0.59279960392E+02 -0.14329368965E+03  0.17280190360E+03  0.00000000000E+00 0. -1.
         11    1    1    2    0    0 -0.98040736461E+01 -0.96751429421E+01  0.40274897080E+01  0.14350920680E+02  0.00000000000E+00 0.  1.
<mgrwt>
<rscale>  0 0.14331750E+03</rscale>
<asrwt>0</asrwt>
<pdfrwt beam="2">  1        2 0.11854749E+00 0.14999174E+03</pdfrwt>
<pdfrwt beam="1">  1       -2 0.51082849E-02 0.14999174E+03</pdfrwt>
<totfact> 0.68446694E+03</totfact>
</mgrwt>
</event>
<event>
 6    1  0.5258538E-006  0.1410254E+03  0.7546771E-02  0.1222548E+00
          2   -1    0    0  501    0  0.00000000000E+00  0.00000000000E+00  0.49172626479E+02  0.49172626479E+02  0.00000000000E+00 0.  1.
         -2   -1    0    0    0  501 -0.00000000000E+00 -0.00000000000E+00 -0.32812856789E+03  0.32812856789E+03  0.00000000000E+00 0. -1.
          5    1    1    2  502    0  0.17245759561E+01  0.86884754030E+02 -0.96367865507E+02  0.12984910530E+03  0.47000000000E+01 0. -1.
         -5    1    1    2    0  502 -0.40950160580E+02 -0.34696908078E+02 -0.66653624198E+02  0.85706398247E+02  0.47000000000E+01 0. -1.
        -11    1    1    2    0    0  0.50013953193E+02 -0.18248295069E+02 -0.15902376375E+02  0.55563309488E+02  0.00000000000E+00 0.  1.
         11    1    1    2    0    0 -0.10788368569E+02 -0.33939550883E+02 -0.10003207533E+03  0.10618238133E+03  0.00000000000E+00 0. -1.
<mgrwt>
<rscale>  0 0.13336371E+03</rscale>
<asrwt>0</asrwt>
<pdfrwt beam="1">  1        2 0.75650194E-02 0.14102542E+03</pdfrwt>
<pdfrwt beam="2">  1       -2 0.50481318E-01 0.14102542E+03</pdfrwt>
<totfact> 0.33014415E+03</totfact>
</mgrwt>
</event>
<event>
 6    1  0.5258538E-006  0.1371667E+03  0.7546771E-02  0.1230664E+00
         -2   -1    0    0    0  501 -0.00000000000E+00  0.00000000000E+00  0.26871162873E+02  0.26871162873E+02  0.00000000000E+00 0.  1.
          2   -1    0    0  501    0  0.00000000000E+00 -0.00000000000E+00 -0.58280167118E+03  0.58280167118E+03  0.00000000000E+00 0. -1.
          5    1    1    2  502    0 -0.87222223814E+02  0.84257567890E+01 -0.36133547734E+03  0.37183884532E+03  0.47000000000E+01 0.  1.
         -5    1    1    2    0  502  0.31814609516E+02  0.25702545612E+01 -0.35190386867E+02  0.47741270563E+02  0.47000000000E+01 0.  1.
        -11    1    1    2    0    0  0.51671358343E+01  0.22451539491E+02 -0.40053679692E+01  0.23384052062E+02  0.00000000000E+00 0.  1.
         11    1    1    2    0    0  0.50240478464E+02 -0.33447550842E+02 -0.15539927613E+03  0.16670866611E+03  0.00000000000E+00 0. -1.
<mgrwt>
<rscale>  0 0.12786106E+03</rscale>
<asrwt>0</asrwt>
<pdfrwt beam="2">  1        2 0.89661800E-01 0.13716673E+03</pdfrwt>
<pdfrwt beam="1">  1       -2 0.41340249E-02 0.13716673E+03</pdfrwt>
<totfact> 0.12981072E+04</totfact>
</mgrwt>
</event>
<event>
 6    1  0.5258538E-006  0.1376893E+03  0.7546771E-02  0.1228593E+00
         -1   -1    0    0    0  501 -0.00000000000E+00  0.00000000000E+00  0.39173491815E+02  0.39173491815E+02  0.00000000000E+00 0.  1.
          1   -1    0    0  501    0  0.00000000000E+00 -0.00000000000E+00 -0.59951122504E+03  0.59951122504E+03  0.00000000000E+00 0. -1.
          5    1    1    2  502    0  0.77512199500E+02  0.25606474602E+01 -0.21442085436E+03  0.22806378663E+03  0.47000000000E+01 0. -1.
         -5    1    1    2    0  502 -0.34662079888E+02 -0.41253012826E+02 -0.27974844729E+03  0.28492903435E+03  0.47000000000E+01 0. -1.
        -11    1    1    2    0    0  0.23122913277E+02  0.20863158093E+02 -0.43881004681E+02  0.53809692954E+02  0.00000000000E+00 0. -1.
         11    1    1    2    0    0 -0.65973032888E+02  0.17829207273E+02 -0.22287426891E+02  0.71882202929E+02  0.00000000000E+00 0.  1.
<mgrwt>
<rscale>  0 0.12923622E+03</rscale>
<asrwt>0</asrwt>
<pdfrwt beam="2">  1        1 0.92232496E-01 0.13768927E+03</pdfrwt>
<pdfrwt beam="1">  1       -1 0.60266911E-02 0.13768927E+03</pdfrwt>
<totfact> 0.45297983E+03</totfact>
</mgrwt>
</event>
<event>
 6    1  0.5258538E-006  0.1751779E+03  0.7546771E-02  0.1178188E+00
         -2   -1    0    0    0  501 -0.00000000000E+00  0.00000000000E+00  0.37649755493E+02  0.37649755493E+02  0.00000000000E+00 0.  1.
          2   -1    0    0  501    0  0.00000000000E+00 -0.00000000000E+00 -0.72975874302E+03  0.72975874302E+03  0.00000000000E+00 0. -1.
          5    1    1    2  502    0 -0.44614993350E+02 -0.55376545175E+02 -0.17565086585E+03  0.18955837111E+03  0.47000000000E+01 0.  1.
         -5    1    1    2    0  502  0.83925943606E+02 -0.60883858728E+02 -0.23578057089E+03  0.25761400558E+03  0.47000000000E+01 0.  1.
        -11    1    1    2    0    0 -0.57174721977E+02  0.32435041357E+02 -0.15226706029E+03  0.16585004790E+03  0.00000000000E+00 0. -1.
         11    1    1    2    0    0  0.17863771722E+02  0.83825362546E+02 -0.12841049050E+03  0.15438607391E+03  0.00000000000E+00 0.  1.
<mgrwt>
<rscale>  0 0.16967432E+03</rscale>
<asrwt>0</asrwt>
<pdfrwt beam="2">  1        2 0.11227057E+00 0.17517793E+03</pdfrwt>
<pdfrwt beam="1">  1       -2 0.57922705E-02 0.17517793E+03</pdfrwt>
<totfact> 0.60920556E+03</totfact>
</mgrwt>
</event>
<event>
 6    1  0.5258538E-006  0.2571743E+03  0.7546771E-02  0.1111077E+00
          2   -1    0    0  501    0  0.00000000000E+00  0.00000000000E+00  0.10250479074E+04  0.10250479074E+04  0.00000000000E+00 0. -1.
         -2   -1    0    0    0  501 -0.00000000000E+00 -0.00000000000E+00 -0.64504088199E+02  0.64504088199E+02  0.00000000000E+00 0.  1.
          5    1    1    2  502    0 -0.45295520394E+02 -0.17390386433E+03  0.20919889838E+03  0.27582695170E+03  0.47000000000E+01 0. -1.
         -5    1    1    2    0  502 -0.65733562161E+02 -0.21508623644E+02  0.15732880636E+03  0.17192430136E+03  0.47000000000E+01 0. -1.
        -11    1    1    2    0    0  0.81275306434E+02  0.19707410964E+03  0.51765895842E+03  0.55983450890E+03  0.00000000000E+00 0. -1.
         11    1    1    2    0    0  0.29753776121E+02 -0.16616216660E+01  0.76357156042E+02  0.81966233651E+02  0.00000000000E+00 0.  1.
<mgrwt>
<rscale>  0 0.25355722E+03</rscale>
<asrwt>0</asrwt>
<pdfrwt beam="1">  1        2 0.15769967E+00 0.25717431E+03</pdfrwt>
<pdfrwt beam="2">  1       -2 0.99237067E-02 0.25717431E+03</pdfrwt>
<totfact> 0.17019505E+03</totfact>
</mgrwt>
</event>
<event>
 6    1  0.5258538E-006  0.2408228E+03  0.7546771E-02  0.1121925E+00
         -1   -1    0    0    0  501 -0.00000000000E+00  0.00000000000E+00  0.23887481166E+03  0.23887481166E+03  0.00000000000E+00 0.  1.
          1   -1    0    0  501    0  0.00000000000E+00 -0.00000000000E+00 -0.22759986377E+03  0.22759986377E+03  0.00000000000E+00 0. -1.
          5    1    1    2  502    0  0.16577627136E+03  0.68236500196E+01 -0.47221191468E+02  0.17256959544E+03  0.47000000000E+01 0. -1.
         -5    1    1    2    0  502  0.38257636948E+02 -0.34029485038E+02  0.44903000397E+02  0.68264354398E+02  0.47000000000E+01 0. -1.
        -11    1    1    2    0    0 -0.68592282045E+02 -0.22596111926E+01  0.46851585485E+02  0.83096799345E+02  0.00000000000E+00 0.  1.
         11    1    1    2    0    0 -0.13544162626E+03  0.29465446211E+02 -0.33258446528E+02  0.14254392625E+03  0.00000000000E+00 0. -1.
<mgrwt>
<rscale>  0 0.23682644E+03</rscale>
<asrwt>0</asrwt>
<pdfrwt beam="2">  1        1 0.35015364E-01 0.24082279E+03</pdfrwt>
<pdfrwt beam="1">  1       -1 0.36749971E-01 0.24082279E+03</pdfrwt>
<totfact> 0.89365166E+02</totfact>
</mgrwt>
</event>
<event>
 6    1  0.5258538E-006  0.1363741E+03  0.7546771E-02  0.1230282E+00
         -2   -1    0    0    0  501 -0.00000000000E+00  0.00000000000E+00  0.16856371909E+02  0.16856371909E+02  0.00000000000E+00 0. -1.
          2   -1    0    0  501    0  0.00000000000E+00 -0.00000000000E+00 -0.90747295022E+03  0.90747295022E+03  0.00000000000E+00 0.  1.
          5    1    1    2  502    0 -0.42995911737E+02  0.20315903776E+02 -0.29772671061E+03  0.30153717612E+03  0.47000000000E+01 0.  1.
         -5    1    1    2    0  502  0.37212593213E+02 -0.74717081444E+02 -0.29048374353E+03  0.30227522990E+03  0.47000000000E+01 0.  1.
        -11    1    1    2    0    0  0.19887223756E+02  0.16072097458E+01 -0.86928897125E+01  0.21763527366E+02  0.00000000000E+00 0. -1.
         11    1    1    2    0    0 -0.14103905232E+02  0.52793967922E+02 -0.29371323445E+03  0.29875338874E+03  0.00000000000E+00 0.  1.
<mgrwt>
<rscale>  0 0.12811362E+03</rscale>
<asrwt>0</asrwt>
<pdfrwt beam="2">  1        2 0.13961124E+00 0.13637406E+03</pdfrwt>
<pdfrwt beam="1">  1       -2 0.25932876E-02 0.13637406E+03</pdfrwt>
<totfact> 0.15115263E+04</totfact>
</mgrwt>
</event>
<event>
 6    1  0.5258538E-006  0.2191195E+03  0.7546771E-02  0.1138092E+00
          1   -1    0    0  501    0  0.00000000000E+00  0.00000000000E+00  0.12580318543E+03  0.12580318543E+03  0.00000000000E+00 0. -1.
         -1   -1    0    0    0  501 -0.00000000000E+00 -0.00000000000E+00 -0.36449738772E+03  0.36449738772E+03  0.00000000000E+00 0.  1.
          5    1    1    2  502    0  0.17739808796E+03  0.80941015463E+02 -0.63703847472E+02  0.20518723103E+03  0.47000000000E+01 0. -1.
         -5    1    1    2    0  502 -0.21404943647E+02  0.88053026661E+01 -0.13069132389E+02  0.26992539505E+02  0.47000000000E+01 0. -1.
        -11    1    1    2    0    0 -0.67163620254E+01 -0.12156057764E+02 -0.59631593335E+02  0.61227495318E+02  0.00000000000E+00 0.  1.
         11    1    1    2    0    0 -0.14927678229E+03 -0.77590260365E+02 -0.10228962909E+03  0.19689330729E+03  0.00000000000E+00 0. -1.
<mgrwt>
<rscale>  0 0.21444652E+03</rscale>
<asrwt>0</asrwt>
<pdfrwt beam="1">  1        1 0.19354336E-01 0.21911950E+03</pdfrwt>
<pdfrwt beam="2">  1       -1 0.56076521E-01 0.21911950E+03</pdfrwt>
<totfact> 0.88073743E+02</totfact>
</mgrwt>
</event>
<event>
 6    1  0.5258538E-006  0.4464569E+03  0.7546771E-02  0.1028784E+00
         -2   -1    0    0    0  501 -0.00000000000E+00  0.00000000000E+00  0.61888069922E+02  0.61888069922E+02  0.00000000000E+00 0.  1.
          2   -1    0    0  501    0  0.00000000000E+00 -0.00000000000E+00 -0.80517855743E+03  0.80517855743E+03  0.00000000000E+00 0. -1.
          5    1    1    2  502    0  0.11398450142E+03 -0.93495026920E+02 -0.40173220408E+03  0.42795401671E+03  0.47000000000E+01 0. -1.
         -5    1    1    2    0  502  0.46386853897E-01  0.12733699958E+02 -0.24578970623E+03  0.24616421136E+03  0.47000000000E+01 0. -1.
        -11    1    1    2    0    0 -0.68986471840E+02 -0.62966656823E+01 -0.44428552669E+02  0.82296279308E+02  0.00000000000E+00 0.  1.
         11    1    1    2    0    0 -0.45044416438E+02  0.87057992644E+02 -0.51340024525E+02  0.11065211997E+03  0.00000000000E+00 0. -1.
<mgrwt>
<rscale>  0 0.44645693E+03</rscale>
<asrwt>0</asrwt>
<pdfrwt beam="2">  1        2 0.12387363E+00 0.44645693E+03</pdfrwt>
<pdfrwt beam="1">  1       -2 0.95212413E-02 0.44645693E+03</pdfrwt>
<totfact> 0.25356224E+03</totfact>
</mgrwt>
</event>
<event>
 6    1  0.5258538E-006  0.1711554E+03  0.7546771E-02  0.1182972E+00
          1   -1    0    0  501    0  0.00000000000E+00  0.00000000000E+00  0.56549637393E+03  0.56549637393E+03  0.00000000000E+00 0. -1.
         -1   -1    0    0    0  501 -0.00000000000E+00 -0.00000000000E+00 -0.54117017809E+02  0.54117017809E+02  0.00000000000E+00 0.  1.
          5    1    1    2  502    0  0.86077167469E+02  0.13471996328E+02  0.96832531658E+02  0.13034340272E+03  0.47000000000E+01 0. -1.
         -5    1    1    2    0  502  0.25760266127E+02  0.20604454952E+02  0.29975058438E+03  0.30159681317E+03  0.47000000000E+01 0. -1.
        -11    1    1    2    0    0 -0.97898248236E+01  0.25547237329E+02  0.37625300956E+02  0.46520589821E+02  0.00000000000E+00 0. -1.
         11    1    1    2    0    0 -0.10204760877E+03 -0.59623688609E+02  0.77170939126E+02  0.14115258604E+03  0.00000000000E+00 0.  1.
<mgrwt>
<rscale>  0 0.16517791E+03</rscale>
<asrwt>0</asrwt>
<pdfrwt beam="1">  1        1 0.86999438E-01 0.17115543E+03</pdfrwt>
<pdfrwt beam="2">  1       -1 0.83256954E-02 0.17115543E+03</pdfrwt>
<totfact> 0.30410806E+03</totfact>
</mgrwt>
</event>
<event>
 6    1  0.5258538E-006  0.2491885E+03  0.7546771E-02  0.1122031E+00
         -1   -1    0    0    0  501 -0.00000000000E+00  0.00000000000E+00  0.74922408573E+02  0.74922408573E+02  0.00000000000E+00 0.  1.
          1   -1    0    0  501    0  0.00000000000E+00 -0.00000000000E+00 -0.10787571393E+04  0.10787571393E+04  0.00000000000E+00 0. -1.
          5    1    1    2  502    0 -0.15604515933E+03  0.10693181693E+03 -0.61810340834E+03  0.64641969232E+03  0.47000000000E+01 0. -1.
         -5    1    1    2    0  502 -0.16721469617E+02 -0.54802357155E+02 -0.26523539056E+03  0.27139419356E+03  0.47000000000E+01 0.  1.
        -11    1    1    2    0    0  0.34533224039E+02  0.22542048467E+02 -0.46647475645E+02  0.62262946410E+02  0.00000000000E+00 0. -1.
         11    1    1    2    0    0  0.13823340490E+03 -0.74671508238E+02 -0.73848456182E+02  0.17360271557E+03  0.00000000000E+00 0.  1.
<mgrwt>
<rscale>  0 0.23667033E+03</rscale>
<asrwt>0</asrwt>
<pdfrwt beam="2">  1        1 0.16596263E+00 0.24918847E+03</pdfrwt>
<pdfrwt beam="1">  1       -1 0.11526525E-01 0.24918847E+03</pdfrwt>
<totfact> 0.68540018E+02</totfact>
</mgrwt>
</event>
<event>
 6    1  0.5258538E-006  0.1816643E+03  0.7546771E-02  0.1171675E+00
         -2   -1    0    0    0  501 -0.00000000000E+00  0.00000000000E+00  0.50673693804E+02  0.50673693804E+02  0.00000000000E+00 0.  1.
          2   -1    0    0  501    0  0.00000000000E+00 -0.00000000000E+00 -0.58233843815E+03  0.58233843815E+03  0.00000000000E+00 0. -1.
          5    1    1    2  502    0 -0.10306746592E+02 -0.80366736620E+02 -0.57308695880E+02  0.99355009958E+02  0.47000000000E+01 0.  1.
         -5    1    1    2    0  502  0.32515694296E+02 -0.49574685858E+02 -0.25594142420E+03  0.26276038986E+03  0.47000000000E+01 0.  1.
        -11    1    1    2    0    0 -0.51374661697E+02  0.59988089330E+02 -0.14641769143E+03  0.16636125477E+03  0.00000000000E+00 0. -1.
         11    1    1    2    0    0  0.29165713994E+02  0.69953333147E+02 -0.71996932831E+02  0.10453547737E+03  0.00000000000E+00 0.  1.
<mgrwt>
<rscale>  0 0.17605639E+03</rscale>
<asrwt>0</asrwt>
<pdfrwt beam="2">  1        2 0.89590527E-01 0.18166432E+03</pdfrwt>
<pdfrwt beam="1">  1       -2 0.77959531E-02 0.18166432E+03</pdfrwt>
<totfact> 0.50404350E+03</totfact>
</mgrwt>
</event>
<event>
 6    1  0.5258538E-006  0.1536798E+03  0.7546771E-02  0.1207881E+00
          1   -1    0    0  501    0  0.00000000000E+00  0.00000000000E+00  0.97019753625E+02  0.97019753625E+02  0.00000000000E+00 0. -1.
         -1   -1    0    0    0  501 -0.00000000000E+00 -0.00000000000E+00 -0.25928521323E+03  0.25928521323E+03  0.00000000000E+00 0.  1.
          5    1    1    2  502    0 -0.51111757658E+02  0.55011815352E+02 -0.23374779602E+02  0.78785670783E+02  0.47000000000E+01 0. -1.
         -5    1    1    2    0  502 -0.23367065248E+02 -0.66397781444E+02  0.25178033490E+02  0.74904662668E+02  0.47000000000E+01 0.  1.
        -11    1    1    2    0    0  0.43979157115E+02  0.43773774324E+01 -0.98867931186E+01  0.45288810670E+02  0.00000000000E+00 0. -1.
         11    1    1    2    0    0  0.30499665791E+02  0.70085886592E+01 -0.15418192038E+03  0.15732582274E+03  0.00000000000E+00 0.  1.
<mgrwt>
<rscale>  0 0.14412728E+03</rscale>
<asrwt>0</asrwt>
<pdfrwt beam="1">  1        1 0.14926116E-01 0.15367975E+03</pdfrwt>
<pdfrwt beam="2">  1       -1 0.39890033E-01 0.15367975E+03</pdfrwt>
<totfact> 0.22713221E+03</totfact>
</mgrwt>
</event>
<event>
 6    1  0.5258538E-006  0.3116765E+03  0.7546771E-02  0.1079545E+00
          2   -1    0    0  501    0  0.00000000000E+00  0.00000000000E+00  0.61292564820E+02  0.61292564820E+02  0.00000000000E+00 0. -1.
         -2   -1    0    0    0  501 -0.00000000000E+00 -0.00000000000E+00 -0.39622366524E+03  0.39622366524E+03  0.00000000000E+00 0.  1.
          5    1    1    2  502    0  0.90252197576E+02 -0.19795130968E+02 -0.26809563270E+02  0.96323149140E+02  0.47000000000E+01 0.  1.
         -5    1    1    2    0  502  0.19822411111E+02  0.29668572884E+02 -0.12217980772E+03  0.12737012057E+03  0.47000000000E+01 0.  1.
        -11    1    1    2    0    0 -0.54834490252E+02 -0.17221689218E+02 -0.23509893317E+02  0.62097689043E+02  0.00000000000E+00 0. -1.
         11    1    1    2    0    0 -0.55240118435E+02  0.73482473024E+01 -0.16243183610E+03  0.17172527130E+03  0.00000000000E+00 0.  1.
<mgrwt>
<rscale>  0 0.31167653E+03</rscale>
<asrwt>0</asrwt>
<pdfrwt beam="1">  1        2 0.94296259E-02 0.31167653E+03</pdfrwt>
<pdfrwt beam="2">  1       -2 0.60957484E-01 0.31167653E+03</pdfrwt>
<totfact> 0.17690793E+03</totfact>
</mgrwt>
</event>
<event>
 6    1  0.5258538E-006  0.2160948E+03  0.7546771E-02  0.1165906E+00
         -2   -1    0    0    0  501 -0.00000000000E+00  0.00000000000E+00  0.92859221833E+02  0.92859221833E+02  0.00000000000E+00 0.  1.
          2   -1    0    0  501    0  0.00000000000E+00 -0.00000000000E+00 -0.29620228122E+03  0.29620228122E+03  0.00000000000E+00 0. -1.
          5    1    1    2  502    0 -0.12236086033E+03 -0.29234030370E+02 -0.57319524377E+02  0.13832724441E+03  0.47000000000E+01 0. -1.
         -5    1    1    2    0  502  0.62179887024E+02  0.44770204259E+02 -0.11401455256E+03  0.13744860034E+03  0.47000000000E+01 0.  1.
        -11    1    1    2    0    0  0.53594857592E+02 -0.30218273930E+02  0.15227748540E+02  0.63383256190E+02  0.00000000000E+00 0.  1.
         11    1    1    2    0    0  0.65861157120E+01  0.14682100042E+02 -0.47236730988E+02  0.49902402109E+02  0.00000000000E+00 0. -1.
<mgrwt>
<rscale>  0 0.18197433E+03</rscale>
<asrwt>0</asrwt>
<pdfrwt beam="2">  1        2 0.45569582E-01 0.21609477E+03</pdfrwt>
<pdfrwt beam="1">  1       -2 0.14286034E-01 0.21609477E+03</pdfrwt>
<totfact> 0.40528690E+03</totfact>
</mgrwt>
</event>
<event>
 6    1  0.5258538E-006  0.1300401E+03  0.7546771E-02  0.1243969E+00
         -1   -1    0    0    0  501 -0.00000000000E+00  0.00000000000E+00  0.16324611943E+02  0.16324611943E+02  0.00000000000E+00 0.  1.
          1   -1    0    0  501    0  0.00000000000E+00 -0.00000000000E+00 -0.96565120840E+03  0.96565120840E+03  0.00000000000E+00 0. -1.
          5    1    1    2  502    0 -0.46762492706E+02  0.16813339726E+02 -0.12482540299E+03  0.13443545049E+03  0.47000000000E+01 0. -1.
         -5    1    1    2    0  502  0.17955240281E+02 -0.38137478069E+02 -0.63686679993E+03  0.63827757970E+03  0.47000000000E+01 0. -1.
        -11    1    1    2    0    0 -0.79650062135E+01 -0.10134030685E+02  0.24455496821E+01  0.13119474652E+02  0.00000000000E+00 0.  1.
         11    1    1    2    0    0  0.36772258638E+02  0.31458169028E+02 -0.19007994322E+03  0.19614331550E+03  0.00000000000E+00 0. -1.
<mgrwt>
<rscale>  0 0.11947324E+03</rscale>
<asrwt>0</asrwt>
<pdfrwt beam="2">  1        1 0.14856176E+00 0.13004005E+03</pdfrwt>
<pdfrwt beam="1">  1       -1 0.25114781E-02 0.13004005E+03</pdfrwt>
<totfact> 0.80396756E+03</totfact>
</mgrwt>
</event>
<event>
 6    1  0.5258538E-006  0.1747039E+03  0.7546771E-02  0.1190488E+00
          1   -1    0    0  501    0  0.00000000000E+00  0.00000000000E+00  0.11341602869E+04  0.11341602869E+04  0.00000000000E+00 0. -1.
         -1   -1    0    0    0  501 -0.00000000000E+00 -0.00000000000E+00 -0.20147243273E+02  0.20147243273E+02  0.00000000000E+00 0.  1.
          5    1    1    2  502    0 -0.19902169535E+02 -0.65845807824E+02  0.31200103905E+03  0.31952856700E+03  0.47000000000E+01 0. -1.
         -5    1    1    2    0  502  0.92440593869E+02  0.51143319866E+02  0.48689485475E+03  0.49824651744E+03  0.47000000000E+01 0.  1.
        -11    1    1    2    0    0 -0.93981659387E+02  0.19513576986E+02  0.24909344587E+03  0.26694732957E+03  0.00000000000E+00 0.  1.
         11    1    1    2    0    0  0.21443235052E+02 -0.48110890281E+01  0.66023703924E+02  0.69585116131E+02  0.00000000000E+00 0. -1.
<mgrwt>
<rscale>  0 0.15842334E+03</rscale>
<asrwt>0</asrwt>
<pdfrwt beam="1">  1        1 0.17448615E+00 0.17470386E+03</pdfrwt>
<pdfrwt beam="2">  1       -1 0.30995768E-02 0.17470386E+03</pdfrwt>
<totfact> 0.45276861E+03</totfact>
</mgrwt>
</event>
<event>
 6    1  0.7102268E-006  0.1492319E+03  0.7546771E-02  0.1210447E+00
         -1   -1    0    0    0  501 -0.00000000000E+00  0.00000000000E+00  0.27517043881E+03  0.27517043881E+03  0.00000000000E+00 0.  1.
          1   -1    0    0  501    0  0.00000000000E+00 -0.00000000000E+00 -0.71690769212E+02  0.71690769212E+02  0.00000000000E+00 0. -1.
          5    1    1    2  502    0  0.72802901419E+02 -0.25928333794E+02  0.79545543497E+02  0.11100506492E+03  0.47000000000E+01 0.  1.
         -5    1    1    2    0  502 -0.28903279992E+02 -0.42758563594E+02 -0.11377990857E+02  0.53058863829E+02  0.47000000000E+01 0.  1.
        -11    1    1    2    0    0 -0.42742020148E+02  0.90338518618E+02  0.12043878761E+03  0.15650376926E+03  0.00000000000E+00 0.  1.
         11    1    1    2    0    0 -0.11576012789E+01 -0.21651621230E+02  0.14873329351E+02  0.26293510009E+02  0.00000000000E+00 0. -1.
<mgrwt>
<rscale>  0 0.14216348E+03</rscale>
<asrwt>0</asrwt>
<pdfrwt beam="2">  1        1 0.11029349E-01 0.14923189E+03</pdfrwt>
<pdfrwt beam="1">  1       -1 0.42333913E-01 0.14923189E+03</pdfrwt>
<totfact> 0.30361768E+03</totfact>
</mgrwt>
</event>
<event>
 6    1  0.5258538E-006  0.1281081E+03  0.7546771E-02  0.1263450E+00
         -4   -1    0    0    0  501 -0.00000000000E+00  0.00000000000E+00  0.23659613966E+03  0.23659613966E+03  0.00000000000E+00 0.  1.
          4   -1    0    0  501    0  0.00000000000E+00 -0.00000000000E+00 -0.46360444109E+02  0.46360444109E+02  0.00000000000E+00 0. -1.
          5    1    1    2  502    0 -0.61694417271E+02  0.24939870085E+02  0.70466909049E+02  0.97035424011E+02  0.47000000000E+01 0. -1.
         -5    1    1    2    0  502  0.48844195870E+02  0.25219250157E-01 -0.21602361873E+00  0.49070284006E+02  0.47000000000E+01 0. -1.
        -11    1    1    2    0    0  0.60842237480E+01 -0.36064153758E+02  0.11820132431E+03  0.12373032786E+03  0.00000000000E+00 0.  1.
         11    1    1    2    0    0  0.67659976527E+01  0.11099064423E+02  0.17834858155E+01  0.13120547891E+02  0.00000000000E+00 0. -1.
<mgrwt>
<rscale>  0 0.10845914E+03</rscale>
<asrwt>0</asrwt>
<pdfrwt beam="2">  1        4 0.71323762E-02 0.12810812E+03</pdfrwt>
<pdfrwt beam="1">  1       -4 0.36399405E-01 0.12810812E+03</pdfrwt>
<totfact> 0.15902867E+03</totfact>
</mgrwt>
</event>
<event>
 6    1  0.5258538E-006  0.1696766E+03  0.7546771E-02  0.1186707E+00
         -2   -1    0    0    0  501 -0.00000000000E+00  0.00000000000E+00  0.48295696737E+02  0.48295696737E+02  0.00000000000E+00 0.  1.
          2   -1    0    0  501    0  0.00000000000E+00 -0.00000000000E+00 -0.58782879051E+03  0.58782879051E+03  0.00000000000E+00 0. -1.
          5    1    1    2  502    0 -0.76179518230E+02 -0.53498100414E+02 -0.14622844003E+03  0.17340764810E+03  0.47000000000E+01 0. -1.
         -5    1    1    2    0  502 -0.38083653884E+02  0.43060806880E+02 -0.26971056288E+03  0.27580876620E+03  0.47000000000E+01 0. -1.
        -11    1    1    2    0    0  0.43094190276E+02  0.33339948765E+02 -0.17713925318E+02  0.57292622294E+02  0.00000000000E+00 0.  1.
         11    1    1    2    0    0  0.71168981838E+02 -0.22902655231E+02 -0.10588016554E+03  0.12961545065E+03  0.00000000000E+00 0. -1.
<mgrwt>
<rscale>  0 0.16177519E+03</rscale>
<asrwt>0</asrwt>
<pdfrwt beam="2">  1        2 0.90435199E-01 0.16967655E+03</pdfrwt>
<pdfrwt beam="1">  1       -2 0.74301072E-02 0.16967655E+03</pdfrwt>
<totfact> 0.53556694E+03</totfact>
</mgrwt>
</event>
<event>
 6    1  0.5258538E-006  0.2039534E+03  0.7546771E-02  0.1162726E+00
          2   -1    0    0  501    0  0.00000000000E+00  0.00000000000E+00  0.53323612986E+03  0.53323612986E+03  0.00000000000E+00 0. -1.
         -2   -1    0    0    0  501 -0.00000000000E+00 -0.00000000000E+00 -0.55873427111E+02  0.55873427111E+02  0.00000000000E+00 0.  1.
          5    1    1    2  502    0 -0.77437398853E+02  0.26408335155E+02  0.26454120645E+03  0.27694420164E+03  0.47000000000E+01 0. -1.
         -5    1    1    2    0  502  0.36725107010E+02  0.76042445900E+02  0.50972071316E+02  0.98749324644E+02  0.47000000000E+01 0.  1.
        -11    1    1    2    0    0 -0.23615496879E+02 -0.24427487179E+02  0.65266093936E+02  0.73580274805E+02  0.00000000000E+00 0.  1.
         11    1    1    2    0    0  0.64327788723E+02 -0.78023293876E+02  0.96583331046E+02  0.13983575589E+03  0.00000000000E+00 0. -1.
<mgrwt>
<rscale>  0 0.18534746E+03</rscale>
<asrwt>0</asrwt>
<pdfrwt beam="1">  1        2 0.82036324E-01 0.20395342E+03</pdfrwt>
<pdfrwt beam="2">  1       -2 0.85959122E-02 0.20395342E+03</pdfrwt>
<totfact> 0.48065134E+03</totfact>
</mgrwt>
</event>
<event>
 6    1  0.5258538E-006  0.1539679E+03  0.7546771E-02  0.1204016E+00
         -3   -1    0    0    0  501 -0.00000000000E+00  0.00000000000E+00  0.14592559871E+03  0.14592559871E+03  0.00000000000E+00 0.  1.
          3   -1    0    0  501    0  0.00000000000E+00 -0.00000000000E+00 -0.15960626353E+03  0.15960626353E+03  0.00000000000E+00 0. -1.
          5    1    1    2  502    0  0.64038548833E+02 -0.80247558299E+02 -0.76381759084E+02  0.12805026150E+03  0.47000000000E+01 0. -1.
         -5    1    1    2    0  502  0.13432716487E+02  0.34637167895E+02  0.11289710191E+02  0.39111620117E+02  0.47000000000E+01 0. -1.
        -11    1    1    2    0    0 -0.64817528158E+02  0.34273232841E+02 -0.10591046966E+02  0.74081959489E+02  0.00000000000E+00 0. -1.
         11    1    1    2    0    0 -0.12653737162E+02  0.11337157563E+02  0.62002431044E+02  0.64288021133E+02  0.00000000000E+00 0.  1.
<mgrwt>
<rscale>  0 0.14715277E+03</rscale>
<asrwt>0</asrwt>
<pdfrwt beam="2">  1        3 0.24554810E-01 0.15396792E+03</pdfrwt>
<pdfrwt beam="1">  1       -3 0.22450092E-01 0.15396792E+03</pdfrwt>
<totfact> 0.66780937E+02</totfact>
</mgrwt>
</event>
<event>
 6    1  0.5258538E-006  0.1296755E+03  0.7546771E-02  0.1242055E+00
         -2   -1    0    0    0  501 -0.00000000000E+00  0.00000000000E+00  0.18731880231E+03  0.18731880231E+03  0.00000000000E+00 0.  1.
          2   -1    0    0  501    0  0.00000000000E+00 -0.00000000000E+00 -0.70969991478E+02  0.70969991478E+02  0.00000000000E+00 0. -1.
          5    1    1    2  502    0 -0.17838293134E+02  0.50156458467E+02 -0.32763867661E+01  0.53541570187E+02  0.47000000000E+01 0.  1.
         -5    1    1    2    0  502 -0.11795582524E+02 -0.67780277797E+02  0.46399154965E+02  0.83116023767E+02  0.47000000000E+01 0.  1.
        -11    1    1    2    0    0  0.25565534081E+02  0.34969609472E+01  0.93270266611E+02  0.96773797603E+02  0.00000000000E+00 0.  1.
         11    1    1    2    0    0  0.40683415759E+01  0.14126858382E+02 -0.20044223977E+02  0.24857402233E+02  0.00000000000E+00 0. -1.
<mgrwt>
<rscale>  0 0.12063390E+03</rscale>
<asrwt>0</asrwt>
<pdfrwt beam="2">  1        2 0.10918460E-01 0.12967546E+03</pdfrwt>
<pdfrwt beam="1">  1       -2 0.28818277E-01 0.12967546E+03</pdfrwt>
<totfact> 0.59710911E+03</totfact>
</mgrwt>
</event>
<event>
 6    1  0.5258538E-006  0.1793615E+03  0.7546771E-02  0.1173750E+00
         -1   -1    0    0    0  501 -0.00000000000E+00  0.00000000000E+00  0.78540947376E+02  0.78540947376E+02  0.00000000000E+00 0.  1.
          1   -1    0    0  501    0  0.00000000000E+00 -0.00000000000E+00 -0.51947332189E+03  0.51947332189E+03  0.00000000000E+00 0. -1.
          5    1    1    2  502    0  0.48328021955E+02 -0.91377443767E+02 -0.26346789202E+03  0.28305980828E+03  0.47000000000E+01 0.  1.
         -5    1    1    2    0  502 -0.63742057787E+02 -0.36335785372E+02 -0.12973016179E+03  0.14911520415E+03  0.47000000000E+01 0.  1.
        -11    1    1    2    0    0 -0.32684655240E+02  0.30696375296E+02 -0.34850309115E+02  0.56789947965E+02  0.00000000000E+00 0. -1.
         11    1    1    2    0    0  0.48098691072E+02  0.97016853843E+02 -0.12884011587E+02  0.10904930888E+03  0.00000000000E+00 0.  1.
<mgrwt>
<rscale>  0 0.17398980E+03</rscale>
<asrwt>0</asrwt>
<pdfrwt beam="2">  1        1 0.79918968E-01 0.17936146E+03</pdfrwt>
<pdfrwt beam="1">  1       -1 0.12083223E-01 0.17936146E+03</pdfrwt>
<totfact> 0.19248394E+03</totfact>
</mgrwt>
</event>
<event>
 6    1  0.1084776E-005  0.2303816E+03  0.7546771E-02  0.1129082E+00
          1   -1    0    0  501    0  0.00000000000E+00  0.00000000000E+00  0.52312528066E+03  0.52312528066E+03  0.00000000000E+00 0. -1.
         -1   -1    0    0    0  501 -0.00000000000E+00 -0.00000000000E+00 -0.98357157116E+02  0.98357157116E+02  0.00000000000E+00 0.  1.
          5    1    1    2  502    0 -0.64595663235E+02 -0.10533257941E+03  0.76422590702E+02  0.14536180503E+03  0.47000000000E+01 0.  1.
         -5    1    1    2    0  502 -0.69061260506E+02 -0.34620783336E+02  0.20015520445E+03  0.21459788491E+03  0.47000000000E+01 0.  1.
        -11    1    1    2    0    0  0.50877659262E+02  0.50428135524E+02  0.11443246770E+03  0.13500489891E+03  0.00000000000E+00 0. -1.
         11    1    1    2    0    0  0.82779264479E+02  0.89525227218E+02  0.33757860684E+02  0.12651784892E+03  0.00000000000E+00 0.  1.
<mgrwt>
<rscale>  0 0.22656361E+03</rscale>
<asrwt>0</asrwt>
<pdfrwt beam="1">  1        1 0.80480811E-01 0.23038164E+03</pdfrwt>
<pdfrwt beam="2">  1       -1 0.15131871E-01 0.23038164E+03</pdfrwt>
<totfact> 0.13446720E+03</totfact>
</mgrwt>
</event>
<event>
 6    1  0.5258538E-006  0.1250604E+03  0.7546771E-02  0.1253015E+00
         -2   -1    0    0    0  501 -0.00000000000E+00  0.00000000000E+00  0.46317448363E+02  0.46317448363E+02  0.00000000000E+00 0.  1.
          2   -1    0    0  501    0  0.00000000000E+00 -0.00000000000E+00 -0.35771716219E+03  0.35771716219E+03  0.00000000000E+00 0. -1.
          5    1    1    2  502    0  0.48117690007E+02 -0.35272522692E+02 -0.17394267550E+03  0.18395001307E+03  0.47000000000E+01 0.  1.
         -5    1    1    2    0  502 -0.51887685396E+02  0.34430387546E+02 -0.11414152147E+03  0.13010826417E+03  0.47000000000E+01 0.  1.
        -11    1    1    2    0    0  0.33986603245E+02  0.10520372133E+02 -0.40488068255E+02  0.53898525963E+02  0.00000000000E+00 0. -1.
         11    1    1    2    0    0 -0.30216607857E+02 -0.96782369873E+01  0.17172551397E+02  0.36077807348E+02  0.00000000000E+00 0.  1.
<mgrwt>
<rscale>  0 0.11418221E+03</rscale>
<asrwt>0</asrwt>
<pdfrwt beam="2">  1        2 0.55033407E-01 0.12506037E+03</pdfrwt>
<pdfrwt beam="1">  1       -2 0.71257616E-02 0.12506037E+03</pdfrwt>
<totfact> 0.96435673E+03</totfact>
</mgrwt>
</event>
<event>
 6    1  0.5258538E-006  0.1262685E+03  0.7546771E-02  0.1249201E+00
         -3   -1    0    0    0  501 -0.00000000000E+00  0.00000000000E+00  0.10073980438E+03  0.10073980438E+03  0.00000000000E+00 0.  1.
          3   -1    0    0  501    0  0.00000000000E+00 -0.00000000000E+00 -0.12805492744E+03  0.12805492744E+03  0.00000000000E+00 0. -1.
          5    1    1    2  502    0 -0.56371585851E+02  0.19796403538E+02  0.56426840447E+01  0.60196205591E+02  0.47000000000E+01 0. -1.
         -5    1    1    2    0  502  0.41955516096E+02 -0.30356612787E+02 -0.54136450718E+02  0.75064202967E+02  0.47000000000E+01 0. -1.
        -11    1    1    2    0    0 -0.22354112611E+02  0.67196914686E+01  0.44198086210E+02  0.49983311501E+02  0.00000000000E+00 0.  1.
         11    1    1    2    0    0  0.36770182366E+02  0.38405177801E+01 -0.23019442592E+02  0.43551011760E+02  0.00000000000E+00 0. -1.
<mgrwt>
<rscale>  0 0.11637425E+03</rscale>
<asrwt>0</asrwt>
<pdfrwt beam="2">  1        3 0.19700758E-01 0.12626849E+03</pdfrwt>
<pdfrwt beam="1">  1       -3 0.15498432E-01 0.12626849E+03</pdfrwt>
<totfact> 0.18316559E+03</totfact>
</mgrwt>
</event>
<event>
 6    1  0.5258538E-006  0.1864414E+03  0.7546771E-02  0.1193540E+00
          2   -1    0    0  501    0  0.00000000000E+00  0.00000000000E+00  0.35434498126E+03  0.35434498126E+03  0.00000000000E+00 0. -1.
         -2   -1    0    0    0  501 -0.00000000000E+00 -0.00000000000E+00 -0.54288635234E+02  0.54288635234E+02  0.00000000000E+00 0.  1.
          5    1    1    2  502    0 -0.28018976052E+02  0.37815342262E+02  0.22034406296E+03  0.22536339368E+03  0.47000000000E+01 0. -1.
         -5    1    1    2    0  502  0.18788911942E+02 -0.34899445485E+02 -0.23046705040E+02  0.46089425255E+02  0.47000000000E+01 0.  1.
        -11    1    1    2    0    0 -0.40608783069E+02  0.19276239949E+01  0.42122153760E+02  0.58541137963E+02  0.00000000000E+00 0.  1.
         11    1    1    2    0    0  0.49838847179E+02 -0.48435207721E+01  0.60636834344E+02  0.78639659593E+02  0.00000000000E+00 0. -1.
<mgrwt>
<rscale>  0 0.15578431E+03</rscale>
<asrwt>0</asrwt>
<pdfrwt beam="1">  1        2 0.54514611E-01 0.18644137E+03</pdfrwt>
<pdfrwt beam="2">  1       -2 0.83520979E-02 0.18644137E+03</pdfrwt>
<totfact> 0.78279836E+03</totfact>
</mgrwt>
</event>
<event>
 6    1  0.5258538E-006  0.1392534E+03  0.7546771E-02  0.1223102E+00
          1   -1    0    0  501    0  0.00000000000E+00  0.00000000000E+00  0.34595187347E+03  0.34595187347E+03  0.00000000000E+00 0. -1.
         -1   -1    0    0    0  501 -0.00000000000E+00 -0.00000000000E+00 -0.47771861083E+02  0.47771861083E+02  0.00000000000E+00 0.  1.
          5    1    1    2  502    0  0.99582516487E+01 -0.24456362628E+02  0.10170066458E+03  0.10517792366E+03  0.47000000000E+01 0.  1.
         -5    1    1    2    0  502 -0.64750537563E+02  0.52105427647E+02  0.36112500673E+02  0.90740346097E+02  0.47000000000E+01 0.  1.
        -11    1    1    2    0    0  0.33899470376E+02 -0.25319477265E+02  0.16963400941E+03  0.17483119621E+03  0.00000000000E+00 0. -1.
         11    1    1    2    0    0  0.20892815538E+02 -0.23295877539E+01 -0.92671622792E+01  0.22974268583E+02  0.00000000000E+00 0.  1.
<mgrwt>
<rscale>  0 0.13297829E+03</rscale>
<asrwt>0</asrwt>
<pdfrwt beam="1">  1        1 0.53223364E-01 0.13925337E+03</pdfrwt>
<pdfrwt beam="2">  1       -1 0.73495173E-02 0.13925337E+03</pdfrwt>
<totfact> 0.68471200E+03</totfact>
</mgrwt>
</event>
<event>
 6    1  0.5258538E-006  0.1405335E+03  0.7546771E-02  0.1223238E+00
         -1   -1    0    0    0  501 -0.00000000000E+00  0.00000000000E+00  0.67650824887E+02  0.67650824887E+02  0.00000000000E+00 0.  1.
          1   -1    0    0  501    0  0.00000000000E+00 -0.00000000000E+00 -0.29494095020E+03  0.29494095020E+03  0.00000000000E+00 0. -1.
          5    1    1    2  502    0  0.26684054011E+02 -0.68118453410E+02 -0.45854505462E+02  0.86469000830E+02  0.47000000000E+01 0.  1.
         -5    1    1    2    0  502  0.19802166455E+02  0.23807222388E+02 -0.15836600050E+03  0.16143354592E+03  0.47000000000E+01 0.  1.
        -11    1    1    2    0    0 -0.37903310629E+02  0.31127973444E+02 -0.58251727276E+02  0.76150347458E+02  0.00000000000E+00 0. -1.
         11    1    1    2    0    0 -0.85829098377E+01  0.13183257577E+02  0.35182107923E+02  0.38538880881E+02  0.00000000000E+00 0.  1.
<mgrwt>
<rscale>  0 0.13288420E+03</rscale>
<asrwt>0</asrwt>
<pdfrwt beam="2">  1        1 0.45375532E-01 0.14053348E+03</pdfrwt>
<pdfrwt beam="1">  1       -1 0.10407819E-01 0.14053348E+03</pdfrwt>
<totfact> 0.49276723E+03</totfact>
</mgrwt>
</event>
<event>
 6    1  0.5258538E-006  0.1801154E+03  0.7546771E-02  0.1186398E+00
         -4   -1    0    0    0  501 -0.00000000000E+00  0.00000000000E+00  0.14619642972E+03  0.14619642972E+03  0.00000000000E+00 0. -1.
          4   -1    0    0  501    0  0.00000000000E+00 -0.00000000000E+00 -0.18703907711E+03  0.18703907711E+03  0.00000000000E+00 0.  1.
          5    1    1    2  502    0  0.11817530871E+03  0.26757415422E+01 -0.97882774740E+02  0.15354377478E+03  0.47000000000E+01 0. -1.
         -5    1    1    2    0  502 -0.47518339425E+02 -0.14325091965E+02  0.31745234396E+01  0.49953662935E+02  0.47000000000E+01 0.  1.
        -11    1    1    2    0    0  0.18374712969E+02 -0.15436876251E+02  0.18026620948E+02  0.30014767830E+02  0.00000000000E+00 0.  1.
         11    1    1    2    0    0 -0.89031682257E+02  0.27086226674E+02  0.35838982956E+02  0.99723301290E+02  0.00000000000E+00 0. -1.
<mgrwt>
<rscale>  0 0.16205365E+03</rscale>
<asrwt>0</asrwt>
<pdfrwt beam="2">  1        4 0.28775243E-01 0.18011539E+03</pdfrwt>
<pdfrwt beam="1">  1       -4 0.22491758E-01 0.18011539E+03</pdfrwt>
<totfact> 0.36642620E+02</totfact>
</mgrwt>
</event>
<event>
 6    1  0.5258538E-006  0.1360581E+03  0.7546771E-02  0.1231822E+00
          1   -1    0    0  501    0  0.00000000000E+00  0.00000000000E+00  0.62276352010E+03  0.62276352010E+03  0.00000000000E+00 0. -1.
         -1   -1    0    0    0  501 -0.00000000000E+00 -0.00000000000E+00 -0.26155514103E+02  0.26155514103E+02  0.00000000000E+00 0.  1.
          5    1    1    2  502    0  0.15620952200E+02 -0.64664191679E+02  0.10286899172E+03  0.12259523355E+03  0.47000000000E+01 0.  1.
         -5    1    1    2    0  502  0.10005617049E+02  0.17479653316E+02  0.34175804353E+03  0.34238326619E+03  0.47000000000E+01 0.  1.
        -11    1    1    2    0    0  0.18931656856E+02 -0.14006849937E+02  0.62193375895E+02  0.66502747926E+02  0.00000000000E+00 0. -1.
         11    1    1    2    0    0 -0.44558226105E+02  0.61191388299E+02  0.89787594863E+02  0.11743778654E+03  0.00000000000E+00 0.  1.
<mgrwt>
<rscale>  0 0.12710075E+03</rscale>
<asrwt>0</asrwt>
<pdfrwt beam="1">  1        1 0.95809761E-01 0.13605809E+03</pdfrwt>
<pdfrwt beam="2">  1       -1 0.40239257E-02 0.13605809E+03</pdfrwt>
<totfact> 0.78100584E+03</totfact>
</mgrwt>
</event>
<event>
 6    1  0.5258538E-006  0.1422966E+03  0.7546771E-02  0.1221917E+00
          2   -1    0    0  501    0  0.00000000000E+00  0.00000000000E+00  0.15835878493E+04  0.15835878493E+04  0.00000000000E+00 0. -1.
         -2   -1    0    0    0  501 -0.00000000000E+00 -0.00000000000E+00 -0.17229540496E+02  0.17229540496E+02  0.00000000000E+00 0.  1.
          5    1    1    2  502    0  0.18201026629E+02  0.59723571565E+02  0.10901437822E+04  0.10919403548E+04  0.47000000000E+01 0.  1.
         -5    1    1    2    0  502 -0.54431126501E+02 -0.21865783665E+01  0.26036338783E+03  0.26604268902E+03  0.47000000000E+01 0.  1.
        -11    1    1    2    0    0  0.37388273718E+02 -0.67441550602E+01  0.25345038111E+02  0.45669876242E+02  0.00000000000E+00 0.  1.
         11    1    1    2    0    0 -0.11581738463E+01 -0.50792838138E+02  0.19050610065E+03  0.19716446982E+03  0.00000000000E+00 0. -1.
<mgrwt>
<rscale>  0 0.13380490E+03</rscale>
<asrwt>0</asrwt>
<pdfrwt beam="1">  1        2 0.24362879E+00 0.14229663E+03</pdfrwt>
<pdfrwt beam="2">  1       -2 0.26506998E-02 0.14229663E+03</pdfrwt>
<totfact> 0.61791670E+03</totfact>
</mgrwt>
</event>
<event>
 6    1  0.5258538E-006  0.2107170E+03  0.7546771E-02  0.1146298E+00
         -1   -1    0    0    0  501 -0.00000000000E+00  0.00000000000E+00  0.13140098721E+03  0.13140098721E+03  0.00000000000E+00 0.  1.
          1   -1    0    0  501    0  0.00000000000E+00 -0.00000000000E+00 -0.32092348822E+03  0.32092348822E+03  0.00000000000E+00 0. -1.
          5    1    1    2  502    0  0.28425787647E+02  0.12122012196E+03 -0.56088919247E+02  0.13663967298E+03  0.47000000000E+01 0.  1.
         -5    1    1    2    0  502 -0.59058004454E+02  0.45626741591E+02 -0.10351495624E+03  0.12769919187E+03  0.47000000000E+01 0.  1.
        -11    1    1    2    0    0  0.49337598847E+02 -0.84360861671E+02 -0.33549842312E+02  0.10332737082E+03  0.00000000000E+00 0.  1.
         11    1    1    2    0    0 -0.18705382040E+02 -0.82486001875E+02  0.36312167872E+01  0.84658239752E+02  0.00000000000E+00 0. -1.
<mgrwt>
<rscale>  0 0.20413289E+03</rscale>
<asrwt>0</asrwt>
<pdfrwt beam="2">  1        1 0.49372844E-01 0.21071696E+03</pdfrwt>
<pdfrwt beam="1">  1       -1 0.20215537E-01 0.21071696E+03</pdfrwt>
<totfact> 0.15837973E+03</totfact>
</mgrwt>
</event>
<event>
 6    1  0.5258538E-006  0.1349784E+03  0.7546771E-02  0.1231857E+00
         -3   -1    0    0    0  501 -0.00000000000E+00  0.00000000000E+00  0.35049398215E+02  0.35049398215E+02  0.00000000000E+00 0.  1.
          3   -1    0    0  501    0  0.00000000000E+00 -0.00000000000E+00 -0.41499225194E+03  0.41499225194E+03  0.00000000000E+00 0. -1.
          5    1    1    2  502    0  0.63522380754E+02  0.22191581320E+02 -0.13895483979E+03  0.15446066373E+03  0.47000000000E+01 0.  1.
         -5    1    1    2    0  502 -0.58002834426E+02  0.28441718416E+02 -0.82516604362E+02  0.10490157360E+03  0.47000000000E+01 0.  1.
        -11    1    1    2    0    0 -0.42595178754E+00 -0.65923307470E+02 -0.16135904936E+03  0.17430664564E+03  0.00000000000E+00 0. -1.
         11    1    1    2    0    0 -0.50935945403E+01  0.15290007735E+02  0.28876397914E+01  0.16372767189E+02  0.00000000000E+00 0.  1.
<mgrwt>
<rscale>  0 0.12707799E+03</rscale>
<asrwt>0</asrwt>
<pdfrwt beam="2">  1        3 0.63844959E-01 0.13497840E+03</pdfrwt>
<pdfrwt beam="1">  1       -3 0.53922153E-02 0.13497840E+03</pdfrwt>
<totfact> 0.11259371E+03</totfact>
</mgrwt>
</event>
<event>
 6    1  0.5258538E-006  0.1390347E+03  0.7546771E-02  0.1227453E+00
          2   -1    0    0  501    0  0.00000000000E+00  0.00000000000E+00  0.73603876007E+03  0.73603876007E+03  0.00000000000E+00 0. -1.
         -2   -1    0    0    0  501 -0.00000000000E+00 -0.00000000000E+00 -0.20708100076E+02  0.20708100076E+02  0.00000000000E+00 0.  1.
          5    1    1    2  502    0 -0.29661314095E+02 -0.17053122784E+01  0.24486660944E+03  0.24670721121E+03  0.47000000000E+01 0. -1.
         -5    1    1    2    0  502  0.88980072115E+02  0.15411825904E+02  0.20266064386E+03  0.22191981476E+03  0.47000000000E+01 0. -1.
        -11    1    1    2    0    0 -0.51271020893E+01  0.25238488339E+02  0.23494775282E+02  0.34860764980E+02  0.00000000000E+00 0.  1.
         11    1    1    2    0    0 -0.54191655931E+02 -0.38945001964E+02  0.24430863141E+03  0.25325906920E+03  0.00000000000E+00 0. -1.
<mgrwt>
<rscale>  0 0.13000204E+03</rscale>
<asrwt>0</asrwt>
<pdfrwt beam="1">  1        2 0.11323671E+00 0.13903470E+03</pdfrwt>
<pdfrwt beam="2">  1       -2 0.31858621E-02 0.13903470E+03</pdfrwt>
<totfact> 0.14555908E+04</totfact>
</mgrwt>
</event>
<event>
 6    1  0.5258538E-006  0.2539478E+03  0.7546771E-02  0.1113067E+00
          1   -1    0    0  501    0  0.00000000000E+00  0.00000000000E+00  0.16727329248E+04  0.16727329248E+04  0.00000000000E+00 0. -1.
         -1   -1    0    0    0  501 -0.00000000000E+00 -0.00000000000E+00 -0.37750271328E+02  0.37750271328E+02  0.00000000000E+00 0.  1.
          5    1    1    2  502    0  0.57054987771E+02  0.11783115554E+03  0.34986014704E+03  0.37358220693E+03  0.47000000000E+01 0. -1.
         -5    1    1    2    0  502 -0.21338793119E+02  0.10031596242E+03  0.64810977713E+03  0.65619129042E+03  0.47000000000E+01 0. -1.
        -11    1    1    2    0    0 -0.36044833147E+02 -0.20359247933E+03  0.63254839439E+03  0.66548223033E+03  0.00000000000E+00 0. -1.
         11    1    1    2    0    0  0.32863849562E+00 -0.14554638624E+02  0.44643348807E+01  0.15227468426E+02  0.00000000000E+00 0.  1.
<mgrwt>
<rscale>  0 0.25037603E+03</rscale>
<asrwt>0</asrwt>
<pdfrwt beam="1">  1        1 0.25734347E+00 0.25394780E+03</pdfrwt>
<pdfrwt beam="2">  1       -1 0.58077353E-02 0.25394780E+03</pdfrwt>
<totfact> 0.77470258E+02</totfact>
</mgrwt>
</event>
<event>
 6    1  0.5258538E-006  0.1539001E+03  0.7546771E-02  0.1204427E+00
         -2   -1    0    0    0  501 -0.00000000000E+00  0.00000000000E+00  0.40602267968E+02  0.40602267968E+02  0.00000000000E+00 0.  1.
          2   -1    0    0  501    0  0.00000000000E+00 -0.00000000000E+00 -0.49094999938E+03  0.49094999938E+03  0.00000000000E+00 0. -1.
          5    1    1    2  502    0  0.95621625865E+02 -0.35179077851E+02 -0.16557412690E+03  0.19446836337E+03  0.47000000000E+01 0.  1.
         -5    1    1    2    0  502 -0.71842682866E+01  0.50622113691E+02 -0.10252371219E+03  0.11466217191E+03  0.47000000000E+01 0.  1.
        -11    1    1    2    0    0 -0.69718537152E+01  0.27655222385E+02 -0.79158534227E+02  0.84139714822E+02  0.00000000000E+00 0.  1.
         11    1    1    2    0    0 -0.81465503863E+02 -0.43098258225E+02 -0.10309135809E+03  0.13828201725E+03  0.00000000000E+00 0. -1.
<mgrwt>
<rscale>  0 0.14682743E+03</rscale>
<asrwt>0</asrwt>
<pdfrwt beam="2">  1        2 0.75530770E-01 0.15390009E+03</pdfrwt>
<pdfrwt beam="1">  1       -2 0.62465027E-02 0.15390009E+03</pdfrwt>
<totfact> 0.85065747E+03</totfact>
</mgrwt>
</event>
<event>
 6    1  0.5258538E-006  0.1263464E+03  0.7546771E-02  0.1248387E+00
          3   -1    0    0  501    0  0.00000000000E+00  0.00000000000E+00  0.62386028156E+02  0.62386028156E+02  0.00000000000E+00 0. -1.
         -3   -1    0    0    0  501 -0.00000000000E+00 -0.00000000000E+00 -0.19762971963E+03  0.19762971963E+03  0.00000000000E+00 0.  1.
          5    1    1    2  502    0  0.23184961286E+02 -0.44926394622E+02 -0.63295696150E+02  0.81144060255E+02  0.47000000000E+01 0. -1.
         -5    1    1    2    0  502 -0.82378344384E+01  0.55643728669E+02  0.75590298055E+01  0.56950113152E+02  0.47000000000E+01 0. -1.
        -11    1    1    2    0    0  0.37492706767E+02 -0.76036524400E+01 -0.45027942439E+02  0.59084974329E+02  0.00000000000E+00 0.  1.
         11    1    1    2    0    0 -0.52439833615E+02 -0.31136816065E+01 -0.34479082689E+02  0.62836600049E+02  0.00000000000E+00 0. -1.
<mgrwt>
<rscale>  0 0.11684948E+03</rscale>
<asrwt>0</asrwt>
<pdfrwt beam="1">  1        3 0.95978506E-02 0.12634645E+03</pdfrwt>
<pdfrwt beam="2">  1       -3 0.30404572E-01 0.12634645E+03</pdfrwt>
<totfact> 0.18734489E+03</totfact>
</mgrwt>
</event>
<event>
 6    1  0.5258538E-006  0.1802157E+03  0.7546771E-02  0.1173975E+00
          1   -1    0    0  501    0  0.00000000000E+00  0.00000000000E+00  0.11007043608E+03  0.11007043608E+03  0.00000000000E+00 0. -1.
         -1   -1    0    0    0  501 -0.00000000000E+00 -0.00000000000E+00 -0.31779716088E+03  0.31779716088E+03  0.00000000000E+00 0.  1.
          5    1    1    2  502    0  0.25148242505E+02  0.18539921306E+02  0.36720424073E+02  0.48442154444E+02  0.47000000000E+01 0. -1.
         -5    1    1    2    0  502  0.85886435996E+02 -0.85808166421E+02 -0.52848884668E+02  0.13249383353E+03  0.47000000000E+01 0. -1.
        -11    1    1    2    0    0 -0.10343245733E+03  0.46381076716E+02 -0.95275130685E+02  0.14807710165E+03  0.00000000000E+00 0. -1.
         11    1    1    2    0    0 -0.76022211705E+01  0.20887168399E+02 -0.96323133518E+02  0.98854507339E+02  0.00000000000E+00 0.  1.
<mgrwt>
<rscale>  0 0.17376718E+03</rscale>
<asrwt>0</asrwt>
<pdfrwt beam="1">  1        1 0.16933914E-01 0.18021572E+03</pdfrwt>
<pdfrwt beam="2">  1       -1 0.48891870E-01 0.18021572E+03</pdfrwt>
<totfact> 0.13459696E+03</totfact>
</mgrwt>
</event>
<event>
 6    1  0.5258538E-006  0.1294246E+03  0.7546771E-02  0.1242163E+00
          2   -1    0    0  501    0  0.00000000000E+00  0.00000000000E+00  0.69309137443E+03  0.69309137443E+03  0.00000000000E+00 0.  1.
         -2   -1    0    0    0  501 -0.00000000000E+00 -0.00000000000E+00 -0.18858670125E+02  0.18858670125E+02  0.00000000000E+00 0. -1.
          5    1    1    2  502    0 -0.87476150693E+01  0.68247776680E+02  0.37082586178E+03  0.37718455636E+03  0.47000000000E+01 0.  1.
         -5    1    1    2    0  502  0.17528244539E+02 -0.35855254063E+02  0.56662307201E+02  0.69466147568E+02  0.47000000000E+01 0.  1.
        -11    1    1    2    0    0  0.75848742194E+01  0.30740493835E+02  0.67469632443E+02  0.74529588622E+02  0.00000000000E+00 0.  1.
         11    1    1    2    0    0 -0.16365503690E+02 -0.63133016452E+02  0.17927490288E+03  0.19076975201E+03  0.00000000000E+00 0. -1.
<mgrwt>
<rscale>  0 0.12056825E+03</rscale>
<asrwt>0</asrwt>
<pdfrwt beam="1">  1        2 0.10662942E+00 0.12942456E+03</pdfrwt>
<pdfrwt beam="2">  1       -2 0.29013344E-02 0.12942456E+03</pdfrwt>
<totfact> 0.17848943E+04</totfact>
</mgrwt>
</event>
<event>
 6    1  0.5258538E-006  0.1917554E+03  0.7546771E-02  0.1161561E+00
         -1   -1    0    0    0  501 -0.00000000000E+00  0.00000000000E+00  0.10153321467E+03  0.10153321467E+03  0.00000000000E+00 0.  1.
          1   -1    0    0  501    0  0.00000000000E+00 -0.00000000000E+00 -0.34079187373E+03  0.34079187373E+03  0.00000000000E+00 0. -1.
          5    1    1    2  502    0  0.70259310827E+02 -0.10776429722E+03 -0.16410266080E+03  0.20856962338E+03  0.47000000000E+01 0. -1.
         -5    1    1    2    0  502  0.44580268373E+02  0.18567993858E+02 -0.81665694260E+01  0.49203186688E+02  0.47000000000E+01 0. -1.
        -11    1    1    2    0    0 -0.11821279672E+03  0.49097063089E+02 -0.33800196475E+02  0.13239048377E+03  0.00000000000E+00 0.  1.
         11    1    1    2    0    0  0.33732175153E+01  0.40099240276E+02 -0.33189232360E+02  0.52161794560E+02  0.00000000000E+00 0. -1.
<mgrwt>
<rscale>  0 0.18660390E+03</rscale>
<asrwt>0</asrwt>
<pdfrwt beam="2">  1        1 0.52429518E-01 0.19175540E+03</pdfrwt>
<pdfrwt beam="1">  1       -1 0.15620495E-01 0.19175540E+03</pdfrwt>
<totfact> 0.22157879E+03</totfact>
</mgrwt>
</event>
<event>
 6    1  0.5258538E-006  0.1897332E+03  0.7546771E-02  0.1164561E+00
         -1   -1    0    0    0  501 -0.00000000000E+00  0.00000000000E+00  0.79734509926E+03  0.79734509926E+03  0.00000000000E+00 0.  1.
          1   -1    0    0  501    0  0.00000000000E+00 -0.00000000000E+00 -0.46720456028E+02  0.46720456028E+02  0.00000000000E+00 0. -1.
          5    1    1    2  502    0 -0.93046217118E+02  0.39532393240E+02  0.20775501994E+03  0.23109445460E+03  0.47000000000E+01 0. -1.
         -5    1    1    2    0  502 -0.45154808622E+02 -0.45593467834E+02  0.24597566812E+02  0.68882881356E+02  0.47000000000E+01 0.  1.
        -11    1    1    2    0    0 -0.10569204859E+02  0.12541884494E+02  0.61902576052E+02  0.64038549952E+02  0.00000000000E+00 0. -1.
         11    1    1    2    0    0  0.14877023060E+03 -0.64808098997E+01  0.45636948043E+03  0.48004966938E+03  0.00000000000E+00 0.  1.
<mgrwt>
<rscale>  0 0.18339095E+03</rscale>
<asrwt>0</asrwt>
<pdfrwt beam="2">  1        1 0.71877630E-02 0.18973317E+03</pdfrwt>
<pdfrwt beam="1">  1       -1 0.12266847E+00 0.18973317E+03</pdfrwt>
<totfact> 0.62969128E+02</totfact>
</mgrwt>
</event>
<event>
 6    1  0.5258538E-006  0.1297964E+03  0.7546771E-02  0.1238004E+00
         -1   -1    0    0    0  501 -0.00000000000E+00  0.00000000000E+00  0.28162480946E+02  0.28162480946E+02  0.00000000000E+00 0.  1.
          1   -1    0    0  501    0  0.00000000000E+00 -0.00000000000E+00 -0.18664465014E+04  0.18664465014E+04  0.00000000000E+00 0. -1.
          5    1    1    2  502    0  0.22028164141E+02  0.59768371413E+02 -0.74895798164E+03  0.75167655711E+03  0.47000000000E+01 0. -1.
         -5    1    1    2    0  502  0.34219144381E+02 -0.54618493051E+02 -0.10078220940E+04  0.10098918718E+04  0.47000000000E+01 0.  1.
        -11    1    1    2    0    0 -0.77669206915E+02  0.93702648938E+01 -0.52746580332E+02  0.94353109666E+02  0.00000000000E+00 0.  1.
         11    1    1    2    0    0  0.21421898393E+02 -0.14520143256E+02 -0.28757364429E+02  0.38687443697E+02  0.00000000000E+00 0. -1.
<mgrwt>
<rscale>  0 0.12314054E+03</rscale>
<asrwt>0</asrwt>
<pdfrwt beam="2">  1        1 0.28714553E+00 0.12979636E+03</pdfrwt>
<pdfrwt beam="1">  1       -1 0.43326906E-02 0.12979636E+03</pdfrwt>
<totfact> 0.91379321E+02</totfact>
</mgrwt>
</event>
<event>
 6    1  0.3157281E-005  0.2751579E+03  0.7546771E-02  0.1100418E+00
          1   -1    0    0  501    0  0.00000000000E+00  0.00000000000E+00  0.34867957384E+03  0.34867957384E+03  0.00000000000E+00 0. -1.
         -1   -1    0    0    0  501 -0.00000000000E+00 -0.00000000000E+00 -0.21307662764E+03  0.21307662764E+03  0.00000000000E+00 0.  1.
          5    1    1    2  502    0 -0.42216520625E+02 -0.47122572997E+02 -0.21953467785E+02  0.67132825409E+02  0.47000000000E+01 0. -1.
         -5    1    1    2    0  502 -0.70155132474E+02 -0.17073004402E+03  0.14267610698E+03  0.23334320655E+03  0.47000000000E+01 0. -1.
        -11    1    1    2    0    0  0.22502582655E+02  0.13976064674E+03  0.13634065842E+02  0.14221565439E+03  0.00000000000E+00 0.  1.
         11    1    1    2    0    0  0.89869070444E+02  0.78091970272E+02  0.12462411670E+01  0.11906451512E+03  0.00000000000E+00 0. -1.
<mgrwt>
<rscale>  0 0.27151059E+03</rscale>
<asrwt>0</asrwt>
<pdfrwt beam="1">  1        1 0.53643012E-01 0.27515794E+03</pdfrwt>
<pdfrwt beam="2">  1       -1 0.32781019E-01 0.27515794E+03</pdfrwt>
<totfact> 0.63646633E+02</totfact>
</mgrwt>
</event>
<event>
 6    1  0.5258538E-006  0.1404792E+03  0.7546771E-02  0.1221039E+00
          1   -1    0    0  501    0  0.00000000000E+00  0.00000000000E+00  0.18820560669E+03  0.18820560669E+03  0.00000000000E+00 0. -1.
         -1   -1    0    0    0  501 -0.00000000000E+00 -0.00000000000E+00 -0.11815091330E+03  0.11815091330E+03  0.00000000000E+00 0.  1.
          5    1    1    2  502    0  0.10872066795E+02 -0.96813719038E+02  0.72320365021E+02  0.12142249885E+03  0.47000000000E+01 0. -1.
         -5    1    1    2    0  502  0.16516924265E+02  0.38852531253E+02  0.41413602053E+02  0.59325411140E+02  0.47000000000E+01 0. -1.
        -11    1    1    2    0    0 -0.24319365511E+02  0.79280200218E+02 -0.56683931262E+02  0.10044824413E+03  0.00000000000E+00 0.  1.
         11    1    1    2    0    0 -0.30696255494E+01 -0.21319012432E+02  0.13004657577E+02  0.25160365871E+02  0.00000000000E+00 0. -1.
<mgrwt>
<rscale>  0 0.13442098E+03</rscale>
<asrwt>0</asrwt>
<pdfrwt beam="1">  1        1 0.28954709E-01 0.14047915E+03</pdfrwt>
<pdfrwt beam="2">  1       -1 0.18177064E-01 0.14047915E+03</pdfrwt>
<totfact> 0.36045871E+03</totfact>
</mgrwt>
</event>
<event>
 6    1  0.5258538E-006  0.2055360E+03  0.7546771E-02  0.1241767E+00
         -2   -1    0    0    0  501 -0.00000000000E+00  0.00000000000E+00  0.30016038111E+03  0.30016038111E+03  0.00000000000E+00 0.  1.
          2   -1    0    0  501    0  0.00000000000E+00 -0.00000000000E+00 -0.49732191841E+02  0.49732191841E+02  0.00000000000E+00 0. -1.
          5    1    1    2  502    0  0.56024001031E+02  0.51983486976E+02 -0.25131561907E+01  0.76611863075E+02  0.47000000000E+01 0. -1.
         -5    1    1    2    0  502 -0.54405170855E+02 -0.55667149005E+02  0.17545355254E+03  0.19200206560E+03  0.47000000000E+01 0.  1.
        -11    1    1    2    0    0  0.62354339053E+01  0.10765670261E+02  0.27483616043E+02  0.30168351678E+02  0.00000000000E+00 0.  1.
         11    1    1    2    0    0 -0.78542640815E+01 -0.70820082324E+01  0.50004176878E+02  0.51110292604E+02  0.00000000000E+00 0. -1.
<mgrwt>
<rscale>  0 0.12081001E+03</rscale>
<asrwt>0</asrwt>
<pdfrwt beam="2">  1        2 0.76511067E-02 0.20553604E+03</pdfrwt>
<pdfrwt beam="1">  1       -2 0.46178519E-01 0.20553604E+03</pdfrwt>
<totfact> 0.39700020E+03</totfact>
</mgrwt>
</event>
<event>
 6    1  0.5258538E-006  0.2577726E+03  0.7546771E-02  0.1108489E+00
          2   -1    0    0  501    0  0.00000000000E+00  0.00000000000E+00  0.17886051718E+03  0.17886051718E+03  0.00000000000E+00 0.  1.
         -2   -1    0    0    0  501 -0.00000000000E+00 -0.00000000000E+00 -0.92875076301E+02  0.92875076301E+02  0.00000000000E+00 0. -1.
          5    1    1    2  502    0 -0.82024420884E+01  0.19331712334E+02 -0.23587013099E+02  0.31928550623E+02  0.47000000000E+01 0.  1.
         -5    1    1    2    0  502 -0.23848875520E+02 -0.75518814355E+02  0.10188596988E+03  0.12913055813E+03  0.47000000000E+01 0.  1.
        -11    1    1    2    0    0  0.38433806906E+02 -0.12628896427E+02  0.94424937098E+01  0.41542836034E+02  0.00000000000E+00 0.  1.
         11    1    1    2    0    0 -0.63824892980E+01  0.68815998448E+02 -0.17560096082E+01  0.69133648694E+02  0.00000000000E+00 0. -1.
<mgrwt>
<rscale>  0 0.25777265E+03</rscale>
<asrwt>0</asrwt>
<pdfrwt beam="1">  1        2 0.27517003E-01 0.25777265E+03</pdfrwt>
<pdfrwt beam="2">  1       -2 0.14288473E-01 0.25777265E+03</pdfrwt>
<totfact> 0.70816429E+03</totfact>
</mgrwt>
</event>
<event>
 6    1  0.5258538E-006  0.1995843E+03  0.7546771E-02  0.1182935E+00
         -1   -1    0    0    0  501 -0.00000000000E+00  0.00000000000E+00  0.18192842558E+03  0.18192842558E+03  0.00000000000E+00 0.  1.
          1   -1    0    0  501    0  0.00000000000E+00 -0.00000000000E+00 -0.13389394494E+03  0.13389394494E+03  0.00000000000E+00 0. -1.
          5    1    1    2  502    0  0.47051157270E+02 -0.26180726900E+02 -0.85353549211E+02  0.10102752211E+03  0.47000000000E+01 0. -1.
         -5    1    1    2    0  502 -0.68929314617E+02  0.27243313713E+02  0.66180526688E+02  0.99475628514E+02  0.47000000000E+01 0.  1.
        -11    1    1    2    0    0 -0.14094354783E+02  0.15388456005E+02  0.72470336262E+02  0.75414886149E+02  0.00000000000E+00 0. -1.
         11    1    1    2    0    0  0.35972512131E+02 -0.16451042818E+02 -0.52628330990E+01  0.39904333737E+02  0.00000000000E+00 0.  1.
<mgrwt>
<rscale>  0 0.16521216E+03</rscale>
<asrwt>0</asrwt>
<pdfrwt beam="2">  1        1 0.20599068E-01 0.19958434E+03</pdfrwt>
<pdfrwt beam="1">  1       -1 0.27988989E-01 0.19958434E+03</pdfrwt>
<totfact> 0.27823095E+03</totfact>
</mgrwt>
</event>
<event>
 6    1  0.5258538E-006  0.1432735E+03  0.7546771E-02  0.1219644E+00
         -2   -1    0    0    0  501 -0.00000000000E+00  0.00000000000E+00  0.16774638787E+03  0.16774638787E+03  0.00000000000E+00 0.  1.
          2   -1    0    0  501    0  0.00000000000E+00 -0.00000000000E+00 -0.99950819780E+02  0.99950819780E+02  0.00000000000E+00 0. -1.
          5    1    1    2  502    0 -0.24492915910E+00  0.72131621449E+02 -0.13858307755E+02  0.73601450373E+02  0.47000000000E+01 0. -1.
         -5    1    1    2    0  502 -0.40763439259E+02 -0.15379503472E+02  0.65272312035E+02  0.78617757699E+02  0.47000000000E+01 0. -1.
        -11    1    1    2    0    0  0.25844722859E+02 -0.74021760251E+02  0.35037823949E+02  0.85876771000E+02  0.00000000000E+00 0. -1.
         11    1    1    2    0    0  0.15163645559E+02  0.17269642274E+02 -0.18656260139E+02  0.29601228578E+02  0.00000000000E+00 0.  1.
<mgrwt>
<rscale>  0 0.13540838E+03</rscale>
<asrwt>0</asrwt>
<pdfrwt beam="2">  1        2 0.15377049E-01 0.14327347E+03</pdfrwt>
<pdfrwt beam="1">  1       -2 0.25807136E-01 0.14327347E+03</pdfrwt>
<totfact> 0.48609566E+03</totfact>
</mgrwt>
</event>
<event>
 6    1  0.5258538E-006  0.1376871E+03  0.7546771E-02  0.1229531E+00
         -2   -1    0    0    0  501 -0.00000000000E+00  0.00000000000E+00  0.16052836730E+03  0.16052836730E+03  0.00000000000E+00 0. -1.
          2   -1    0    0  501    0  0.00000000000E+00 -0.00000000000E+00 -0.99897278170E+02  0.99897278170E+02  0.00000000000E+00 0.  1.
          5    1    1    2  502    0  0.11591577791E+01 -0.43898439258E+02  0.26615752481E+02  0.51564570163E+02  0.47000000000E+01 0.  1.
         -5    1    1    2    0  502 -0.57452951447E+02  0.56692077174E+02 -0.29772462240E+02  0.86158706769E+02  0.47000000000E+01 0.  1.
        -11    1    1    2    0    0  0.59962011778E+02  0.25302315153E+02  0.49818333633E+02  0.81960456164E+02  0.00000000000E+00 0. -1.
         11    1    1    2    0    0 -0.36682181104E+01 -0.38095953070E+02  0.13969465258E+02  0.40741912375E+02  0.00000000000E+00 0.  1.
<mgrwt>
<rscale>  0 0.12861149E+03</rscale>
<asrwt>0</asrwt>
<pdfrwt beam="2">  1        2 0.15368812E-01 0.13768710E+03</pdfrwt>
<pdfrwt beam="1">  1       -2 0.24696672E-01 0.13768710E+03</pdfrwt>
<totfact> 0.52396298E+03</totfact>
</mgrwt>
</event>
<event>
 6    1  0.5258538E-006  0.1284014E+03  0.7546771E-02  0.1242339E+00
         -2   -1    0    0    0  501 -0.00000000000E+00  0.00000000000E+00  0.57770321285E+02  0.57770321285E+02  0.00000000000E+00 0. -1.
          2   -1    0    0  501    0  0.00000000000E+00 -0.00000000000E+00 -0.26043315724E+03  0.26043315724E+03  0.00000000000E+00 0.  1.
          5    1    1    2  502    0  0.24262697284E+02 -0.50401572933E+02 -0.15028137710E+03  0.16042312594E+03  0.47000000000E+01 0.  1.
         -5    1    1    2    0  502  0.50609351110E+01  0.48729954984E+02 -0.20675869378E+02  0.53383547573E+02  0.47000000000E+01 0.  1.
        -11    1    1    2    0    0 -0.59590422350E+02 -0.11836693402E+02 -0.34660235245E+01  0.60853422793E+02  0.00000000000E+00 0. -1.
         11    1    1    2    0    0  0.30266789955E+02  0.13508311352E+02 -0.28239565955E+02  0.43543382219E+02  0.00000000000E+00 0.  1.
<mgrwt>
<rscale>  0 0.12046079E+03</rscale>
<asrwt>0</asrwt>
<pdfrwt beam="2">  1        2 0.40066638E-01 0.12840138E+03</pdfrwt>
<pdfrwt beam="1">  1       -2 0.88877421E-02 0.12840138E+03</pdfrwt>
<totfact> 0.96174713E+03</totfact>
</mgrwt>
</event>
<event>
 6    1  0.5258538E-006  0.1892327E+03  0.7546771E-02  0.1171619E+00
         -1   -1    0    0    0  501 -0.00000000000E+00  0.00000000000E+00  0.11762015519E+03  0.11762015519E+03  0.00000000000E+00 0.  1.
          1   -1    0    0  501    0  0.00000000000E+00 -0.00000000000E+00 -0.23605236245E+03  0.23605236245E+03  0.00000000000E+00 0. -1.
          5    1    1    2  502    0 -0.42393406740E+02 -0.46147348040E+02 -0.99008014814E+02  0.11726660080E+03  0.47000000000E+01 0. -1.
         -5    1    1    2    0  502 -0.88822879189E+02  0.15034951517E+02  0.12012957876E+02  0.91005245956E+02  0.47000000000E+01 0.  1.
        -11    1    1    2    0    0  0.19333509119E+02 -0.90072052021E+01  0.32713630813E+01  0.21578140254E+02  0.00000000000E+00 0. -1.
         11    1    1    2    0    0  0.11188277681E+03  0.40119601725E+02 -0.34708513402E+02  0.12382253063E+03  0.00000000000E+00 0.  1.
<mgrwt>
<rscale>  0 0.17611235E+03</rscale>
<asrwt>0</asrwt>
<pdfrwt beam="2">  1        1 0.36315747E-01 0.18923272E+03</pdfrwt>
<pdfrwt beam="1">  1       -1 0.18095409E-01 0.18923272E+03</pdfrwt>
<totfact> 0.27733546E+03</totfact>
</mgrwt>
</event>
<event>
 6    1  0.5258538E-006  0.1310764E+03  0.7546771E-02  0.1239549E+00
          3   -1    0    0  501    0  0.00000000000E+00  0.00000000000E+00  0.66792034062E+02  0.66792034062E+02  0.00000000000E+00 0. -1.
         -3   -1    0    0    0  501 -0.00000000000E+00 -0.00000000000E+00 -0.26811998035E+03  0.26811998035E+03  0.00000000000E+00 0.  1.
          5    1    1    2  502    0  0.42074265420E+02 -0.24247333993E+02 -0.67157429445E+02  0.83008357086E+02  0.47000000000E+01 0.  1.
         -5    1    1    2    0  502 -0.26592677969E+02 -0.12041794205E+02  0.41102243227E+02  0.50632595505E+02  0.47000000000E+01 0.  1.
        -11    1    1    2    0    0 -0.16730132669E+02  0.12692516723E+01  0.50919063207E+01  0.17533848662E+02  0.00000000000E+00 0. -1.
         11    1    1    2    0    0  0.12485452179E+01  0.35019876525E+02 -0.18036466639E+03  0.18373721316E+03  0.00000000000E+00 0.  1.
<mgrwt>
<rscale>  0 0.12217674E+03</rscale>
<asrwt>0</asrwt>
<pdfrwt beam="1">  1        3 0.10275697E-01 0.13107643E+03</pdfrwt>
<pdfrwt beam="2">  1       -3 0.41249228E-01 0.13107643E+03</pdfrwt>
<totfact> 0.94628808E+02</totfact>
</mgrwt>
</event>
<event>
 6    1  0.5258538E-006  0.1903564E+03  0.7546771E-02  0.1162947E+00
         -3   -1    0    0    0  501 -0.00000000000E+00  0.00000000000E+00  0.39041654659E+03  0.39041654659E+03  0.00000000000E+00 0.  1.
          3   -1    0    0  501    0  0.00000000000E+00 -0.00000000000E+00 -0.16013414527E+03  0.16013414527E+03  0.00000000000E+00 0. -1.
          5    1    1    2  502    0 -0.14187947172E+02 -0.10878409636E+03  0.14350852052E+01  0.10981542212E+03  0.47000000000E+01 0. -1.
         -5    1    1    2    0  502 -0.55473197142E+02 -0.16745967704E+02 -0.73530094049E+02  0.93736160399E+02  0.47000000000E+01 0. -1.
        -11    1    1    2    0    0 -0.14388840388E+02  0.60675423874E+02  0.13633004173E+03  0.14991472932E+03  0.00000000000E+00 0.  1.
         11    1    1    2    0    0  0.84049984702E+02  0.64854640186E+02  0.16604736844E+03  0.19708438002E+03  0.00000000000E+00 0. -1.
<mgrwt>
<rscale>  0 0.18511045E+03</rscale>
<asrwt>0</asrwt>
<pdfrwt beam="2">  1        3 0.24636022E-01 0.19035639E+03</pdfrwt>
<pdfrwt beam="1">  1       -3 0.60064084E-01 0.19035639E+03</pdfrwt>
<totfact> 0.10304202E+02</totfact>
</mgrwt>
</event>
<event>
 6    1  0.5258538E-006  0.1256441E+03  0.7546771E-02  0.1248680E+00
         -2   -1    0    0    0  501 -0.00000000000E+00  0.00000000000E+00  0.39043226012E+02  0.39043226012E+02  0.00000000000E+00 0.  1.
          2   -1    0    0  501    0  0.00000000000E+00 -0.00000000000E+00 -0.31670913481E+03  0.31670913481E+03  0.00000000000E+00 0. -1.
          5    1    1    2  502    0 -0.54080892841E+02 -0.12187435418E+02 -0.65923499917E+02  0.86262821620E+02  0.47000000000E+01 0.  1.
         -5    1    1    2    0  502  0.65795929081E+02  0.17193314302E+02 -0.12298878625E+03  0.14061666289E+03  0.47000000000E+01 0.  1.
        -11    1    1    2    0    0 -0.37706311116E+02 -0.70082271300E+01 -0.21293114086E+01  0.38411132665E+02  0.00000000000E+00 0.  1.
         11    1    1    2    0    0  0.25991274876E+02  0.20023482468E+01 -0.86624311226E+02  0.90461743647E+02  0.00000000000E+00 0. -1.
<mgrwt>
<rscale>  0 0.11667821E+03</rscale>
<asrwt>0</asrwt>
<pdfrwt beam="2">  1        2 0.48724483E-01 0.12564413E+03</pdfrwt>
<pdfrwt beam="1">  1       -2 0.60066501E-02 0.12564413E+03</pdfrwt>
<totfact> 0.14230764E+04</totfact>
</mgrwt>
</event>
<event>
 6    1  0.5258538E-006  0.1846555E+03  0.7546771E-02  0.1171229E+00
          1   -1    0    0  501    0  0.00000000000E+00  0.00000000000E+00  0.10948496288E+03  0.10948496288E+03  0.00000000000E+00 0. -1.
         -1   -1    0    0    0  501 -0.00000000000E+00 -0.00000000000E+00 -0.46690166146E+03  0.46690166146E+03  0.00000000000E+00 0.  1.
          5    1    1    2  502    0 -0.33972825393E+02  0.61283116454E+02  0.19511704496E+02  0.72887377781E+02  0.47000000000E+01 0. -1.
         -5    1    1    2    0  502  0.10212741708E+03  0.41968756247E+02 -0.16822726123E+02  0.11178765555E+03  0.47000000000E+01 0.  1.
        -11    1    1    2    0    0 -0.47669314754E+02 -0.51244179568E+02 -0.30605736808E+03  0.31395770744E+03  0.00000000000E+00 0.  1.
         11    1    1    2    0    0 -0.20485276931E+02 -0.52007693133E+02 -0.54048308881E+02  0.77753883562E+02  0.00000000000E+00 0. -1.
<mgrwt>
<rscale>  0 0.17650487E+03</rscale>
<asrwt>0</asrwt>
<pdfrwt beam="1">  1        1 0.16843841E-01 0.18465546E+03</pdfrwt>
<pdfrwt beam="2">  1       -1 0.71831024E-01 0.18465546E+03</pdfrwt>
<totfact> 0.65027674E+02</totfact>
</mgrwt>
</event>
<event>
 6    1  0.5258538E-006  0.1444058E+03  0.7546771E-02  0.1217821E+00
          2   -1    0    0  501    0  0.00000000000E+00  0.00000000000E+00  0.14089387548E+03  0.14089387548E+03  0.00000000000E+00 0. -1.
         -2   -1    0    0    0  501 -0.00000000000E+00 -0.00000000000E+00 -0.12101436032E+03  0.12101436032E+03  0.00000000000E+00 0.  1.
          5    1    1    2  502    0  0.77762044807E+02  0.59081617379E+02  0.39644960756E+02  0.10550538393E+03  0.47000000000E+01 0.  1.
         -5    1    1    2    0  502 -0.35409954573E+02 -0.47767724250E+00 -0.18846857293E+02  0.40390433127E+02  0.47000000000E+01 0.  1.
        -11    1    1    2    0    0  0.25895157723E+01  0.22764665777E+02  0.21087972910E+01  0.23008316450E+02  0.00000000000E+00 0. -1.
         11    1    1    2    0    0 -0.44941606006E+02 -0.81368605913E+02 -0.30273855913E+01  0.93004102287E+02  0.00000000000E+00 0.  1.
<mgrwt>
<rscale>  0 0.13671342E+03</rscale>
<asrwt>0</asrwt>
<pdfrwt beam="1">  1        2 0.21675981E-01 0.14440578E+03</pdfrwt>
<pdfrwt beam="2">  1       -2 0.18617594E-01 0.14440578E+03</pdfrwt>
<totfact> 0.57488700E+03</totfact>
</mgrwt>
</event>
<event>
 6    1  0.5258538E-006  0.1510654E+03  0.7546771E-02  0.1209132E+00
         -2   -1    0    0    0  501 -0.00000000000E+00  0.00000000000E+00  0.98859694241E+02  0.98859694241E+02  0.00000000000E+00 0. -1.
          2   -1    0    0  501    0  0.00000000000E+00 -0.00000000000E+00 -0.18993402515E+03  0.18993402515E+03  0.00000000000E+00 0.  1.
          5    1    1    2  502    0 -0.68625339028E+02  0.11940109272E+02  0.22158710221E+02  0.73246855255E+02  0.47000000000E+01 0.  1.
         -5    1    1    2    0  502 -0.34553126904E+01 -0.56664986369E+02 -0.59485281914E+02  0.82361693951E+02  0.47000000000E+01 0.  1.
        -11    1    1    2    0    0  0.55868671028E+02  0.38228022483E+02 -0.78012065864E+02  0.10328878219E+03  0.00000000000E+00 0.  1.
         11    1    1    2    0    0  0.16211980691E+02  0.64968546141E+01  0.24264306652E+02  0.29896387994E+02  0.00000000000E+00 0. -1.
<mgrwt>
<rscale>  0 0.14316523E+03</rscale>
<asrwt>0</asrwt>
<pdfrwt beam="2">  1        2 0.29220619E-01 0.15106538E+03</pdfrwt>
<pdfrwt beam="1">  1       -2 0.15209184E-01 0.15106538E+03</pdfrwt>
<totfact> 0.57963706E+03</totfact>
</mgrwt>
</event>
<event>
 6    1  0.5258538E-006  0.1284117E+03  0.7546771E-02  0.1244095E+00
          2   -1    0    0  501    0  0.00000000000E+00  0.00000000000E+00  0.60879749932E+03  0.60879749932E+03  0.00000000000E+00 0. -1.
         -2   -1    0    0    0  501 -0.00000000000E+00 -0.00000000000E+00 -0.37696058514E+02  0.37696058514E+02  0.00000000000E+00 0.  1.
          5    1    1    2  502    0 -0.10467577141E+02  0.54236176479E+02  0.34150308521E+03  0.34597338079E+03  0.47000000000E+01 0.  1.
         -5    1    1    2    0  502  0.39609738744E+02 -0.50595780722E+02  0.18264502095E+03  0.19367539366E+03  0.47000000000E+01 0.  1.
        -11    1    1    2    0    0  0.32818943778E+02 -0.23629510172E+01  0.24121971120E+02  0.40798726683E+02  0.00000000000E+00 0.  1.
         11    1    1    2    0    0 -0.61961105381E+02 -0.12774447399E+01  0.22831363526E+02  0.66046056700E+02  0.00000000000E+00 0. -1.
<mgrwt>
<rscale>  0 0.11939686E+03</rscale>
<asrwt>0</asrwt>
<pdfrwt beam="1">  1        2 0.93661147E-01 0.12841169E+03</pdfrwt>
<pdfrwt beam="2">  1       -2 0.57993941E-02 0.12841169E+03</pdfrwt>
<totfact> 0.74044179E+03</totfact>
</mgrwt>
</event>
<event>
 6    1  0.5258538E-006  0.1558821E+03  0.7546771E-02  0.1202430E+00
          1   -1    0    0  501    0  0.00000000000E+00  0.00000000000E+00  0.14746953508E+04  0.14746953508E+04  0.00000000000E+00 0. -1.
         -1   -1    0    0    0  501 -0.00000000000E+00 -0.00000000000E+00 -0.14029426391E+02  0.14029426391E+02  0.00000000000E+00 0.  1.
          5    1    1    2  502    0 -0.40566297701E+02 -0.42622911610E+02  0.35000619492E+03  0.35494895913E+03  0.47000000000E+01 0.  1.
         -5    1    1    2    0  502  0.89543752401E+02 -0.36605238753E+02  0.56819673438E+03  0.57639192053E+03  0.47000000000E+01 0.  1.
        -11    1    1    2    0    0  0.11988218682E+02  0.14133430484E+02  0.19621359640E+02  0.26990164848E+02  0.00000000000E+00 0.  1.
         11    1    1    2    0    0 -0.60965673382E+02  0.65094719879E+02  0.52284163546E+03  0.53039373268E+03  0.00000000000E+00 0. -1.
<mgrwt>
<rscale>  0 0.14841849E+03</rscale>
<asrwt>0</asrwt>
<pdfrwt beam="1">  1        1 0.22687609E+00 0.15588205E+03</pdfrwt>
<pdfrwt beam="2">  1       -1 0.21583745E-02 0.15588205E+03</pdfrwt>
<totfact> 0.45079872E+03</totfact>
</mgrwt>
</event>
<event>
 6    1  0.5258538E-006  0.1429565E+03  0.7546771E-02  0.1219679E+00
         -2   -1    0    0    0  501 -0.00000000000E+00  0.00000000000E+00  0.31346753042E+03  0.31346753042E+03  0.00000000000E+00 0. -1.
          2   -1    0    0  501    0  0.00000000000E+00 -0.00000000000E+00 -0.56721006543E+02  0.56721006543E+02  0.00000000000E+00 0.  1.
          5    1    1    2  502    0  0.51585020690E+02 -0.46383378574E+02  0.49209730567E+02  0.85182860659E+02  0.47000000000E+01 0. -1.
         -5    1    1    2    0  502 -0.70275359266E+02 -0.20409923223E+02  0.45447601847E+02  0.86271464573E+02  0.47000000000E+01 0. -1.
        -11    1    1    2    0    0 -0.19988831208E+02 -0.96916008462E+01  0.10451193207E+02  0.24550110783E+02  0.00000000000E+00 0.  1.
         11    1    1    2    0    0  0.38679169784E+02  0.76484902643E+02  0.15163799826E+03  0.17418410095E+03  0.00000000000E+00 0. -1.
<mgrwt>
<rscale>  0 0.13538382E+03</rscale>
<asrwt>0</asrwt>
<pdfrwt beam="2">  1        2 0.87263089E-02 0.14295655E+03</pdfrwt>
<pdfrwt beam="1">  1       -2 0.48225773E-01 0.14295655E+03</pdfrwt>
<totfact> 0.30228825E+03</totfact>
</mgrwt>
</event>
<event>
 6    1  0.5258538E-006  0.1352734E+03  0.7546771E-02  0.1232493E+00
          1   -1    0    0  501    0  0.00000000000E+00  0.00000000000E+00  0.22629063302E+02  0.22629063302E+02  0.00000000000E+00 0. -1.
         -1   -1    0    0    0  501 -0.00000000000E+00 -0.00000000000E+00 -0.64020962081E+03  0.64020962081E+03  0.00000000000E+00 0.  1.
          5    1    1    2  502    0 -0.51486821480E+02  0.35953391916E+02 -0.10476163702E+03  0.12223186887E+03  0.47000000000E+01 0. -1.
         -5    1    1    2    0  502  0.12624002179E+02 -0.65688943402E+02 -0.20765746549E+03  0.21821575491E+03  0.47000000000E+01 0.  1.
        -11    1    1    2    0    0 -0.22855730323E+02 -0.15346605152E+02 -0.77861876571E+02  0.82585558795E+02  0.00000000000E+00 0. -1.
         11    1    1    2    0    0  0.61718549624E+02  0.45082156638E+02 -0.22729957843E+03  0.23980550154E+03  0.00000000000E+00 0.  1.
<mgrwt>
<rscale>  0 0.12666305E+03</rscale>
<asrwt>0</asrwt>
<pdfrwt beam="1">  1        1 0.34813947E-02 0.13527339E+03</pdfrwt>
<pdfrwt beam="2">  1       -1 0.98493779E-01 0.13527339E+03</pdfrwt>
<totfact> 0.27797335E+03</totfact>
</mgrwt>
</event>
<event>
 6    1  0.5258538E-006  0.2510881E+03  0.7546771E-02  0.1114856E+00
         -1   -1    0    0    0  501 -0.00000000000E+00  0.00000000000E+00  0.43901899410E+03  0.43901899410E+03  0.00000000000E+00 0. -1.
          1   -1    0    0  501    0  0.00000000000E+00 -0.00000000000E+00 -0.13661812946E+03  0.13661812946E+03  0.00000000000E+00 0.  1.
          5    1    1    2  502    0  0.42586694719E+02  0.38561746227E+02  0.51837697831E+01  0.57875697044E+02  0.47000000000E+01 0. -1.
         -5    1    1    2    0  502 -0.52846376439E+02  0.17895785581E+03  0.12819838425E+03  0.22644109473E+03  0.47000000000E+01 0. -1.
        -11    1    1    2    0    0  0.31092094987E+01 -0.31908318245E+02 -0.97610691585E+01  0.33512481675E+02  0.00000000000E+00 0.  1.
         11    1    1    2    0    0  0.71504722210E+01 -0.18561128380E+03  0.17877977977E+03  0.25780785011E+03  0.00000000000E+00 0. -1.
<mgrwt>
<rscale>  0 0.24756165E+03</rscale>
<asrwt>0</asrwt>
<pdfrwt beam="2">  1        1 0.21018174E-01 0.25108811E+03</pdfrwt>
<pdfrwt beam="1">  1       -1 0.67541383E-01 0.25108811E+03</pdfrwt>
<totfact> 0.55275987E+02</totfact>
</mgrwt>
</event>
<event>
 6    1  0.5258538E-006  0.1242632E+03  0.7546771E-02  0.1249728E+00
          1   -1    0    0  501    0  0.00000000000E+00  0.00000000000E+00  0.10766176478E+03  0.10766176478E+03  0.00000000000E+00 0. -1.
         -1   -1    0    0    0  501 -0.00000000000E+00 -0.00000000000E+00 -0.19810412010E+03  0.19810412010E+03  0.00000000000E+00 0.  1.
          5    1    1    2  502    0 -0.33412638281E+02 -0.48911699462E+02  0.18515267902E+02  0.62238765144E+02  0.47000000000E+01 0. -1.
         -5    1    1    2    0  502  0.23983099013E+02  0.59431649813E+02  0.33546128402E+02  0.72489604555E+02  0.47000000000E+01 0.  1.
        -11    1    1    2    0    0  0.39745312011E+02 -0.11522661772E+01 -0.13161653158E+03  0.13749155949E+03  0.00000000000E+00 0.  1.
         11    1    1    2    0    0 -0.30315772743E+02 -0.93676841738E+01 -0.10887220042E+02  0.33545955703E+02  0.00000000000E+00 0. -1.
<mgrwt>
<rscale>  0 0.11606830E+03</rscale>
<asrwt>0</asrwt>
<pdfrwt beam="1">  1        1 0.16563349E-01 0.12426321E+03</pdfrwt>
<pdfrwt beam="2">  1       -1 0.30477557E-01 0.12426321E+03</pdfrwt>
<totfact> 0.31201831E+03</totfact>
</mgrwt>
</event>
<event>
 6    1  0.5258538E-006  0.1341087E+03  0.7546771E-02  0.1233668E+00
          1   -1    0    0  501    0  0.00000000000E+00  0.00000000000E+00  0.13663406704E+03  0.13663406704E+03  0.00000000000E+00 0. -1.
         -1   -1    0    0    0  501 -0.00000000000E+00 -0.00000000000E+00 -0.12996294295E+03  0.12996294295E+03  0.00000000000E+00 0.  1.
          5    1    1    2  502    0 -0.16461131461E+02 -0.41284488467E+02  0.88119394517E+02  0.98805341591E+02  0.47000000000E+01 0. -1.
         -5    1    1    2    0  502  0.42238583328E+02  0.11482557567E+00 -0.25115270545E+02  0.49365756563E+02  0.47000000000E+01 0. -1.
        -11    1    1    2    0    0 -0.31722146247E+02  0.26779412157E+02 -0.79980611332E+02  0.90112871817E+02  0.00000000000E+00 0.  1.
         11    1    1    2    0    0  0.59446943800E+01  0.14390250733E+02  0.23647611458E+02  0.28313040019E+02  0.00000000000E+00 0. -1.
<mgrwt>
<rscale>  0 0.12590065E+03</rscale>
<asrwt>0</asrwt>
<pdfrwt beam="1">  1        1 0.21020626E-01 0.13410874E+03</pdfrwt>
<pdfrwt beam="2">  1       -1 0.19994299E-01 0.13410874E+03</pdfrwt>
<totfact> 0.46166885E+03</totfact>
</mgrwt>
</event>
<event>
 6    1  0.5258538E-006  0.1395169E+03  0.7546771E-02  0.1224745E+00
          2   -1    0    0  501    0  0.00000000000E+00  0.00000000000E+00  0.33120682525E+03  0.33120682525E+03  0.00000000000E+00 0. -1.
         -2   -1    0    0    0  501 -0.00000000000E+00 -0.00000000000E+00 -0.51898758993E+02  0.51898758993E+02  0.00000000000E+00 0.  1.
          5    1    1    2  502    0  0.18833574050E+02 -0.42714304562E+02  0.22481932831E+03  0.22966287403E+03  0.47000000000E+01 0. -1.
         -5    1    1    2    0  502  0.35581685567E+01 -0.15083869683E+02 -0.15154113925E+02  0.22179288919E+02  0.47000000000E+01 0. -1.
        -11    1    1    2    0    0 -0.22593155084E+02  0.71122634181E+02  0.83534896902E+02  0.11201320793E+03  0.00000000000E+00 0. -1.
         11    1    1    2    0    0  0.20141247770E+00 -0.13324459936E+02 -0.13892045031E+02  0.19250213368E+02  0.00000000000E+00 0.  1.
<mgrwt>
<rscale>  0 0.13184391E+03</rscale>
<asrwt>0</asrwt>
<pdfrwt beam="1">  1        2 0.50954895E-01 0.13951693E+03</pdfrwt>
<pdfrwt beam="2">  1       -2 0.79844247E-02 0.13951693E+03</pdfrwt>
<totfact> 0.88550109E+03</totfact>
</mgrwt>
</event>
<event>
 6    1  0.5258538E-006  0.1776390E+03  0.7546771E-02  0.1176148E+00
         -2   -1    0    0    0  501 -0.00000000000E+00  0.00000000000E+00  0.51183843375E+02  0.51183843375E+02  0.00000000000E+00 0.  1.
          2   -1    0    0  501    0  0.00000000000E+00 -0.00000000000E+00 -0.54701850278E+03  0.54701850278E+03  0.00000000000E+00 0. -1.
          5    1    1    2  502    0 -0.32495757918E+02  0.82054612837E+02 -0.13727029563E+03  0.16326101137E+03  0.47000000000E+01 0. -1.
         -5    1    1    2    0  502 -0.83046606892E+02 -0.31248745880E+02 -0.16148016947E+03  0.18431266415E+03  0.47000000000E+01 0. -1.
        -11    1    1    2    0    0  0.11838770243E+03 -0.16924683395E+02 -0.13939668857E+03  0.18366689898E+03  0.00000000000E+00 0. -1.
         11    1    1    2    0    0 -0.28453376223E+01 -0.33881183562E+02 -0.57687505729E+02  0.66961771654E+02  0.00000000000E+00 0.  1.
<mgrwt>
<rscale>  0 0.17163982E+03</rscale>
<asrwt>0</asrwt>
<pdfrwt beam="2">  1        2 0.84156697E-01 0.17763901E+03</pdfrwt>
<pdfrwt beam="1">  1       -2 0.78744370E-02 0.17763901E+03</pdfrwt>
<totfact> 0.53223521E+03</totfact>
</mgrwt>
</event>
<event>
 6    1  0.5258538E-006  0.1321059E+03  0.7546771E-02  0.1237281E+00
         -2   -1    0    0    0  501 -0.00000000000E+00  0.00000000000E+00  0.45712013895E+02  0.45712013895E+02  0.00000000000E+00 0. -1.
          2   -1    0    0  501    0  0.00000000000E+00 -0.00000000000E+00 -0.31889656926E+03  0.31889656926E+03  0.00000000000E+00 0.  1.
          5    1    1    2  502    0  0.81744620921E+02 -0.23563463447E+02 -0.11659443907E+03  0.14440835530E+03  0.47000000000E+01 0. -1.
         -5    1    1    2    0  502 -0.38990927525E+02  0.24072928045E+02 -0.83467320594E+02  0.95334578727E+02  0.47000000000E+01 0. -1.
        -11    1    1    2    0    0  0.12220415136E+01  0.31001333072E+02  0.33343547165E+01  0.31204069592E+02  0.00000000000E+00 0. -1.
         11    1    1    2    0    0 -0.43975734909E+02 -0.31510797671E+02 -0.76457150414E+02  0.93661579530E+02  0.00000000000E+00 0.  1.
<mgrwt>
<rscale>  0 0.12359557E+03</rscale>
<asrwt>0</asrwt>
<pdfrwt beam="2">  1        2 0.49061008E-01 0.13210589E+03</pdfrwt>
<pdfrwt beam="1">  1       -2 0.70326178E-02 0.13210589E+03</pdfrwt>
<totfact> 0.11159918E+04</totfact>
</mgrwt>
</event>
<event>
 6    1  0.5258538E-006  0.2146528E+03  0.7546771E-02  0.1141541E+00
          2   -1    0    0  501    0  0.00000000000E+00  0.00000000000E+00  0.67260910897E+03  0.67260910897E+03  0.00000000000E+00 0. -1.
         -2   -1    0    0    0  501 -0.00000000000E+00 -0.00000000000E+00 -0.79066387615E+02  0.79066387615E+02  0.00000000000E+00 0.  1.
          5    1    1    2  502    0  0.56685915200E+02  0.16368404718E+02  0.28905801072E+03  0.29505565783E+03  0.47000000000E+01 0. -1.
         -5    1    1    2    0  502  0.11038249673E+03 -0.66746945436E+02  0.18774335575E+03  0.22783570382E+03  0.47000000000E+01 0. -1.
        -11    1    1    2    0    0 -0.10791988305E+03  0.39302274154E+01  0.26278685712E+02  0.11114277830E+03  0.00000000000E+00 0.  1.
         11    1    1    2    0    0 -0.59148528877E+02  0.46448313302E+02  0.90462669173E+02  0.11764135663E+03  0.00000000000E+00 0. -1.
<mgrwt>
<rscale>  0 0.21003199E+03</rscale>
<asrwt>0</asrwt>
<pdfrwt beam="1">  1        2 0.10347832E+00 0.21465282E+03</pdfrwt>
<pdfrwt beam="2">  1       -2 0.12164060E-01 0.21465282E+03</pdfrwt>
<totfact> 0.21177300E+03</totfact>
</mgrwt>
</event>
<event>
 6    1  0.5258538E-006  0.1416332E+03  0.7546771E-02  0.1222929E+00
         -1   -1    0    0    0  501 -0.00000000000E+00  0.00000000000E+00  0.11708535252E+02  0.11708535252E+02  0.00000000000E+00 0.  1.
          1   -1    0    0  501    0  0.00000000000E+00 -0.00000000000E+00 -0.14202046051E+04  0.14202046051E+04  0.00000000000E+00 0. -1.
          5    1    1    2  502    0 -0.79987383096E+02 -0.15555263549E+02 -0.31539662785E+03  0.32578684832E+03  0.47000000000E+01 0.  1.
         -5    1    1    2    0  502  0.13621946831E+02  0.10073473819E+02 -0.62207324672E+03  0.62232165847E+03  0.47000000000E+01 0.  1.
        -11    1    1    2    0    0  0.80856973811E+02  0.29526841198E+01 -0.45464162941E+03  0.46178520954E+03  0.00000000000E+00 0. -1.
         11    1    1    2    0    0 -0.14491537546E+02  0.25291056101E+01 -0.16384565856E+02  0.22019424014E+02  0.00000000000E+00 0.  1.
<mgrwt>
<rscale>  0 0.13309889E+03</rscale>
<asrwt>0</asrwt>
<pdfrwt beam="2">  1        1 0.21849300E+00 0.14163324E+03</pdfrwt>
<pdfrwt beam="1">  1       -1 0.18013133E-02 0.14163324E+03</pdfrwt>
<totfact> 0.63370605E+03</totfact>
</mgrwt>
</event>
<event>
 6    1  0.5258538E-006  0.1504094E+03  0.7546771E-02  0.1208808E+00
         -1   -1    0    0    0  501 -0.00000000000E+00  0.00000000000E+00  0.16715022613E+02  0.16715022613E+02  0.00000000000E+00 0.  1.
          1   -1    0    0  501    0  0.00000000000E+00 -0.00000000000E+00 -0.12368744443E+04  0.12368744443E+04  0.00000000000E+00 0. -1.
          5    1    1    2  502    0 -0.23548477768E+02 -0.65125260830E+02 -0.21805382462E+03  0.22883485494E+03  0.47000000000E+01 0.  1.
         -5    1    1    2    0  502  0.54058842985E+02 -0.12758385335E+02 -0.62935842846E+03  0.63182217148E+03  0.47000000000E+01 0.  1.
        -11    1    1    2    0    0 -0.43424573631E+02 -0.19303584702E+01 -0.13083772981E+03  0.13786925480E+03  0.00000000000E+00 0. -1.
         11    1    1    2    0    0  0.12914208414E+02  0.79814004636E+02 -0.24190943884E+03  0.25506318573E+03  0.00000000000E+00 0.  1.
<mgrwt>
<rscale>  0 0.14341397E+03</rscale>
<asrwt>0</asrwt>
<pdfrwt beam="2">  1        1 0.19028838E+00 0.15040941E+03</pdfrwt>
<pdfrwt beam="1">  1       -1 0.25715418E-02 0.15040941E+03</pdfrwt>
<totfact> 0.50267174E+03</totfact>
</mgrwt>
</event>
<event>
 6    1  0.5258538E-006  0.3502101E+03  0.7546771E-02  0.1062529E+00
          2   -1    0    0  501    0  0.00000000000E+00  0.00000000000E+00  0.11837954167E+04  0.11837954167E+04  0.00000000000E+00 0. -1.
         -2   -1    0    0    0  501 -0.00000000000E+00 -0.00000000000E+00 -0.25901241786E+02  0.25901241786E+02  0.00000000000E+00 0.  1.
          5    1    1    2  502    0  0.96383241142E+02 -0.69922663295E+02  0.63476361446E+03  0.64585280386E+03  0.47000000000E+01 0.  1.
         -5    1    1    2    0  502 -0.26863529776E+02  0.10442227714E+02  0.32757778214E+03  0.32887685036E+03  0.47000000000E+01 0.  1.
        -11    1    1    2    0    0 -0.11638670844E+02  0.53330614911E+02  0.36674399282E+02  0.65761878839E+02  0.00000000000E+00 0.  1.
         11    1    1    2    0    0 -0.57881040523E+02  0.61498206698E+01  0.15887837907E+03  0.16920512546E+03  0.00000000000E+00 0. -1.
<mgrwt>
<rscale>  0 0.35021006E+03</rscale>
<asrwt>0</asrwt>
<pdfrwt beam="1">  1        2 0.18212233E+00 0.35021006E+03</pdfrwt>
<pdfrwt beam="2">  1       -2 0.39848073E-02 0.35021006E+03</pdfrwt>
<totfact> 0.56648038E+03</totfact>
</mgrwt>
</event>
<event>
 6    1  0.5258538E-006  0.1652548E+03  0.7546771E-02  0.1236890E+00
         -2   -1    0    0    0  501 -0.00000000000E+00  0.00000000000E+00  0.52125353055E+02  0.52125353055E+02  0.00000000000E+00 0.  1.
          2   -1    0    0  501    0  0.00000000000E+00 -0.00000000000E+00 -0.34531159431E+03  0.34531159431E+03  0.00000000000E+00 0. -1.
          5    1    1    2  502    0  0.46557833000E+02  0.11646939903E+02 -0.31609338089E+03  0.31975052536E+03  0.47000000000E+01 0. -1.
         -5    1    1    2    0  502 -0.86900151363E+01  0.18055182602E+02  0.13789211864E+02  0.24773743070E+02  0.47000000000E+01 0.  1.
        -11    1    1    2    0    0 -0.89688954059E+01 -0.63729404829E+01 -0.63236227945E+01  0.12690297886E+02  0.00000000000E+00 0. -1.
         11    1    1    2    0    0 -0.28898922458E+02 -0.23329182022E+02  0.15441550571E+02  0.40222381047E+02  0.00000000000E+00 0.  1.
<mgrwt>
<rscale>  0 0.12384234E+03</rscale>
<asrwt>0</asrwt>
<pdfrwt beam="2">  1        2 0.53124860E-01 0.16525484E+03</pdfrwt>
<pdfrwt beam="1">  1       -2 0.80192852E-02 0.16525484E+03</pdfrwt>
<totfact> 0.85096188E+03</totfact>
</mgrwt>
</event>
<event>
 6    1  0.5258538E-006  0.1204067E+03  0.7546771E-02  0.1253772E+00
          2   -1    0    0  501    0  0.00000000000E+00  0.00000000000E+00  0.25955275571E+04  0.25955275571E+04  0.00000000000E+00 0. -1.
         -2   -1    0    0    0  501 -0.00000000000E+00 -0.00000000000E+00 -0.65431082516E+01  0.65431082516E+01  0.00000000000E+00 0.  1.
          5    1    1    2  502    0  0.36696728281E+02 -0.49383764483E+02  0.18873137594E+04  0.18883221978E+04  0.47000000000E+01 0. -1.
         -5    1    1    2    0  502 -0.20848173496E+02  0.25713604923E+02  0.23058742184E+03  0.23299889469E+03  0.47000000000E+01 0.  1.
        -11    1    1    2    0    0 -0.52311836152E+02 -0.22927766054E+00  0.26045373285E+03  0.26565527988E+03  0.00000000000E+00 0. -1.
         11    1    1    2    0    0  0.36463281368E+02  0.23899437220E+02  0.21062953472E+03  0.21509429300E+03  0.00000000000E+00 0.  1.
<mgrwt>
<rscale>  0 0.11375370E+03</rscale>
<asrwt>0</asrwt>
<pdfrwt beam="1">  1        2 0.39931111E+00 0.12040666E+03</pdfrwt>
<pdfrwt beam="2">  1       -2 0.10066341E-02 0.12040666E+03</pdfrwt>
<totfact> 0.74572395E+03</totfact>
</mgrwt>
</event>
<event>
 6    1  0.5258538E-006  0.4444773E+03  0.7546771E-02  0.1029382E+00
          1   -1    0    0  501    0  0.00000000000E+00  0.00000000000E+00  0.17818063957E+03  0.17818063957E+03  0.00000000000E+00 0. -1.
         -1   -1    0    0    0  501 -0.00000000000E+00 -0.00000000000E+00 -0.27719071761E+03  0.27719071761E+03  0.00000000000E+00 0.  1.
          5    1    1    2  502    0 -0.61956174536E+02 -0.15124260007E+03  0.50288224002E+02  0.17106690829E+03  0.47000000000E+01 0. -1.
         -5    1    1    2    0  502  0.40111919461E+02 -0.13574589995E+02 -0.13064500421E+01  0.42626662878E+02  0.47000000000E+01 0. -1.
        -11    1    1    2    0    0  0.29577741401E+02  0.10228876140E+03 -0.34603844186E+02  0.11196097324E+03  0.00000000000E+00 0. -1.
         11    1    1    2    0    0 -0.77334863256E+01  0.62528428660E+02 -0.11338800781E+03  0.12971681278E+03  0.00000000000E+00 0.  1.
<mgrwt>
<rscale>  0 0.44447731E+03</rscale>
<asrwt>0</asrwt>
<pdfrwt beam="1">  1        1 0.27412406E-01 0.44447731E+03</pdfrwt>
<pdfrwt beam="2">  1       -1 0.42644725E-01 0.44447731E+03</pdfrwt>
<totfact> 0.93894120E+02</totfact>
</mgrwt>
</event>
<event>
 6    1  0.8145740E-006  0.1508748E+03  0.7546771E-02  0.1208220E+00
          1   -1    0    0  501    0  0.00000000000E+00  0.00000000000E+00  0.93069565960E+03  0.93069565960E+03  0.00000000000E+00 0. -1.
         -1   -1    0    0    0  501 -0.00000000000E+00 -0.00000000000E+00 -0.20812351845E+02  0.20812351845E+02  0.00000000000E+00 0.  1.
          5    1    1    2  502    0  0.20405057541E+02 -0.49721209464E+01  0.16841938718E+02  0.27328177030E+02  0.47000000000E+01 0.  1.
         -5    1    1    2    0  502 -0.96170380929E+02 -0.32418049898E+02  0.54675153753E+03  0.55611060583E+03  0.47000000000E+01 0.  1.
        -11    1    1    2    0    0  0.36407150615E+01  0.15934103125E+02  0.29859036248E+01  0.16615236050E+02  0.00000000000E+00 0.  1.
         11    1    1    2    0    0  0.72124608326E+02  0.21456067720E+02  0.34330392789E+03  0.35145399254E+03  0.00000000000E+00 0. -1.
<mgrwt>
<rscale>  0 0.14386589E+03</rscale>
<asrwt>0</asrwt>
<pdfrwt beam="1">  1        1 0.14318391E+00 0.15087481E+03</pdfrwt>
<pdfrwt beam="2">  1       -1 0.32019010E-02 0.15087481E+03</pdfrwt>
<totfact> 0.60411068E+03</totfact>
</mgrwt>
</event>
<event>
 6    1  0.5258538E-006  0.1153172E+03  0.7546771E-02  0.1300600E+00
         -2   -1    0    0    0  501 -0.00000000000E+00  0.00000000000E+00  0.35471213167E+02  0.35471213167E+02  0.00000000000E+00 0.  1.
          2   -1    0    0  501    0  0.00000000000E+00 -0.00000000000E+00 -0.27614314342E+03  0.27614314342E+03  0.00000000000E+00 0. -1.
          5    1    1    2  502    0  0.34956407952E+01 -0.12568273221E+02 -0.24484151424E+03  0.24523384369E+03  0.47000000000E+01 0. -1.
         -5    1    1    2    0  502 -0.58654594344E+00  0.20885863134E+02  0.40048241085E+01  0.21787425987E+02  0.47000000000E+01 0.  1.
        -11    1    1    2    0    0 -0.23140703839E+02 -0.74670929946E+01 -0.69231026708E+00  0.24325479347E+02  0.00000000000E+00 0. -1.
         11    1    1    2    0    0  0.20231608987E+02 -0.85049691766E+00  0.85707014209E+00  0.20267607566E+02  0.00000000000E+00 0.  1.
<mgrwt>
<rscale>  0 0.90936156E+02</rscale>
<asrwt>0</asrwt>
<pdfrwt beam="2">  1        2 0.42483559E-01 0.11531716E+03</pdfrwt>
<pdfrwt beam="1">  1       -2 0.54571099E-02 0.11531716E+03</pdfrwt>
<totfact> 0.18857767E+04</totfact>
</mgrwt>
</event>
<event>
 6    1  0.5258538E-006  0.1267490E+03  0.7546771E-02  0.1247027E+00
         -2   -1    0    0    0  501 -0.00000000000E+00  0.00000000000E+00  0.59356410991E+02  0.59356410991E+02  0.00000000000E+00 0.  1.
          2   -1    0    0  501    0  0.00000000000E+00 -0.00000000000E+00 -0.29198545528E+03  0.29198545528E+03  0.00000000000E+00 0. -1.
          5    1    1    2  502    0  0.29349059636E+02 -0.50169366016E+01 -0.20556752586E+03  0.20776581683E+03  0.47000000000E+01 0.  1.
         -5    1    1    2    0  502 -0.38768263750E+02  0.23736908348E+02 -0.17773536210E+02  0.49034759931E+02  0.47000000000E+01 0.  1.
        -11    1    1    2    0    0  0.28973719296E+02  0.11811783246E+02  0.28391890083E+02  0.42250373440E+02  0.00000000000E+00 0.  1.
         11    1    1    2    0    0 -0.19554515183E+02 -0.30531754992E+02 -0.37679872304E+02  0.52290916073E+02  0.00000000000E+00 0. -1.
<mgrwt>
<rscale>  0 0.11764873E+03</rscale>
<asrwt>0</asrwt>
<pdfrwt beam="2">  1        2 0.44920839E-01 0.12674899E+03</pdfrwt>
<pdfrwt beam="1">  1       -2 0.91317557E-02 0.12674899E+03</pdfrwt>
<totfact> 0.81615903E+03</totfact>
</mgrwt>
</event>
<event>
 6    1  0.5258538E-006  0.1291894E+03  0.7546771E-02  0.1243903E+00
         -2   -1    0    0    0  501 -0.00000000000E+00  0.00000000000E+00  0.23481205170E+02  0.23481205170E+02  0.00000000000E+00 0.  1.
          2   -1    0    0  501    0  0.00000000000E+00 -0.00000000000E+00 -0.13029098375E+04  0.13029098375E+04  0.00000000000E+00 0. -1.
          5    1    1    2  502    0  0.70921689669E+02  0.22492088974E+02 -0.73937207158E+03  0.74312107383E+03  0.47000000000E+01 0.  1.
         -5    1    1    2    0  502 -0.40855616053E+02 -0.35197619442E+02 -0.44800072597E+03  0.45125912096E+03  0.47000000000E+01 0.  1.
        -11    1    1    2    0    0 -0.46156961338E+02  0.31730312124E+00 -0.96712351349E+01  0.47160349344E+02  0.00000000000E+00 0.  1.
         11    1    1    2    0    0  0.16090887722E+02  0.12388227347E+02 -0.82384599675E+02  0.84850498573E+02  0.00000000000E+00 0. -1.
<mgrwt>
<rscale>  0 0.11951258E+03</rscale>
<asrwt>0</asrwt>
<pdfrwt beam="2">  1        2 0.20044772E+00 0.12918935E+03</pdfrwt>
<pdfrwt beam="1">  1       -2 0.36124921E-02 0.12918935E+03</pdfrwt>
<totfact> 0.54876883E+03</totfact>
</mgrwt>
</event>
<event>
 6    1  0.5258538E-006  0.1467733E+03  0.7546771E-02  0.1214237E+00
          2   -1    0    0  501    0  0.00000000000E+00  0.00000000000E+00  0.26482495399E+03  0.26482495399E+03  0.00000000000E+00 0. -1.
         -2   -1    0    0    0  501 -0.00000000000E+00 -0.00000000000E+00 -0.72625247207E+02  0.72625247207E+02  0.00000000000E+00 0.  1.
          5    1    1    2  502    0  0.26810504717E+02  0.33826401309E+02  0.16754803061E+03  0.17308223812E+03  0.47000000000E+01 0.  1.
         -5    1    1    2    0  502  0.32016822897E+02  0.15857197711E+02 -0.14614730520E+02  0.38887118893E+02  0.47000000000E+01 0.  1.
        -11    1    1    2    0    0  0.88855352323E+01 -0.13255346469E+02 -0.21992115633E+02  0.27171862217E+02  0.00000000000E+00 0.  1.
         11    1    1    2    0    0 -0.67712862846E+02 -0.36428252552E+02  0.61258522316E+02  0.98308981966E+02  0.00000000000E+00 0. -1.
<mgrwt>
<rscale>  0 0.13932696E+03</rscale>
<asrwt>0</asrwt>
<pdfrwt beam="1">  1        2 0.40742300E-01 0.14677334E+03</pdfrwt>
<pdfrwt beam="2">  1       -2 0.11173115E-01 0.14677334E+03</pdfrwt>
<totfact> 0.66560889E+03</totfact>
</mgrwt>
</event>
<event>
 6    1  0.5258538E-006  0.1356629E+03  0.7546771E-02  0.1230615E+00
          1   -1    0    0  501    0  0.00000000000E+00  0.00000000000E+00  0.43535934625E+03  0.43535934625E+03  0.00000000000E+00 0. -1.
         -1   -1    0    0    0  501 -0.00000000000E+00 -0.00000000000E+00 -0.48315843495E+02  0.48315843495E+02  0.00000000000E+00 0.  1.
          5    1    1    2  502    0 -0.16885229275E+02 -0.87529070712E+02  0.17195583215E+03  0.19374557388E+03  0.47000000000E+01 0. -1.
         -5    1    1    2    0  502  0.14053812306E+02  0.34904131610E+02  0.16914164183E+03  0.17334010801E+03  0.47000000000E+01 0. -1.
        -11    1    1    2    0    0 -0.15606559087E+02 -0.87824414962E+01 -0.18454156757E+02  0.25714818040E+02  0.00000000000E+00 0.  1.
         11    1    1    2    0    0  0.18437976056E+02  0.61407380598E+02  0.64400185536E+02  0.90874689821E+02  0.00000000000E+00 0. -1.
<mgrwt>
<rscale>  0 0.12789344E+03</rscale>
<asrwt>0</asrwt>
<pdfrwt beam="1">  1        1 0.66978358E-01 0.13566286E+03</pdfrwt>
<pdfrwt beam="2">  1       -1 0.74332070E-02 0.13566286E+03</pdfrwt>
<totfact> 0.50327164E+03</totfact>
</mgrwt>
</event>
<event>
 6    1  0.5258538E-006  0.1371720E+03  0.7546771E-02  0.1229627E+00
          1   -1    0    0  501    0  0.00000000000E+00  0.00000000000E+00  0.23724894270E+03  0.23724894270E+03  0.00000000000E+00 0. -1.
         -1   -1    0    0    0  501 -0.00000000000E+00 -0.00000000000E+00 -0.65137276844E+02  0.65137276844E+02  0.00000000000E+00 0.  1.
          5    1    1    2  502    0  0.48105809760E+01 -0.28386668408E+02 -0.94793111516E+01  0.30673962452E+02  0.47000000000E+01 0. -1.
         -5    1    1    2    0  502 -0.57570707460E+02  0.48623956550E+02  0.13796911674E+03  0.15727759752E+03  0.47000000000E+01 0. -1.
        -11    1    1    2    0    0  0.68457943494E+02 -0.30530640536E+02  0.54557524466E+02  0.92709942912E+02  0.00000000000E+00 0.  1.
         11    1    1    2    0    0 -0.15697817010E+02  0.10293352393E+02 -0.10935664200E+02  0.21724716658E+02  0.00000000000E+00 0. -1.
<mgrwt>
<rscale>  0 0.12854780E+03</rscale>
<asrwt>0</asrwt>
<pdfrwt beam="1">  1        1 0.36499837E-01 0.13717200E+03</pdfrwt>
<pdfrwt beam="2">  1       -1 0.10021120E-01 0.13717200E+03</pdfrwt>
<totfact> 0.68247482E+03</totfact>
</mgrwt>
</event>
<event>
 6    1  0.5258538E-006  0.3321507E+03  0.7546771E-02  0.1070189E+00
         -1   -1    0    0    0  501 -0.00000000000E+00  0.00000000000E+00  0.25700649175E+02  0.25700649175E+02  0.00000000000E+00 0.  1.
          1   -1    0    0  501    0  0.00000000000E+00 -0.00000000000E+00 -0.10731644957E+04  0.10731644957E+04  0.00000000000E+00 0. -1.
          5    1    1    2  502    0 -0.87214239125E+01 -0.23832684013E+02 -0.39943266220E+02  0.47556435723E+02  0.47000000000E+01 0. -1.
         -5    1    1    2    0  502 -0.54837928321E+02  0.67540216109E+02 -0.84679594255E+03  0.85126631409E+03  0.47000000000E+01 0. -1.
        -11    1    1    2    0    0  0.44006133572E+02 -0.12884291354E+02 -0.12694608929E+02  0.47578333846E+02  0.00000000000E+00 0.  1.
         11    1    1    2    0    0  0.19553218662E+02 -0.30823240741E+02 -0.14803002878E+03  0.15246406117E+03  0.00000000000E+00 0. -1.
<mgrwt>
<rscale>  0 0.33215071E+03</rscale>
<asrwt>0</asrwt>
<pdfrwt beam="2">  1        1 0.16510226E+00 0.33215071E+03</pdfrwt>
<pdfrwt beam="1">  1       -1 0.39539454E-02 0.33215071E+03</pdfrwt>
<totfact> 0.35400697E+03</totfact>
</mgrwt>
</event>
<event>
 6    1  0.5258538E-006  0.1262010E+03  0.7546771E-02  0.1248306E+00
          2   -1    0    0  501    0  0.00000000000E+00  0.00000000000E+00  0.60490988052E+03  0.60490988052E+03  0.00000000000E+00 0. -1.
         -2   -1    0    0    0  501 -0.00000000000E+00 -0.00000000000E+00 -0.20218220468E+02  0.20218220468E+02  0.00000000000E+00 0.  1.
          5    1    1    2  502    0 -0.34862611295E+02 -0.20217178754E+02  0.23280259238E+03  0.23631181309E+03  0.47000000000E+01 0. -1.
         -5    1    1    2    0  502  0.45374515438E+02  0.34032046645E+02  0.60887388277E+02  0.83345011256E+02  0.47000000000E+01 0. -1.
        -11    1    1    2    0    0 -0.50873849932E+02 -0.23633785588E+01  0.15656383184E+03  0.16463890064E+03  0.00000000000E+00 0.  1.
         11    1    1    2    0    0  0.40361945789E+02 -0.11451489333E+02  0.13443784756E+03  0.14083237600E+03  0.00000000000E+00 0. -1.
<mgrwt>
<rscale>  0 0.11689687E+03</rscale>
<asrwt>0</asrwt>
<pdfrwt beam="1">  1        2 0.93063045E-01 0.12620095E+03</pdfrwt>
<pdfrwt beam="2">  1       -2 0.31104959E-02 0.12620095E+03</pdfrwt>
<totfact> 0.18826855E+04</totfact>
</mgrwt>
</event>
<event>
 6    1  0.5258538E-006  0.1273190E+03  0.7546771E-02  0.1246934E+00
         -1   -1    0    0    0  501 -0.00000000000E+00  0.00000000000E+00  0.23877840297E+02  0.23877840297E+02  0.00000000000E+00 0.  1.
          1   -1    0    0  501    0  0.00000000000E+00 -0.00000000000E+00 -0.51859219174E+03  0.51859219174E+03  0.00000000000E+00 0. -1.
          5    1    1    2  502    0 -0.45863319966E+02  0.28419769868E+02 -0.54614033503E+02  0.76914953638E+02  0.47000000000E+01 0.  1.
         -5    1    1    2    0  502  0.29776544177E+02 -0.10331236806E+02 -0.26840764739E+03  0.27029267880E+03  0.47000000000E+01 0.  1.
        -11    1    1    2    0    0 -0.88165897582E+01  0.54325677675E+01  0.75244708354E+01  0.12800887034E+02  0.00000000000E+00 0.  1.
         11    1    1    2    0    0  0.24903365547E+02 -0.23521100829E+02 -0.17921714139E+03  0.18246151257E+03  0.00000000000E+00 0. -1.
<mgrwt>
<rscale>  0 0.11770392E+03</rscale>
<asrwt>0</asrwt>
<pdfrwt beam="2">  1        1 0.79783401E-01 0.12731902E+03</pdfrwt>
<pdfrwt beam="1">  1       -1 0.36735145E-02 0.12731902E+03</pdfrwt>
<totfact> 0.11358193E+04</totfact>
</mgrwt>
</event>
<event>
 6    1  0.5258538E-006  0.2256220E+03  0.7546771E-02  0.1132936E+00
          2   -1    0    0  501    0  0.00000000000E+00  0.00000000000E+00  0.35419823594E+04  0.35419823594E+04  0.00000000000E+00 0. -1.
         -2   -1    0    0    0  501 -0.00000000000E+00 -0.00000000000E+00 -0.17679484580E+02  0.17679484580E+02  0.00000000000E+00 0.  1.
          5    1    1    2  502    0  0.56756054507E+02 -0.13153224937E+03  0.12848323068E+04  0.12928024323E+04  0.47000000000E+01 0.  1.
         -5    1    1    2    0  502  0.62338025618E+02 -0.13717876931E+02  0.14126547937E+04  0.14141039091E+04  0.47000000000E+01 0.  1.
        -11    1    1    2    0    0 -0.46494529010E+02  0.48891794719E+01  0.26706302144E+03  0.27112414633E+03  0.00000000000E+00 0. -1.
         11    1    1    2    0    0 -0.72599551116E+02  0.14036094683E+03  0.55975275290E+03  0.58163135627E+03  0.00000000000E+00 0.  1.
<mgrwt>
<rscale>  0 0.22127460E+03</rscale>
<asrwt>0</asrwt>
<pdfrwt beam="1">  1        2 0.54491980E+00 0.22562199E+03</pdfrwt>
<pdfrwt beam="2">  1       -2 0.27199235E-02 0.22562199E+03</pdfrwt>
<totfact> 0.47253006E+02</totfact>
</mgrwt>
</event>
<event>
 6    1  0.5258538E-006  0.3053418E+03  0.7546771E-02  0.1082600E+00
         -1   -1    0    0    0  501 -0.00000000000E+00  0.00000000000E+00  0.54160834854E+03  0.54160834854E+03  0.00000000000E+00 0.  1.
          1   -1    0    0  501    0  0.00000000000E+00 -0.00000000000E+00 -0.43035546048E+02  0.43035546048E+02  0.00000000000E+00 0. -1.
          5    1    1    2  502    0  0.52952682422E+02  0.10407973891E+03  0.12741911862E+03  0.17289968311E+03  0.47000000000E+01 0. -1.
         -5    1    1    2    0  502 -0.38754663696E+02 -0.20105047728E+01  0.90996383892E+02  0.99037356432E+02  0.47000000000E+01 0. -1.
        -11    1    1    2    0    0 -0.48656394835E+02 -0.28855848664E+02  0.13780014298E+03  0.14895967295E+03  0.00000000000E+00 0.  1.
         11    1    1    2    0    0  0.34458376109E+02 -0.73213385476E+02  0.14235715700E+03  0.16374718210E+03  0.00000000000E+00 0. -1.
<mgrwt>
<rscale>  0 0.30534185E+03</rscale>
<asrwt>0</asrwt>
<pdfrwt beam="2">  1        1 0.66208536E-02 0.30534185E+03</pdfrwt>
<pdfrwt beam="1">  1       -1 0.83324357E-01 0.30534185E+03</pdfrwt>
<totfact> 0.16912827E+03</totfact>
</mgrwt>
</event>
<event>
 6    1  0.5258538E-006  0.1600049E+03  0.7546771E-02  0.1193847E+00
          1   -1    0    0  501    0  0.00000000000E+00  0.00000000000E+00  0.48063283554E+03  0.48063283554E+03  0.00000000000E+00 0. -1.
         -1   -1    0    0    0  501 -0.00000000000E+00 -0.00000000000E+00 -0.67121342112E+02  0.67121342112E+02  0.00000000000E+00 0.  1.
          5    1    1    2  502    0 -0.15600713204E+02 -0.26230896317E+02  0.62141595626E+02  0.69390994236E+02  0.47000000000E+01 0.  1.
         -5    1    1    2    0  502  0.94136711726E+02  0.87939275401E+02  0.30011695625E+03  0.32663024061E+03  0.47000000000E+01 0.  1.
        -11    1    1    2    0    0 -0.68464115745E+02 -0.68143552120E+02 -0.25383214980E+01  0.96629818981E+02  0.00000000000E+00 0.  1.
         11    1    1    2    0    0 -0.10071882777E+02  0.64351730361E+01  0.53791263049E+02  0.55103123823E+02  0.00000000000E+00 0. -1.
<mgrwt>
<rscale>  0 0.15552245E+03</rscale>
<asrwt>0</asrwt>
<pdfrwt beam="1">  1        1 0.73943511E-01 0.16000488E+03</pdfrwt>
<pdfrwt beam="2">  1       -1 0.10326361E-01 0.16000488E+03</pdfrwt>
<totfact> 0.27088397E+03</totfact>
</mgrwt>
</event>
<event>
 6    1  0.5258538E-006  0.1409872E+03  0.7546771E-02  0.1222811E+00
          1   -1    0    0  501    0  0.00000000000E+00  0.00000000000E+00  0.17591133763E+03  0.17591133763E+03  0.00000000000E+00 0. -1.
         -1   -1    0    0    0  501 -0.00000000000E+00 -0.00000000000E+00 -0.14371680599E+03  0.14371680599E+03  0.00000000000E+00 0.  1.
          5    1    1    2  502    0  0.50529954840E+02 -0.52624969367E+02  0.37050604828E+02  0.81960362707E+02  0.47000000000E+01 0. -1.
         -5    1    1    2    0  502  0.14103875299E+02  0.61172567433E+02  0.76466971603E+02  0.99046908336E+02  0.47000000000E+01 0. -1.
        -11    1    1    2    0    0  0.29274079890E+01 -0.19148702135E+02 -0.65665941501E+02  0.68463555154E+02  0.00000000000E+00 0.  1.
         11    1    1    2    0    0 -0.67561238128E+02  0.10601104069E+02 -0.15657103281E+02  0.70157317423E+02  0.00000000000E+00 0. -1.
<mgrwt>
<rscale>  0 0.13318062E+03</rscale>
<asrwt>0</asrwt>
<pdfrwt beam="1">  1        1 0.27063283E-01 0.14098721E+03</pdfrwt>
<pdfrwt beam="2">  1       -1 0.22110278E-01 0.14098721E+03</pdfrwt>
<totfact> 0.28629083E+03</totfact>
</mgrwt>
</event>
<event>
 6    1  0.5258538E-006  0.1301361E+03  0.7546771E-02  0.1241155E+00
          1   -1    0    0  501    0  0.00000000000E+00  0.00000000000E+00  0.35704140553E+03  0.35704140553E+03  0.00000000000E+00 0. -1.
         -1   -1    0    0    0  501 -0.00000000000E+00 -0.00000000000E+00 -0.36406925418E+02  0.36406925418E+02  0.00000000000E+00 0.  1.
          5    1    1    2  502    0  0.23214893797E+02 -0.45440422890E+02  0.10352761955E+03  0.11551545930E+03  0.47000000000E+01 0. -1.
         -5    1    1    2    0  502 -0.59397656244E+02  0.45611250106E+02  0.82600191063E+02  0.11159457544E+03  0.47000000000E+01 0. -1.
        -11    1    1    2    0    0  0.54375500904E+01  0.34948051536E+02  0.15709059054E+02  0.38700229890E+02  0.00000000000E+00 0.  1.
         11    1    1    2    0    0  0.30745212357E+02 -0.35118878752E+02  0.11879761044E+03  0.12763806632E+03  0.00000000000E+00 0. -1.
<mgrwt>
<rscale>  0 0.12118491E+03</rscale>
<asrwt>0</asrwt>
<pdfrwt beam="1">  1        1 0.54929444E-01 0.13013611E+03</pdfrwt>
<pdfrwt beam="2">  1       -1 0.56010657E-02 0.13013611E+03</pdfrwt>
<totfact> 0.98313084E+03</totfact>
</mgrwt>
</event>
<event>
 6    1  0.5258538E-006  0.1807243E+03  0.7546771E-02  0.1172563E+00
         -2   -1    0    0    0  501 -0.00000000000E+00  0.00000000000E+00  0.10564409077E+03  0.10564409077E+03  0.00000000000E+00 0.  1.
          2   -1    0    0  501    0  0.00000000000E+00 -0.00000000000E+00 -0.56294261430E+03  0.56294261430E+03  0.00000000000E+00 0. -1.
          5    1    1    2  502    0  0.29580710930E+02 -0.10855566133E+03 -0.18378236923E+03  0.21553978590E+03  0.47000000000E+01 0. -1.
         -5    1    1    2    0  502  0.27518758844E+02 -0.88218727915E+01 -0.29110617281E+03  0.29257477912E+03  0.47000000000E+01 0. -1.
        -11    1    1    2    0    0 -0.40825397308E+02  0.15569324023E+02  0.34909730764E+02  0.55926793382E+02  0.00000000000E+00 0. -1.
         11    1    1    2    0    0 -0.16274072465E+02  0.10180821010E+03 -0.17319712246E+02  0.10454534667E+03  0.00000000000E+00 0.  1.
<mgrwt>
<rscale>  0 0.17516856E+03</rscale>
<asrwt>0</asrwt>
<pdfrwt beam="2">  1        2 0.86606556E-01 0.18072433E+03</pdfrwt>
<pdfrwt beam="1">  1       -2 0.16252937E-01 0.18072433E+03</pdfrwt>
<totfact> 0.16157485E+03</totfact>
</mgrwt>
</event>
<event>
 6    1  0.5258538E-006  0.1272865E+03  0.7546771E-02  0.1249813E+00
         -2   -1    0    0    0  501 -0.00000000000E+00  0.00000000000E+00  0.44978301164E+02  0.44978301164E+02  0.00000000000E+00 0.  1.
          2   -1    0    0  501    0  0.00000000000E+00 -0.00000000000E+00 -0.30253940933E+03  0.30253940933E+03  0.00000000000E+00 0. -1.
          5    1    1    2  502    0  0.74111969314E+01  0.45067935385E+02 -0.24845347759E+02  0.52205612199E+02  0.47000000000E+01 0. -1.
         -5    1    1    2    0  502 -0.31381151377E+02 -0.43533080102E+02 -0.19025343726E+03  0.19773306783E+03  0.47000000000E+01 0. -1.
        -11    1    1    2    0    0 -0.27968955867E+02  0.16833351514E+02 -0.18284269839E+02  0.37415755225E+02  0.00000000000E+00 0.  1.
         11    1    1    2    0    0  0.51938910313E+02 -0.18368206797E+02 -0.24178053304E+02  0.60163275235E+02  0.00000000000E+00 0. -1.
<mgrwt>
<rscale>  0 0.11601903E+03</rscale>
<asrwt>0</asrwt>
<pdfrwt beam="2">  1        2 0.46544523E-01 0.12728651E+03</pdfrwt>
<pdfrwt beam="1">  1       -2 0.69197389E-02 0.12728651E+03</pdfrwt>
<totfact> 0.12058464E+04</totfact>
</mgrwt>
</event>
<event>
 6    1  0.5258538E-006  0.1797450E+03  0.7546771E-02  0.1174609E+00
          2   -1    0    0  501    0  0.00000000000E+00  0.00000000000E+00  0.64805479430E+03  0.64805479430E+03  0.00000000000E+00 0. -1.
         -2   -1    0    0    0  501 -0.00000000000E+00 -0.00000000000E+00 -0.63336379006E+02  0.63336379006E+02  0.00000000000E+00 0.  1.
          5    1    1    2  502    0 -0.30134542039E+02  0.79827861531E+02  0.13081364733E+03  0.15625261095E+03  0.47000000000E+01 0.  1.
         -5    1    1    2    0  502 -0.63461919721E+02  0.91819525042E+01  0.37678003503E+03  0.38222638358E+03  0.47000000000E+01 0.  1.
        -11    1    1    2    0    0  0.95278200759E+02 -0.66963150540E+02  0.29092079522E+02  0.12003477896E+03  0.00000000000E+00 0.  1.
         11    1    1    2    0    0 -0.16817389999E+01 -0.22046663494E+02  0.48032653403E+02  0.52877399806E+02  0.00000000000E+00 0. -1.
<mgrwt>
<rscale>  0 0.17314374E+03</rscale>
<asrwt>0</asrwt>
<pdfrwt beam="1">  1        2 0.99700733E-01 0.17974504E+03</pdfrwt>
<pdfrwt beam="2">  1       -2 0.97440587E-02 0.17974504E+03</pdfrwt>
<totfact> 0.31400343E+03</totfact>
</mgrwt>
</event>
<event>
 6    1  0.5258538E-006  0.3853831E+03  0.7546771E-02  0.1074316E+00
          2   -1    0    0  501    0  0.00000000000E+00  0.00000000000E+00  0.15439185040E+04  0.15439185040E+04  0.00000000000E+00 0. -1.
         -2   -1    0    0    0  501 -0.00000000000E+00 -0.00000000000E+00 -0.55260395097E+02  0.55260395097E+02  0.00000000000E+00 0.  1.
          5    1    1    2  502    0  0.85522122994E+02 -0.11443180926E+03  0.96871270694E+03  0.97920124135E+03  0.47000000000E+01 0. -1.
         -5    1    1    2    0  502  0.82943072999E+02  0.11112753780E+03  0.15142822376E+03  0.20538130384E+03  0.47000000000E+01 0.  1.
        -11    1    1    2    0    0 -0.16741423042E+03 -0.98606296624E+01  0.29019457851E+03  0.33516809210E+03  0.00000000000E+00 0.  1.
         11    1    1    2    0    0 -0.10509655746E+01  0.13164901122E+02  0.78322599701E+02  0.79428261810E+02  0.00000000000E+00 0. -1.
<mgrwt>
<rscale>  0 0.32291308E+03</rscale>
<asrwt>0</asrwt>
<pdfrwt beam="1">  1        2 0.23752589E+00 0.38538306E+03</pdfrwt>
<pdfrwt beam="2">  1       -2 0.85016004E-02 0.38538306E+03</pdfrwt>
<totfact> 0.11031826E+03</totfact>
</mgrwt>
</event>
<event>
 6    1  0.5258538E-006  0.1393017E+03  0.7546771E-02  0.1225567E+00
          1   -1    0    0  501    0  0.00000000000E+00  0.00000000000E+00  0.58304265113E+03  0.58304265113E+03  0.00000000000E+00 0. -1.
         -1   -1    0    0    0  501 -0.00000000000E+00 -0.00000000000E+00 -0.26627957984E+02  0.26627957984E+02  0.00000000000E+00 0.  1.
          5    1    1    2  502    0  0.37826345560E+02  0.30972090168E+02  0.73447478622E+02  0.88355672731E+02  0.47000000000E+01 0.  1.
         -5    1    1    2    0  502 -0.85671767357E+01 -0.85032808931E+02  0.23453730943E+03  0.24966740802E+03  0.47000000000E+01 0.  1.
        -11    1    1    2    0    0 -0.58800347592E+02  0.35046877007E+02  0.11651926048E+03  0.13513882687E+03  0.00000000000E+00 0.  1.
         11    1    1    2    0    0  0.29541178768E+02  0.19013841755E+02  0.13191064461E+03  0.13650870149E+03  0.00000000000E+00 0. -1.
<mgrwt>
<rscale>  0 0.13128137E+03</rscale>
<asrwt>0</asrwt>
<pdfrwt beam="1">  1        1 0.89698860E-01 0.13930174E+03</pdfrwt>
<pdfrwt beam="2">  1       -1 0.40966094E-02 0.13930174E+03</pdfrwt>
<totfact> 0.83345737E+03</totfact>
</mgrwt>
</event>
<event>
 6    1  0.5258538E-006  0.3050397E+03  0.7546771E-02  0.1110128E+00
          2   -1    0    0  501    0  0.00000000000E+00  0.00000000000E+00  0.77471486438E+03  0.77471486438E+03  0.00000000000E+00 0.  1.
         -2   -1    0    0    0  501 -0.00000000000E+00 -0.00000000000E+00 -0.68006810024E+02  0.68006810024E+02  0.00000000000E+00 0. -1.
          5    1    1    2  502    0 -0.45270058446E+02 -0.57648420455E+02  0.36194135526E+02  0.81882989804E+02  0.47000000000E+01 0. -1.
         -5    1    1    2    0  502  0.11330183148E+03  0.15440646019E+03  0.49328635356E+03  0.52918066535E+03  0.47000000000E+01 0.  1.
        -11    1    1    2    0    0  0.46919233816E+01  0.14661747241E+02  0.12002542355E+02  0.19520297133E+02  0.00000000000E+00 0.  1.
         11    1    1    2    0    0 -0.72723696416E+02 -0.11141978698E+03  0.16522502292E+03  0.21213772213E+03  0.00000000000E+00 0. -1.
<mgrwt>
<rscale>  0 0.25509251E+03</rscale>
<asrwt>0</asrwt>
<pdfrwt beam="1">  1        2 0.11918690E+00 0.30503967E+03</pdfrwt>
<pdfrwt beam="2">  1       -2 0.10462587E-01 0.30503967E+03</pdfrwt>
<totfact> 0.22809032E+03</totfact>
</mgrwt>
</event>
<event>
 6    1  0.5258538E-006  0.1392951E+03  0.7546771E-02  0.1226679E+00
          4   -1    0    0  501    0  0.00000000000E+00  0.00000000000E+00  0.30751971526E+03  0.30751971526E+03  0.00000000000E+00 0. -1.
         -4   -1    0    0    0  501 -0.00000000000E+00 -0.00000000000E+00 -0.58621211147E+02  0.58621211147E+02  0.00000000000E+00 0.  1.
          5    1    1    2  502    0 -0.53619786798E+02  0.83278765932E+02  0.13262515403E+03  0.16559576043E+03  0.47000000000E+01 0. -1.
         -5    1    1    2    0  502  0.15658393911E+02 -0.34826338781E+02  0.77223212496E+02  0.86276148042E+02  0.47000000000E+01 0. -1.
        -11    1    1    2    0    0  0.27252327419E+02 -0.61373443498E+02 -0.47939353208E+01  0.67322884166E+02  0.00000000000E+00 0.  1.
         11    1    1    2    0    0  0.10709065468E+02  0.12921016348E+02  0.43844072906E+02  0.46946133767E+02  0.00000000000E+00 0. -1.
<mgrwt>
<rscale>  0 0.13052457E+03</rscale>
<asrwt>0</asrwt>
<pdfrwt beam="1">  1        4 0.47310725E-01 0.13929509E+03</pdfrwt>
<pdfrwt beam="2">  1       -4 0.90186480E-02 0.13929509E+03</pdfrwt>
<totfact> 0.65321541E+02</totfact>
</mgrwt>
</event>
<event>
 6    1  0.5258538E-006  0.1428438E+03  0.7546771E-02  0.1226733E+00
         -2   -1    0    0    0  501 -0.00000000000E+00  0.00000000000E+00  0.27871560199E+02  0.27871560199E+02  0.00000000000E+00 0.  1.
          2   -1    0    0  501    0  0.00000000000E+00 -0.00000000000E+00 -0.53357686409E+03  0.53357686409E+03  0.00000000000E+00 0. -1.
          5    1    1    2  502    0 -0.36307670559E+02 -0.59694809945E+02 -0.31840084937E+03  0.32601059516E+03  0.47000000000E+01 0. -1.
         -5    1    1    2    0  502 -0.21444847366E+02  0.21677468680E+02 -0.10534159469E+02  0.32601420869E+02  0.47000000000E+01 0. -1.
        -11    1    1    2    0    0  0.14750310653E+02  0.51982668177E+02 -0.89414952230E+02  0.10447393521E+03  0.00000000000E+00 0. -1.
         11    1    1    2    0    0  0.43002207273E+02 -0.13965326912E+02 -0.87355342822E+02  0.98362473056E+02  0.00000000000E+00 0.  1.
<mgrwt>
<rscale>  0 0.13048849E+03</rscale>
<asrwt>0</asrwt>
<pdfrwt beam="2">  1        2 0.82088753E-01 0.14284375E+03</pdfrwt>
<pdfrwt beam="1">  1       -2 0.42879321E-02 0.14284375E+03</pdfrwt>
<totfact> 0.13611175E+04</totfact>
</mgrwt>
</event>
<event>
 6    1  0.5258538E-006  0.1576799E+03  0.7546771E-02  0.1198992E+00
         -2   -1    0    0    0  501 -0.00000000000E+00  0.00000000000E+00  0.15082308271E+02  0.15082308271E+02  0.00000000000E+00 0.  1.
          2   -1    0    0  501    0  0.00000000000E+00 -0.00000000000E+00 -0.14509975398E+04  0.14509975398E+04  0.00000000000E+00 0. -1.
          5    1    1    2  502    0 -0.13683653790E+02 -0.71837488568E+02 -0.21902803579E+03  0.23096155006E+03  0.47000000000E+01 0. -1.
         -5    1    1    2    0  502 -0.47597134308E+02 -0.22162848819E+01 -0.68849741072E+03  0.69016025217E+03  0.47000000000E+01 0. -1.
        -11    1    1    2    0    0  0.65740797958E+02  0.14791244882E+02 -0.36331645269E+03  0.36951248725E+03  0.00000000000E+00 0.  1.
         11    1    1    2    0    0 -0.44600098590E+01  0.59262528568E+02 -0.16507333236E+03  0.17544555861E+03  0.00000000000E+00 0. -1.
<mgrwt>
<rscale>  0 0.15121133E+03</rscale>
<asrwt>0</asrwt>
<pdfrwt beam="2">  1        2 0.22323038E+00 0.15767986E+03</pdfrwt>
<pdfrwt beam="1">  1       -2 0.23203553E-02 0.15767986E+03</pdfrwt>
<totfact> 0.88361254E+03</totfact>
</mgrwt>
</event>
<event>
 6    1  0.5258538E-006  0.1340054E+03  0.7546771E-02  0.1233742E+00
         -2   -1    0    0    0  501 -0.00000000000E+00  0.00000000000E+00  0.67091575519E+02  0.67091575519E+02  0.00000000000E+00 0.  1.
          2   -1    0    0  501    0  0.00000000000E+00 -0.00000000000E+00 -0.21664407756E+03  0.21664407756E+03  0.00000000000E+00 0. -1.
          5    1    1    2  502    0 -0.39058165573E+00 -0.76660024753E+02 -0.11277231631E+03  0.13644265196E+03  0.47000000000E+01 0. -1.
         -5    1    1    2    0  502 -0.13145100414E+02  0.30286513338E+02  0.72431616077E+01  0.34126528466E+02  0.47000000000E+01 0. -1.
        -11    1    1    2    0    0 -0.17428551159E+02  0.38327498582E+02  0.16086963098E+02  0.45072629442E+02  0.00000000000E+00 0.  1.
         11    1    1    2    0    0  0.30964233229E+02  0.80460128331E+01 -0.60110310438E+02  0.68093843209E+02  0.00000000000E+00 0. -1.
<mgrwt>
<rscale>  0 0.12585294E+03</rscale>
<asrwt>0</asrwt>
<pdfrwt beam="2">  1        2 0.33329858E-01 0.13400538E+03</pdfrwt>
<pdfrwt beam="1">  1       -2 0.10321781E-01 0.13400538E+03</pdfrwt>
<totfact> 0.92937432E+03</totfact>
</mgrwt>
</event>
<event>
 6    1  0.6515006E-006  0.3126284E+03  0.7546771E-02  0.1080505E+00
          1   -1    0    0  501    0  0.00000000000E+00  0.00000000000E+00  0.12476079452E+04  0.12476079452E+04  0.00000000000E+00 0. -1.
         -1   -1    0    0    0  501 -0.00000000000E+00 -0.00000000000E+00 -0.79017492288E+02  0.79017492288E+02  0.00000000000E+00 0.  1.
          5    1    1    2  502    0  0.11114923269E+03  0.24985183109E+03  0.70601411808E+03  0.75713810784E+03  0.47000000000E+01 0. -1.
         -5    1    1    2    0  502  0.29763794026E+02 -0.34455579762E+00  0.30007110564E+02  0.42526683834E+02  0.47000000000E+01 0. -1.
        -11    1    1    2    0    0 -0.20688548732E+01 -0.87492349387E+02  0.12090212857E+03  0.14925319445E+03  0.00000000000E+00 0.  1.
         11    1    1    2    0    0 -0.13884417184E+03 -0.16201492590E+03  0.31166709573E+03  0.37770745138E+03  0.00000000000E+00 0. -1.
<mgrwt>
<rscale>  0 0.30966721E+03</rscale>
<asrwt>0</asrwt>
<pdfrwt beam="1">  1        1 0.19193967E+00 0.31262842E+03</pdfrwt>
<pdfrwt beam="2">  1       -1 0.12156538E-01 0.31262842E+03</pdfrwt>
<totfact> 0.47571613E+02</totfact>
</mgrwt>
</event>
<event>
 6    1  0.5258538E-006  0.1299135E+03  0.7546771E-02  0.1241038E+00
         -1   -1    0    0    0  501 -0.00000000000E+00  0.00000000000E+00  0.13311264191E+02  0.13311264191E+02  0.00000000000E+00 0.  1.
          1   -1    0    0  501    0  0.00000000000E+00 -0.00000000000E+00 -0.11850714613E+04  0.11850714613E+04  0.00000000000E+00 0. -1.
          5    1    1    2  502    0 -0.22771213853E+02 -0.33762176478E+02 -0.84902131734E+03  0.85001041173E+03  0.47000000000E+01 0.  1.
         -5    1    1    2    0  502  0.29746331557E+02 -0.92782206542E+00 -0.50205763413E+02  0.58552658136E+02  0.47000000000E+01 0.  1.
        -11    1    1    2    0    0  0.73409323011E+00  0.65412015209E+02 -0.20588889822E+03  0.21603126865E+03  0.00000000000E+00 0. -1.
         11    1    1    2    0    0 -0.77092109341E+01 -0.30722016665E+02 -0.66644218118E+02  0.73788386957E+02  0.00000000000E+00 0.  1.
<mgrwt>
<rscale>  0 0.12125656E+03</rscale>
<asrwt>0</asrwt>
<pdfrwt beam="2">  1        1 0.18231874E+00 0.12991347E+03</pdfrwt>
<pdfrwt beam="1">  1       -1 0.20478862E-02 0.12991347E+03</pdfrwt>
<totfact> 0.75385330E+03</totfact>
</mgrwt>
</event>
<event>
 6    1  0.5258538E-006  0.2926501E+03  0.7546771E-02  0.1088974E+00
          2   -1    0    0  501    0  0.00000000000E+00  0.00000000000E+00  0.44783613053E+03  0.44783613053E+03  0.00000000000E+00 0.  1.
         -2   -1    0    0    0  501 -0.00000000000E+00 -0.00000000000E+00 -0.47809952256E+02  0.47809952256E+02  0.00000000000E+00 0. -1.
          5    1    1    2  502    0 -0.22827592535E+02 -0.32982893567E+02  0.21433324478E+03  0.21810502073E+03  0.47000000000E+01 0.  1.
         -5    1    1    2    0  502  0.59855451933E+02  0.43331010530E+02  0.12136728510E+03  0.14217017793E+03  0.47000000000E+01 0.  1.
        -11    1    1    2    0    0 -0.18686894435E+02  0.46333987644E+02  0.56277369708E+02  0.75254108033E+02  0.00000000000E+00 0.  1.
         11    1    1    2    0    0 -0.18340964962E+02 -0.56682104607E+02  0.80482786861E+01  0.60116776096E+02  0.00000000000E+00 0. -1.
<mgrwt>
<rscale>  0 0.29265013E+03</rscale>
<asrwt>0</asrwt>
<pdfrwt beam="1">  1        2 0.68897863E-01 0.29265013E+03</pdfrwt>
<pdfrwt beam="2">  1       -2 0.73553776E-02 0.29265013E+03</pdfrwt>
<totfact> 0.75761283E+03</totfact>
</mgrwt>
</event>
<event>
 6    1  0.5258538E-006  0.1460358E+03  0.7546771E-02  0.1215626E+00
         -2   -1    0    0    0  501 -0.00000000000E+00  0.00000000000E+00  0.51298462232E+02  0.51298462232E+02  0.00000000000E+00 0.  1.
          2   -1    0    0  501    0  0.00000000000E+00 -0.00000000000E+00 -0.61889833866E+03  0.61889833866E+03  0.00000000000E+00 0. -1.
          5    1    1    2  502    0  0.20997332904E+02  0.63653180973E+02 -0.51235000651E+03  0.51673710396E+03  0.47000000000E+01 0. -1.
         -5    1    1    2    0  502  0.24768258575E+02 -0.35940892846E+01 -0.13116064927E+02  0.28644463162E+02  0.47000000000E+01 0. -1.
        -11    1    1    2    0    0 -0.96290357064E+00 -0.68133754189E+02 -0.40486534939E+02  0.79260930821E+02  0.00000000000E+00 0.  1.
         11    1    1    2    0    0 -0.44802687909E+02  0.80746625010E+01 -0.16472700479E+01  0.45554302947E+02  0.00000000000E+00 0. -1.
<mgrwt>
<rscale>  0 0.13830680E+03</rscale>
<asrwt>0</asrwt>
<pdfrwt beam="2">  1        2 0.95215127E-01 0.14603582E+03</pdfrwt>
<pdfrwt beam="1">  1       -2 0.78920713E-02 0.14603582E+03</pdfrwt>
<totfact> 0.45682983E+03</totfact>
</mgrwt>
</event>
<event>
 6    1  0.5258538E-006  0.1611159E+03  0.7546771E-02  0.1194575E+00
          2   -1    0    0  501    0  0.00000000000E+00  0.00000000000E+00  0.11788414629E+03  0.11788414629E+03  0.00000000000E+00 0. -1.
         -2   -1    0    0    0  501 -0.00000000000E+00 -0.00000000000E+00 -0.19402229386E+03  0.19402229386E+03  0.00000000000E+00 0.  1.
          5    1    1    2  502    0 -0.55622736540E+02 -0.52487113784E+02 -0.85133482605E+01  0.77093145170E+02  0.47000000000E+01 0. -1.
         -5    1    1    2    0  502 -0.44162069122E+02  0.71876998111E+02 -0.82556145676E+01  0.84893087931E+02  0.47000000000E+01 0. -1.
        -11    1    1    2    0    0  0.87518906210E+02  0.17383275125E+02 -0.65479669043E+02  0.11067666536E+03  0.00000000000E+00 0.  1.
         11    1    1    2    0    0  0.12265899453E+02 -0.36773159451E+02  0.61104842949E+01  0.39243541682E+02  0.00000000000E+00 0. -1.
<mgrwt>
<rscale>  0 0.15490268E+03</rscale>
<asrwt>0</asrwt>
<pdfrwt beam="1">  1        2 0.18136023E-01 0.16111593E+03</pdfrwt>
<pdfrwt beam="2">  1       -2 0.29849583E-01 0.16111593E+03</pdfrwt>
<totfact> 0.31197050E+03</totfact>
</mgrwt>
</event>
<event>
 6    1  0.1002417E-005  0.1846426E+03  0.7546771E-02  0.1168555E+00
          1   -1    0    0  501    0  0.00000000000E+00  0.00000000000E+00  0.48794719565E+03  0.48794719565E+03  0.00000000000E+00 0. -1.
         -1   -1    0    0    0  501 -0.00000000000E+00 -0.00000000000E+00 -0.62276381764E+02  0.62276381764E+02  0.00000000000E+00 0.  1.
          5    1    1    2  502    0 -0.26109955772E+02 -0.48955178445E+02  0.34272158218E+02  0.65383561512E+02  0.47000000000E+01 0.  1.
         -5    1    1    2    0  502 -0.10977928245E+03  0.47503873248E+02  0.19748897372E+03  0.23093742350E+03  0.47000000000E+01 0.  1.
        -11    1    1    2    0    0  0.85044181846E+02  0.12121174514E+02  0.46662370062E+02  0.97758951085E+02  0.00000000000E+00 0.  1.
         11    1    1    2    0    0  0.50845056374E+02 -0.10669869316E+02  0.14724731188E+03  0.15614364132E+03  0.00000000000E+00 0. -1.
<mgrwt>
<rscale>  0 0.17922496E+03</rscale>
<asrwt>0</asrwt>
<pdfrwt beam="1">  1        1 0.75068797E-01 0.18464264E+03</pdfrwt>
<pdfrwt beam="2">  1       -1 0.95809821E-02 0.18464264E+03</pdfrwt>
<totfact> 0.29937927E+03</totfact>
</mgrwt>
</event>
<event>
 6    1  0.5258538E-006  0.2750628E+03  0.7546771E-02  0.1098417E+00
         -2   -1    0    0    0  501 -0.00000000000E+00  0.00000000000E+00  0.46998376825E+02  0.46998376825E+02  0.00000000000E+00 0.  1.
          2   -1    0    0  501    0  0.00000000000E+00 -0.00000000000E+00 -0.40245816153E+03  0.40245816153E+03  0.00000000000E+00 0. -1.
          5    1    1    2  502    0 -0.28462122683E+02  0.38218722440E+02 -0.19578833915E+03  0.20155874310E+03  0.47000000000E+01 0.  1.
         -5    1    1    2    0  502  0.44694348978E+02 -0.43395137308E+02 -0.78291810602E+02  0.10016197073E+03  0.47000000000E+01 0.  1.
        -11    1    1    2    0    0 -0.33971308321E+02 -0.43166922057E+02 -0.43823125615E+01  0.55105694917E+02  0.00000000000E+00 0.  1.
         11    1    1    2    0    0  0.17739082026E+02  0.48343336926E+02 -0.76997322390E+02  0.92630129610E+02  0.00000000000E+00 0. -1.
<mgrwt>
<rscale>  0 0.27506276E+03</rscale>
<asrwt>0</asrwt>
<pdfrwt beam="2">  1        2 0.61916640E-01 0.27506276E+03</pdfrwt>
<pdfrwt beam="1">  1       -2 0.72305196E-02 0.27506276E+03</pdfrwt>
<totfact> 0.87268731E+03</totfact>
</mgrwt>
</event>
<event>
 6    1  0.5258538E-006  0.2962168E+03  0.7546771E-02  0.1087147E+00
          1   -1    0    0  501    0  0.00000000000E+00  0.00000000000E+00  0.60461563276E+03  0.60461563276E+03  0.00000000000E+00 0. -1.
         -1   -1    0    0    0  501 -0.00000000000E+00 -0.00000000000E+00 -0.36281054130E+02  0.36281054130E+02  0.00000000000E+00 0.  1.
          5    1    1    2  502    0 -0.34821373360E+02 -0.13540132343E+02  0.49593656203E+02  0.62269446458E+02  0.47000000000E+01 0. -1.
         -5    1    1    2    0  502  0.10135269127E+03 -0.61481315290E+02  0.28563634751E+03  0.30929360351E+03  0.47000000000E+01 0. -1.
        -11    1    1    2    0    0 -0.60155527961E+02  0.26776648812E+02  0.58516224059E+02  0.88089868566E+02  0.00000000000E+00 0.  1.
         11    1    1    2    0    0 -0.63757899487E+01  0.48244798821E+02  0.17458835086E+03  0.18124376836E+03  0.00000000000E+00 0. -1.
<mgrwt>
<rscale>  0 0.29621676E+03</rscale>
<asrwt>0</asrwt>
<pdfrwt beam="1">  1        1 0.93017782E-01 0.29621676E+03</pdfrwt>
<pdfrwt beam="2">  1       -1 0.55817011E-02 0.29621676E+03</pdfrwt>
<totfact> 0.51823653E+03</totfact>
</mgrwt>
</event>
<event>
 6    1  0.5258538E-006  0.1354635E+03  0.7546771E-02  0.1230796E+00
          2   -1    0    0  501    0  0.00000000000E+00  0.00000000000E+00  0.14956668575E+03  0.14956668575E+03  0.00000000000E+00 0. -1.
         -2   -1    0    0    0  501 -0.00000000000E+00 -0.00000000000E+00 -0.10007266319E+03  0.10007266319E+03  0.00000000000E+00 0.  1.
          5    1    1    2  502    0  0.41155083310E+02 -0.62377336469E+01 -0.31636733494E+02  0.52494029274E+02  0.47000000000E+01 0. -1.
         -5    1    1    2    0  502 -0.98936555603E+01  0.48041841022E+02  0.75004326879E+02  0.89742085777E+02  0.47000000000E+01 0. -1.
        -11    1    1    2    0    0 -0.20480478173E+02  0.63638902525E+01 -0.36401512350E+02  0.42249487413E+02  0.00000000000E+00 0.  1.
         11    1    1    2    0    0 -0.10780949577E+02 -0.48167997628E+02  0.42527941529E+02  0.65153746476E+02  0.00000000000E+00 0. -1.
<mgrwt>
<rscale>  0 0.12777450E+03</rscale>
<asrwt>0</asrwt>
<pdfrwt beam="1">  1        2 0.23010259E-01 0.13546352E+03</pdfrwt>
<pdfrwt beam="2">  1       -2 0.15395794E-01 0.13546352E+03</pdfrwt>
<totfact> 0.73369812E+03</totfact>
</mgrwt>
</event>
<event>
 6    1  0.5258538E-006  0.1440474E+03  0.7546771E-02  0.1218325E+00
          2   -1    0    0  501    0  0.00000000000E+00  0.00000000000E+00  0.54721870608E+03  0.54721870608E+03  0.00000000000E+00 0.  1.
         -2   -1    0    0    0  501 -0.00000000000E+00 -0.00000000000E+00 -0.45855737993E+02  0.45855737993E+02  0.00000000000E+00 0. -1.
          5    1    1    2  502    0  0.20744667915E+01 -0.10094199342E+03  0.34876265714E+03  0.36311302712E+03  0.47000000000E+01 0. -1.
         -5    1    1    2    0  502  0.21959673907E+02  0.33642501314E+02  0.89519031674E+02  0.98233355866E+02  0.47000000000E+01 0. -1.
        -11    1    1    2    0    0 -0.21172928498E+02  0.37792843880E+02 -0.16846238260E+02  0.46479970883E+02  0.00000000000E+00 0. -1.
         11    1    1    2    0    0 -0.28612122012E+01  0.29506648224E+02  0.79927517537E+02  0.85248090210E+02  0.00000000000E+00 0.  1.
<mgrwt>
<rscale>  0 0.13635082E+03</rscale>
<asrwt>0</asrwt>
<pdfrwt beam="1">  1        2 0.84187489E-01 0.14404738E+03</pdfrwt>
<pdfrwt beam="2">  1       -2 0.70547293E-02 0.14404738E+03</pdfrwt>
<totfact> 0.62377109E+03</totfact>
</mgrwt>
</event>
<event>
 6    1  0.5258538E-006  0.1297916E+03  0.7546771E-02  0.1242768E+00
          2   -1    0    0  501    0  0.00000000000E+00  0.00000000000E+00  0.36397952900E+03  0.36397952900E+03  0.00000000000E+00 0.  1.
         -2   -1    0    0    0  501 -0.00000000000E+00 -0.00000000000E+00 -0.35299915348E+02  0.35299915348E+02  0.00000000000E+00 0. -1.
          5    1    1    2  502    0 -0.52204062873E+02  0.48120666077E+02  0.63169074793E+02  0.95148750356E+02  0.47000000000E+01 0. -1.
         -5    1    1    2    0  502  0.22345415178E+02 -0.29906320027E+02  0.14808882031E+03  0.15279428739E+03  0.47000000000E+01 0. -1.
        -11    1    1    2    0    0  0.23299727093E+02 -0.48470677226E+02  0.10501303332E+03  0.11798313862E+03  0.00000000000E+00 0.  1.
         11    1    1    2    0    0  0.65589206019E+01  0.30256331176E+02  0.12408685230E+02  0.33353267978E+02  0.00000000000E+00 0. -1.
<mgrwt>
<rscale>  0 0.12019974E+03</rscale>
<asrwt>0</asrwt>
<pdfrwt beam="1">  1        2 0.55996848E-01 0.12979157E+03</pdfrwt>
<pdfrwt beam="2">  1       -2 0.54307565E-02 0.12979157E+03</pdfrwt>
<totfact> 0.14338614E+04</totfact>
</mgrwt>
</event>
<event>
 6    1  0.5258538E-006  0.1527603E+03  0.7546771E-02  0.1205554E+00
          3   -1    0    0  501    0  0.00000000000E+00  0.00000000000E+00  0.58998725479E+03  0.58998725479E+03  0.00000000000E+00 0. -1.
         -3   -1    0    0    0  501 -0.00000000000E+00 -0.00000000000E+00 -0.48741142687E+02  0.48741142687E+02  0.00000000000E+00 0.  1.
          5    1    1    2  502    0  0.88652097146E+02 -0.69926783633E+01  0.23746105327E+03  0.25360980600E+03  0.47000000000E+01 0.  1.
         -5    1    1    2    0  502 -0.17940375826E+02  0.59054322325E+02  0.22965814219E+03  0.23785336311E+03  0.47000000000E+01 0.  1.
        -11    1    1    2    0    0  0.11005081148E+02 -0.42969461684E+02  0.18881404309E+02  0.48207819668E+02  0.00000000000E+00 0.  1.
         11    1    1    2    0    0 -0.81716802468E+02 -0.90921822778E+01  0.55245512329E+02  0.99057408691E+02  0.00000000000E+00 0. -1.
<mgrwt>
<rscale>  0 0.14593895E+03</rscale>
<asrwt>0</asrwt>
<pdfrwt beam="1">  1        3 0.90767265E-01 0.15276028E+03</pdfrwt>
<pdfrwt beam="2">  1       -3 0.74986377E-02 0.15276028E+03</pdfrwt>
<totfact> 0.31663585E+02</totfact>
</mgrwt>
</event>
<event>
 6    1  0.5258538E-006  0.1521511E+03  0.7546771E-02  0.1206785E+00
         -2   -1    0    0    0  501 -0.00000000000E+00  0.00000000000E+00  0.11924544028E+03  0.11924544028E+03  0.00000000000E+00 0.  1.
          2   -1    0    0  501    0  0.00000000000E+00 -0.00000000000E+00 -0.16741708002E+03  0.16741708002E+03  0.00000000000E+00 0. -1.
          5    1    1    2  502    0 -0.63021538741E+01 -0.30513097420E+02  0.61574966052E+02  0.69168870902E+02  0.47000000000E+01 0. -1.
         -5    1    1    2    0  502 -0.14120234508E+01 -0.55896354668E+02 -0.61136488463E+02  0.82982868696E+02  0.47000000000E+01 0. -1.
        -11    1    1    2    0    0 -0.10667271038E+02  0.99656942281E+02 -0.28458626747E+02  0.10418824431E+03  0.00000000000E+00 0.  1.
         11    1    1    2    0    0  0.18381448363E+02 -0.13247490193E+02 -0.20151490586E+02  0.30322536391E+02  0.00000000000E+00 0. -1.
<mgrwt>
<rscale>  0 0.14497668E+03</rscale>
<asrwt>0</asrwt>
<pdfrwt beam="2">  1        2 0.25756474E-01 0.15215111E+03</pdfrwt>
<pdfrwt beam="1">  1       -2 0.18345452E-01 0.15215111E+03</pdfrwt>
<totfact> 0.48796037E+03</totfact>
</mgrwt>
</event>
<event>
 6    1  0.5258538E-006  0.1873122E+03  0.7546771E-02  0.1166357E+00
         -1   -1    0    0    0  501 -0.00000000000E+00  0.00000000000E+00  0.23174100768E+03  0.23174100768E+03  0.00000000000E+00 0.  1.
          1   -1    0    0  501    0  0.00000000000E+00 -0.00000000000E+00 -0.13535726770E+03  0.13535726770E+03  0.00000000000E+00 0. -1.
          5    1    1    2  502    0 -0.56419685280E+02 -0.37384658138E+00 -0.40473296160E+02  0.69595246608E+02  0.47000000000E+01 0. -1.
         -5    1    1    2    0  502 -0.63758153400E+02  0.71221205727E+02  0.73347462160E+02  0.12057985933E+03  0.47000000000E+01 0. -1.
        -11    1    1    2    0    0  0.94483862407E+02 -0.21666317640E+02  0.72051788279E+02  0.12078116480E+03  0.00000000000E+00 0.  1.
         11    1    1    2    0    0  0.25693976273E+02 -0.49181041505E+02 -0.85422143016E+01  0.56142004644E+02  0.00000000000E+00 0. -1.
<mgrwt>
<rscale>  0 0.18150220E+03</rscale>
<asrwt>0</asrwt>
<pdfrwt beam="2">  1        1 0.20824195E-01 0.18731220E+03</pdfrwt>
<pdfrwt beam="1">  1       -1 0.35652463E-01 0.18731220E+03</pdfrwt>
<totfact> 0.18114042E+03</totfact>
</mgrwt>
</event>
<event>
 6    1  0.5258538E-006  0.2730319E+03  0.7546771E-02  0.1101574E+00
          2   -1    0    0  501    0  0.00000000000E+00  0.00000000000E+00  0.12479127838E+04  0.12479127838E+04  0.00000000000E+00 0.  1.
         -2   -1    0    0    0  501 -0.00000000000E+00 -0.00000000000E+00 -0.62231536341E+02  0.62231536341E+02  0.00000000000E+00 0. -1.
          5    1    1    2  502    0 -0.21004906345E+03 -0.14262672287E+03  0.40861536021E+03  0.48109416306E+03  0.47000000000E+01 0.  1.
         -5    1    1    2    0  502  0.11687027838E+02  0.27610249952E+01  0.36818061635E+01  0.13411024396E+02  0.47000000000E+01 0.  1.
        -11    1    1    2    0    0  0.29747979261E+02  0.29035195646E+02  0.52033963918E+02  0.66599686615E+02  0.00000000000E+00 0. -1.
         11    1    1    2    0    0  0.16861405635E+03  0.11083050223E+03  0.72135011713E+03  0.74903944603E+03  0.00000000000E+00 0.  1.
<mgrwt>
<rscale>  0 0.26948598E+03</rscale>
<asrwt>0</asrwt>
<pdfrwt beam="1">  1        2 0.19198656E+00 0.27303192E+03</pdfrwt>
<pdfrwt beam="2">  1       -2 0.95740835E-02 0.27303192E+03</pdfrwt>
<totfact> 0.13362015E+03</totfact>
</mgrwt>
</event>
<event>
 6    1  0.5258538E-006  0.1274363E+03  0.7546771E-02  0.1246029E+00
         -2   -1    0    0    0  501 -0.00000000000E+00  0.00000000000E+00  0.41014702745E+02  0.41014702745E+02  0.00000000000E+00 0.  1.
          2   -1    0    0  501    0  0.00000000000E+00 -0.00000000000E+00 -0.42610800624E+03  0.42610800624E+03  0.00000000000E+00 0. -1.
          5    1    1    2  502    0 -0.64599256112E+02  0.11453512503E+02 -0.17771617948E+03  0.18949769732E+03  0.47000000000E+01 0. -1.
         -5    1    1    2    0  502  0.51979745934E+02 -0.32805111041E+02 -0.16101772455E+03  0.17241481061E+03  0.47000000000E+01 0. -1.
        -11    1    1    2    0    0  0.24676687456E+02  0.22156388326E+01  0.22044906158E+02  0.33163622340E+02  0.00000000000E+00 0.  1.
         11    1    1    2    0    0 -0.12057177278E+02  0.19135959705E+02 -0.68404305622E+02  0.72046578721E+02  0.00000000000E+00 0. -1.
<mgrwt>
<rscale>  0 0.11824026E+03</rscale>
<asrwt>0</asrwt>
<pdfrwt beam="2">  1        2 0.65555078E-01 0.12743628E+03</pdfrwt>
<pdfrwt beam="1">  1       -2 0.63099543E-02 0.12743628E+03</pdfrwt>
<totfact> 0.96468356E+03</totfact>
</mgrwt>
</event>
<event>
 6    1  0.5258538E-006  0.2968860E+03  0.7546771E-02  0.1086808E+00
         -2   -1    0    0    0  501 -0.00000000000E+00  0.00000000000E+00  0.25448165576E+03  0.25448165576E+03  0.00000000000E+00 0.  1.
          2   -1    0    0  501    0  0.00000000000E+00 -0.00000000000E+00 -0.86589049505E+02  0.86589049505E+02  0.00000000000E+00 0. -1.
          5    1    1    2  502    0  0.41493101822E+02 -0.10925316963E+03  0.15130965220E+02  0.11793629078E+03  0.47000000000E+01 0. -1.
         -5    1    1    2    0  502  0.89974003621E+01  0.29829652364E+02  0.33321852899E+02  0.45860628583E+02  0.47000000000E+01 0. -1.
        -11    1    1    2    0    0 -0.32974606807E+02  0.20756503637E+02 -0.43150625875E+01  0.39201746165E+02  0.00000000000E+00 0. -1.
         11    1    1    2    0    0 -0.17515895378E+02  0.58667013634E+02  0.12375485072E+03  0.13807203974E+03  0.00000000000E+00 0.  1.
<mgrwt>
<rscale>  0 0.29688600E+03</rscale>
<asrwt>0</asrwt>
<pdfrwt beam="2">  1        2 0.13321392E-01 0.29688600E+03</pdfrwt>
<pdfrwt beam="1">  1       -2 0.39151024E-01 0.29688600E+03</pdfrwt>
<totfact> 0.27898783E+03</totfact>
</mgrwt>
</event>
<event>
 6    1  0.5258538E-006  0.1560093E+03  0.7546771E-02  0.1200816E+00
          3   -1    0    0  501    0  0.00000000000E+00  0.00000000000E+00  0.42327462294E+02  0.42327462294E+02  0.00000000000E+00 0. -1.
         -3   -1    0    0    0  501 -0.00000000000E+00 -0.00000000000E+00 -0.49259639774E+03  0.49259639774E+03  0.00000000000E+00 0.  1.
          5    1    1    2  502    0  0.49007683582E+02 -0.62905398284E+02 -0.62682754797E+02  0.10153846528E+03  0.47000000000E+01 0.  1.
         -5    1    1    2    0  502 -0.47130219138E+02 -0.30420572792E+02 -0.16605369800E+03  0.17533564790E+03  0.47000000000E+01 0.  1.
        -11    1    1    2    0    0 -0.42759122860E+02  0.18959842832E+02 -0.91749778970E+02  0.10298465987E+03  0.00000000000E+00 0.  1.
         11    1    1    2    0    0  0.40881658417E+02  0.74366128245E+02 -0.12978270368E+03  0.15506508698E+03  0.00000000000E+00 0. -1.
<mgrwt>
<rscale>  0 0.14972113E+03</rscale>
<asrwt>0</asrwt>
<pdfrwt beam="1">  1        3 0.65119175E-02 0.15600933E+03</pdfrwt>
<pdfrwt beam="2">  1       -3 0.75784058E-01 0.15600933E+03</pdfrwt>
<totfact> 0.59135349E+02</totfact>
</mgrwt>
</event>
<event>
 6    1  0.5258538E-006  0.1342780E+03  0.7546771E-02  0.1234029E+00
          1   -1    0    0  501    0  0.00000000000E+00  0.00000000000E+00  0.19106573937E+03  0.19106573937E+03  0.00000000000E+00 0. -1.
         -1   -1    0    0    0  501 -0.00000000000E+00 -0.00000000000E+00 -0.11059389606E+03  0.11059389606E+03  0.00000000000E+00 0.  1.
          5    1    1    2  502    0 -0.80052740761E+01  0.48047498080E+01  0.14251898158E+03  0.14290178496E+03  0.47000000000E+01 0.  1.
         -5    1    1    2    0  502 -0.80354302475E+01  0.41562073836E+02 -0.12110167271E+02  0.44280021140E+02  0.47000000000E+01 0.  1.
        -11    1    1    2    0    0  0.21543496509E+02 -0.63713282018E+02 -0.67277196051E+01  0.67592653140E+02  0.00000000000E+00 0. -1.
         11    1    1    2    0    0 -0.55027921854E+01  0.17346458374E+02 -0.43209251392E+02  0.46885176184E+02  0.00000000000E+00 0.  1.
<mgrwt>
<rscale>  0 0.12566823E+03</rscale>
<asrwt>0</asrwt>
<pdfrwt beam="1">  1        1 0.29394729E-01 0.13427796E+03</pdfrwt>
<pdfrwt beam="2">  1       -1 0.17014446E-01 0.13427796E+03</pdfrwt>
<totfact> 0.39196709E+03</totfact>
</mgrwt>
</event>
<event>
 6    1  0.5258538E-006  0.1521729E+03  0.7546771E-02  0.1204240E+00
          1   -1    0    0  501    0  0.00000000000E+00  0.00000000000E+00  0.44247221984E+02  0.44247221984E+02  0.00000000000E+00 0. -1.
         -1   -1    0    0    0  501 -0.00000000000E+00 -0.00000000000E+00 -0.71237164190E+03  0.71237164190E+03  0.00000000000E+00 0.  1.
          5    1    1    2  502    0  0.25533985074E+02  0.32585600633E+02  0.14459888589E+02  0.44101974336E+02  0.47000000000E+01 0. -1.
         -5    1    1    2    0  502  0.63248892623E+02  0.69153332029E+01 -0.13753601453E+03  0.15161295969E+03  0.47000000000E+01 0.  1.
        -11    1    1    2    0    0 -0.58569222515E+02  0.21761825332E+02 -0.21682255784E+03  0.22564563470E+03  0.00000000000E+00 0. -1.
         11    1    1    2    0    0 -0.30213655181E+02 -0.61262759167E+02 -0.32822573613E+03  0.33525829516E+03  0.00000000000E+00 0.  1.
<mgrwt>
<rscale>  0 0.14697486E+03</rscale>
<asrwt>0</asrwt>
<pdfrwt beam="1">  1        1 0.68072649E-02 0.15217294E+03</pdfrwt>
<pdfrwt beam="2">  1       -1 0.10959564E+00 0.15217294E+03</pdfrwt>
<totfact> 0.87829012E+02</totfact>
</mgrwt>
</event>
<event>
 6    1  0.5258538E-006  0.1441671E+03  0.7546771E-02  0.1217769E+00
         -2   -1    0    0    0  501 -0.00000000000E+00  0.00000000000E+00  0.51102032797E+03  0.51102032797E+03  0.00000000000E+00 0.  1.
          2   -1    0    0  501    0  0.00000000000E+00 -0.00000000000E+00 -0.37285439974E+02  0.37285439974E+02  0.00000000000E+00 0. -1.
          5    1    1    2  502    0 -0.35418147212E+02  0.12686221301E+02  0.30662194067E+02  0.48761106507E+02  0.47000000000E+01 0. -1.
         -5    1    1    2    0  502  0.10398189130E+03  0.87341451402E+01  0.13922518846E+03  0.17405246942E+03  0.47000000000E+01 0. -1.
        -11    1    1    2    0    0 -0.88782868825E+02 -0.14342045447E+02  0.27646894978E+03  0.29072869184E+03  0.00000000000E+00 0.  1.
         11    1    1    2    0    0  0.20219124740E+02 -0.70783209933E+01  0.27378555688E+02  0.34763500182E+02  0.00000000000E+00 0. -1.
<mgrwt>
<rscale>  0 0.13675061E+03</rscale>
<asrwt>0</asrwt>
<pdfrwt beam="2">  1        2 0.57362219E-02 0.14416715E+03</pdfrwt>
<pdfrwt beam="1">  1       -2 0.78618507E-01 0.14416715E+03</pdfrwt>
<totfact> 0.18750783E+03</totfact>
</mgrwt>
</event>
<event>
 6    1  0.5258538E-006  0.2541823E+03  0.7546771E-02  0.1113131E+00
         -1   -1    0    0    0  501 -0.00000000000E+00  0.00000000000E+00  0.37714997019E+02  0.37714997019E+02  0.00000000000E+00 0.  1.
          1   -1    0    0  501    0  0.00000000000E+00 -0.00000000000E+00 -0.20900306928E+04  0.20900306928E+04  0.00000000000E+00 0. -1.
          5    1    1    2  502    0  0.35262025167E+02 -0.14976205351E+02 -0.71128006361E+03  0.71232655155E+03  0.47000000000E+01 0.  1.
         -5    1    1    2    0  502  0.16776555353E+03 -0.73131935482E+02 -0.84814732912E+03  0.86768055345E+03  0.47000000000E+01 0.  1.
        -11    1    1    2    0    0 -0.77368370188E+02  0.82365492798E+02 -0.24181634255E+03  0.26691774507E+03  0.00000000000E+00 0. -1.
         11    1    1    2    0    0 -0.12565920851E+03  0.57426480348E+01 -0.25107196045E+03  0.28082083970E+03  0.00000000000E+00 0.  1.
<mgrwt>
<rscale>  0 0.25027546E+03</rscale>
<asrwt>0</asrwt>
<pdfrwt beam="2">  1        1 0.32154319E+00 0.25418233E+03</pdfrwt>
<pdfrwt beam="1">  1       -1 0.58023072E-02 0.25418233E+03</pdfrwt>
<totfact> 0.41565868E+02</totfact>
</mgrwt>
</event>
<event>
 6    1  0.5258538E-006  0.4253780E+03  0.7546771E-02  0.1035330E+00
          2   -1    0    0  501    0  0.00000000000E+00  0.00000000000E+00  0.37176944421E+03  0.37176944421E+03  0.00000000000E+00 0. -1.
         -2   -1    0    0    0  501 -0.00000000000E+00 -0.00000000000E+00 -0.12167920497E+03  0.12167920497E+03  0.00000000000E+00 0.  1.
          5    1    1    2  502    0 -0.31659458706E+02 -0.11574438027E+03  0.15599667085E+03  0.19686577713E+03  0.47000000000E+01 0. -1.
         -5    1    1    2    0  502 -0.18322257855E+02  0.18026987005E+02  0.14228976818E+03  0.14466908973E+03  0.47000000000E+01 0. -1.
        -11    1    1    2    0    0  0.16285072472E+01  0.85117736556E+02 -0.55192068887E+02  0.10145859047E+03  0.00000000000E+00 0.  1.
         11    1    1    2    0    0  0.48353209314E+02  0.12599656704E+02  0.69958690864E+01  0.50455191847E+02  0.00000000000E+00 0. -1.
<mgrwt>
<rscale>  0 0.42537800E+03</rscale>
<asrwt>0</asrwt>
<pdfrwt beam="1">  1        2 0.57195298E-01 0.42537800E+03</pdfrwt>
<pdfrwt beam="2">  1       -2 0.18719878E-01 0.42537800E+03</pdfrwt>
<totfact> 0.20510439E+03</totfact>
</mgrwt>
</event>
<event>
 6    1  0.5258538E-006  0.1270462E+03  0.7546771E-02  0.1255914E+00
          2   -1    0    0  501    0  0.00000000000E+00  0.00000000000E+00  0.59822269405E+03  0.59822269405E+03  0.00000000000E+00 0. -1.
         -2   -1    0    0    0  501 -0.00000000000E+00 -0.00000000000E+00 -0.19994770029E+02  0.19994770029E+02  0.00000000000E+00 0.  1.
          5    1    1    2  502    0  0.38398384834E+02  0.32488593933E+02  0.30945393872E+03  0.31355027489E+03  0.47000000000E+01 0. -1.
         -5    1    1    2    0  502 -0.32404573297E+02 -0.54383926679E+02  0.14413376472E+03  0.15749380935E+03  0.47000000000E+01 0. -1.
        -11    1    1    2    0    0 -0.27168260015E+02 -0.37892568134E+01  0.12404787212E+02  0.30105673306E+02  0.00000000000E+00 0.  1.
         11    1    1    2    0    0  0.21174448477E+02  0.25684589560E+02  0.11223543337E+03  0.11706770654E+03  0.00000000000E+00 0. -1.
<mgrwt>
<rscale>  0 0.11255319E+03</rscale>
<asrwt>0</asrwt>
<pdfrwt beam="1">  1        2 0.92034247E-01 0.12704615E+03</pdfrwt>
<pdfrwt beam="2">  1       -2 0.30761189E-02 0.12704615E+03</pdfrwt>
<totfact> 0.19390771E+04</totfact>
</mgrwt>
</event>
<event>
 6    1  0.5258538E-006  0.1295814E+03  0.7546771E-02  0.1241807E+00
          2   -1    0    0  501    0  0.00000000000E+00  0.00000000000E+00  0.35030405733E+03  0.35030405733E+03  0.00000000000E+00 0. -1.
         -2   -1    0    0    0  501 -0.00000000000E+00 -0.00000000000E+00 -0.46480589041E+02  0.46480589041E+02  0.00000000000E+00 0.  1.
          5    1    1    2  502    0  0.50836936682E+02  0.32478494445E+02  0.10424606502E+03  0.12053455440E+03  0.47000000000E+01 0. -1.
         -5    1    1    2    0  502 -0.67915553199E+02 -0.29076380678E+01  0.15386040326E+03  0.16827385541E+03  0.47000000000E+01 0. -1.
        -11    1    1    2    0    0 -0.65667824534E+00 -0.38785957386E+02 -0.16851067299E+02  0.42293500515E+02  0.00000000000E+00 0.  1.
         11    1    1    2    0    0  0.17735294762E+02  0.92151010084E+01  0.62568067308E+02  0.65682736039E+02  0.00000000000E+00 0. -1.
<mgrwt>
<rscale>  0 0.12078539E+03</rscale>
<asrwt>0</asrwt>
<pdfrwt beam="1">  1        2 0.53892930E-01 0.12958144E+03</pdfrwt>
<pdfrwt beam="2">  1       -2 0.71508601E-02 0.12958144E+03</pdfrwt>
<totfact> 0.98334131E+03</totfact>
</mgrwt>
</event>
<event>
 6    1  0.5258538E-006  0.1267140E+03  0.7546771E-02  0.1248779E+00
          3   -1    0    0  501    0  0.00000000000E+00  0.00000000000E+00  0.66602574296E+02  0.66602574296E+02  0.00000000000E+00 0. -1.
         -3   -1    0    0    0  501 -0.00000000000E+00 -0.00000000000E+00 -0.18136236443E+03  0.18136236443E+03  0.00000000000E+00 0.  1.
          5    1    1    2  502    0 -0.21961067321E+01  0.37320475311E+02  0.24672244022E+02  0.45038321320E+02  0.47000000000E+01 0.  1.
         -5    1    1    2    0  502  0.19502790527E+02 -0.48816376090E+02 -0.74101218759E+02  0.90975150643E+02  0.47000000000E+01 0.  1.
        -11    1    1    2    0    0  0.14804097659E+02  0.13679289442E+02 -0.75542507851E+02  0.78185387123E+02  0.00000000000E+00 0.  1.
         11    1    1    2    0    0 -0.32110781454E+02 -0.21833886630E+01  0.10211692453E+02  0.33766079642E+02  0.00000000000E+00 0. -1.
<mgrwt>
<rscale>  0 0.11662024E+03</rscale>
<asrwt>0</asrwt>
<pdfrwt beam="1">  1        3 0.10246550E-01 0.12671401E+03</pdfrwt>
<pdfrwt beam="2">  1       -3 0.27901903E-01 0.12671401E+03</pdfrwt>
<totfact> 0.19708164E+03</totfact>
</mgrwt>
</event>
<event>
 6    1  0.5258538E-006  0.2799433E+03  0.7546771E-02  0.1095720E+00
          1   -1    0    0  501    0  0.00000000000E+00  0.00000000000E+00  0.18163043278E+03  0.18163043278E+03  0.00000000000E+00 0. -1.
         -1   -1    0    0    0  501 -0.00000000000E+00 -0.00000000000E+00 -0.10786776392E+03  0.10786776392E+03  0.00000000000E+00 0.  1.
          5    1    1    2  502    0 -0.21635521740E+02  0.53434438188E+02 -0.57181933621E+01  0.58121620081E+02  0.47000000000E+01 0. -1.
         -5    1    1    2    0  502  0.98615373751E+01  0.33348316291E+01  0.12099006696E+03  0.12152801045E+03  0.47000000000E+01 0. -1.
        -11    1    1    2    0    0 -0.19384865407E+02 -0.47291971798E+02 -0.54562231493E+02  0.74761893428E+02  0.00000000000E+00 0.  1.
         11    1    1    2    0    0  0.31158849771E+02 -0.94772980192E+01  0.13053026751E+02  0.35086672743E+02  0.00000000000E+00 0. -1.
<mgrwt>
<rscale>  0 0.27994334E+03</rscale>
<asrwt>0</asrwt>
<pdfrwt beam="1">  1        1 0.27943144E-01 0.27994334E+03</pdfrwt>
<pdfrwt beam="2">  1       -1 0.16595041E-01 0.27994334E+03</pdfrwt>
<totfact> 0.45056594E+03</totfact>
</mgrwt>
</event>
<event>
 6    1  0.5258538E-006  0.3975955E+03  0.7546771E-02  0.1044615E+00
         -1   -1    0    0    0  501 -0.00000000000E+00  0.00000000000E+00  0.16848049161E+02  0.16848049161E+02  0.00000000000E+00 0.  1.
          1   -1    0    0  501    0  0.00000000000E+00 -0.00000000000E+00 -0.23457048343E+04  0.23457048343E+04  0.00000000000E+00 0. -1.
          5    1    1    2  502    0 -0.12551852740E+02  0.10687226770E+01 -0.25846285148E+02  0.29134371991E+02  0.47000000000E+01 0. -1.
         -5    1    1    2    0  502  0.14017200651E+03  0.36393070038E+01 -0.17864783485E+04  0.17919789105E+04  0.47000000000E+01 0. -1.
        -11    1    1    2    0    0 -0.11206674920E+03  0.11699252826E+02 -0.50216983597E+03  0.51465558673E+03  0.00000000000E+00 0. -1.
         11    1    1    2    0    0 -0.15553404571E+02 -0.16407282506E+02 -0.14362315538E+02  0.26784014273E+02  0.00000000000E+00 0.  1.
<mgrwt>
<rscale>  0 0.39759552E+03</rscale>
<asrwt>0</asrwt>
<pdfrwt beam="2">  1        1 0.36087754E+00 0.39759552E+03</pdfrwt>
<pdfrwt beam="1">  1       -1 0.25920085E-02 0.39759552E+03</pdfrwt>
<totfact> 0.92734474E+02</totfact>
</mgrwt>
</event>
<event>
 6    1  0.5258538E-006  0.1378046E+03  0.7546771E-02  0.1226733E+00
         -1   -1    0    0    0  501 -0.00000000000E+00  0.00000000000E+00  0.42283415412E+02  0.42283415412E+02  0.00000000000E+00 0.  1.
          1   -1    0    0  501    0  0.00000000000E+00 -0.00000000000E+00 -0.54794261269E+03  0.54794261269E+03  0.00000000000E+00 0. -1.
          5    1    1    2  502    0 -0.37408713569E+02 -0.28087675730E+02 -0.65491019796E+02  0.80619433468E+02  0.47000000000E+01 0.  1.
         -5    1    1    2    0  502  0.62064035033E+02 -0.24424940992E+02 -0.37533015038E+03  0.38123920833E+03  0.47000000000E+01 0.  1.
        -11    1    1    2    0    0 -0.53272882519E+02  0.45063229945E+02 -0.69439203090E+02  0.98440325227E+02  0.00000000000E+00 0. -1.
         11    1    1    2    0    0  0.28617561055E+02  0.74493867768E+01  0.46011759873E+01  0.29927061075E+02  0.00000000000E+00 0.  1.
<mgrwt>
<rscale>  0 0.13048841E+03</rscale>
<asrwt>0</asrwt>
<pdfrwt beam="2">  1        1 0.84298862E-01 0.13780458E+03</pdfrwt>
<pdfrwt beam="1">  1       -1 0.65051410E-02 0.13780458E+03</pdfrwt>
<totfact> 0.45618002E+03</totfact>
</mgrwt>
</event>
<event>
 6    1  0.5258538E-006  0.1582373E+03  0.7546771E-02  0.1200740E+00
         -1   -1    0    0    0  501 -0.00000000000E+00  0.00000000000E+00  0.33242050300E+02  0.33242050300E+02  0.00000000000E+00 0.  1.
          1   -1    0    0  501    0  0.00000000000E+00 -0.00000000000E+00 -0.78396335075E+03  0.78396335075E+03  0.00000000000E+00 0. -1.
          5    1    1    2  502    0 -0.97836793836E+02  0.47386301738E+02 -0.53654238872E+03  0.54746445064E+03  0.47000000000E+01 0. -1.
         -5    1    1    2    0  502  0.28748425969E+02  0.20739223545E+02 -0.61326443944E+02  0.70990211408E+02  0.47000000000E+01 0. -1.
        -11    1    1    2    0    0  0.36041816171E+01 -0.44128950649E+02 -0.10560492124E+03  0.11451093310E+03  0.00000000000E+00 0. -1.
         11    1    1    2    0    0  0.65484186250E+02 -0.23996574634E+02 -0.47247546545E+02  0.84239805896E+02  0.00000000000E+00 0.  1.
<mgrwt>
<rscale>  0 0.14978306E+03</rscale>
<asrwt>0</asrwt>
<pdfrwt beam="2">  1        1 0.12060974E+00 0.15823725E+03</pdfrwt>
<pdfrwt beam="1">  1       -1 0.51141618E-02 0.15823725E+03</pdfrwt>
<totfact> 0.39678031E+03</totfact>
</mgrwt>
</event>
<event>
 6    1  0.5662115E-006  0.2807915E+03  0.7546771E-02  0.1097087E+00
          2   -1    0    0  501    0  0.00000000000E+00  0.00000000000E+00  0.32055030266E+04  0.32055030266E+04  0.00000000000E+00 0. -1.
         -2   -1    0    0    0  501 -0.00000000000E+00 -0.00000000000E+00 -0.27689427164E+02  0.27689427164E+02  0.00000000000E+00 0.  1.
          5    1    1    2  502    0  0.12098090386E+03 -0.20441582145E+03  0.16728221876E+04  0.16896089395E+04  0.47000000000E+01 0. -1.
         -5    1    1    2    0  502  0.26955109116E+02  0.11090006765E+01  0.57978827850E+03  0.58043461792E+03  0.47000000000E+01 0. -1.
        -11    1    1    2    0    0 -0.44254131473E+02  0.54569223711E+02  0.13249432148E+03  0.14996990882E+03  0.00000000000E+00 0. -1.
         11    1    1    2    0    0 -0.10368188150E+03  0.14873759706E+03  0.79270881190E+03  0.81317898755E+03  0.00000000000E+00 0.  1.
<mgrwt>
<rscale>  0 0.27745573E+03</rscale>
<asrwt>0</asrwt>
<pdfrwt beam="1">  1        2 0.49315402E+00 0.28079145E+03</pdfrwt>
<pdfrwt beam="2">  1       -2 0.42599144E-02 0.28079145E+03</pdfrwt>
<totfact> 0.38996772E+02</totfact>
</mgrwt>
</event>
<event>
 6    1  0.5258538E-006  0.1389622E+03  0.7546771E-02  0.1220476E+00
          2   -1    0    0  501    0  0.00000000000E+00  0.00000000000E+00  0.49097392609E+03  0.49097392609E+03  0.00000000000E+00 0.  1.
         -2   -1    0    0    0  501 -0.00000000000E+00 -0.00000000000E+00 -0.35244683164E+02  0.35244683164E+02  0.00000000000E+00 0. -1.
          5    1    1    2  502    0  0.84719193019E+02  0.18441859637E+02  0.13833979230E+03  0.16333227478E+03  0.47000000000E+01 0. -1.
         -5    1    1    2    0  502 -0.28034968650E+02 -0.40266608733E+02  0.12622428856E+03  0.13550653219E+03  0.47000000000E+01 0. -1.
        -11    1    1    2    0    0 -0.84643037355E+02  0.27238455016E+02  0.11048690917E+03  0.14182289766E+03  0.00000000000E+00 0.  1.
         11    1    1    2    0    0  0.27958812986E+02 -0.54137059207E+01  0.80678252903E+02  0.85556904612E+02  0.00000000000E+00 0. -1.
<mgrwt>
<rscale>  0 0.13481887E+03</rscale>
<asrwt>0</asrwt>
<pdfrwt beam="1">  1        2 0.75534445E-01 0.13896215E+03</pdfrwt>
<pdfrwt beam="2">  1       -2 0.54222593E-02 0.13896215E+03</pdfrwt>
<totfact> 0.10471386E+04</totfact>
</mgrwt>
</event>
<event>
 6    1  0.5258538E-006  0.1464098E+03  0.7546771E-02  0.1214594E+00
         -2   -1    0    0    0  501 -0.00000000000E+00  0.00000000000E+00  0.32580125809E+02  0.32580125809E+02  0.00000000000E+00 0.  1.
          2   -1    0    0  501    0  0.00000000000E+00 -0.00000000000E+00 -0.55377214494E+03  0.55377214494E+03  0.00000000000E+00 0. -1.
          5    1    1    2  502    0 -0.45567694954E+02 -0.15521780273E+02 -0.63610007954E+02  0.79910347253E+02  0.47000000000E+01 0.  1.
         -5    1    1    2    0  502  0.19977835383E+02  0.87323774406E+02 -0.26706040581E+03  0.28172310135E+03  0.47000000000E+01 0.  1.
        -11    1    1    2    0    0 -0.19408333389E+02  0.87768183023E+01 -0.13891349634E+02  0.25430012566E+02  0.00000000000E+00 0.  1.
         11    1    1    2    0    0  0.44998192960E+02 -0.80578812435E+02 -0.17663025573E+03  0.19928880958E+03  0.00000000000E+00 0. -1.
<mgrwt>
<rscale>  0 0.13906374E+03</rscale>
<asrwt>0</asrwt>
<pdfrwt beam="2">  1        2 0.85195714E-01 0.14640980E+03</pdfrwt>
<pdfrwt beam="1">  1       -2 0.50123271E-02 0.14640980E+03</pdfrwt>
<totfact> 0.10352575E+04</totfact>
</mgrwt>
</event>
<event>
 6    1  0.5258538E-006  0.1283168E+03  0.7546771E-02  0.1245584E+00
         -1   -1    0    0    0  501 -0.00000000000E+00  0.00000000000E+00  0.85578156358E+02  0.85578156358E+02  0.00000000000E+00 0.  1.
          1   -1    0    0  501    0  0.00000000000E+00 -0.00000000000E+00 -0.14542624787E+03  0.14542624787E+03  0.00000000000E+00 0. -1.
          5    1    1    2  502    0 -0.41444902417E+02 -0.21708106408E+02  0.67209590903E+01  0.47499295903E+02  0.47000000000E+01 0. -1.
         -5    1    1    2    0  502  0.69396012114E+02  0.14055073785E+02 -0.54306553962E+02  0.89356831858E+02  0.47000000000E+01 0. -1.
        -11    1    1    2    0    0 -0.47856149658E+02 -0.23710703023E+02  0.40837950871E+01  0.53563848632E+02  0.00000000000E+00 0.  1.
         11    1    1    2    0    0  0.19905039960E+02  0.31363735646E+02 -0.16346291729E+02  0.40584427836E+02  0.00000000000E+00 0. -1.
<mgrwt>
<rscale>  0 0.11850509E+03</rscale>
<asrwt>0</asrwt>
<pdfrwt beam="2">  1        1 0.22373269E-01 0.12831684E+03</pdfrwt>
<pdfrwt beam="1">  1       -1 0.13165870E-01 0.12831684E+03</pdfrwt>
<totfact> 0.82177432E+03</totfact>
</mgrwt>
</event>
<event>
 6    1  0.6460528E-006  0.3418396E+03  0.7546771E-02  0.1066015E+00
         -1   -1    0    0    0  501 -0.00000000000E+00  0.00000000000E+00  0.33906575046E+02  0.33906575046E+02  0.00000000000E+00 0.  1.
          1   -1    0    0  501    0  0.00000000000E+00 -0.00000000000E+00 -0.86159052537E+03  0.86159052537E+03  0.00000000000E+00 0. -1.
          5    1    1    2  502    0 -0.13595643178E+02  0.11560755837E+02 -0.15235766622E+03  0.15347130365E+03  0.47000000000E+01 0. -1.
         -5    1    1    2    0  502  0.80972205753E+02 -0.12386783256E+03 -0.32789493666E+03  0.35977342527E+03  0.47000000000E+01 0. -1.
        -11    1    1    2    0    0 -0.21221214725E+02  0.39188767940E+02 -0.31171827434E+02  0.54385497264E+02  0.00000000000E+00 0.  1.
         11    1    1    2    0    0 -0.46155347851E+02  0.73118308784E+02 -0.31625952001E+03  0.32786687422E+03  0.00000000000E+00 0. -1.
<mgrwt>
<rscale>  0 0.34183963E+03</rscale>
<asrwt>0</asrwt>
<pdfrwt beam="2">  1        1 0.13255238E+00 0.34183963E+03</pdfrwt>
<pdfrwt beam="1">  1       -1 0.52163965E-02 0.34183963E+03</pdfrwt>
<totfact> 0.33937747E+03</totfact>
</mgrwt>
</event>
<event>
 6    1  0.5258538E-006  0.3539100E+03  0.7546771E-02  0.1061022E+00
         -1   -1    0    0    0  501 -0.00000000000E+00  0.00000000000E+00  0.36657041370E+02  0.36657041370E+02  0.00000000000E+00 0.  1.
          1   -1    0    0  501    0  0.00000000000E+00 -0.00000000000E+00 -0.85421698474E+03  0.85421698474E+03  0.00000000000E+00 0. -1.
          5    1    1    2  502    0 -0.26120482300E+02 -0.65858605678E+01 -0.19333639531E+03  0.19526060766E+03  0.47000000000E+01 0. -1.
         -5    1    1    2    0  502  0.16655098829E+02  0.13303941760E+03 -0.28065887527E+03  0.31107615341E+03  0.47000000000E+01 0. -1.
        -11    1    1    2    0    0  0.82230407097E+01 -0.90678524161E+02 -0.33577762873E+03  0.34790347670E+03  0.00000000000E+00 0. -1.
         11    1    1    2    0    0  0.12423427612E+01 -0.35775032873E+02 -0.77870440596E+01  0.36633788335E+02  0.00000000000E+00 0.  1.
<mgrwt>
<rscale>  0 0.35390997E+03</rscale>
<asrwt>0</asrwt>
<pdfrwt beam="2">  1        1 0.13141799E+00 0.35390997E+03</pdfrwt>
<pdfrwt beam="1">  1       -1 0.56395452E-02 0.35390997E+03</pdfrwt>
<totfact> 0.30587420E+03</totfact>
</mgrwt>
</event>
<event>
 6    1  0.5258538E-006  0.3890854E+03  0.7546771E-02  0.1047626E+00
          4   -1    0    0  501    0  0.00000000000E+00  0.00000000000E+00  0.14907037510E+03  0.14907037510E+03  0.00000000000E+00 0. -1.
         -4   -1    0    0    0  501 -0.00000000000E+00 -0.00000000000E+00 -0.25388582960E+03  0.25388582960E+03  0.00000000000E+00 0.  1.
          5    1    1    2  502    0 -0.38401763396E+02  0.15249195924E+03 -0.31863343491E+02  0.16051746236E+03  0.47000000000E+01 0. -1.
         -5    1    1    2    0  502  0.45068987432E+02  0.87524612551E+01 -0.18574377926E+02  0.49748534868E+02  0.47000000000E+01 0. -1.
        -11    1    1    2    0    0 -0.41565283209E+02 -0.58256007226E+02 -0.42674063287E+02  0.83321730800E+02  0.00000000000E+00 0.  1.
         11    1    1    2    0    0  0.34898059173E+02 -0.10298841327E+03 -0.11703669797E+02  0.10936847667E+03  0.00000000000E+00 0. -1.
<mgrwt>
<rscale>  0 0.38908537E+03</rscale>
<asrwt>0</asrwt>
<pdfrwt beam="1">  1        4 0.22933904E-01 0.38908537E+03</pdfrwt>
<pdfrwt beam="2">  1       -4 0.39059358E-01 0.38908537E+03</pdfrwt>
<totfact> 0.21726581E+02</totfact>
</mgrwt>
</event>
<event>
 6    1  0.5258538E-006  0.1606029E+03  0.7546771E-02  0.1195618E+00
         -1   -1    0    0    0  501 -0.00000000000E+00  0.00000000000E+00  0.14484018518E+03  0.14484018518E+03  0.00000000000E+00 0.  1.
          1   -1    0    0  501    0  0.00000000000E+00 -0.00000000000E+00 -0.26366454009E+03  0.26366454009E+03  0.00000000000E+00 0. -1.
          5    1    1    2  502    0 -0.99902841237E+02 -0.67595646695E+02 -0.10496514230E+03  0.15996724739E+03  0.47000000000E+01 0.  1.
         -5    1    1    2    0  502  0.20611087726E+02  0.52868600081E+01 -0.90140649347E+02  0.92737233572E+02  0.47000000000E+01 0.  1.
        -11    1    1    2    0    0  0.15782378133E+02  0.62286910365E+01  0.68668222200E+02  0.70733335788E+02  0.00000000000E+00 0.  1.
         11    1    1    2    0    0  0.63509375378E+02  0.56080095650E+02  0.76132145372E+01  0.85066908517E+02  0.00000000000E+00 0. -1.
<mgrwt>
<rscale>  0 0.15402061E+03</rscale>
<asrwt>0</asrwt>
<pdfrwt beam="2">  1        1 0.40563775E-01 0.16060288E+03</pdfrwt>
<pdfrwt beam="1">  1       -1 0.22283106E-01 0.16060288E+03</pdfrwt>
<totfact> 0.17165560E+03</totfact>
</mgrwt>
</event>
<event>
 6    1  0.5258538E-006  0.1988593E+03  0.7546771E-02  0.1153975E+00
          1   -1    0    0  501    0  0.00000000000E+00  0.00000000000E+00  0.43098565532E+03  0.43098565532E+03  0.00000000000E+00 0. -1.
         -1   -1    0    0    0  501 -0.00000000000E+00 -0.00000000000E+00 -0.17396821319E+03  0.17396821319E+03  0.00000000000E+00 0.  1.
          5    1    1    2  502    0 -0.41398988943E+02  0.33281231686E+02  0.19436122603E+02  0.56757109950E+02  0.47000000000E+01 0. -1.
         -5    1    1    2    0  502 -0.90759056088E+02  0.47054194475E+02  0.32764312799E+03  0.34325415190E+03  0.47000000000E+01 0. -1.
        -11    1    1    2    0    0  0.11385137834E+03 -0.43344410018E+02 -0.10522155474E+03  0.16097344443E+03  0.00000000000E+00 0.  1.
         11    1    1    2    0    0  0.18306666692E+02 -0.36991016144E+02  0.15159746274E+02  0.43969162237E+02  0.00000000000E+00 0. -1.
<mgrwt>
<rscale>  0 0.19506028E+03</rscale>
<asrwt>0</asrwt>
<pdfrwt beam="1">  1        1 0.66305485E-01 0.19885926E+03</pdfrwt>
<pdfrwt beam="2">  1       -1 0.26764341E-01 0.19885926E+03</pdfrwt>
<totfact> 0.68552947E+02</totfact>
</mgrwt>
</event>
<event>
 6    1  0.5258538E-006  0.2484629E+03  0.7546771E-02  0.1114280E+00
         -1   -1    0    0    0  501 -0.00000000000E+00  0.00000000000E+00  0.13826364065E+03  0.13826364065E+03  0.00000000000E+00 0.  1.
          1   -1    0    0  501    0  0.00000000000E+00 -0.00000000000E+00 -0.11162338513E+03  0.11162338513E+03  0.00000000000E+00 0. -1.
          5    1    1    2  502    0 -0.21132172875E+02 -0.81973499299E+01 -0.43087137558E+02  0.48911723536E+02  0.47000000000E+01 0.  1.
         -5    1    1    2    0  502  0.10915358562E+02  0.67143923898E+02  0.59790882853E+02  0.90688980815E+02  0.47000000000E+01 0.  1.
        -11    1    1    2    0    0 -0.16941798387E+02 -0.28612796049E+02  0.45411604351E+02  0.56284371188E+02  0.00000000000E+00 0.  1.
         11    1    1    2    0    0  0.27158612699E+02 -0.30333777919E+02 -0.35475094129E+02  0.54001950243E+02  0.00000000000E+00 0. -1.
<mgrwt>
<rscale>  0 0.24846292E+03</rscale>
<asrwt>0</asrwt>
<pdfrwt beam="2">  1        1 0.17172828E-01 0.24846292E+03</pdfrwt>
<pdfrwt beam="1">  1       -1 0.21271329E-01 0.24846292E+03</pdfrwt>
<totfact> 0.56067188E+03</totfact>
</mgrwt>
</event>
<event>
 6    1  0.5258538E-006  0.2413285E+03  0.7546771E-02  0.1121574E+00
         -1   -1    0    0    0  501 -0.00000000000E+00  0.00000000000E+00  0.63592683169E+02  0.63592683169E+02  0.00000000000E+00 0.  1.
          1   -1    0    0  501    0  0.00000000000E+00 -0.00000000000E+00 -0.86589359850E+03  0.86589359850E+03  0.00000000000E+00 0. -1.
          5    1    1    2  502    0 -0.25226816196E+02  0.18996707329E+02 -0.18826694250E+03  0.19095496533E+03  0.47000000000E+01 0. -1.
         -5    1    1    2    0  502 -0.11485883428E+02  0.18411412668E+03 -0.27107763746E+03  0.32792546819E+03  0.47000000000E+01 0. -1.
        -11    1    1    2    0    0  0.56012227645E+02 -0.94430508372E+02 -0.21652288561E+03  0.24276871823E+03  0.00000000000E+00 0. -1.
         11    1    1    2    0    0 -0.19299528021E+02 -0.10868032563E+03 -0.12643344977E+03  0.16783712992E+03  0.00000000000E+00 0.  1.
<mgrwt>
<rscale>  0 0.23734467E+03</rscale>
<asrwt>0</asrwt>
<pdfrwt beam="2">  1        1 0.13321439E+00 0.24132853E+03</pdfrwt>
<pdfrwt beam="1">  1       -1 0.97834906E-02 0.24132853E+03</pdfrwt>
<totfact> 0.12832784E+03</totfact>
</mgrwt>
</event>
<event>
 6    1  0.5258538E-006  0.3452695E+03  0.7546771E-02  0.1064574E+00
          4   -1    0    0  501    0  0.00000000000E+00  0.00000000000E+00  0.20671828657E+03  0.20671828657E+03  0.00000000000E+00 0. -1.
         -4   -1    0    0    0  501 -0.00000000000E+00 -0.00000000000E+00 -0.14417089336E+03  0.14417089336E+03  0.00000000000E+00 0.  1.
          5    1    1    2  502    0 -0.18244223925E+02 -0.36423985036E+02  0.35049135024E+02  0.53945252418E+02  0.47000000000E+01 0.  1.
         -5    1    1    2    0  502  0.11897096570E+03 -0.51360839548E+02 -0.13131706322E+02  0.13033249107E+03  0.47000000000E+01 0.  1.
        -11    1    1    2    0    0 -0.39839966683E+02  0.33992050354E+02 -0.28776430479E+02  0.59755881582E+02  0.00000000000E+00 0. -1.
         11    1    1    2    0    0 -0.60886775092E+02  0.53792774230E+02  0.69406394985E+02  0.10685555486E+03  0.00000000000E+00 0.  1.
<mgrwt>
<rscale>  0 0.34526952E+03</rscale>
<asrwt>0</asrwt>
<pdfrwt beam="1">  1        4 0.31802813E-01 0.34526952E+03</pdfrwt>
<pdfrwt beam="2">  1       -4 0.22180137E-01 0.34526952E+03</pdfrwt>
<totfact> 0.34158033E+02</totfact>
</mgrwt>
</event>
<event>
 6    1  0.5258538E-006  0.1359728E+03  0.7546771E-02  0.1225172E+00
         -1   -1    0    0    0  501 -0.00000000000E+00  0.00000000000E+00  0.37231071321E+02  0.37231071321E+02  0.00000000000E+00 0.  1.
          1   -1    0    0  501    0  0.00000000000E+00 -0.00000000000E+00 -0.57118195577E+03  0.57118195577E+03  0.00000000000E+00 0. -1.
          5    1    1    2  502    0  0.39812245978E+01 -0.33194468736E+02 -0.13252501027E+03  0.13675778315E+03  0.47000000000E+01 0. -1.
         -5    1    1    2    0  502 -0.70752495528E+02  0.72180748205E+02 -0.29514246786E+03  0.31200503580E+03  0.47000000000E+01 0.  1.
        -11    1    1    2    0    0  0.75292999418E+02 -0.21161594734E+02 -0.11415982405E+03  0.13838104741E+03  0.00000000000E+00 0.  1.
         11    1    1    2    0    0 -0.85217284876E+01 -0.17824684736E+02  0.78764177274E+01  0.21269160740E+02  0.00000000000E+00 0. -1.
<mgrwt>
<rscale>  0 0.13155111E+03</rscale>
<asrwt>0</asrwt>
<pdfrwt beam="2">  1        1 0.87874148E-01 0.13597278E+03</pdfrwt>
<pdfrwt beam="1">  1       -1 0.57278570E-02 0.13597278E+03</pdfrwt>
<totfact> 0.52134799E+03</totfact>
</mgrwt>
</event>
<event>
 6    1  0.5258538E-006  0.3043706E+03  0.7546771E-02  0.1083076E+00
          1   -1    0    0  501    0  0.00000000000E+00  0.00000000000E+00  0.83204147156E+03  0.83204147156E+03  0.00000000000E+00 0. -1.
         -1   -1    0    0    0  501 -0.00000000000E+00 -0.00000000000E+00 -0.27835583398E+02  0.27835583398E+02  0.00000000000E+00 0.  1.
          5    1    1    2  502    0  0.91418324676E+02 -0.33238981354E+02  0.60110944813E+03  0.60894728721E+03  0.47000000000E+01 0. -1.
         -5    1    1    2    0  502 -0.14176993267E+02 -0.87432279112E+01  0.80530484015E+01  0.19088550520E+02  0.47000000000E+01 0. -1.
        -11    1    1    2    0    0 -0.10997237812E+02  0.44189160124E+02  0.31481085047E+02  0.55359550465E+02  0.00000000000E+00 0.  1.
         11    1    1    2    0    0 -0.66244093597E+02 -0.22069508590E+01  0.16356230658E+03  0.17648166676E+03  0.00000000000E+00 0. -1.
<mgrwt>
<rscale>  0 0.30437056E+03</rscale>
<asrwt>0</asrwt>
<pdfrwt beam="1">  1        1 0.12800636E+00 0.30437056E+03</pdfrwt>
<pdfrwt beam="2">  1       -1 0.42823981E-02 0.30437056E+03</pdfrwt>
<totfact> 0.48176768E+03</totfact>
</mgrwt>
</event>
<event>
 6    1  0.5258538E-006  0.1638263E+03  0.7546771E-02  0.1191681E+00
         -1   -1    0    0    0  501 -0.00000000000E+00  0.00000000000E+00  0.40689401704E+02  0.40689401704E+02  0.00000000000E+00 0.  1.
          1   -1    0    0  501    0  0.00000000000E+00 -0.00000000000E+00 -0.70018842774E+03  0.70018842774E+03  0.00000000000E+00 0. -1.
          5    1    1    2  502    0  0.15971952663E+02  0.59351067719E+02 -0.40241429881E+03  0.40710810652E+03  0.47000000000E+01 0. -1.
         -5    1    1    2    0  502  0.70863722547E+02  0.11766246068E+01 -0.11072999016E+03  0.13155330608E+03  0.47000000000E+01 0. -1.
        -11    1    1    2    0    0  0.78868377827E+01 -0.28625100383E+02 -0.66306572542E+01  0.30423086591E+02  0.00000000000E+00 0.  1.
         11    1    1    2    0    0 -0.94722512992E+02 -0.31902591943E+02 -0.13972407981E+03  0.17179333026E+03  0.00000000000E+00 0. -1.
<mgrwt>
<rscale>  0 0.15738502E+03</rscale>
<asrwt>0</asrwt>
<pdfrwt beam="2">  1        1 0.10772129E+00 0.16382630E+03</pdfrwt>
<pdfrwt beam="1">  1       -1 0.62599084E-02 0.16382630E+03</pdfrwt>
<totfact> 0.34686027E+03</totfact>
</mgrwt>
</event>
<event>
 6    1  0.5258538E-006  0.1421675E+03  0.7546771E-02  0.1231081E+00
          2   -1    0    0  501    0  0.00000000000E+00  0.00000000000E+00  0.18459596196E+03  0.18459596196E+03  0.00000000000E+00 0. -1.
         -2   -1    0    0    0  501 -0.00000000000E+00 -0.00000000000E+00 -0.16127676906E+03  0.16127676906E+03  0.00000000000E+00 0.  1.
          5    1    1    2  502    0 -0.60303778715E+02  0.12536558109E+02  0.16596105135E+02  0.63962736982E+02  0.47000000000E+01 0. -1.
         -5    1    1    2    0  502  0.53198583463E+02 -0.19691450780E+02  0.12179832957E+03  0.13444242486E+03  0.47000000000E+01 0.  1.
        -11    1    1    2    0    0 -0.20255336100E+02  0.39366441392E+02 -0.33233534342E+02  0.55357593457E+02  0.00000000000E+00 0. -1.
         11    1    1    2    0    0  0.27360531353E+02 -0.32211548720E+02 -0.81841707462E+02  0.92109975721E+02  0.00000000000E+00 0.  1.
<mgrwt>
<rscale>  0 0.12758671E+03</rscale>
<asrwt>0</asrwt>
<pdfrwt beam="1">  1        2 0.28399379E-01 0.14216747E+03</pdfrwt>
<pdfrwt beam="2">  1       -2 0.24811811E-01 0.14216747E+03</pdfrwt>
<totfact> 0.26060926E+03</totfact>
</mgrwt>
</event>
<event>
 6    1  0.5258538E-006  0.1547511E+03  0.7546771E-02  0.1203028E+00
          2   -1    0    0  501    0  0.00000000000E+00  0.00000000000E+00  0.73213449458E+03  0.73213449458E+03  0.00000000000E+00 0.  1.
         -2   -1    0    0    0  501 -0.00000000000E+00 -0.00000000000E+00 -0.28642788439E+02  0.28642788439E+02  0.00000000000E+00 0. -1.
          5    1    1    2  502    0 -0.69286654644E+02  0.10026502611E+03  0.34641632144E+03  0.36726022618E+03  0.47000000000E+01 0. -1.
         -5    1    1    2    0  502  0.24371005669E+02 -0.20854563628E+02  0.10997476824E+03  0.11465338369E+03  0.47000000000E+01 0. -1.
        -11    1    1    2    0    0 -0.26697015812E+02 -0.88245015570E+01  0.43670435689E+02  0.51939478572E+02  0.00000000000E+00 0. -1.
         11    1    1    2    0    0  0.71612664787E+02 -0.70585960927E+02  0.20343018078E+03  0.22692419459E+03  0.00000000000E+00 0.  1.
<mgrwt>
<rscale>  0 0.14793983E+03</rscale>
<asrwt>0</asrwt>
<pdfrwt beam="1">  1        2 0.11263606E+00 0.15475109E+03</pdfrwt>
<pdfrwt beam="2">  1       -2 0.44065834E-02 0.15475109E+03</pdfrwt>
<totfact> 0.91116792E+03</totfact>
</mgrwt>
</event>
<event>
 6    1  0.5258538E-006  0.1410356E+03  0.7546771E-02  0.1223298E+00
         -2   -1    0    0    0  501 -0.00000000000E+00  0.00000000000E+00  0.22059190044E+02  0.22059190044E+02  0.00000000000E+00 0.  1.
          2   -1    0    0  501    0  0.00000000000E+00 -0.00000000000E+00 -0.72567976850E+03  0.72567976850E+03  0.00000000000E+00 0. -1.
          5    1    1    2  502    0  0.70508980168E+02 -0.11394868592E+02 -0.10657551314E+03  0.12838142122E+03  0.47000000000E+01 0. -1.
         -5    1    1    2    0  502 -0.13230653577E+02 -0.19744106377E+02 -0.31975931285E+03  0.32067583022E+03  0.47000000000E+01 0. -1.
        -11    1    1    2    0    0 -0.55736323238E+02  0.63667542486E+01 -0.26521289268E+03  0.27108107963E+03  0.00000000000E+00 0. -1.
         11    1    1    2    0    0 -0.15420033532E+01  0.24772220721E+02 -0.12072859792E+02  0.27600627481E+02  0.00000000000E+00 0.  1.
<mgrwt>
<rscale>  0 0.13284270E+03</rscale>
<asrwt>0</asrwt>
<pdfrwt beam="2">  1        2 0.11164303E+00 0.14103557E+03</pdfrwt>
<pdfrwt beam="1">  1       -2 0.33937219E-02 0.14103557E+03</pdfrwt>
<totfact> 0.13501524E+04</totfact>
</mgrwt>
</event>
<event>
 6    1  0.5258538E-006  0.3209271E+03  0.7546771E-02  0.1075223E+00
         -1   -1    0    0    0  501 -0.00000000000E+00  0.00000000000E+00  0.10581575592E+02  0.10581575592E+02  0.00000000000E+00 0.  1.
          1   -1    0    0  501    0  0.00000000000E+00 -0.00000000000E+00 -0.24333375873E+04  0.24333375873E+04  0.00000000000E+00 0. -1.
          5    1    1    2  502    0 -0.87435025728E+01  0.10602717199E+01 -0.89557427265E+01  0.13411500332E+02  0.47000000000E+01 0. -1.
         -5    1    1    2    0  502 -0.73412784302E+02 -0.22776566948E+01 -0.18876828361E+04  0.18891170436E+04  0.47000000000E+01 0. -1.
        -11    1    1    2    0    0  0.21418452193E+02  0.45335617365E+02 -0.26474168921E+03  0.26944801039E+03  0.00000000000E+00 0.  1.
         11    1    1    2    0    0  0.60737834681E+02 -0.44118232390E+02 -0.26137574368E+03  0.27194260861E+03  0.00000000000E+00 0. -1.
<mgrwt>
<rscale>  0 0.32092707E+03</rscale>
<asrwt>0</asrwt>
<pdfrwt beam="2">  1        1 0.37435947E+00 0.32092707E+03</pdfrwt>
<pdfrwt beam="1">  1       -1 0.16279354E-02 0.32092707E+03</pdfrwt>
<totfact> 0.16207166E+03</totfact>
</mgrwt>
</event>
<event>
 6    1  0.5258538E-006  0.1289198E+03  0.7546771E-02  0.1240736E+00
          2   -1    0    0  501    0  0.00000000000E+00  0.00000000000E+00  0.13753391819E+03  0.13753391819E+03  0.00000000000E+00 0. -1.
         -2   -1    0    0    0  501 -0.00000000000E+00 -0.00000000000E+00 -0.14392080426E+03  0.14392080426E+03  0.00000000000E+00 0.  1.
          5    1    1    2  502    0 -0.48858662145E+01  0.47496790852E+02  0.87555005640E+02  0.99838799284E+02  0.47000000000E+01 0. -1.
         -5    1    1    2    0  502 -0.26083118868E+02 -0.41396192268E+02 -0.10626195323E+02  0.50288963513E+02  0.47000000000E+01 0. -1.
        -11    1    1    2    0    0  0.39362600043E+02  0.31920951451E+02 -0.15271647063E+02  0.52929997428E+02  0.00000000000E+00 0. -1.
         11    1    1    2    0    0 -0.83936149605E+01 -0.38021550035E+02 -0.68044049321E+02  0.78396962232E+02  0.00000000000E+00 0.  1.
<mgrwt>
<rscale>  0 0.12144286E+03</rscale>
<asrwt>0</asrwt>
<pdfrwt beam="1">  1        2 0.21159065E-01 0.12891976E+03</pdfrwt>
<pdfrwt beam="2">  1       -2 0.22141662E-01 0.12891976E+03</pdfrwt>
<totfact> 0.43705369E+03</totfact>
</mgrwt>
</event>
<event>
 6    1  0.5258538E-006  0.1361481E+03  0.7546771E-02  0.1230588E+00
          2   -1    0    0  501    0  0.00000000000E+00  0.00000000000E+00  0.95293522690E+03  0.95293522690E+03  0.00000000000E+00 0. -1.
         -2   -1    0    0    0  501 -0.00000000000E+00 -0.00000000000E+00 -0.17498170356E+02  0.17498170356E+02  0.00000000000E+00 0.  1.
          5    1    1    2  502    0  0.47584312410E+02 -0.41335279298E+02  0.57295271875E+03  0.57642846913E+03  0.47000000000E+01 0. -1.
         -5    1    1    2    0  502 -0.46430513405E+02 -0.12620266848E+02  0.11303242990E+03  0.12293691032E+03  0.47000000000E+01 0. -1.
        -11    1    1    2    0    0  0.30950796092E+02  0.59754982159E+02  0.20612402354E+03  0.21683109268E+03  0.00000000000E+00 0. -1.
         11    1    1    2    0    0 -0.32104595097E+02 -0.57994360129E+01  0.43327884350E+02  0.54236925121E+02  0.00000000000E+00 0.  1.
<mgrwt>
<rscale>  0 0.12791179E+03</rscale>
<asrwt>0</asrwt>
<pdfrwt beam="1">  1        2 0.14660538E+00 0.13614812E+03</pdfrwt>
<pdfrwt beam="2">  1       -2 0.26920270E-02 0.13614812E+03</pdfrwt>
<totfact> 0.13410516E+04</totfact>
</mgrwt>
</event>
<event>
 6    1  0.5258538E-006  0.1217658E+03  0.7546771E-02  0.1250265E+00
          1   -1    0    0  501    0  0.00000000000E+00  0.00000000000E+00  0.51001403351E+03  0.51001403351E+03  0.00000000000E+00 0. -1.
         -1   -1    0    0    0  501 -0.00000000000E+00 -0.00000000000E+00 -0.28253822475E+02  0.28253822475E+02  0.00000000000E+00 0.  1.
          5    1    1    2  502    0  0.32438052007E+02 -0.64746005020E+02  0.17190661347E+03  0.18659647944E+03  0.47000000000E+01 0. -1.
         -5    1    1    2    0  502 -0.36116484461E+02  0.25628159166E+02  0.19372281982E+03  0.19877581320E+03  0.47000000000E+01 0.  1.
        -11    1    1    2    0    0  0.46223490793E+02  0.29480625714E+02  0.75309132898E+02  0.93151403057E+02  0.00000000000E+00 0.  1.
         11    1    1    2    0    0 -0.42545058339E+02  0.96372201401E+01  0.40821644841E+02  0.59744160289E+02  0.00000000000E+00 0. -1.
<mgrwt>
<rscale>  0 0.11575706E+03</rscale>
<asrwt>0</asrwt>
<pdfrwt beam="1">  1        1 0.78463691E-01 0.12176585E+03</pdfrwt>
<pdfrwt beam="2">  1       -1 0.43467423E-02 0.12176585E+03</pdfrwt>
<totfact> 0.90430604E+03</totfact>
</mgrwt>
</event>
<event>
 6    1  0.5258538E-006  0.1251142E+03  0.7546771E-02  0.1249108E+00
          2   -1    0    0  501    0  0.00000000000E+00  0.00000000000E+00  0.68959941043E+03  0.68959941043E+03  0.00000000000E+00 0.  1.
         -2   -1    0    0    0  501 -0.00000000000E+00 -0.00000000000E+00 -0.17825408103E+02  0.17825408103E+02  0.00000000000E+00 0. -1.
          5    1    1    2  502    0  0.12508046670E+02 -0.61744635152E+02  0.23615921733E+03  0.24446291566E+03  0.47000000000E+01 0.  1.
         -5    1    1    2    0  502 -0.17048951375E+02  0.59098539042E+02  0.20203379224E+03  0.21124167976E+03  0.47000000000E+01 0.  1.
        -11    1    1    2    0    0  0.27266001417E+02  0.36270154033E+02  0.71878681957E+02  0.85002963635E+02  0.00000000000E+00 0.  1.
         11    1    1    2    0    0 -0.22725096712E+02 -0.33624057923E+02  0.16170231080E+03  0.16671725948E+03  0.00000000000E+00 0. -1.
<mgrwt>
<rscale>  0 0.11642835E+03</rscale>
<asrwt>0</asrwt>
<pdfrwt beam="1">  1        2 0.10609220E+00 0.12511421E+03</pdfrwt>
<pdfrwt beam="2">  1       -2 0.27423710E-02 0.12511421E+03</pdfrwt>
<totfact> 0.19445700E+04</totfact>
</mgrwt>
</event>
<event>
 6    1  0.5258538E-006  0.2210211E+03  0.7546771E-02  0.1136564E+00
          2   -1    0    0  501    0  0.00000000000E+00  0.00000000000E+00  0.19040567648E+04  0.19040567648E+04  0.00000000000E+00 0. -1.
         -2   -1    0    0    0  501 -0.00000000000E+00 -0.00000000000E+00 -0.27396033696E+02  0.27396033696E+02  0.00000000000E+00 0.  1.
          5    1    1    2  502    0 -0.14837966403E+02  0.18211456000E+02  0.13540505531E+03  0.13750796842E+03  0.47000000000E+01 0.  1.
         -5    1    1    2    0  502 -0.32268344470E+02 -0.19429635237E+03  0.11943108548E+04  0.12104514969E+04  0.47000000000E+01 0.  1.
        -11    1    1    2    0    0  0.39932206669E+02  0.69422017030E+02  0.12690458987E+03  0.15006256198E+03  0.00000000000E+00 0.  1.
         11    1    1    2    0    0  0.71741042033E+01  0.10666287934E+03  0.42004023111E+03  0.43343077112E+03  0.00000000000E+00 0. -1.
<mgrwt>
<rscale>  0 0.21644115E+03</rscale>
<asrwt>0</asrwt>
<pdfrwt beam="1">  1        2 0.29293171E+00 0.22102108E+03</pdfrwt>
<pdfrwt beam="2">  1       -2 0.42147759E-02 0.22102108E+03</pdfrwt>
<totfact> 0.21237162E+03</totfact>
</mgrwt>
</event>
<event>
 6    1  0.5258538E-006  0.2773725E+03  0.7546771E-02  0.1097133E+00
          2   -1    0    0  501    0  0.00000000000E+00  0.00000000000E+00  0.21285947047E+03  0.21285947047E+03  0.00000000000E+00 0. -1.
         -2   -1    0    0    0  501 -0.00000000000E+00 -0.00000000000E+00 -0.90359511184E+02  0.90359511184E+02  0.00000000000E+00 0.  1.
          5    1    1    2  502    0  0.20218586410E+02 -0.55643547810E+02  0.15714707955E+03  0.16799491141E+03  0.47000000000E+01 0.  1.
         -5    1    1    2    0  502 -0.14433743925E+02 -0.24233319438E+01 -0.20870891074E+02  0.25920833235E+02  0.47000000000E+01 0.  1.
        -11    1    1    2    0    0 -0.23712491122E+02  0.29273263696E+02 -0.48067263263E+02  0.61071007854E+02  0.00000000000E+00 0.  1.
         11    1    1    2    0    0  0.17927648637E+02  0.28793616058E+02  0.34291034078E+02  0.48232229157E+02  0.00000000000E+00 0. -1.
<mgrwt>
<rscale>  0 0.27737251E+03</rscale>
<asrwt>0</asrwt>
<pdfrwt beam="1">  1        2 0.32747611E-01 0.27737251E+03</pdfrwt>
<pdfrwt beam="2">  1       -2 0.13901463E-01 0.27737251E+03</pdfrwt>
<totfact> 0.61378904E+03</totfact>
</mgrwt>
</event>
<event>
 6    1  0.5258538E-006  0.1414098E+03  0.7546771E-02  0.1223091E+00
          2   -1    0    0  501    0  0.00000000000E+00  0.00000000000E+00  0.89774078668E+03  0.89774078668E+03  0.00000000000E+00 0. -1.
         -2   -1    0    0    0  501 -0.00000000000E+00 -0.00000000000E+00 -0.18259225055E+02  0.18259225055E+02  0.00000000000E+00 0.  1.
          5    1    1    2  502    0 -0.44864745183E+02  0.14975680526E+02  0.56350606425E+03  0.56550710943E+03  0.47000000000E+01 0. -1.
         -5    1    1    2    0  502 -0.21037371697E+02  0.58296181786E+01  0.87856480062E+01  0.23996521976E+02  0.47000000000E+01 0.  1.
        -11    1    1    2    0    0  0.86806260964E+02 -0.11417053324E+02  0.24988704560E+03  0.26478144121E+03  0.00000000000E+00 0.  1.
         11    1    1    2    0    0 -0.20904144084E+02 -0.93882453815E+01  0.57302803768E+02  0.61714939123E+02  0.00000000000E+00 0. -1.
<mgrwt>
<rscale>  0 0.13298630E+03</rscale>
<asrwt>0</asrwt>
<pdfrwt beam="1">  1        2 0.13811393E+00 0.14140979E+03</pdfrwt>
<pdfrwt beam="2">  1       -2 0.28091122E-02 0.14140979E+03</pdfrwt>
<totfact> 0.13668267E+04</totfact>
</mgrwt>
</event>
<event>
 6    1  0.5258538E-006  0.1645009E+03  0.7546771E-02  0.1190721E+00
         -1   -1    0    0    0  501 -0.00000000000E+00  0.00000000000E+00  0.13883322409E+03  0.13883322409E+03  0.00000000000E+00 0.  1.
          1   -1    0    0  501    0  0.00000000000E+00 -0.00000000000E+00 -0.16783459145E+03  0.16783459145E+03  0.00000000000E+00 0. -1.
          5    1    1    2  502    0 -0.76715647119E+01  0.17069026981E+01  0.40749809449E+02  0.41766055501E+02  0.47000000000E+01 0.  1.
         -5    1    1    2    0  502  0.56392785746E+02  0.93491087245E+02 -0.57769830726E+02  0.12361299697E+03  0.47000000000E+01 0.  1.
        -11    1    1    2    0    0 -0.36954474658E+02 -0.97084242352E+02 -0.39629118693E+02  0.11118205952E+03  0.00000000000E+00 0. -1.
         11    1    1    2    0    0 -0.11766746376E+02  0.18862524081E+01  0.27647772606E+02  0.30106703548E+02  0.00000000000E+00 0.  1.
<mgrwt>
<rscale>  0 0.15821999E+03</rscale>
<asrwt>0</asrwt>
<pdfrwt beam="2">  1        1 0.25820706E-01 0.16450091E+03</pdfrwt>
<pdfrwt beam="1">  1       -1 0.21358958E-01 0.16450091E+03</pdfrwt>
<totfact> 0.32352631E+03</totfact>
</mgrwt>
</event>
<event>
 6    1  0.5258538E-006  0.1824573E+03  0.7546771E-02  0.1170949E+00
         -1   -1    0    0    0  501 -0.00000000000E+00  0.00000000000E+00  0.36820049755E+02  0.36820049755E+02  0.00000000000E+00 0.  1.
          1   -1    0    0  501    0  0.00000000000E+00 -0.00000000000E+00 -0.13306281858E+04  0.13306281858E+04  0.00000000000E+00 0. -1.
          5    1    1    2  502    0  0.11489672474E+02  0.35533010529E+02 -0.23811540193E+03  0.24107186076E+03  0.47000000000E+01 0. -1.
         -5    1    1    2    0  502  0.10206382940E+03 -0.10256312967E+03 -0.86453978485E+03  0.87657706474E+03  0.47000000000E+01 0. -1.
        -11    1    1    2    0    0  0.64768122681E+01  0.27472279000E+02 -0.66707175094E+02  0.72432882171E+02  0.00000000000E+00 0. -1.
         11    1    1    2    0    0 -0.12003031414E+03  0.39557840140E+02 -0.12444577413E+03  0.17736642785E+03  0.00000000000E+00 0.  1.
<mgrwt>
<rscale>  0 0.17678686E+03</rscale>
<asrwt>0</asrwt>
<pdfrwt beam="2">  1        1 0.20471203E+00 0.18245728E+03</pdfrwt>
<pdfrwt beam="1">  1       -1 0.56646230E-02 0.18245728E+03</pdfrwt>
<totfact> 0.13597307E+03</totfact>
</mgrwt>
</event>
<event>
 6    1  0.8429358E-006  0.4391466E+03  0.7546771E-02  0.1031815E+00
         -1   -1    0    0    0  501 -0.00000000000E+00  0.00000000000E+00  0.10573679182E+03  0.10573679182E+03  0.00000000000E+00 0.  1.
          1   -1    0    0  501    0  0.00000000000E+00 -0.00000000000E+00 -0.18025950795E+04  0.18025950795E+04  0.00000000000E+00 0. -1.
          5    1    1    2  502    0 -0.10612951156E+02 -0.25393950496E+02 -0.14138651058E+03  0.14411704558E+03  0.47000000000E+01 0.  1.
         -5    1    1    2    0  502  0.15187675623E+03 -0.37117802968E+03 -0.82113298042E+03  0.91384962676E+03  0.47000000000E+01 0.  1.
        -11    1    1    2    0    0 -0.72461548344E+02  0.97253840488E+02 -0.22458810420E+03  0.25524263364E+03  0.00000000000E+00 0. -1.
         11    1    1    2    0    0 -0.68802256732E+02  0.29931813969E+03 -0.50975069247E+03  0.59512256532E+03  0.00000000000E+00 0.  1.
<mgrwt>
<rscale>  0 0.43653618E+03</rscale>
<asrwt>0</asrwt>
<pdfrwt beam="2">  1        1 0.27732231E+00 0.43914657E+03</pdfrwt>
<pdfrwt beam="1">  1       -1 0.16267200E-01 0.43914657E+03</pdfrwt>
<totfact> 0.12442264E+02</totfact>
</mgrwt>
</event>
<event>
 6    1  0.5258538E-006  0.1906421E+03  0.7546771E-02  0.1168875E+00
         -2   -1    0    0    0  501 -0.00000000000E+00  0.00000000000E+00  0.35788725466E+02  0.35788725466E+02  0.00000000000E+00 0.  1.
          2   -1    0    0  501    0  0.00000000000E+00 -0.00000000000E+00 -0.91547545151E+03  0.91547545151E+03  0.00000000000E+00 0. -1.
          5    1    1    2  502    0 -0.11153174872E+03 -0.13304609587E+02 -0.32691496009E+03  0.34570482314E+03  0.47000000000E+01 0. -1.
         -5    1    1    2    0  502  0.11725827741E+02  0.73523864109E+02 -0.32911188824E+03  0.33746107718E+03  0.47000000000E+01 0.  1.
        -11    1    1    2    0    0  0.10085002706E+03 -0.72650541876E+02 -0.15681569032E+03  0.20009994983E+03  0.00000000000E+00 0.  1.
         11    1    1    2    0    0 -0.10441060797E+01  0.12431287353E+02 -0.66844187389E+02  0.67998326821E+02  0.00000000000E+00 0. -1.
<mgrwt>
<rscale>  0 0.17889694E+03</rscale>
<asrwt>0</asrwt>
<pdfrwt beam="2">  1        2 0.14084237E+00 0.19064213E+03</pdfrwt>
<pdfrwt beam="1">  1       -2 0.55059580E-02 0.19064213E+03</pdfrwt>
<totfact> 0.49484892E+03</totfact>
</mgrwt>
</event>
<event>
 6    1  0.5258538E-006  0.1474938E+03  0.7546771E-02  0.1213991E+00
         -2   -1    0    0    0  501 -0.00000000000E+00  0.00000000000E+00  0.31275695077E+03  0.31275695077E+03  0.00000000000E+00 0.  1.
          2   -1    0    0  501    0  0.00000000000E+00 -0.00000000000E+00 -0.73885393902E+02  0.73885393902E+02  0.00000000000E+00 0. -1.
          5    1    1    2  502    0 -0.12887571177E+02  0.31726628322E+02 -0.37393589066E+02  0.50921890566E+02  0.47000000000E+01 0. -1.
         -5    1    1    2    0  502 -0.64996651628E+02 -0.23731731028E+02  0.73238795869E+02  0.10086511290E+03  0.47000000000E+01 0. -1.
        -11    1    1    2    0    0  0.75731763635E+02  0.24812882403E+02  0.10742011031E+03  0.13375372614E+03  0.00000000000E+00 0. -1.
         11    1    1    2    0    0  0.21524591696E+01 -0.32807779697E+02  0.95606239758E+02  0.10110161507E+03  0.00000000000E+00 0.  1.
<mgrwt>
<rscale>  0 0.13950917E+03</rscale>
<asrwt>0</asrwt>
<pdfrwt beam="2">  1        2 0.11366984E-01 0.14749378E+03</pdfrwt>
<pdfrwt beam="1">  1       -2 0.48116453E-01 0.14749378E+03</pdfrwt>
<totfact> 0.21975252E+03</totfact>
</mgrwt>
</event>
<event>
 6    1  0.5258538E-006  0.1595821E+03  0.7546771E-02  0.1196452E+00
          2   -1    0    0  501    0  0.00000000000E+00  0.00000000000E+00  0.37892375195E+03  0.37892375195E+03  0.00000000000E+00 0. -1.
         -2   -1    0    0    0  501 -0.00000000000E+00 -0.00000000000E+00 -0.62213467112E+02  0.62213467112E+02  0.00000000000E+00 0.  1.
          5    1    1    2  502    0  0.26817156160E+02  0.31199159281E+01  0.80022151607E+02  0.84584445897E+02  0.47000000000E+01 0.  1.
         -5    1    1    2    0  502 -0.12381537846E+03  0.17694618974E+02  0.14973905543E+03  0.19515947890E+03  0.47000000000E+01 0.  1.
        -11    1    1    2    0    0  0.21244214230E+02 -0.11668548139E+02  0.81350022114E+02  0.84884025304E+02  0.00000000000E+00 0. -1.
         11    1    1    2    0    0  0.75754008071E+02 -0.91459867627E+01  0.55990556916E+01  0.76509268963E+02  0.00000000000E+00 0.  1.
<mgrwt>
<rscale>  0 0.15331985E+03</rscale>
<asrwt>0</asrwt>
<pdfrwt beam="1">  1        2 0.58295960E-01 0.15958211E+03</pdfrwt>
<pdfrwt beam="2">  1       -2 0.95713029E-02 0.15958211E+03</pdfrwt>
<totfact> 0.58325787E+03</totfact>
</mgrwt>
</event>
<event>
 6    1  0.5258538E-006  0.1466854E+03  0.7546771E-02  0.1212687E+00
         -1   -1    0    0    0  501 -0.00000000000E+00  0.00000000000E+00  0.70493609636E+02  0.70493609636E+02  0.00000000000E+00 0.  1.
          1   -1    0    0  501    0  0.00000000000E+00 -0.00000000000E+00 -0.33030517818E+03  0.33030517818E+03  0.00000000000E+00 0. -1.
          5    1    1    2  502    0  0.31100426154E+02 -0.99695192571E+02 -0.13753430913E+03  0.17275457770E+03  0.47000000000E+01 0. -1.
         -5    1    1    2    0  502 -0.29678968852E+02  0.22942934580E+02 -0.94198781771E+02  0.10150231488E+03  0.47000000000E+01 0. -1.
        -11    1    1    2    0    0  0.38665709880E+02  0.72215945503E+02 -0.10687018097E+02  0.82609879925E+02  0.00000000000E+00 0. -1.
         11    1    1    2    0    0 -0.40087167182E+02  0.45363124881E+01 -0.17391459539E+02  0.43932015303E+02  0.00000000000E+00 0.  1.
<mgrwt>
<rscale>  0 0.14047788E+03</rscale>
<asrwt>0</asrwt>
<pdfrwt beam="2">  1        1 0.50816181E-01 0.14668544E+03</pdfrwt>
<pdfrwt beam="1">  1       -1 0.10845171E-01 0.14668544E+03</pdfrwt>
<totfact> 0.40282977E+03</totfact>
</mgrwt>
</event>
<event>
 6    1  0.5258538E-006  0.1445646E+03  0.7546771E-02  0.1217391E+00
         -1   -1    0    0    0  501 -0.00000000000E+00  0.00000000000E+00  0.60921949332E+03  0.60921949332E+03  0.00000000000E+00 0.  1.
          1   -1    0    0  501    0  0.00000000000E+00 -0.00000000000E+00 -0.30225159749E+02  0.30225159749E+02  0.00000000000E+00 0. -1.
          5    1    1    2  502    0  0.28804488523E+02 -0.61876653403E+01  0.13530057252E+03  0.13855078738E+03  0.47000000000E+01 0.  1.
         -5    1    1    2    0  502 -0.60926004294E+02  0.71316096408E+02  0.96662044153E+02  0.13477241701E+03  0.47000000000E+01 0.  1.
        -11    1    1    2    0    0  0.38748887484E+02 -0.81974579028E+02  0.32598638818E+03  0.33836139432E+03  0.00000000000E+00 0.  1.
         11    1    1    2    0    0 -0.66273717137E+01  0.16846147960E+02  0.21045328724E+02  0.27760054359E+02  0.00000000000E+00 0. -1.
<mgrwt>
<rscale>  0 0.13702325E+03</rscale>
<asrwt>0</asrwt>
<pdfrwt beam="2">  1        1 0.46500250E-02 0.14456458E+03</pdfrwt>
<pdfrwt beam="1">  1       -1 0.93726067E-01 0.14456458E+03</pdfrwt>
<totfact> 0.20851652E+03</totfact>
</mgrwt>
</event>
<event>
 6    1  0.5258538E-006  0.1730076E+03  0.7546771E-02  0.1189838E+00
          2   -1    0    0  501    0  0.00000000000E+00  0.00000000000E+00  0.11313076155E+03  0.11313076155E+03  0.00000000000E+00 0. -1.
         -2   -1    0    0    0  501 -0.00000000000E+00 -0.00000000000E+00 -0.19739097835E+03  0.19739097835E+03  0.00000000000E+00 0.  1.
          5    1    1    2  502    0  0.46369890346E+01  0.74428728106E+01  0.46252465117E+02  0.47310448659E+02  0.47000000000E+01 0. -1.
         -5    1    1    2    0  502 -0.26845516018E+00  0.77737369805E+02 -0.11492674395E+03  0.13882873336E+03  0.47000000000E+01 0.  1.
        -11    1    1    2    0    0 -0.11268557395E+02 -0.75180980189E+02  0.26555022306E+02  0.80525333763E+02  0.00000000000E+00 0. -1.
         11    1    1    2    0    0  0.69000235208E+01 -0.99992624269E+01 -0.42140960278E+02  0.43857224112E+02  0.00000000000E+00 0.  1.
<mgrwt>
<rscale>  0 0.15899360E+03</rscale>
<asrwt>0</asrwt>
<pdfrwt beam="1">  1        2 0.17404733E-01 0.17300763E+03</pdfrwt>
<pdfrwt beam="2">  1       -2 0.30367843E-01 0.17300763E+03</pdfrwt>
<totfact> 0.31825019E+03</totfact>
</mgrwt>
</event>
<event>
 6    1  0.5258538E-006  0.1251338E+03  0.7546771E-02  0.1248229E+00
          1   -1    0    0  501    0  0.00000000000E+00  0.00000000000E+00  0.10546839901E+04  0.10546839901E+04  0.00000000000E+00 0. -1.
         -1   -1    0    0    0  501 -0.00000000000E+00 -0.00000000000E+00 -0.11562678058E+02  0.11562678058E+02  0.00000000000E+00 0.  1.
          5    1    1    2  502    0 -0.35626097403E+02  0.38241456955E+02  0.46418873285E+03  0.46714547793E+03  0.47000000000E+01 0. -1.
         -5    1    1    2    0  502  0.33482832550E+02 -0.43603306088E+02  0.15413610977E+03  0.16371432042E+03  0.47000000000E+01 0. -1.
        -11    1    1    2    0    0 -0.33815541391E+02 -0.27627941633E+02  0.25521593779E+03  0.25892463943E+03  0.00000000000E+00 0.  1.
         11    1    1    2    0    0  0.35958806244E+02  0.32989790767E+02  0.16958053161E+03  0.17646223035E+03  0.00000000000E+00 0. -1.
<mgrwt>
<rscale>  0 0.11694158E+03</rscale>
<asrwt>0</asrwt>
<pdfrwt beam="1">  1        1 0.16225900E+00 0.12513383E+03</pdfrwt>
<pdfrwt beam="2">  1       -1 0.17788744E-02 0.12513383E+03</pdfrwt>
<totfact> 0.11363022E+04</totfact>
</mgrwt>
</event>
<event>
 6    1  0.5258538E-006  0.1353614E+03  0.7546771E-02  0.1231501E+00
         -2   -1    0    0    0  501 -0.00000000000E+00  0.00000000000E+00  0.44593197560E+02  0.44593197560E+02  0.00000000000E+00 0.  1.
          2   -1    0    0  501    0  0.00000000000E+00 -0.00000000000E+00 -0.36954782421E+03  0.36954782421E+03  0.00000000000E+00 0. -1.
          5    1    1    2  502    0  0.61954217795E+01  0.70589921029E+02 -0.22747041530E+03  0.23829855232E+03  0.47000000000E+01 0.  1.
         -5    1    1    2    0  502 -0.31096857920E+02 -0.25085360630E+02 -0.22821411525E+02  0.46251450944E+02  0.47000000000E+01 0.  1.
        -11    1    1    2    0    0  0.12086580388E+02  0.81755815327E+01 -0.72929771932E+02  0.74375245835E+02  0.00000000000E+00 0. -1.
         11    1    1    2    0    0  0.12814855752E+02 -0.53680141932E+02 -0.17330278925E+01  0.55215772669E+02  0.00000000000E+00 0.  1.
<mgrwt>
<rscale>  0 0.12731126E+03</rscale>
<asrwt>0</asrwt>
<pdfrwt beam="2">  1        2 0.56853511E-01 0.13536139E+03</pdfrwt>
<pdfrwt beam="1">  1       -2 0.68604920E-02 0.13536139E+03</pdfrwt>
<totfact> 0.99299145E+03</totfact>
</mgrwt>
</event>
<event>
 6    1  0.5258538E-006  0.1278874E+03  0.7546771E-02  0.1249340E+00
          1   -1    0    0  501    0  0.00000000000E+00  0.00000000000E+00  0.12012736976E+04  0.12012736976E+04  0.00000000000E+00 0. -1.
         -1   -1    0    0    0  501 -0.00000000000E+00 -0.00000000000E+00 -0.35052452070E+02  0.35052452070E+02  0.00000000000E+00 0.  1.
          5    1    1    2  502    0  0.61211958831E+02  0.15514630510E+02  0.86285528355E+03  0.86517566887E+03  0.47000000000E+01 0.  1.
         -5    1    1    2    0  502 -0.40121921499E+02 -0.32404703215E+02  0.27408156147E+03  0.27893122040E+03  0.47000000000E+01 0.  1.
        -11    1    1    2    0    0  0.27364630137E+02  0.62160922485E+01 -0.90870594166E+01  0.29496396970E+02  0.00000000000E+00 0.  1.
         11    1    1    2    0    0 -0.48454667468E+02  0.10673980457E+02  0.38371459899E+02  0.62722863399E+02  0.00000000000E+00 0. -1.
<mgrwt>
<rscale>  0 0.11629362E+03</rscale>
<asrwt>0</asrwt>
<pdfrwt beam="1">  1        1 0.18481131E+00 0.12788739E+03</pdfrwt>
<pdfrwt beam="2">  1       -1 0.53926858E-02 0.12788739E+03</pdfrwt>
<totfact> 0.17881127E+03</totfact>
</mgrwt>
</event>
<event>
 6    1  0.5258538E-006  0.1292472E+03  0.7546771E-02  0.1242905E+00
         -2   -1    0    0    0  501 -0.00000000000E+00  0.00000000000E+00  0.29262718411E+02  0.29262718411E+02  0.00000000000E+00 0.  1.
          2   -1    0    0  501    0  0.00000000000E+00 -0.00000000000E+00 -0.46181880052E+03  0.46181880052E+03  0.00000000000E+00 0. -1.
          5    1    1    2  502    0 -0.27826411638E+02 -0.71022328665E+01 -0.94582795256E+01  0.30599018741E+02  0.47000000000E+01 0.  1.
         -5    1    1    2    0  502  0.40640697143E+02  0.37368342882E+02 -0.29497860009E+03  0.30013750819E+03  0.47000000000E+01 0.  1.
        -11    1    1    2    0    0  0.22209842894E+02 -0.19907196149E+02 -0.29678753151E+01  0.29973018930E+02  0.00000000000E+00 0.  1.
         11    1    1    2    0    0 -0.35024128399E+02 -0.10358913867E+02 -0.12515132718E+03  0.13037197307E+03  0.00000000000E+00 0. -1.
<mgrwt>
<rscale>  0 0.12011653E+03</rscale>
<asrwt>0</asrwt>
<pdfrwt beam="2">  1        2 0.71049040E-01 0.12924719E+03</pdfrwt>
<pdfrwt beam="1">  1       -2 0.45019570E-02 0.12924719E+03</pdfrwt>
<totfact> 0.14716072E+04</totfact>
</mgrwt>
</event>
<event>
 6    1  0.5258538E-006  0.1327258E+03  0.7546771E-02  0.1237599E+00
         -1   -1    0    0    0  501 -0.00000000000E+00  0.00000000000E+00  0.10797708495E+03  0.10797708495E+03  0.00000000000E+00 0.  1.
          1   -1    0    0  501    0  0.00000000000E+00 -0.00000000000E+00 -0.15678763131E+03  0.15678763131E+03  0.00000000000E+00 0. -1.
          5    1    1    2  502    0 -0.50625103925E+02 -0.18328360804E+02 -0.44946069656E+02  0.70292738848E+02  0.47000000000E+01 0.  1.
         -5    1    1    2    0  502  0.45747802999E+02  0.62684483650E+02 -0.41843752698E+02  0.88290404969E+02  0.47000000000E+01 0.  1.
        -11    1    1    2    0    0  0.33374447671E+02 -0.56178802905E+01 -0.12855808758E+02  0.36203399773E+02  0.00000000000E+00 0. -1.
         11    1    1    2    0    0 -0.28497146745E+02 -0.38738242555E+02  0.50835084753E+02  0.69978172674E+02  0.00000000000E+00 0.  1.
<mgrwt>
<rscale>  0 0.12339493E+03</rscale>
<asrwt>0</asrwt>
<pdfrwt beam="2">  1        1 0.24121174E-01 0.13272581E+03</pdfrwt>
<pdfrwt beam="1">  1       -1 0.16611859E-01 0.13272581E+03</pdfrwt>
<totfact> 0.52091211E+03</totfact>
</mgrwt>
</event>
<event>
 6    1  0.5258538E-006  0.1756404E+03  0.7546771E-02  0.1197838E+00
         -1   -1    0    0    0  501 -0.00000000000E+00  0.00000000000E+00  0.50928385369E+02  0.50928385369E+02  0.00000000000E+00 0.  1.
          1   -1    0    0  501    0  0.00000000000E+00 -0.00000000000E+00 -0.42208479052E+03  0.42208479052E+03  0.00000000000E+00 0. -1.
          5    1    1    2  502    0  0.39022957022E+01  0.10019679552E+03 -0.22744748143E+03  0.24861430481E+03  0.47000000000E+01 0. -1.
         -5    1    1    2    0  502  0.89741285758E+01 -0.68583678149E+02 -0.83688648706E+02  0.10867444876E+03  0.47000000000E+01 0.  1.
        -11    1    1    2    0    0 -0.15695465590E+01  0.32210995714E+02 -0.30907774592E+02  0.44668806247E+02  0.00000000000E+00 0. -1.
         11    1    1    2    0    0 -0.11306877719E+02 -0.63824113081E+02 -0.29112500415E+02  0.71055616068E+02  0.00000000000E+00 0.  1.
<mgrwt>
<rscale>  0 0.15216494E+03</rscale>
<asrwt>0</asrwt>
<pdfrwt beam="2">  1        1 0.64936123E-01 0.17564043E+03</pdfrwt>
<pdfrwt beam="1">  1       -1 0.78351360E-02 0.17564043E+03</pdfrwt>
<totfact> 0.48993646E+03</totfact>
</mgrwt>
</event>
<event>
 6    1  0.5258538E-006  0.1652939E+03  0.7546771E-02  0.1190832E+00
         -2   -1    0    0    0  501 -0.00000000000E+00  0.00000000000E+00  0.40472229314E+02  0.40472229314E+02  0.00000000000E+00 0. -1.
          2   -1    0    0  501    0  0.00000000000E+00 -0.00000000000E+00 -0.58700718877E+03  0.58700718877E+03  0.00000000000E+00 0.  1.
          5    1    1    2  502    0  0.47449467046E+02 -0.49718510407E+02 -0.20674679262E+03  0.21792133548E+03  0.47000000000E+01 0.  1.
         -5    1    1    2    0  502  0.59222666375E+02  0.67561140075E+02 -0.14349142722E+03  0.16936266278E+03  0.47000000000E+01 0.  1.
        -11    1    1    2    0    0 -0.49289283328E+02 -0.84361054915E+01 -0.18811254101E+02  0.53427189779E+02  0.00000000000E+00 0. -1.
         11    1    1    2    0    0 -0.57382850093E+02 -0.94065241761E+01 -0.17748548552E+03  0.18676823004E+03  0.00000000000E+00 0.  1.
<mgrwt>
<rscale>  0 0.15812341E+03</rscale>
<asrwt>0</asrwt>
<pdfrwt beam="2">  1        2 0.90308797E-01 0.16529393E+03</pdfrwt>
<pdfrwt beam="1">  1       -2 0.62264969E-02 0.16529393E+03</pdfrwt>
<totfact> 0.70279014E+03</totfact>
</mgrwt>
</event>
<event>
 6    1  0.5258538E-006  0.1333799E+03  0.7546771E-02  0.1231760E+00
         -1   -1    0    0    0  501 -0.00000000000E+00  0.00000000000E+00  0.62203911470E+02  0.62203911470E+02  0.00000000000E+00 0.  1.
          1   -1    0    0  501    0  0.00000000000E+00 -0.00000000000E+00 -0.98590377962E+03  0.98590377962E+03  0.00000000000E+00 0. -1.
          5    1    1    2  502    0  0.13856361612E+02 -0.17705670441E+02 -0.59862435794E+03  0.59906485579E+03  0.47000000000E+01 0. -1.
         -5    1    1    2    0  502  0.18599286423E+02  0.75568211187E+02 -0.32973058561E+03  0.33882272220E+03  0.47000000000E+01 0.  1.
        -11    1    1    2    0    0  0.26427720127E+02  0.14996323338E+01 -0.12741780505E+00  0.26470540673E+02  0.00000000000E+00 0. -1.
         11    1    1    2    0    0 -0.58883368161E+02 -0.59362173080E+02  0.47824932072E+01  0.83749572418E+02  0.00000000000E+00 0.  1.
<mgrwt>
<rscale>  0 0.12714116E+03</rscale>
<asrwt>0</asrwt>
<pdfrwt beam="2">  1        1 0.15167749E+00 0.13337994E+03</pdfrwt>
<pdfrwt beam="1">  1       -1 0.95698334E-02 0.13337994E+03</pdfrwt>
<totfact> 0.10738196E+03</totfact>
</mgrwt>
</event>
<event>
 6    1  0.5258538E-006  0.1387816E+03  0.7546771E-02  0.1225154E+00
         -2   -1    0    0    0  501 -0.00000000000E+00  0.00000000000E+00  0.20798370878E+02  0.20798370878E+02  0.00000000000E+00 0.  1.
          2   -1    0    0  501    0  0.00000000000E+00 -0.00000000000E+00 -0.79736879670E+03  0.79736879670E+03  0.00000000000E+00 0. -1.
          5    1    1    2  502    0  0.46490464964E+02  0.18932684815E+01 -0.55816379735E+02  0.72818308445E+02  0.47000000000E+01 0. -1.
         -5    1    1    2    0  502  0.52364525047E+01 -0.32805278450E+02 -0.46380279654E+03  0.46501476408E+03  0.47000000000E+01 0. -1.
        -11    1    1    2    0    0 -0.10768015802E+02 -0.90981403594E+01  0.27782562660E+01  0.14368195092E+02  0.00000000000E+00 0.  1.
         11    1    1    2    0    0 -0.40958901666E+02  0.40010150328E+02 -0.25972950581E+03  0.26596589996E+03  0.00000000000E+00 0. -1.
<mgrwt>
<rscale>  0 0.13156387E+03</rscale>
<asrwt>0</asrwt>
<pdfrwt beam="2">  1        2 0.12267212E+00 0.13878157E+03</pdfrwt>
<pdfrwt beam="1">  1       -2 0.31997493E-02 0.13878157E+03</pdfrwt>
<totfact> 0.13110433E+04</totfact>
</mgrwt>
</event>
<event>
 6    1  0.5258538E-006  0.1918979E+03  0.7546771E-02  0.1161956E+00
          1   -1    0    0  501    0  0.00000000000E+00  0.00000000000E+00  0.47120394002E+03  0.47120394002E+03  0.00000000000E+00 0. -1.
         -1   -1    0    0    0  501 -0.00000000000E+00 -0.00000000000E+00 -0.69724811479E+02  0.69724811479E+02  0.00000000000E+00 0.  1.
          5    1    1    2  502    0  0.74085629329E+02  0.58653791628E+02  0.22250114245E+03  0.24178047096E+03  0.47000000000E+01 0. -1.
         -5    1    1    2    0  502  0.55499378632E+02  0.77361537735E+01  0.59102359787E+01  0.56542461859E+02  0.47000000000E+01 0. -1.
        -11    1    1    2    0    0 -0.11329668373E+03 -0.46358860454E+02  0.17828559135E+03  0.21626611979E+03  0.00000000000E+00 0. -1.
         11    1    1    2    0    0 -0.16288324227E+02 -0.20031084948E+02 -0.52178412384E+01  0.26339698888E+02  0.00000000000E+00 0.  1.
<mgrwt>
<rscale>  0 0.18617638E+03</rscale>
<asrwt>0</asrwt>
<pdfrwt beam="1">  1        1 0.72492912E-01 0.19189793E+03</pdfrwt>
<pdfrwt beam="2">  1       -1 0.10726894E-01 0.19189793E+03</pdfrwt>
<totfact> 0.26366883E+03</totfact>
</mgrwt>
</event>
<event>
 6    1  0.5258538E-006  0.1641303E+03  0.7546771E-02  0.1191274E+00
         -1   -1    0    0    0  501 -0.00000000000E+00  0.00000000000E+00  0.64746906014E+02  0.64746906014E+02  0.00000000000E+00 0.  1.
          1   -1    0    0  501    0  0.00000000000E+00 -0.00000000000E+00 -0.36094384894E+03  0.36094384894E+03  0.00000000000E+00 0. -1.
          5    1    1    2  502    0  0.52010865312E+02 -0.39651572084E+02 -0.18951858448E+03  0.20054117069E+03  0.47000000000E+01 0.  1.
         -5    1    1    2    0  502  0.21268429871E+02 -0.37438981997E+02  0.81425671362E+01  0.44072836098E+02  0.47000000000E+01 0.  1.
        -11    1    1    2    0    0 -0.21397591668E+02  0.84666918926E+02 -0.66385491328E+02  0.10969675268E+03  0.00000000000E+00 0.  1.
         11    1    1    2    0    0 -0.51881703515E+02 -0.75763648448E+01 -0.48435434256E+02  0.71379995485E+02  0.00000000000E+00 0. -1.
<mgrwt>
<rscale>  0 0.15773834E+03</rscale>
<asrwt>0</asrwt>
<pdfrwt beam="2">  1        1 0.55529824E-01 0.16413029E+03</pdfrwt>
<pdfrwt beam="1">  1       -1 0.99610623E-02 0.16413029E+03</pdfrwt>
<totfact> 0.41298977E+03</totfact>
</mgrwt>
</event>
<event>
 6    1  0.5258538E-006  0.1312152E+03  0.7546771E-02  0.1239817E+00
         -1   -1    0    0    0  501 -0.00000000000E+00  0.00000000000E+00  0.63098274382E+02  0.63098274382E+02  0.00000000000E+00 0.  1.
          1   -1    0    0  501    0  0.00000000000E+00 -0.00000000000E+00 -0.27178241800E+03  0.27178241800E+03  0.00000000000E+00 0. -1.
          5    1    1    2  502    0  0.17651076194E+02 -0.33754973267E+02 -0.14370447269E+03  0.14874146759E+03  0.47000000000E+01 0.  1.
         -5    1    1    2    0  502 -0.44000678280E-01  0.69569741644E+02 -0.52443240381E+02  0.87248692541E+02  0.47000000000E+01 0.  1.
        -11    1    1    2    0    0  0.51348092964E+01 -0.36469239605E+02 -0.45687605082E+02  0.58683293721E+02  0.00000000000E+00 0. -1.
         11    1    1    2    0    0 -0.22741884813E+02  0.65447122810E+00  0.33151174530E+02  0.40207238529E+02  0.00000000000E+00 0.  1.
<mgrwt>
<rscale>  0 0.12201052E+03</rscale>
<asrwt>0</asrwt>
<pdfrwt beam="2">  1        1 0.41812680E-01 0.13121521E+03</pdfrwt>
<pdfrwt beam="1">  1       -1 0.97074269E-02 0.13121521E+03</pdfrwt>
<totfact> 0.60389970E+03</totfact>
</mgrwt>
</event>
<event>
 6    1  0.5258538E-006  0.1255919E+03  0.7546771E-02  0.1249842E+00
         -1   -1    0    0    0  501 -0.00000000000E+00  0.00000000000E+00  0.28303664453E+02  0.28303664453E+02  0.00000000000E+00 0.  1.
          1   -1    0    0  501    0  0.00000000000E+00 -0.00000000000E+00 -0.45320887203E+03  0.45320887203E+03  0.00000000000E+00 0. -1.
          5    1    1    2  502    0 -0.42358181799E+02 -0.19345768878E+02 -0.23495541574E+03  0.23957172564E+03  0.47000000000E+01 0.  1.
         -5    1    1    2    0  502  0.54329934324E+02  0.20924815311E+02 -0.76477214554E+02  0.96231200790E+02  0.47000000000E+01 0.  1.
        -11    1    1    2    0    0 -0.22925560655E+02 -0.31273989753E+02 -0.13843533585E+02  0.41173865358E+02  0.00000000000E+00 0.  1.
         11    1    1    2    0    0  0.10953808130E+02  0.29694943320E+02 -0.99629043691E+02  0.10453574469E+03  0.00000000000E+00 0. -1.
<mgrwt>
<rscale>  0 0.11600220E+03</rscale>
<asrwt>0</asrwt>
<pdfrwt beam="2">  1        1 0.69724442E-01 0.12559189E+03</pdfrwt>
<pdfrwt beam="1">  1       -1 0.43544099E-02 0.12559189E+03</pdfrwt>
<totfact> 0.10528071E+04</totfact>
</mgrwt>
</event>
<event>
 6    1  0.5258538E-006  0.1168497E+03  0.7546771E-02  0.1256143E+00
          1   -1    0    0  501    0  0.00000000000E+00  0.00000000000E+00  0.13889539438E+03  0.13889539438E+03  0.00000000000E+00 0. -1.
         -1   -1    0    0    0  501 -0.00000000000E+00 -0.00000000000E+00 -0.10290478183E+03  0.10290478183E+03  0.00000000000E+00 0.  1.
          5    1    1    2  502    0 -0.17322627691E+02 -0.68380591030E+02  0.55269144962E+02  0.89737099600E+02  0.47000000000E+01 0. -1.
         -5    1    1    2    0  502  0.28817986116E+02  0.32966660400E+02  0.14535230521E+02  0.46374992701E+02  0.47000000000E+01 0.  1.
        -11    1    1    2    0    0 -0.39437384878E+02  0.31239126604E+02 -0.51788376934E+02  0.72202675453E+02  0.00000000000E+00 0.  1.
         11    1    1    2    0    0  0.27942026454E+02  0.41748040258E+01  0.17974613998E+02  0.33485408454E+02  0.00000000000E+00 0. -1.
<mgrwt>
<rscale>  0 0.11242552E+03</rscale>
<asrwt>0</asrwt>
<pdfrwt beam="1">  1        1 0.21368522E-01 0.11684969E+03</pdfrwt>
<pdfrwt beam="2">  1       -1 0.15831505E-01 0.11684969E+03</pdfrwt>
<totfact> 0.64872776E+03</totfact>
</mgrwt>
</event>
<event>
 6    1  0.5258538E-006  0.1300647E+03  0.7546771E-02  0.1240382E+00
         -2   -1    0    0    0  501 -0.00000000000E+00  0.00000000000E+00  0.30983364131E+02  0.30983364131E+02  0.00000000000E+00 0.  1.
          2   -1    0    0  501    0  0.00000000000E+00 -0.00000000000E+00 -0.44479525781E+03  0.44479525781E+03  0.00000000000E+00 0. -1.
          5    1    1    2  502    0  0.28133414098E+02  0.39463049237E+02 -0.36345143410E+02  0.60760848360E+02  0.47000000000E+01 0.  1.
         -5    1    1    2    0  502  0.74947972714E+01 -0.44239449237E+02 -0.24598785144E+03  0.25009081133E+03  0.47000000000E+01 0.  1.
        -11    1    1    2    0    0 -0.18301722244E+02 -0.13425150631E+02 -0.13727387051E+03  0.13913771319E+03  0.00000000000E+00 0. -1.
         11    1    1    2    0    0 -0.17326489126E+02  0.18201550631E+02  0.57949716771E+01  0.25789249069E+02  0.00000000000E+00 0.  1.
<mgrwt>
<rscale>  0 0.12166114E+03</rscale>
<asrwt>0</asrwt>
<pdfrwt beam="2">  1        2 0.68430034E-01 0.13006473E+03</pdfrwt>
<pdfrwt beam="1">  1       -2 0.47666718E-02 0.13006473E+03</pdfrwt>
<totfact> 0.14078923E+04</totfact>
</mgrwt>
</event>
<event>
 6    1  0.5258538E-006  0.1374763E+03  0.7546771E-02  0.1227638E+00
          1   -1    0    0  501    0  0.00000000000E+00  0.00000000000E+00  0.11739964221E+03  0.11739964221E+03  0.00000000000E+00 0. -1.
         -1   -1    0    0    0  501 -0.00000000000E+00 -0.00000000000E+00 -0.13280505318E+03  0.13280505318E+03  0.00000000000E+00 0.  1.
          5    1    1    2  502    0 -0.41981853246E+02  0.17121401075E+02 -0.20479462999E+02  0.49971159497E+02  0.47000000000E+01 0. -1.
         -5    1    1    2    0  502  0.35999755280E+02 -0.74041566059E+02  0.30305466703E+02  0.87855831889E+02  0.47000000000E+01 0. -1.
        -11    1    1    2    0    0 -0.18190148216E+02 -0.80549138091E+01  0.21096543958E+02  0.28997022184E+02  0.00000000000E+00 0. -1.
         11    1    1    2    0    0  0.24172246181E+02  0.64975078793E+02 -0.46327958628E+02  0.83380681817E+02  0.00000000000E+00 0.  1.
<mgrwt>
<rscale>  0 0.12987718E+03</rscale>
<asrwt>0</asrwt>
<pdfrwt beam="1">  1        1 0.18061483E-01 0.13747629E+03</pdfrwt>
<pdfrwt beam="2">  1       -1 0.20431547E-01 0.13747629E+03</pdfrwt>
<totfact> 0.54172939E+03</totfact>
</mgrwt>
</event>
<event>
 6    1  0.5258538E-006  0.1305368E+03  0.7546771E-02  0.1240062E+00
          3   -1    0    0  501    0  0.00000000000E+00  0.00000000000E+00  0.92654690021E+02  0.92654690021E+02  0.00000000000E+00 0. -1.
         -3   -1    0    0    0  501 -0.00000000000E+00 -0.00000000000E+00 -0.14408806509E+03  0.14408806509E+03  0.00000000000E+00 0.  1.
          5    1    1    2  502    0  0.20905502570E+02  0.40709696661E+02 -0.18070011397E+02  0.49426053371E+02  0.47000000000E+01 0.  1.
         -5    1    1    2    0  502 -0.49136702360E+02 -0.65596943310E+02  0.18468497014E+01  0.82115012904E+02  0.47000000000E+01 0.  1.
        -11    1    1    2    0    0  0.13317052859E+02  0.30810682230E+02  0.25660962783E+02  0.42250763866E+02  0.00000000000E+00 0. -1.
         11    1    1    2    0    0  0.14914146931E+02 -0.59234355809E+01 -0.60871176158E+02  0.62950924971E+02  0.00000000000E+00 0.  1.
<mgrwt>
<rscale>  0 0.12185852E+03</rscale>
<asrwt>0</asrwt>
<pdfrwt beam="1">  1        3 0.14254568E-01 0.13053682E+03</pdfrwt>
<pdfrwt beam="2">  1       -3 0.22167395E-01 0.13053682E+03</pdfrwt>
<totfact> 0.17252648E+03</totfact>
</mgrwt>
</event>
<event>
 6    1  0.5258538E-006  0.1381455E+03  0.7546771E-02  0.1227777E+00
          2   -1    0    0  501    0  0.00000000000E+00  0.00000000000E+00  0.40741733586E+03  0.40741733586E+03  0.00000000000E+00 0. -1.
         -2   -1    0    0    0  501 -0.00000000000E+00 -0.00000000000E+00 -0.57095492106E+02  0.57095492106E+02  0.00000000000E+00 0.  1.
          5    1    1    2  502    0  0.40283237058E+01  0.23537524982E+02  0.30467184405E+03  0.30564238095E+03  0.47000000000E+01 0.  1.
         -5    1    1    2    0  502 -0.33648714809E+02  0.27264723576E+02  0.21502080758E+02  0.48580146530E+02  0.47000000000E+01 0.  1.
        -11    1    1    2    0    0  0.29273117879E+02 -0.76205866078E+02  0.13501670725E+02  0.82743849121E+02  0.00000000000E+00 0.  1.
         11    1    1    2    0    0  0.34727322399E+00  0.25403617520E+02  0.10646248220E+02  0.27546451368E+02  0.00000000000E+00 0. -1.
<mgrwt>
<rscale>  0 0.12978363E+03</rscale>
<asrwt>0</asrwt>
<pdfrwt beam="1">  1        2 0.62679588E-01 0.13814547E+03</pdfrwt>
<pdfrwt beam="2">  1       -2 0.87839221E-02 0.13814547E+03</pdfrwt>
<totfact> 0.61214602E+03</totfact>
</mgrwt>
</event>
<event>
 6    1  0.5258538E-006  0.3148300E+03  0.7546771E-02  0.1078054E+00
          2   -1    0    0  501    0  0.00000000000E+00  0.00000000000E+00  0.15480818191E+04  0.15480818191E+04  0.00000000000E+00 0. -1.
         -2   -1    0    0    0  501 -0.00000000000E+00 -0.00000000000E+00 -0.16006572212E+02  0.16006572212E+02  0.00000000000E+00 0.  1.
          5    1    1    2  502    0  0.11778506437E+02  0.28346311207E+02  0.10113658568E+03  0.10579671799E+03  0.47000000000E+01 0.  1.
         -5    1    1    2    0  502 -0.11613760082E+03 -0.43591761774E+02  0.92526489382E+03  0.93355524623E+03  0.47000000000E+01 0.  1.
        -11    1    1    2    0    0  0.24051329402E+02  0.44902418515E+02  0.13461738430E+03  0.14393239313E+03  0.00000000000E+00 0.  1.
         11    1    1    2    0    0  0.80307764985E+02 -0.29656967947E+02  0.37105638306E+03  0.38080403396E+03  0.00000000000E+00 0. -1.
<mgrwt>
<rscale>  0 0.31483001E+03</rscale>
<asrwt>0</asrwt>
<pdfrwt beam="1">  1        2 0.23816632E+00 0.31483001E+03</pdfrwt>
<pdfrwt beam="2">  1       -2 0.24625508E-02 0.31483001E+03</pdfrwt>
<totfact> 0.73239164E+03</totfact>
</mgrwt>
</event>
<event>
 6    1  0.5258538E-006  0.3383664E+03  0.7546771E-02  0.1067494E+00
          2   -1    0    0  501    0  0.00000000000E+00  0.00000000000E+00  0.27176966394E+03  0.27176966394E+03  0.00000000000E+00 0. -1.
         -2   -1    0    0    0  501 -0.00000000000E+00 -0.00000000000E+00 -0.10532063642E+03  0.10532063642E+03  0.00000000000E+00 0.  1.
          5    1    1    2  502    0  0.13140295590E+03  0.76537686790E+02  0.86372697643E+02  0.17494881313E+03  0.47000000000E+01 0. -1.
         -5    1    1    2    0  502 -0.19391928146E+02 -0.12785371041E+02 -0.13191566303E+01  0.23734842828E+02  0.47000000000E+01 0. -1.
        -11    1    1    2    0    0 -0.27148931506E+02 -0.13114235146E+02 -0.20501379372E+02  0.36460309949E+02  0.00000000000E+00 0.  1.
         11    1    1    2    0    0 -0.84862096248E+02 -0.50638080603E+02  0.10189686588E+03  0.14194633445E+03  0.00000000000E+00 0. -1.
<mgrwt>
<rscale>  0 0.33836639E+03</rscale>
<asrwt>0</asrwt>
<pdfrwt beam="1">  1        2 0.41810717E-01 0.33836639E+03</pdfrwt>
<pdfrwt beam="2">  1       -2 0.16203175E-01 0.33836639E+03</pdfrwt>
<totfact> 0.36722318E+03</totfact>
</mgrwt>
</event>
<event>
 6    1  0.5258538E-006  0.1330656E+03  0.7546771E-02  0.1236910E+00
         -1   -1    0    0    0  501 -0.00000000000E+00  0.00000000000E+00  0.36847916835E+02  0.36847916835E+02  0.00000000000E+00 0.  1.
          1   -1    0    0  501    0  0.00000000000E+00 -0.00000000000E+00 -0.46527913669E+03  0.46527913669E+03  0.00000000000E+00 0. -1.
          5    1    1    2  502    0  0.35724457252E+02  0.48446553227E+02 -0.33767336924E+03  0.34302871550E+03  0.47000000000E+01 0. -1.
         -5    1    1    2    0  502 -0.58384282252E+01 -0.29294498389E+02 -0.14679452051E+02  0.33612961674E+02  0.47000000000E+01 0.  1.
        -11    1    1    2    0    0 -0.44138546971E+02 -0.36990875623E+02 -0.13894354128E+02  0.59241786643E+02  0.00000000000E+00 0.  1.
         11    1    1    2    0    0  0.14252517944E+02  0.17838820784E+02 -0.62184044442E+02  0.66243589711E+02  0.00000000000E+00 0. -1.
<mgrwt>
<rscale>  0 0.12382956E+03</rscale>
<asrwt>0</asrwt>
<pdfrwt beam="2">  1        1 0.71581408E-01 0.13306556E+03</pdfrwt>
<pdfrwt beam="1">  1       -1 0.56689101E-02 0.13306556E+03</pdfrwt>
<totfact> 0.69215615E+03</totfact>
</mgrwt>
</event>
<event>
 6    1  0.5258538E-006  0.1497063E+03  0.7546771E-02  0.1209996E+00
         -1   -1    0    0    0  501 -0.00000000000E+00  0.00000000000E+00  0.35140176709E+02  0.35140176709E+02  0.00000000000E+00 0.  1.
          1   -1    0    0  501    0  0.00000000000E+00 -0.00000000000E+00 -0.80241657737E+03  0.80241657737E+03  0.00000000000E+00 0. -1.
          5    1    1    2  502    0 -0.19054894333E+02  0.76926464010E+02 -0.18869186126E+03  0.20471316120E+03  0.47000000000E+01 0.  1.
         -5    1    1    2    0  502 -0.27681797207E+02 -0.90908589290E+01 -0.46356543186E+03  0.46450395610E+03  0.47000000000E+01 0.  1.
        -11    1    1    2    0    0  0.16116132861E+02 -0.52539785046E+02 -0.12163867164E+03  0.13347705866E+03  0.00000000000E+00 0. -1.
         11    1    1    2    0    0  0.30620558679E+02 -0.15295820035E+02  0.66195640976E+01  0.34862578120E+02  0.00000000000E+00 0.  1.
<mgrwt>
<rscale>  0 0.14250625E+03</rscale>
<asrwt>0</asrwt>
<pdfrwt beam="2">  1        1 0.12344871E+00 0.14970629E+03</pdfrwt>
<pdfrwt beam="1">  1       -1 0.54061809E-02 0.14970629E+03</pdfrwt>
<totfact> 0.35205362E+03</totfact>
</mgrwt>
</event>
<event>
 6    1  0.5258538E-006  0.3145293E+03  0.7546771E-02  0.1079521E+00
          2   -1    0    0  501    0  0.00000000000E+00  0.00000000000E+00  0.11516494383E+04  0.11516494383E+04  0.00000000000E+00 0. -1.
         -2   -1    0    0    0  501 -0.00000000000E+00 -0.00000000000E+00 -0.10098932990E+03  0.10098932990E+03  0.00000000000E+00 0.  1.
          5    1    1    2  502    0  0.11724214400E+03  0.51810485687E+01  0.21356349190E+03  0.24372939639E+03  0.47000000000E+01 0.  1.
         -5    1    1    2    0  502  0.15043521134E+03 -0.11313602007E+03  0.58447333594E+03  0.61405348486E+03  0.47000000000E+01 0.  1.
        -11    1    1    2    0    0 -0.12784234435E+03  0.11167014774E+02  0.73618599918E+02  0.14794615737E+03  0.00000000000E+00 0. -1.
         11    1    1    2    0    0 -0.13983501099E+03  0.96787956731E+02  0.17900468063E+03  0.24690972956E+03  0.00000000000E+00 0.  1.
<mgrwt>
<rscale>  0 0.31172668E+03</rscale>
<asrwt>0</asrwt>
<pdfrwt beam="1">  1        2 0.17717683E+00 0.31452932E+03</pdfrwt>
<pdfrwt beam="2">  1       -2 0.15536821E-01 0.31452932E+03</pdfrwt>
<totfact> 0.68792728E+02</totfact>
</mgrwt>
</event>
<event>
 6    1  0.6056450E-006  0.2040681E+03  0.7546771E-02  0.1150576E+00
         -1   -1    0    0    0  501 -0.00000000000E+00  0.00000000000E+00  0.14845822437E+03  0.14845822437E+03  0.00000000000E+00 0.  1.
          1   -1    0    0  501    0  0.00000000000E+00 -0.00000000000E+00 -0.26200345937E+03  0.26200345937E+03  0.00000000000E+00 0. -1.
          5    1    1    2  502    0  0.58755283135E+02  0.83689361299E+01  0.44049355982E+01  0.59696866298E+02  0.47000000000E+01 0.  1.
         -5    1    1    2    0  502  0.24168015135E+02  0.12998517030E+03 -0.98958685962E+02  0.16521243592E+03  0.47000000000E+01 0.  1.
        -11    1    1    2    0    0 -0.48134106174E+02 -0.13393316261E+03  0.60692027236E+01  0.14244935748E+03  0.00000000000E+00 0.  1.
         11    1    1    2    0    0 -0.34789192096E+02 -0.44209438250E+01 -0.25060687358E+02  0.43103024045E+02  0.00000000000E+00 0. -1.
<mgrwt>
<rscale>  0 0.19901062E+03</rscale>
<asrwt>0</asrwt>
<pdfrwt beam="2">  1        1 0.40308224E-01 0.20406808E+03</pdfrwt>
<pdfrwt beam="1">  1       -1 0.22839727E-01 0.20406808E+03</pdfrwt>
<totfact> 0.16719470E+03</totfact>
</mgrwt>
</event>
<event>
 6    1  0.5258538E-006  0.1285116E+03  0.7546771E-02  0.1243198E+00
         -1   -1    0    0    0  501 -0.00000000000E+00  0.00000000000E+00  0.31451911220E+02  0.31451911220E+02  0.00000000000E+00 0.  1.
          1   -1    0    0  501    0  0.00000000000E+00 -0.00000000000E+00 -0.55626125218E+03  0.55626125218E+03  0.00000000000E+00 0. -1.
          5    1    1    2  502    0 -0.32772440295E+02 -0.54715140422E+02 -0.27634865169E+03  0.28365198170E+03  0.47000000000E+01 0. -1.
         -5    1    1    2    0  502  0.52032113249E+02  0.31978640837E+02 -0.16399660624E+03  0.17506270630E+03  0.47000000000E+01 0. -1.
        -11    1    1    2    0    0  0.37161557746E+02  0.17338360445E+01 -0.29507197396E+02  0.47483284003E+02  0.00000000000E+00 0. -1.
         11    1    1    2    0    0 -0.56421230700E+02  0.21002663541E+02 -0.54956885642E+02  0.81515191400E+02  0.00000000000E+00 0.  1.
<mgrwt>
<rscale>  0 0.11993855E+03</rscale>
<asrwt>0</asrwt>
<pdfrwt beam="2">  1        1 0.85578647E-01 0.12851155E+03</pdfrwt>
<pdfrwt beam="1">  1       -1 0.48387560E-02 0.12851155E+03</pdfrwt>
<totfact> 0.69126033E+03</totfact>
</mgrwt>
</event>
<event>
 6    1  0.5258538E-006  0.1338144E+03  0.7546771E-02  0.1236715E+00
         -2   -1    0    0    0  501 -0.00000000000E+00  0.00000000000E+00  0.27341191001E+03  0.27341191001E+03  0.00000000000E+00 0.  1.
          2   -1    0    0  501    0  0.00000000000E+00 -0.00000000000E+00 -0.10700861842E+03  0.10700861842E+03  0.00000000000E+00 0. -1.
          5    1    1    2  502    0  0.46576449685E+02  0.69843383304E+02 -0.29221396354E+02  0.89013728500E+02  0.47000000000E+01 0. -1.
         -5    1    1    2    0  502 -0.16744652603E+02 -0.46527345921E+02 -0.20617121603E+02  0.53780414767E+02  0.47000000000E+01 0.  1.
        -11    1    1    2    0    0  0.64382737248E+01 -0.11145835482E+02 -0.44681912380E+01  0.13625188075E+02  0.00000000000E+00 0. -1.
         11    1    1    2    0    0 -0.36270070807E+02 -0.12170201901E+02  0.22071000078E+03  0.22400119709E+03  0.00000000000E+00 0.  1.
<mgrwt>
<rscale>  0 0.12395267E+03</rscale>
<asrwt>0</asrwt>
<pdfrwt beam="2">  1        2 0.16462864E-01 0.13381438E+03</pdfrwt>
<pdfrwt beam="1">  1       -2 0.42063371E-01 0.13381438E+03</pdfrwt>
<totfact> 0.18301377E+03</totfact>
</mgrwt>
</event>
<event>
 6    1  0.5258538E-006  0.3850325E+03  0.7546771E-02  0.1049089E+00
          2   -1    0    0  501    0  0.00000000000E+00  0.00000000000E+00  0.78001292029E+03  0.78001292029E+03  0.00000000000E+00 0. -1.
         -2   -1    0    0    0  501 -0.00000000000E+00 -0.00000000000E+00 -0.47515243372E+02  0.47515243372E+02  0.00000000000E+00 0.  1.
          5    1    1    2  502    0 -0.15920072699E+03  0.14627992381E+02  0.28745750619E+03  0.32895707547E+03  0.47000000000E+01 0. -1.
         -5    1    1    2    0  502  0.35599376476E+01 -0.16776630774E+02  0.16018847882E+03  0.16117247669E+03  0.47000000000E+01 0. -1.
        -11    1    1    2    0    0  0.27500590738E+02 -0.20197253937E+02  0.13369578486E+03  0.13798106554E+03  0.00000000000E+00 0. -1.
         11    1    1    2    0    0  0.12814019861E+03  0.22345892331E+02  0.15115590705E+03  0.19941754597E+03  0.00000000000E+00 0.  1.
<mgrwt>
<rscale>  0 0.38503249E+03</rscale>
<asrwt>0</asrwt>
<pdfrwt beam="1">  1        2 0.12000198E+00 0.38503249E+03</pdfrwt>
<pdfrwt beam="2">  1       -2 0.73100380E-02 0.38503249E+03</pdfrwt>
<totfact> 0.40111719E+03</totfact>
</mgrwt>
</event>
<event>
 6    1  0.5258538E-006  0.2384049E+03  0.7546771E-02  0.1123894E+00
         -2   -1    0    0    0  501 -0.00000000000E+00  0.00000000000E+00  0.46988658872E+02  0.46988658872E+02  0.00000000000E+00 0.  1.
          2   -1    0    0  501    0  0.00000000000E+00 -0.00000000000E+00 -0.11326086935E+04  0.11326086935E+04  0.00000000000E+00 0. -1.
          5    1    1    2  502    0  0.14150725202E+03 -0.19572659128E+02 -0.55374526622E+03  0.57189448435E+03  0.47000000000E+01 0.  1.
         -5    1    1    2    0  502  0.55109964092E+02 -0.30957943806E+02 -0.63186691621E+02  0.89499443713E+02  0.47000000000E+01 0.  1.
        -11    1    1    2    0    0 -0.99856112998E+02  0.59635206581E+02 -0.32085130732E+03  0.34128164700E+03  0.00000000000E+00 0. -1.
         11    1    1    2    0    0 -0.96761103110E+02 -0.91046036461E+01 -0.14783676943E+03  0.17692177728E+03  0.00000000000E+00 0.  1.
<mgrwt>
<rscale>  0 0.23394432E+03</rscale>
<asrwt>0</asrwt>
<pdfrwt beam="2">  1        2 0.17424749E+00 0.23840488E+03</pdfrwt>
<pdfrwt beam="1">  1       -2 0.72290245E-02 0.23840488E+03</pdfrwt>
<totfact> 0.24184129E+03</totfact>
</mgrwt>
</event>
<event>
 6    1  0.5258538E-006  0.1279043E+03  0.7546771E-02  0.1245294E+00
         -1   -1    0    0    0  501 -0.00000000000E+00  0.00000000000E+00  0.32204124421E+02  0.32204124421E+02  0.00000000000E+00 0.  1.
          1   -1    0    0  501    0  0.00000000000E+00 -0.00000000000E+00 -0.39775117157E+03  0.39775117157E+03  0.00000000000E+00 0. -1.
          5    1    1    2  502    0 -0.20092821528E+02  0.45341173232E+02 -0.74078330879E+02  0.89270558264E+02  0.47000000000E+01 0.  1.
         -5    1    1    2    0  502  0.38115155988E+02 -0.65562587347E+02 -0.17301496031E+03  0.18896424124E+03  0.47000000000E+01 0.  1.
        -11    1    1    2    0    0  0.19208086387E+02  0.27300419600E+02 -0.71444654355E+01  0.34136591501E+02  0.00000000000E+00 0.  1.
         11    1    1    2    0    0 -0.37230420847E+02 -0.70790054850E+01 -0.11130929052E+03  0.11758390499E+03  0.00000000000E+00 0. -1.
<mgrwt>
<rscale>  0 0.11867811E+03</rscale>
<asrwt>0</asrwt>
<pdfrwt beam="2">  1        1 0.61192490E-01 0.12790430E+03</pdfrwt>
<pdfrwt beam="1">  1       -1 0.49544805E-02 0.12790430E+03</pdfrwt>
<totfact> 0.10284686E+04</totfact>
</mgrwt>
</event>
<event>
 6    1  0.5258538E-006  0.3235900E+03  0.7546771E-02  0.1074009E+00
         -1   -1    0    0    0  501 -0.00000000000E+00  0.00000000000E+00  0.99842919672E+02  0.99842919672E+02  0.00000000000E+00 0.  1.
          1   -1    0    0  501    0  0.00000000000E+00 -0.00000000000E+00 -0.26218812062E+03  0.26218812062E+03  0.00000000000E+00 0. -1.
          5    1    1    2  502    0  0.51249716487E+02 -0.11182539851E+03 -0.71734524337E+02  0.14247591085E+03  0.47000000000E+01 0. -1.
         -5    1    1    2    0  502  0.33364902894E+02  0.32623478366E+02 -0.53381104272E+01  0.47202685397E+02  0.47000000000E+01 0.  1.
        -11    1    1    2    0    0 -0.20304516730E+02  0.47869767912E+02  0.10263861348E+02  0.53001272903E+02  0.00000000000E+00 0.  1.
         11    1    1    2    0    0 -0.64310102651E+02  0.31332152233E+02 -0.95536427531E+02  0.11935117114E+03  0.00000000000E+00 0. -1.
<mgrwt>
<rscale>  0 0.32359003E+03</rscale>
<asrwt>0</asrwt>
<pdfrwt beam="2">  1        1 0.40336634E-01 0.32359003E+03</pdfrwt>
<pdfrwt beam="1">  1       -1 0.15360449E-01 0.32359003E+03</pdfrwt>
<totfact> 0.32189448E+03</totfact>
</mgrwt>
</event>
<event>
 6    1  0.5258538E-006  0.1989114E+03  0.7546771E-02  0.1154814E+00
         -2   -1    0    0    0  501 -0.00000000000E+00  0.00000000000E+00  0.22681490717E+03  0.22681490717E+03  0.00000000000E+00 0.  1.
          2   -1    0    0  501    0  0.00000000000E+00 -0.00000000000E+00 -0.17087622110E+03  0.17087622110E+03  0.00000000000E+00 0. -1.
          5    1    1    2  502    0 -0.14122022126E+03  0.98908122654E+02 -0.26209894818E+02  0.17445634470E+03  0.47000000000E+01 0.  1.
         -5    1    1    2    0  502  0.53870911533E+01 -0.24817304665E+02  0.20956312898E+01  0.25911407381E+02  0.47000000000E+01 0.  1.
        -11    1    1    2    0    0  0.12726788096E+03 -0.40137417156E+02  0.30908847585E+02  0.13697986217E+03  0.00000000000E+00 0. -1.
         11    1    1    2    0    0  0.85652491431E+01 -0.33953400833E+02  0.49144102021E+02  0.60343514021E+02  0.00000000000E+00 0.  1.
<mgrwt>
<rscale>  0 0.19410064E+03</rscale>
<asrwt>0</asrwt>
<pdfrwt beam="2">  1        2 0.26288649E-01 0.19891138E+03</pdfrwt>
<pdfrwt beam="1">  1       -2 0.34894601E-01 0.19891138E+03</pdfrwt>
<totfact> 0.15546089E+03</totfact>
</mgrwt>
</event>
<event>
 6    1  0.5258538E-006  0.1258486E+03  0.7546771E-02  0.1248657E+00
          3   -1    0    0  501    0  0.00000000000E+00  0.00000000000E+00  0.92509542174E+02  0.92509542174E+02  0.00000000000E+00 0. -1.
         -3   -1    0    0    0  501 -0.00000000000E+00 -0.00000000000E+00 -0.13176542436E+03  0.13176542436E+03  0.00000000000E+00 0.  1.
          5    1    1    2  502    0 -0.45924623916E+02  0.40275013032E+02 -0.12410041330E+02  0.62507974550E+02  0.47000000000E+01 0. -1.
         -5    1    1    2    0  502  0.56389755372E+02 -0.30112137286E+02 -0.24765853897E+02  0.68716685326E+02  0.47000000000E+01 0. -1.
        -11    1    1    2    0    0  0.40003108203E+02 -0.74800139711E+01 -0.99668241244E+01  0.41899127175E+02  0.00000000000E+00 0.  1.
         11    1    1    2    0    0 -0.50468239659E+02 -0.26828617742E+01  0.78868371696E+01  0.51151179479E+02  0.00000000000E+00 0. -1.
<mgrwt>
<rscale>  0 0.11669132E+03</rscale>
<asrwt>0</asrwt>
<pdfrwt beam="1">  1        3 0.14232237E-01 0.12584858E+03</pdfrwt>
<pdfrwt beam="2">  1       -3 0.20271604E-01 0.12584858E+03</pdfrwt>
<totfact> 0.20132874E+03</totfact>
</mgrwt>
</event>
<event>
 6    1  0.5258538E-006  0.1765517E+03  0.7546771E-02  0.1177039E+00
         -1   -1    0    0    0  501 -0.00000000000E+00  0.00000000000E+00  0.19284081579E+03  0.19284081579E+03  0.00000000000E+00 0.  1.
          1   -1    0    0  501    0  0.00000000000E+00 -0.00000000000E+00 -0.45369094845E+03  0.45369094845E+03  0.00000000000E+00 0. -1.
          5    1    1    2  502    0 -0.11677229850E+01  0.91701552164E+02 -0.18206897139E+03  0.20391600866E+03  0.47000000000E+01 0.  1.
         -5    1    1    2    0  502  0.83107620542E+02  0.22738347580E+01 -0.21876920801E+03  0.23408140313E+03  0.47000000000E+01 0.  1.
        -11    1    1    2    0    0 -0.57509327091E+02 -0.10666298555E+03  0.13341300383E+03  0.18023136458E+03  0.00000000000E+00 0.  1.
         11    1    1    2    0    0 -0.24430570467E+02  0.12687598627E+02  0.65750429087E+01  0.28302987855E+02  0.00000000000E+00 0. -1.
<mgrwt>
<rscale>  0 0.17077751E+03</rscale>
<asrwt>0</asrwt>
<pdfrwt beam="2">  1        1 0.69798607E-01 0.17655165E+03</pdfrwt>
<pdfrwt beam="1">  1       -1 0.29667818E-01 0.17655165E+03</pdfrwt>
<totfact> 0.53987397E+02</totfact>
</mgrwt>
</event>
<event>
 6    1  0.5258538E-006  0.1335225E+03  0.7546771E-02  0.1230835E+00
          2   -1    0    0  501    0  0.00000000000E+00  0.00000000000E+00  0.27875248475E+03  0.27875248475E+03  0.00000000000E+00 0. -1.
         -2   -1    0    0    0  501 -0.00000000000E+00 -0.00000000000E+00 -0.66216412365E+02  0.66216412365E+02  0.00000000000E+00 0.  1.
          5    1    1    2  502    0  0.32440999011E+02  0.25528717947E+02 -0.30418441747E-01  0.41547861343E+02  0.47000000000E+01 0.  1.
         -5    1    1    2    0  502 -0.10808857073E+02  0.16171867350E+02  0.18775686011E+03  0.18882025634E+03  0.47000000000E+01 0.  1.
        -11    1    1    2    0    0 -0.34404102847E+02 -0.51646294562E+02 -0.21396299373E+02  0.65641325867E+02  0.00000000000E+00 0.  1.
         11    1    1    2    0    0  0.12771960909E+02  0.99457092648E+01  0.46205930083E+02  0.48959453562E+02  0.00000000000E+00 0. -1.
<mgrwt>
<rscale>  0 0.12774882E+03</rscale>
<asrwt>0</asrwt>
<pdfrwt beam="1">  1        2 0.42884997E-01 0.13352248E+03</pdfrwt>
<pdfrwt beam="2">  1       -2 0.10187141E-01 0.13352248E+03</pdfrwt>
<totfact> 0.72502077E+03</totfact>
</mgrwt>
</event>
<event>
 6    1  0.5258538E-006  0.2878464E+03  0.7546771E-02  0.1091479E+00
          1   -1    0    0  501    0  0.00000000000E+00  0.00000000000E+00  0.28396823090E+03  0.28396823090E+03  0.00000000000E+00 0. -1.
         -1   -1    0    0    0  501 -0.00000000000E+00 -0.00000000000E+00 -0.72944372013E+02  0.72944372013E+02  0.00000000000E+00 0.  1.
          5    1    1    2  502    0 -0.22276844876E+02 -0.93797375740E+02  0.17578080779E+03  0.20053724816E+03  0.47000000000E+01 0.  1.
         -5    1    1    2    0  502 -0.37478180533E+01  0.79288629584E+01 -0.17545162420E+02  0.20170169368E+02  0.47000000000E+01 0.  1.
        -11    1    1    2    0    0  0.53746570291E+02  0.33392013335E+02  0.41834085996E+02  0.75853880083E+02  0.00000000000E+00 0. -1.
         11    1    1    2    0    0 -0.27721907362E+02  0.52476499446E+02  0.10954127526E+02  0.60351305303E+02  0.00000000000E+00 0.  1.
<mgrwt>
<rscale>  0 0.28784638E+03</rscale>
<asrwt>0</asrwt>
<pdfrwt beam="1">  1        1 0.43687420E-01 0.28784638E+03</pdfrwt>
<pdfrwt beam="2">  1       -1 0.11222211E-01 0.28784638E+03</pdfrwt>
<totfact> 0.47617363E+03</totfact>
</mgrwt>
</event>
<event>
 6    1  0.5258538E-006  0.1286916E+03  0.7546771E-02  0.1243527E+00
          1   -1    0    0  501    0  0.00000000000E+00  0.00000000000E+00  0.96629399733E+02  0.96629399733E+02  0.00000000000E+00 0. -1.
         -1   -1    0    0    0  501 -0.00000000000E+00 -0.00000000000E+00 -0.13427686457E+03  0.13427686457E+03  0.00000000000E+00 0.  1.
          5    1    1    2  502    0  0.33134604009E+02 -0.50276924228E+02 -0.16025511247E+02  0.62486623396E+02  0.47000000000E+01 0.  1.
         -5    1    1    2    0  502 -0.57029293394E+02  0.31178581224E+02  0.12032123897E+02  0.66266931705E+02  0.47000000000E+01 0.  1.
        -11    1    1    2    0    0  0.29200877029E+02 -0.16337024056E+02 -0.52048881682E+02  0.61876293188E+02  0.00000000000E+00 0.  1.
         11    1    1    2    0    0 -0.53061876443E+01  0.35435367060E+02  0.18394804193E+02  0.40276416018E+02  0.00000000000E+00 0. -1.
<mgrwt>
<rscale>  0 0.11973968E+03</rscale>
<asrwt>0</asrwt>
<pdfrwt beam="1">  1        1 0.14866062E-01 0.12869161E+03</pdfrwt>
<pdfrwt beam="2">  1       -1 0.20657979E-01 0.12869161E+03</pdfrwt>
<totfact> 0.68059791E+03</totfact>
</mgrwt>
</event>
<event>
 6    1  0.5258538E-006  0.1394648E+03  0.7546771E-02  0.1225491E+00
          2   -1    0    0  501    0  0.00000000000E+00  0.00000000000E+00  0.12403413560E+04  0.12403413560E+04  0.00000000000E+00 0. -1.
         -2   -1    0    0    0  501 -0.00000000000E+00 -0.00000000000E+00 -0.23483682061E+02  0.23483682061E+02  0.00000000000E+00 0.  1.
          5    1    1    2  502    0  0.69090034284E+02 -0.65545115552E+02  0.85730687930E+03  0.86259305023E+03  0.47000000000E+01 0.  1.
         -5    1    1    2    0  502 -0.38508022146E+02  0.11792024306E+02  0.22018359175E+03  0.22388573801E+03  0.47000000000E+01 0.  1.
        -11    1    1    2    0    0 -0.47797907116E+02 -0.44602341635E+01  0.50038053361E+02  0.69342197813E+02  0.00000000000E+00 0. -1.
         11    1    1    2    0    0  0.17215894978E+02  0.58213325409E+02  0.89329149522E+02  0.10800405200E+03  0.00000000000E+00 0.  1.
<mgrwt>
<rscale>  0 0.13133331E+03</rscale>
<asrwt>0</asrwt>
<pdfrwt beam="1">  1        2 0.19082170E+00 0.13946484E+03</pdfrwt>
<pdfrwt beam="2">  1       -2 0.36128751E-02 0.13946484E+03</pdfrwt>
<totfact> 0.59483519E+03</totfact>
</mgrwt>
</event>
<event>
 6    1  0.5258538E-006  0.1264723E+03  0.7546771E-02  0.1259397E+00
          1   -1    0    0  501    0  0.00000000000E+00  0.00000000000E+00  0.35811675897E+03  0.35811675897E+03  0.00000000000E+00 0. -1.
         -1   -1    0    0    0  501 -0.00000000000E+00 -0.00000000000E+00 -0.29896818879E+02  0.29896818879E+02  0.00000000000E+00 0.  1.
          5    1    1    2  502    0 -0.86222170276E+01  0.37726694667E+00 -0.13208054731E+02  0.16462917924E+02  0.47000000000E+01 0. -1.
         -5    1    1    2    0  502 -0.50500923261E+01  0.13202454435E+02  0.26394391858E+03  0.26436393550E+03  0.47000000000E+01 0. -1.
        -11    1    1    2    0    0  0.31140550984E+02 -0.19051480808E+02  0.80725958958E+02  0.88596688912E+02  0.00000000000E+00 0. -1.
         11    1    1    2    0    0 -0.17468241630E+02  0.54717594267E+01 -0.32418827183E+01  0.18590035514E+02  0.00000000000E+00 0.  1.
<mgrwt>
<rscale>  0 0.11063583E+03</rscale>
<asrwt>0</asrwt>
<pdfrwt beam="1">  1        1 0.55094883E-01 0.12647232E+03</pdfrwt>
<pdfrwt beam="2">  1       -1 0.45995109E-02 0.12647232E+03</pdfrwt>
<totfact> 0.13075220E+04</totfact>
</mgrwt>
</event>
<event>
 6    1  0.5258538E-006  0.1616469E+03  0.7546771E-02  0.1200890E+00
         -2   -1    0    0    0  501 -0.00000000000E+00  0.00000000000E+00  0.21954072633E+03  0.21954072633E+03  0.00000000000E+00 0.  1.
          2   -1    0    0  501    0  0.00000000000E+00 -0.00000000000E+00 -0.92718156210E+02  0.92718156210E+02  0.00000000000E+00 0. -1.
          5    1    1    2  502    0 -0.26989011253E+02  0.20602450440E+01  0.55956032457E+02  0.62336336966E+02  0.47000000000E+01 0.  1.
         -5    1    1    2    0  502  0.13319883040E+02 -0.10363889674E+03 -0.11726812908E+02  0.10525230802E+03  0.47000000000E+01 0.  1.
        -11    1    1    2    0    0  0.17847943743E+02  0.11209332381E+01  0.86640464802E+01  0.19871368564E+02  0.00000000000E+00 0. -1.
         11    1    1    2    0    0 -0.41788155307E+01  0.10045771846E+03  0.73929304097E+02  0.12479886899E+03  0.00000000000E+00 0.  1.
<mgrwt>
<rscale>  0 0.14966080E+03</rscale>
<asrwt>0</asrwt>
<pdfrwt beam="2">  1        2 0.14264332E-01 0.16164693E+03</pdfrwt>
<pdfrwt beam="1">  1       -2 0.33775496E-01 0.16164693E+03</pdfrwt>
<totfact> 0.32967527E+03</totfact>
</mgrwt>
</event>
<event>
 6    1  0.5258538E-006  0.1276927E+03  0.7546771E-02  0.1245314E+00
         -3   -1    0    0    0  501 -0.00000000000E+00  0.00000000000E+00  0.26904229244E+02  0.26904229244E+02  0.00000000000E+00 0.  1.
          3   -1    0    0  501    0  0.00000000000E+00 -0.00000000000E+00 -0.84452865599E+03  0.84452865599E+03  0.00000000000E+00 0. -1.
          5    1    1    2  502    0 -0.43327563307E+02 -0.33850508745E+02 -0.68944916604E+03  0.69165408785E+03  0.47000000000E+01 0.  1.
         -5    1    1    2    0  502  0.23101007494E+02  0.17068271048E+02 -0.43522320004E+02  0.52357088941E+02  0.47000000000E+01 0.  1.
        -11    1    1    2    0    0  0.98490190350E+01 -0.17760145495E+02  0.12460929445E+02  0.23826470712E+02  0.00000000000E+00 0.  1.
         11    1    1    2    0    0  0.10377536778E+02  0.34542383192E+02 -0.97113870150E+02  0.10359523774E+03  0.00000000000E+00 0. -1.
<mgrwt>
<rscale>  0 0.11866607E+03</rscale>
<asrwt>0</asrwt>
<pdfrwt beam="2">  1        3 0.12992750E+00 0.12769272E+03</pdfrwt>
<pdfrwt beam="1">  1       -3 0.41391118E-02 0.12769272E+03</pdfrwt>
<totfact> 0.34823492E+02</totfact>
</mgrwt>
</event>
<event>
 6    1  0.5258538E-006  0.2355966E+03  0.7546771E-02  0.1122761E+00
         -1   -1    0    0    0  501 -0.00000000000E+00  0.00000000000E+00  0.19840294009E+02  0.19840294009E+02  0.00000000000E+00 0.  1.
          1   -1    0    0  501    0  0.00000000000E+00 -0.00000000000E+00 -0.69940696996E+03  0.69940696996E+03  0.00000000000E+00 0. -1.
          5    1    1    2  502    0 -0.14530486737E+01  0.40228564739E+02 -0.42770550489E+02  0.58922480944E+02  0.47000000000E+01 0.  1.
         -5    1    1    2    0  502  0.80504123934E+01 -0.78389958525E+01 -0.46154842066E+03  0.46170910064E+03  0.47000000000E+01 0.  1.
        -11    1    1    2    0    0  0.25126963431E+02 -0.17446917534E+02 -0.14076291809E+02  0.33673449687E+02  0.00000000000E+00 0.  1.
         11    1    1    2    0    0 -0.31724327151E+02 -0.14942651353E+02 -0.16117141299E+03  0.16494223270E+03  0.00000000000E+00 0. -1.
<mgrwt>
<rscale>  0 0.23559660E+03</rscale>
<asrwt>0</asrwt>
<pdfrwt beam="2">  1        1 0.10760105E+00 0.23559660E+03</pdfrwt>
<pdfrwt beam="1">  1       -1 0.30523534E-02 0.23559660E+03</pdfrwt>
<totfact> 0.10268070E+04</totfact>
</mgrwt>
</event>
<event>
 6    1  0.5258538E-006  0.1423203E+03  0.7546771E-02  0.1220773E+00
          1   -1    0    0  501    0  0.00000000000E+00  0.00000000000E+00  0.18877855640E+03  0.18877855640E+03  0.00000000000E+00 0. -1.
         -1   -1    0    0    0  501 -0.00000000000E+00 -0.00000000000E+00 -0.10872914531E+03  0.10872914531E+03  0.00000000000E+00 0.  1.
          5    1    1    2  502    0  0.70893658600E+01 -0.32152666566E+02 -0.19642143161E+02  0.38625857448E+02  0.47000000000E+01 0. -1.
         -5    1    1    2    0  502  0.55682879968E+02  0.59020765776E+01  0.12948913764E+03  0.14115574517E+03  0.47000000000E+01 0. -1.
        -11    1    1    2    0    0 -0.49817574102E+02  0.29234673088E+02  0.23823150604E+02  0.62481991843E+02  0.00000000000E+00 0. -1.
         11    1    1    2    0    0 -0.12954671726E+02 -0.29840830997E+01 -0.53620733987E+02  0.55244107240E+02  0.00000000000E+00 0.  1.
<mgrwt>
<rscale>  0 0.13460898E+03</rscale>
<asrwt>0</asrwt>
<pdfrwt beam="1">  1        1 0.29042855E-01 0.14232028E+03</pdfrwt>
<pdfrwt beam="2">  1       -1 0.16727561E-01 0.14232028E+03</pdfrwt>
<totfact> 0.41001526E+03</totfact>
</mgrwt>
</event>
<event>
 6    1  0.5258538E-006  0.2855854E+03  0.7546771E-02  0.1092677E+00
          1   -1    0    0  501    0  0.00000000000E+00  0.00000000000E+00  0.13307627061E+03  0.13307627061E+03  0.00000000000E+00 0. -1.
         -1   -1    0    0    0  501 -0.00000000000E+00 -0.00000000000E+00 -0.15321856925E+03  0.15321856925E+03  0.00000000000E+00 0.  1.
          5    1    1    2  502    0 -0.28134741928E+02  0.12236162887E+02 -0.12777462993E+02  0.33565472529E+02  0.47000000000E+01 0.  1.
         -5    1    1    2    0  502  0.88309037305E+02 -0.50716316977E+02  0.58299213852E+02  0.11743729907E+03  0.47000000000E+01 0.  1.
        -11    1    1    2    0    0 -0.55093028990E+02 -0.18418517770E+02 -0.48411657659E+02  0.75618597167E+02  0.00000000000E+00 0. -1.
         11    1    1    2    0    0 -0.50812663876E+01  0.56898671860E+02 -0.17252391841E+02  0.59673471089E+02  0.00000000000E+00 0.  1.
<mgrwt>
<rscale>  0 0.28558540E+03</rscale>
<asrwt>0</asrwt>
<pdfrwt beam="1">  1        1 0.20473272E-01 0.28558540E+03</pdfrwt>
<pdfrwt beam="2">  1       -1 0.23572088E-01 0.28558540E+03</pdfrwt>
<totfact> 0.37904294E+03</totfact>
</mgrwt>
</event>
<event>
 6    1  0.5258538E-006  0.2515696E+03  0.7546771E-02  0.1112317E+00
         -1   -1    0    0    0  501 -0.00000000000E+00  0.00000000000E+00  0.35166936050E+02  0.35166936050E+02  0.00000000000E+00 0.  1.
          1   -1    0    0  501    0  0.00000000000E+00 -0.00000000000E+00 -0.44990590026E+03  0.44990590026E+03  0.00000000000E+00 0. -1.
          5    1    1    2  502    0 -0.19456104098E+02  0.22235043601E+02  0.10863839655E+01  0.29936722946E+02  0.47000000000E+01 0.  1.
         -5    1    1    2    0  502 -0.39208946426E+02 -0.47473060508E+02 -0.23396556194E+03  0.24197728639E+03  0.47000000000E+01 0.  1.
        -11    1    1    2    0    0  0.92345428008E+01  0.48535186244E+02 -0.49383668103E+02  0.69854761898E+02  0.00000000000E+00 0.  1.
         11    1    1    2    0    0  0.49430507723E+02 -0.23297169337E+02 -0.13247611814E+03  0.14330406508E+03  0.00000000000E+00 0. -1.
<mgrwt>
<rscale>  0 0.25156957E+03</rscale>
<asrwt>0</asrwt>
<pdfrwt beam="2">  1        1 0.69216284E-01 0.25156957E+03</pdfrwt>
<pdfrwt beam="1">  1       -1 0.54102985E-02 0.25156957E+03</pdfrwt>
<totfact> 0.80371619E+03</totfact>
</mgrwt>
</event>
<event>
 6    1  0.5258538E-006  0.1434172E+03  0.7546771E-02  0.1217790E+00
         -2   -1    0    0    0  501 -0.00000000000E+00  0.00000000000E+00  0.16650728162E+02  0.16650728162E+02  0.00000000000E+00 0.  1.
          2   -1    0    0  501    0  0.00000000000E+00 -0.00000000000E+00 -0.10658741570E+04  0.10658741570E+04  0.00000000000E+00 0. -1.
          5    1    1    2  502    0  0.77047336945E+02  0.55337844209E+02 -0.27082866256E+03  0.28699969268E+03  0.47000000000E+01 0.  1.
         -5    1    1    2    0  502 -0.44777286494E+02  0.71294524298E+01 -0.20315524365E+03  0.20820657411E+03  0.47000000000E+01 0.  1.
        -11    1    1    2    0    0 -0.65584160814E+02 -0.33511500314E+02 -0.32767147897E+03  0.33584654373E+03  0.00000000000E+00 0.  1.
         11    1    1    2    0    0  0.33314110363E+02 -0.28955796324E+02 -0.24756804362E+03  0.25147207462E+03  0.00000000000E+00 0. -1.
<mgrwt>
<rscale>  0 0.13673577E+03</rscale>
<asrwt>0</asrwt>
<pdfrwt beam="2">  1        2 0.16398067E+00 0.14341724E+03</pdfrwt>
<pdfrwt beam="1">  1       -2 0.25616500E-02 0.14341724E+03</pdfrwt>
<totfact> 0.12390275E+04</totfact>
</mgrwt>
</event>
<event>
 6    1  0.5258538E-006  0.1332655E+03  0.7546771E-02  0.1235998E+00
         -1   -1    0    0    0  501 -0.00000000000E+00  0.00000000000E+00  0.23605412135E+02  0.23605412135E+02  0.00000000000E+00 0.  1.
          1   -1    0    0  501    0  0.00000000000E+00 -0.00000000000E+00 -0.59112108288E+03  0.59112108288E+03  0.00000000000E+00 0. -1.
          5    1    1    2  502    0  0.51026890550E+02  0.31719464612E+02 -0.49314872252E+02  0.77871141122E+02  0.47000000000E+01 0.  1.
         -5    1    1    2    0  502 -0.21803945570E+02  0.39481270388E+01 -0.23541791730E+03  0.23650514906E+03  0.47000000000E+01 0.  1.
        -11    1    1    2    0    0  0.29541858743E+02  0.25235551202E+01 -0.62281433545E+02  0.68978741021E+02  0.00000000000E+00 0. -1.
         11    1    1    2    0    0 -0.58764803722E+02 -0.38191146771E+02 -0.22050144765E+03  0.23137146381E+03  0.00000000000E+00 0.  1.
<mgrwt>
<rscale>  0 0.12440775E+03</rscale>
<asrwt>0</asrwt>
<pdfrwt beam="2">  1        1 0.90941708E-01 0.13326549E+03</pdfrwt>
<pdfrwt beam="1">  1       -1 0.36316018E-02 0.13326549E+03</pdfrwt>
<totfact> 0.97344068E+03</totfact>
</mgrwt>
</event>
<event>
 6    1  0.5258538E-006  0.1262172E+03  0.7546771E-02  0.1248198E+00
         -2   -1    0    0    0  501 -0.00000000000E+00  0.00000000000E+00  0.31931758500E+02  0.31931758500E+02  0.00000000000E+00 0.  1.
          2   -1    0    0  501    0  0.00000000000E+00 -0.00000000000E+00 -0.38360756127E+03  0.38360756127E+03  0.00000000000E+00 0. -1.
          5    1    1    2  502    0  0.25524049195E+02  0.48585992198E+02 -0.11529550843E+03  0.12777801059E+03  0.47000000000E+01 0. -1.
         -5    1    1    2    0  502 -0.23966099419E+02 -0.66009965227E+02 -0.11464514858E+03  0.13452616669E+03  0.47000000000E+01 0. -1.
        -11    1    1    2    0    0 -0.77719273342E+01  0.52609234595E+02 -0.94013205280E+02  0.10801211592E+03  0.00000000000E+00 0. -1.
         11    1    1    2    0    0  0.62139775580E+01 -0.35185261566E+02 -0.27721940478E+02  0.45223026573E+02  0.00000000000E+00 0.  1.
<mgrwt>
<rscale>  0 0.11696027E+03</rscale>
<asrwt>0</asrwt>
<pdfrwt beam="2">  1        2 0.59016548E-01 0.12621718E+03</pdfrwt>
<pdfrwt beam="1">  1       -2 0.49125782E-02 0.12621718E+03</pdfrwt>
<totfact> 0.15726675E+04</totfact>
</mgrwt>
</event>
<event>
 6    1  0.5258538E-006  0.1331996E+03  0.7546771E-02  0.1234935E+00
          1   -1    0    0  501    0  0.00000000000E+00  0.00000000000E+00  0.56677967113E+02  0.56677967113E+02  0.00000000000E+00 0. -1.
         -1   -1    0    0    0  501 -0.00000000000E+00 -0.00000000000E+00 -0.26936140328E+03  0.26936140328E+03  0.00000000000E+00 0.  1.
          5    1    1    2  502    0  0.54903101337E+02 -0.17142725862E+02 -0.49552018962E+01  0.57921219016E+02  0.47000000000E+01 0.  1.
         -5    1    1    2    0  502 -0.31491026254E+02  0.56750524879E+02 -0.67298064012E+02  0.93613173370E+02  0.47000000000E+01 0.  1.
        -11    1    1    2    0    0 -0.35469238329E+02 -0.28509283622E+02 -0.14915294334E+03  0.15594052272E+03  0.00000000000E+00 0.  1.
         11    1    1    2    0    0  0.12057163245E+02 -0.11098515395E+02  0.87227730864E+01  0.18564455279E+02  0.00000000000E+00 0. -1.
<mgrwt>
<rscale>  0 0.12508610E+03</rscale>
<asrwt>0</asrwt>
<pdfrwt beam="1">  1        1 0.87196875E-02 0.13319962E+03</pdfrwt>
<pdfrwt beam="2">  1       -1 0.41440215E-01 0.13319962E+03</pdfrwt>
<totfact> 0.42807724E+03</totfact>
</mgrwt>
</event>
<event>
 6    1  0.5258538E-006  0.1620831E+03  0.7546771E-02  0.1192829E+00
         -2   -1    0    0    0  501 -0.00000000000E+00  0.00000000000E+00  0.38622305188E+02  0.38622305188E+02  0.00000000000E+00 0.  1.
          2   -1    0    0  501    0  0.00000000000E+00 -0.00000000000E+00 -0.59618006690E+03  0.59618006690E+03  0.00000000000E+00 0. -1.
          5    1    1    2  502    0 -0.54940395062E+02  0.29474040651E+02 -0.20356797247E+03  0.21295345852E+03  0.47000000000E+01 0.  1.
         -5    1    1    2    0  502 -0.41374782820E+02 -0.66470071333E+02 -0.70540508669E+02  0.10549026685E+03  0.47000000000E+01 0.  1.
        -11    1    1    2    0    0  0.18753961986E+02 -0.29933590949E+02 -0.10257274012E+03  0.10848455177E+03  0.00000000000E+00 0.  1.
         11    1    1    2    0    0  0.77561215895E+02  0.66929621630E+02 -0.18087654046E+03  0.20787409495E+03  0.00000000000E+00 0. -1.
<mgrwt>
<rscale>  0 0.15639392E+03</rscale>
<asrwt>0</asrwt>
<pdfrwt beam="2">  1        2 0.91719995E-01 0.16208315E+03</pdfrwt>
<pdfrwt beam="1">  1       -2 0.59418941E-02 0.16208315E+03</pdfrwt>
<totfact> 0.74072415E+03</totfact>
</mgrwt>
</event>
<event>
 6    1  0.5258538E-006  0.1633929E+03  0.7546771E-02  0.1192239E+00
          2   -1    0    0  501    0  0.00000000000E+00  0.00000000000E+00  0.22889621255E+03  0.22889621255E+03  0.00000000000E+00 0. -1.
         -2   -1    0    0    0  501 -0.00000000000E+00 -0.00000000000E+00 -0.10337901259E+03  0.10337901259E+03  0.00000000000E+00 0.  1.
          5    1    1    2  502    0 -0.94307239519E+02  0.86848476219E+02  0.67379875436E+02  0.14490911242E+03  0.47000000000E+01 0. -1.
         -5    1    1    2    0  502  0.33397656986E+02 -0.10467790121E+01  0.30963341724E+02  0.45796482061E+02  0.47000000000E+01 0. -1.
        -11    1    1    2    0    0  0.28769598769E+02 -0.80359258482E+02  0.52572470464E+02  0.10024552303E+03  0.00000000000E+00 0. -1.
         11    1    1    2    0    0  0.32139983763E+02 -0.54424387248E+01 -0.25398487662E+02  0.41324107626E+02  0.00000000000E+00 0.  1.
<mgrwt>
<rscale>  0 0.15690236E+03</rscale>
<asrwt>0</asrwt>
<pdfrwt beam="1">  1        2 0.35214802E-01 0.16339289E+03</pdfrwt>
<pdfrwt beam="2">  1       -2 0.15904464E-01 0.16339289E+03</pdfrwt>
<totfact> 0.44204582E+03</totfact>
</mgrwt>
</event>
<event>
 6    1  0.5258538E-006  0.1658855E+03  0.7546771E-02  0.1189161E+00
         -3   -1    0    0    0  501 -0.00000000000E+00  0.00000000000E+00  0.17523703984E+02  0.17523703984E+02  0.00000000000E+00 0.  1.
          3   -1    0    0  501    0  0.00000000000E+00 -0.00000000000E+00 -0.14204436408E+04  0.14204436408E+04  0.00000000000E+00 0. -1.
          5    1    1    2  502    0 -0.59712606339E+02  0.91962881659E+02 -0.54825333634E+03  0.55913019751E+03  0.47000000000E+01 0.  1.
         -5    1    1    2    0  502  0.51922394554E+02  0.16817317165E+02 -0.36076083544E+03  0.36489618743E+03  0.47000000000E+01 0.  1.
        -11    1    1    2    0    0 -0.34052175841E+02 -0.84243208741E+02 -0.27131571805E+03  0.28612704829E+03  0.00000000000E+00 0. -1.
         11    1    1    2    0    0  0.41842387626E+02 -0.24536990084E+02 -0.22259004699E+03  0.22781391157E+03  0.00000000000E+00 0.  1.
<mgrwt>
<rscale>  0 0.15958968E+03</rscale>
<asrwt>0</asrwt>
<pdfrwt beam="2">  1        3 0.21852979E+00 0.16588549E+03</pdfrwt>
<pdfrwt beam="1">  1       -3 0.26959545E-02 0.16588549E+03</pdfrwt>
<totfact> 0.18111096E+02</totfact>
</mgrwt>
</event>
<event>
 6    1  0.5258538E-006  0.1268335E+03  0.7546771E-02  0.1243081E+00
         -1   -1    0    0    0  501 -0.00000000000E+00  0.00000000000E+00  0.29535184908E+02  0.29535184908E+02  0.00000000000E+00 0.  1.
          1   -1    0    0  501    0  0.00000000000E+00 -0.00000000000E+00 -0.45516717840E+03  0.45516717840E+03  0.00000000000E+00 0. -1.
          5    1    1    2  502    0 -0.71133050940E+01 -0.44971126638E+02 -0.73239075289E+02  0.86365812042E+02  0.47000000000E+01 0. -1.
         -5    1    1    2    0  502  0.42373784179E+02  0.65715010270E+02 -0.20341295950E+03  0.21797459084E+03  0.47000000000E+01 0.  1.
        -11    1    1    2    0    0 -0.57979283695E+02  0.10305785185E+02 -0.63389245905E+02  0.86521691168E+02  0.00000000000E+00 0.  1.
         11    1    1    2    0    0  0.22718804610E+02 -0.31049668817E+02 -0.85590712792E+02  0.93840269249E+02  0.00000000000E+00 0. -1.
<mgrwt>
<rscale>  0 0.12000971E+03</rscale>
<asrwt>0</asrwt>
<pdfrwt beam="2">  1        1 0.70025712E-01 0.12683348E+03</pdfrwt>
<pdfrwt beam="1">  1       -1 0.45438751E-02 0.12683348E+03</pdfrwt>
<totfact> 0.98416922E+03</totfact>
</mgrwt>
</event>
<event>
 6    1  0.5258538E-006  0.1472213E+03  0.7546771E-02  0.1223105E+00
         -2   -1    0    0    0  501 -0.00000000000E+00  0.00000000000E+00  0.19757101581E+02  0.19757101581E+02  0.00000000000E+00 0.  1.
          2   -1    0    0  501    0  0.00000000000E+00 -0.00000000000E+00 -0.97549085073E+03  0.97549085073E+03  0.00000000000E+00 0. -1.
          5    1    1    2  502    0  0.40274184439E+02 -0.77870782104E+02 -0.28293695218E+03  0.29624529962E+03  0.47000000000E+01 0. -1.
         -5    1    1    2    0  502  0.91158523003E+01  0.17788172535E+02 -0.49948377221E+03  0.49990563765E+03  0.47000000000E+01 0. -1.
        -11    1    1    2    0    0 -0.17964815209E+02  0.63858180585E+02 -0.11664427428E+03  0.13418825782E+03  0.00000000000E+00 0. -1.
         11    1    1    2    0    0 -0.31425221531E+02 -0.37755710154E+01 -0.56668750469E+02  0.64908757225E+02  0.00000000000E+00 0.  1.
<mgrwt>
<rscale>  0 0.13297639E+03</rscale>
<asrwt>0</asrwt>
<pdfrwt beam="2">  1        2 0.15007552E+00 0.14722135E+03</pdfrwt>
<pdfrwt beam="1">  1       -2 0.30395539E-02 0.14722135E+03</pdfrwt>
<totfact> 0.10921284E+04</totfact>
</mgrwt>
</event>
<event>
 6    1  0.5258538E-006  0.1501931E+03  0.7546771E-02  0.1209262E+00
         -1   -1    0    0    0  501 -0.00000000000E+00  0.00000000000E+00  0.16141945916E+03  0.16141945916E+03  0.00000000000E+00 0.  1.
          1   -1    0    0  501    0  0.00000000000E+00 -0.00000000000E+00 -0.11624653699E+03  0.11624653699E+03  0.00000000000E+00 0. -1.
          5    1    1    2  502    0  0.11715183631E+02  0.24816776865E+02  0.31419650825E+02  0.41980976637E+02  0.47000000000E+01 0.  1.
         -5    1    1    2    0  502 -0.74258894802E+02 -0.79771419380E+02 -0.10803020209E+02  0.10962051839E+03  0.47000000000E+01 0.  1.
        -11    1    1    2    0    0  0.69433054234E+02  0.74023164778E+02  0.28485163989E+02  0.10541244002E+03  0.00000000000E+00 0.  1.
         11    1    1    2    0    0 -0.68893430633E+01 -0.19068522263E+02 -0.39288724393E+01  0.20652061102E+02  0.00000000000E+00 0. -1.
<mgrwt>
<rscale>  0 0.14306578E+03</rscale>
<asrwt>0</asrwt>
<pdfrwt beam="2">  1        1 0.17884083E-01 0.15019310E+03</pdfrwt>
<pdfrwt beam="1">  1       -1 0.24833763E-01 0.15019310E+03</pdfrwt>
<totfact> 0.40150712E+03</totfact>
</mgrwt>
</event>
<event>
 6    1  0.5258538E-006  0.1331864E+03  0.7546771E-02  0.1247557E+00
         -2   -1    0    0    0  501 -0.00000000000E+00  0.00000000000E+00  0.13787972671E+03  0.13787972671E+03  0.00000000000E+00 0.  1.
          2   -1    0    0  501    0  0.00000000000E+00 -0.00000000000E+00 -0.92152534393E+02  0.92152534393E+02  0.00000000000E+00 0. -1.
          5    1    1    2  502    0 -0.70303456149E+02  0.35332352651E+02 -0.42573285407E+02  0.89585298575E+02  0.47000000000E+01 0. -1.
         -5    1    1    2    0  502  0.24798458418E+02  0.97561095000E+01  0.34499268701E+02  0.43845578493E+02  0.47000000000E+01 0.  1.
        -11    1    1    2    0    0  0.25262568436E+02 -0.20546558630E+01  0.39514525318E+02  0.46944825975E+02  0.00000000000E+00 0. -1.
         11    1    1    2    0    0  0.20242429295E+02 -0.43033806288E+02  0.14286683709E+02  0.49656558064E+02  0.00000000000E+00 0.  1.
<mgrwt>
<rscale>  0 0.11733632E+03</rscale>
<asrwt>0</asrwt>
<pdfrwt beam="2">  1        2 0.14177313E-01 0.13318637E+03</pdfrwt>
<pdfrwt beam="1">  1       -2 0.21212266E-01 0.13318637E+03</pdfrwt>
<totfact> 0.74689098E+03</totfact>
</mgrwt>
</event>
<event>
 6    1  0.5258538E-006  0.1786594E+03  0.7546771E-02  0.1179712E+00
          2   -1    0    0  501    0  0.00000000000E+00  0.00000000000E+00  0.10847342177E+04  0.10847342177E+04  0.00000000000E+00 0. -1.
         -2   -1    0    0    0  501 -0.00000000000E+00 -0.00000000000E+00 -0.62357193079E+02  0.62357193079E+02  0.00000000000E+00 0.  1.
          5    1    1    2  502    0 -0.88931890308E+02 -0.63752517260E+02  0.66578378564E+03  0.67473209779E+03  0.47000000000E+01 0. -1.
         -5    1    1    2    0  502 -0.16413311096E+02  0.65654413831E+02  0.32016639894E+03  0.32727436784E+03  0.47000000000E+01 0.  1.
        -11    1    1    2    0    0  0.89219798711E+02 -0.24829764032E+02 -0.75681123815E+01  0.92919136828E+02  0.00000000000E+00 0.  1.
         11    1    1    2    0    0  0.16125402692E+02  0.22927867461E+02  0.43994952411E+02  0.52165808303E+02  0.00000000000E+00 0. -1.
<mgrwt>
<rscale>  0 0.16822492E+03</rscale>
<asrwt>0</asrwt>
<pdfrwt beam="1">  1        2 0.16688217E+00 0.17865943E+03</pdfrwt>
<pdfrwt beam="2">  1       -2 0.95934151E-02 0.17865943E+03</pdfrwt>
<totfact> 0.16532386E+03</totfact>
</mgrwt>
</event>
<event>
 6    1  0.5258538E-006  0.4218408E+03  0.7546771E-02  0.1037193E+00
         -3   -1    0    0    0  501 -0.00000000000E+00  0.00000000000E+00  0.27050660403E+04  0.27050660403E+04  0.00000000000E+00 0.  1.
          3   -1    0    0  501    0  0.00000000000E+00 -0.00000000000E+00 -0.64414399549E+02  0.64414399549E+02  0.00000000000E+00 0. -1.
          5    1    1    2  502    0  0.85278747397E+02  0.22141625971E+03  0.72560274838E+03  0.76342587282E+03  0.47000000000E+01 0.  1.
         -5    1    1    2    0  502 -0.42100970510E+02  0.17915895310E+03  0.61880988052E+03  0.64561457575E+03  0.47000000000E+01 0.  1.
        -11    1    1    2    0    0  0.95028267713E+00 -0.16451899109E+03  0.66541399353E+03  0.68545108086E+03  0.00000000000E+00 0.  1.
         11    1    1    2    0    0 -0.44128059564E+02 -0.23605622172E+03  0.63082501827E+03  0.67498891038E+03  0.00000000000E+00 0. -1.
<mgrwt>
<rscale>  0 0.41961068E+03</rscale>
<asrwt>0</asrwt>
<pdfrwt beam="2">  1        3 0.99099097E-02 0.42184081E+03</pdfrwt>
<pdfrwt beam="1">  1       -3 0.41616392E+00 0.42184081E+03</pdfrwt>
<totfact> 0.19159590E+00</totfact>
</mgrwt>
</event>
<event>
 6    1  0.5258538E-006  0.1753599E+03  0.7546771E-02  0.1178306E+00
          2   -1    0    0  501    0  0.00000000000E+00  0.00000000000E+00  0.61508862794E+03  0.61508862794E+03  0.00000000000E+00 0. -1.
         -2   -1    0    0    0  501 -0.00000000000E+00 -0.00000000000E+00 -0.51223239760E+02  0.51223239760E+02  0.00000000000E+00 0.  1.
          5    1    1    2  502    0  0.38827481120E+02 -0.75888274386E+01  0.10853395141E+03  0.11561519018E+03  0.47000000000E+01 0.  1.
         -5    1    1    2    0  502 -0.81528905306E+02 -0.10774821273E+03  0.31533787818E+03  0.34309868429E+03  0.47000000000E+01 0.  1.
        -11    1    1    2    0    0  0.45613044750E+02  0.94568726395E+01  0.52743940248E+02  0.70369777067E+02  0.00000000000E+00 0.  1.
         11    1    1    2    0    0 -0.29116205635E+01  0.10588016753E+03  0.87249618342E+02  0.13722821616E+03  0.00000000000E+00 0. -1.
<mgrwt>
<rscale>  0 0.16956189E+03</rscale>
<asrwt>0</asrwt>
<pdfrwt beam="1">  1        2 0.94629015E-01 0.17535989E+03</pdfrwt>
<pdfrwt beam="2">  1       -2 0.78804988E-02 0.17535989E+03</pdfrwt>
<totfact> 0.46476086E+03</totfact>
</mgrwt>
</event>
<event>
 6    1  0.5258538E-006  0.2116016E+03  0.7546771E-02  0.1144013E+00
         -1   -1    0    0    0  501 -0.00000000000E+00  0.00000000000E+00  0.68451525512E+02  0.68451525512E+02  0.00000000000E+00 0.  1.
          1   -1    0    0  501    0  0.00000000000E+00 -0.00000000000E+00 -0.60098371191E+03  0.60098371191E+03  0.00000000000E+00 0. -1.
          5    1    1    2  502    0  0.80435309893E+02  0.16127474162E+03 -0.20841986779E+03  0.27557269939E+03  0.47000000000E+01 0. -1.
         -5    1    1    2    0  502 -0.29228302463E+02  0.16025099130E+01 -0.53265080371E+02  0.60959990894E+02  0.47000000000E+01 0. -1.
        -11    1    1    2    0    0 -0.67626776238E+02 -0.63338446244E+02 -0.12721715174E+03  0.15738279237E+03  0.00000000000E+00 0.  1.
         11    1    1    2    0    0  0.16419768808E+02 -0.99538805287E+02 -0.14363008650E+03  0.17551975477E+03  0.00000000000E+00 0. -1.
<mgrwt>
<rscale>  0 0.20693965E+03</rscale>
<asrwt>0</asrwt>
<pdfrwt beam="2">  1        1 0.92459037E-01 0.21160161E+03</pdfrwt>
<pdfrwt beam="1">  1       -1 0.10531003E-01 0.21160161E+03</pdfrwt>
<totfact> 0.19621727E+03</totfact>
</mgrwt>
</event>
<event>
 6    1  0.5258538E-006  0.2743492E+03  0.7546771E-02  0.1101370E+00
          2   -1    0    0  501    0  0.00000000000E+00  0.00000000000E+00  0.21047313292E+03  0.21047313292E+03  0.00000000000E+00 0. -1.
         -2   -1    0    0    0  501 -0.00000000000E+00 -0.00000000000E+00 -0.38736563294E+03  0.38736563294E+03  0.00000000000E+00 0.  1.
          5    1    1    2  502    0  0.51867536858E+02 -0.36844636505E+02 -0.48696126546E+02  0.80256908485E+02  0.47000000000E+01 0.  1.
         -5    1    1    2    0  502  0.17297618276E+03 -0.58491939779E+02  0.67515458361E+02  0.19473698657E+03  0.47000000000E+01 0.  1.
        -11    1    1    2    0    0 -0.10488360058E+03  0.22297557360E+02 -0.43438575741E+02  0.11569209393E+03  0.00000000000E+00 0. -1.
         11    1    1    2    0    0 -0.11996011904E+03  0.73039018923E+02 -0.15227325610E+03  0.20715277688E+03  0.00000000000E+00 0.  1.
<mgrwt>
<rscale>  0 0.26984203E+03</rscale>
<asrwt>0</asrwt>
<pdfrwt beam="1">  1        2 0.32380483E-01 0.27434918E+03</pdfrwt>
<pdfrwt beam="2">  1       -2 0.59594712E-01 0.27434918E+03</pdfrwt>
<totfact> 0.43394710E+02</totfact>
</mgrwt>
</event>
<event>
 6    1  0.5258538E-006  0.1260487E+03  0.7546771E-02  0.1249718E+00
          1   -1    0    0  501    0  0.00000000000E+00  0.00000000000E+00  0.16723012270E+03  0.16723012270E+03  0.00000000000E+00 0. -1.
         -1   -1    0    0    0  501 -0.00000000000E+00 -0.00000000000E+00 -0.85596487541E+02  0.85596487541E+02  0.00000000000E+00 0.  1.
          5    1    1    2  502    0  0.22451474321E+01  0.16699541592E+02 -0.26276070397E+02  0.31566394344E+02  0.47000000000E+01 0.  1.
         -5    1    1    2    0  502 -0.16875530204E+02 -0.23165320490E+02  0.12559560863E+03  0.12890990070E+03  0.47000000000E+01 0.  1.
        -11    1    1    2    0    0  0.35949306539E+02 -0.17737817699E+02  0.18264405987E+02  0.44051916456E+02  0.00000000000E+00 0. -1.
         11    1    1    2    0    0 -0.21318923768E+02  0.24203596597E+02 -0.35950309060E+02  0.48298398735E+02  0.00000000000E+00 0.  1.
<mgrwt>
<rscale>  0 0.11607399E+03</rscale>
<asrwt>0</asrwt>
<pdfrwt beam="1">  1        1 0.25727711E-01 0.12604868E+03</pdfrwt>
<pdfrwt beam="2">  1       -1 0.13168690E-01 0.12604868E+03</pdfrwt>
<totfact> 0.68842492E+03</totfact>
</mgrwt>
</event>
<event>
 6    1  0.5258538E-006  0.1542931E+03  0.7546771E-02  0.1203470E+00
          1   -1    0    0  501    0  0.00000000000E+00  0.00000000000E+00  0.78970146258E+03  0.78970146258E+03  0.00000000000E+00 0. -1.
         -1   -1    0    0    0  501 -0.00000000000E+00 -0.00000000000E+00 -0.28692106744E+02  0.28692106744E+02  0.00000000000E+00 0.  1.
          5    1    1    2  502    0  0.48427929310E+02  0.50824945062E+02  0.24146005449E+03  0.25150245981E+03  0.47000000000E+01 0.  1.
         -5    1    1    2    0  502  0.38968054149E+02 -0.74112310846E+02  0.30629480263E+03  0.31756848077E+03  0.47000000000E+01 0.  1.
        -11    1    1    2    0    0 -0.45707949850E+02  0.47143206830E+02  0.60830581323E+02  0.89510101407E+02  0.00000000000E+00 0.  1.
         11    1    1    2    0    0 -0.41688033610E+02 -0.23855841046E+02  0.15242391740E+03  0.15981252733E+03  0.00000000000E+00 0. -1.
<mgrwt>
<rscale>  0 0.14758706E+03</rscale>
<asrwt>0</asrwt>
<pdfrwt beam="1">  1        1 0.12149252E+00 0.15429307E+03</pdfrwt>
<pdfrwt beam="2">  1       -1 0.44141709E-02 0.15429307E+03</pdfrwt>
<totfact> 0.48763751E+03</totfact>
</mgrwt>
</event>
<event>
 6    1  0.5258538E-006  0.1708649E+03  0.7546771E-02  0.1184620E+00
          4   -1    0    0  501    0  0.00000000000E+00  0.00000000000E+00  0.40719079007E+02  0.40719079007E+02  0.00000000000E+00 0. -1.
         -4   -1    0    0    0  501 -0.00000000000E+00 -0.00000000000E+00 -0.62263871068E+03  0.62263871068E+03  0.00000000000E+00 0.  1.
          5    1    1    2  502    0  0.12412691755E+03  0.29234929762E+02 -0.36867170684E+03  0.39013214454E+03  0.47000000000E+01 0. -1.
         -5    1    1    2    0  502 -0.12228271180E+02  0.31399758408E+01  0.27201092891E+01  0.13743327795E+02  0.47000000000E+01 0. -1.
        -11    1    1    2    0    0 -0.10165441820E+03 -0.44729690603E+02 -0.21660790878E+03  0.24342011443E+03  0.00000000000E+00 0.  1.
         11    1    1    2    0    0 -0.10244228166E+02  0.12354785000E+02  0.63987466479E+00  0.16062202922E+02  0.00000000000E+00 0. -1.
<mgrwt>
<rscale>  0 0.16366538E+03</rscale>
<asrwt>0</asrwt>
<pdfrwt beam="1">  1        4 0.62644738E-02 0.17086493E+03</pdfrwt>
<pdfrwt beam="2">  1       -4 0.95790570E-01 0.17086493E+03</pdfrwt>
<totfact> 0.27136833E+02</totfact>
</mgrwt>
</event>
<event>
 6    1  0.5258538E-006  0.1339018E+03  0.7546771E-02  0.1234400E+00
          2   -1    0    0  501    0  0.00000000000E+00  0.00000000000E+00  0.10089283034E+04  0.10089283034E+04  0.00000000000E+00 0.  1.
         -2   -1    0    0    0  501 -0.00000000000E+00 -0.00000000000E+00 -0.17623814882E+02  0.17623814882E+02  0.00000000000E+00 0. -1.
          5    1    1    2  502    0  0.53465256228E+02 -0.11649485425E+01  0.15648915357E+03  0.16544133678E+03  0.47000000000E+01 0.  1.
         -5    1    1    2    0  502 -0.34601704492E+02 -0.42978153728E+02  0.62384825760E+03  0.62630115612E+03  0.47000000000E+01 0.  1.
        -11    1    1    2    0    0  0.15699491271E+02  0.91066102508E+01 -0.29225245767E-01  0.18149524251E+02  0.00000000000E+00 0. -1.
         11    1    1    2    0    0 -0.34563043007E+02  0.35036492020E+02  0.21099630258E+03  0.21666010112E+03  0.00000000000E+00 0.  1.
<mgrwt>
<rscale>  0 0.12542920E+03</rscale>
<asrwt>0</asrwt>
<pdfrwt beam="1">  1        2 0.15521969E+00 0.13390183E+03</pdfrwt>
<pdfrwt beam="2">  1       -2 0.27113569E-02 0.13390183E+03</pdfrwt>
<totfact> 0.12265684E+04</totfact>
</mgrwt>
</event>
<event>
 6    1  0.5258538E-006  0.1555483E+03  0.7546771E-02  0.1202269E+00
         -2   -1    0    0    0  501 -0.00000000000E+00  0.00000000000E+00  0.77360476343E+02  0.77360476343E+02  0.00000000000E+00 0.  1.
          2   -1    0    0  501    0  0.00000000000E+00 -0.00000000000E+00 -0.31310782935E+03  0.31310782935E+03  0.00000000000E+00 0. -1.
          5    1    1    2  502    0  0.62607637647E+02  0.61619995566E+01 -0.10751695816E+03  0.12465822405E+03  0.47000000000E+01 0.  1.
         -5    1    1    2    0  502 -0.19067362694E+02 -0.87854135663E+02 -0.97748676089E+02  0.13288644457E+03  0.47000000000E+01 0.  1.
        -11    1    1    2    0    0 -0.56443303784E+02  0.88977402375E+02 -0.75746745418E+01  0.10564184952E+03  0.00000000000E+00 0.  1.
         11    1    1    2    0    0  0.12903028831E+02 -0.72852662682E+01 -0.22907044215E+02  0.27281787557E+02  0.00000000000E+00 0. -1.
<mgrwt>
<rscale>  0 0.14854805E+03</rscale>
<asrwt>0</asrwt>
<pdfrwt beam="2">  1        2 0.48170436E-01 0.15554831E+03</pdfrwt>
<pdfrwt beam="1">  1       -2 0.11901612E-01 0.15554831E+03</pdfrwt>
<totfact> 0.50537184E+03</totfact>
</mgrwt>
</event>
<event>
 6    1  0.5258538E-006  0.2301081E+03  0.7546771E-02  0.1126564E+00
         -2   -1    0    0    0  501 -0.00000000000E+00  0.00000000000E+00  0.15086087895E+02  0.15086087895E+02  0.00000000000E+00 0.  1.
          2   -1    0    0  501    0  0.00000000000E+00 -0.00000000000E+00 -0.87745941232E+03  0.87745941232E+03  0.00000000000E+00 0. -1.
          5    1    1    2  502    0 -0.15301889001E+02  0.53587184421E+02 -0.47870940814E+03  0.48196527010E+03  0.47000000000E+01 0.  1.
         -5    1    1    2    0  502  0.14579174503E+02 -0.14393343749E+02 -0.87109745428E+01  0.22752840503E+02  0.47000000000E+01 0.  1.
        -11    1    1    2    0    0  0.41171082094E+02 -0.53800007206E+01 -0.22690240963E+03  0.23067012356E+03  0.00000000000E+00 0.  1.
         11    1    1    2    0    0 -0.40448367597E+02 -0.33813839952E+02 -0.14805053212E+03  0.15715726606E+03  0.00000000000E+00 0. -1.
<mgrwt>
<rscale>  0 0.23010806E+03</rscale>
<asrwt>0</asrwt>
<pdfrwt beam="2">  1        2 0.13499375E+00 0.23010806E+03</pdfrwt>
<pdfrwt beam="1">  1       -2 0.23209367E-02 0.23010806E+03</pdfrwt>
<totfact> 0.19239790E+04</totfact>
</mgrwt>
</event>
<event>
 6    1  0.5258538E-006  0.2425260E+03  0.7546771E-02  0.1120612E+00
          3   -1    0    0  501    0  0.00000000000E+00  0.00000000000E+00  0.29538188508E+03  0.29538188508E+03  0.00000000000E+00 0. -1.
         -3   -1    0    0    0  501 -0.00000000000E+00 -0.00000000000E+00 -0.19587129335E+03  0.19587129335E+03  0.00000000000E+00 0.  1.
          5    1    1    2  502    0  0.13132533575E+03 -0.81657551505E+02 -0.29336215229E+02  0.15747064188E+03  0.47000000000E+01 0.  1.
         -5    1    1    2    0  502 -0.42133620614E+00 -0.79773570721E+02  0.29126127756E+02  0.85055402108E+02  0.47000000000E+01 0.  1.
        -11    1    1    2    0    0 -0.30906368071E+02  0.45294269220E+02 -0.15508485061E+02  0.56984976269E+02  0.00000000000E+00 0. -1.
         11    1    1    2    0    0 -0.99997631477E+02  0.11613685301E+03  0.11522916427E+03  0.19174215818E+03  0.00000000000E+00 0.  1.
<mgrwt>
<rscale>  0 0.23877372E+03</rscale>
<asrwt>0</asrwt>
<pdfrwt beam="1">  1        3 0.45443367E-01 0.24252595E+03</pdfrwt>
<pdfrwt beam="2">  1       -3 0.30134045E-01 0.24252595E+03</pdfrwt>
<totfact> 0.12796851E+02</totfact>
</mgrwt>
</event>
<event>
 6    1  0.5258538E-006  0.1833865E+03  0.7546771E-02  0.1169826E+00
         -1   -1    0    0    0  501 -0.00000000000E+00  0.00000000000E+00  0.45147351458E+03  0.45147351458E+03  0.00000000000E+00 0.  1.
          1   -1    0    0  501    0  0.00000000000E+00 -0.00000000000E+00 -0.82625044426E+02  0.82625044426E+02  0.00000000000E+00 0. -1.
          5    1    1    2  502    0  0.63815838569E+02  0.88774658100E+01 -0.24221776883E+02  0.68993152753E+02  0.47000000000E+01 0. -1.
         -5    1    1    2    0  502  0.62456154600E+02 -0.54270667744E+02  0.98856560406E+02  0.12899917116E+03  0.47000000000E+01 0. -1.
        -11    1    1    2    0    0 -0.54707150020E+02  0.24275833745E+02  0.23001335743E+03  0.23767274341E+03  0.00000000000E+00 0. -1.
         11    1    1    2    0    0 -0.71564843149E+02  0.21117368189E+02  0.64200329206E+02  0.98433491680E+02  0.00000000000E+00 0.  1.
<mgrwt>
<rscale>  0 0.17792532E+03</rscale>
<asrwt>0</asrwt>
<pdfrwt beam="2">  1        1 0.12711546E-01 0.18338650E+03</pdfrwt>
<pdfrwt beam="1">  1       -1 0.69457462E-01 0.18338650E+03</pdfrwt>
<totfact> 0.10045127E+03</totfact>
</mgrwt>
</event>
<event>
 6    1  0.5258538E-006  0.1417976E+03  0.7546771E-02  0.1211405E+00
         -1   -1    0    0    0  501 -0.00000000000E+00  0.00000000000E+00  0.14132096979E+03  0.14132096979E+03  0.00000000000E+00 0.  1.
          1   -1    0    0  501    0  0.00000000000E+00 -0.00000000000E+00 -0.14112442396E+03  0.14112442396E+03  0.00000000000E+00 0. -1.
          5    1    1    2  502    0  0.34237296594E+02  0.13117053882E+02 -0.30568691361E+02  0.47966493223E+02  0.47000000000E+01 0. -1.
         -5    1    1    2    0  502 -0.35453162465E+02 -0.76968598723E+02  0.36905541738E+02  0.92548370754E+02  0.47000000000E+01 0. -1.
        -11    1    1    2    0    0  0.10700920819E+02  0.82638004597E+02 -0.47217558504E+02  0.95776026965E+02  0.00000000000E+00 0. -1.
         11    1    1    2    0    0 -0.94850549477E+01 -0.18786459756E+02  0.41077253954E+02  0.46154502813E+02  0.00000000000E+00 0.  1.
<mgrwt>
<rscale>  0 0.14143986E+03</rscale>
<asrwt>0</asrwt>
<pdfrwt beam="2">  1        1 0.21711450E-01 0.14179764E+03</pdfrwt>
<pdfrwt beam="1">  1       -1 0.21741688E-01 0.14179764E+03</pdfrwt>
<totfact> 0.38835560E+03</totfact>
</mgrwt>
</event>
<event>
 6    1  0.5258538E-006  0.1267914E+03  0.7546771E-02  0.1242310E+00
         -1   -1    0    0    0  501 -0.00000000000E+00  0.00000000000E+00  0.59690358822E+02  0.59690358822E+02  0.00000000000E+00 0.  1.
          1   -1    0    0  501    0  0.00000000000E+00 -0.00000000000E+00 -0.22484631158E+03  0.22484631158E+03  0.00000000000E+00 0. -1.
          5    1    1    2  502    0  0.21353971028E+02  0.75078360210E+02 -0.88382399813E+02  0.11800970658E+03  0.47000000000E+01 0. -1.
         -5    1    1    2    0  502 -0.33689868310E+02 -0.28195198977E+02 -0.18803599756E+02  0.48017099411E+02  0.47000000000E+01 0.  1.
        -11    1    1    2    0    0 -0.24433482277E+02  0.25677346541E+01 -0.50853881963E+02  0.56477478946E+02  0.00000000000E+00 0. -1.
         11    1    1    2    0    0  0.36769379559E+02 -0.49450895887E+02 -0.71160712305E+01  0.62032385468E+02  0.00000000000E+00 0.  1.
<mgrwt>
<rscale>  0 0.12047848E+03</rscale>
<asrwt>0</asrwt>
<pdfrwt beam="2">  1        1 0.34591741E-01 0.12679141E+03</pdfrwt>
<pdfrwt beam="1">  1       -1 0.91831320E-02 0.12679141E+03</pdfrwt>
<totfact> 0.82836036E+03</totfact>
</mgrwt>
</event>
<event>
 6    1  0.5258538E-006  0.2850514E+03  0.7546771E-02  0.1136394E+00
         -2   -1    0    0    0  501 -0.00000000000E+00  0.00000000000E+00  0.43311626612E+02  0.43311626612E+02  0.00000000000E+00 0.  1.
          2   -1    0    0  501    0  0.00000000000E+00 -0.00000000000E+00 -0.94440221270E+03  0.94440221270E+03  0.00000000000E+00 0. -1.
          5    1    1    2  502    0 -0.84542359284E+02  0.57542582218E+02 -0.57356217250E+03  0.58262699475E+03  0.47000000000E+01 0. -1.
         -5    1    1    2    0  502  0.10967935734E+03 -0.87649885071E+02 -0.22465172765E+03  0.26495764287E+03  0.47000000000E+01 0.  1.
        -11    1    1    2    0    0  0.26093434376E+02 -0.54173029497E+01 -0.10412961211E+02  0.28611959912E+02  0.00000000000E+00 0. -1.
         11    1    1    2    0    0 -0.51230432435E+02  0.35524605803E+02 -0.92463724726E+02  0.11151724178E+03  0.00000000000E+00 0.  1.
<mgrwt>
<rscale>  0 0.21666507E+03</rscale>
<asrwt>0</asrwt>
<pdfrwt beam="2">  1        2 0.14529266E+00 0.28505138E+03</pdfrwt>
<pdfrwt beam="1">  1       -2 0.66633266E-02 0.28505138E+03</pdfrwt>
<totfact> 0.35749140E+03</totfact>
</mgrwt>
</event>
<event>
 6    1  0.5258538E-006  0.3035978E+03  0.7546771E-02  0.1083456E+00
          1   -1    0    0  501    0  0.00000000000E+00  0.00000000000E+00  0.34796686958E+03  0.34796686958E+03  0.00000000000E+00 0. -1.
         -1   -1    0    0    0  501 -0.00000000000E+00 -0.00000000000E+00 -0.66221571027E+02  0.66221571027E+02  0.00000000000E+00 0.  1.
          5    1    1    2  502    0  0.26252366347E+02  0.26461850056E+02  0.17846149689E+02  0.41593164173E+02  0.47000000000E+01 0. -1.
         -5    1    1    2    0  502 -0.10678390252E+03  0.27745257391E+02  0.18841045888E+03  0.21838771065E+03  0.47000000000E+01 0. -1.
        -11    1    1    2    0    0  0.34278130876E+02 -0.32285566568E+02 -0.15698717742E+02  0.49636657862E+02  0.00000000000E+00 0.  1.
         11    1    1    2    0    0  0.46253405300E+02 -0.21921540879E+02  0.91187407724E+02  0.10457090792E+03  0.00000000000E+00 0. -1.
<mgrwt>
<rscale>  0 0.30359784E+03</rscale>
<asrwt>0</asrwt>
<pdfrwt beam="1">  1        1 0.53533364E-01 0.30359784E+03</pdfrwt>
<pdfrwt beam="2">  1       -1 0.10187934E-01 0.30359784E+03</pdfrwt>
<totfact> 0.42863729E+03</totfact>
</mgrwt>
</event>
<event>
 6    1  0.5258538E-006  0.1593342E+03  0.7546771E-02  0.1208383E+00
          2   -1    0    0  501    0  0.00000000000E+00  0.00000000000E+00  0.60105311968E+03  0.60105311968E+03  0.00000000000E+00 0. -1.
         -2   -1    0    0    0  501 -0.00000000000E+00 -0.00000000000E+00 -0.29478401156E+02  0.29478401156E+02  0.00000000000E+00 0.  1.
          5    1    1    2  502    0  0.68828741356E+02  0.32548158939E+02  0.19135565725E+03  0.20599965012E+03  0.47000000000E+01 0. -1.
         -5    1    1    2    0  502 -0.76548844184E+02  0.19926369674E+02  0.12080716392E+03  0.14447576478E+03  0.47000000000E+01 0.  1.
        -11    1    1    2    0    0 -0.38903625709E+02 -0.92751943218E+01  0.12757821989E+03  0.13370012533E+03  0.00000000000E+00 0.  1.
         11    1    1    2    0    0  0.46623728537E+02 -0.43199334292E+02  0.13183367746E+03  0.14635598061E+03  0.00000000000E+00 0. -1.
<mgrwt>
<rscale>  0 0.14373987E+03</rscale>
<asrwt>0</asrwt>
<pdfrwt beam="1">  1        2 0.92469702E-01 0.15933421E+03</pdfrwt>
<pdfrwt beam="2">  1       -2 0.45351391E-02 0.15933421E+03</pdfrwt>
<totfact> 0.11026629E+04</totfact>
</mgrwt>
</event>
<event>
 6    1  0.5258538E-006  0.1262931E+03  0.7546771E-02  0.1249222E+00
          1   -1    0    0  501    0  0.00000000000E+00  0.00000000000E+00  0.15724322345E+03  0.15724322345E+03  0.00000000000E+00 0. -1.
         -1   -1    0    0    0  501 -0.00000000000E+00 -0.00000000000E+00 -0.78769091863E+02  0.78769091863E+02  0.00000000000E+00 0.  1.
          5    1    1    2  502    0 -0.42916597953E+02  0.11438889119E+02 -0.67883290152E+01  0.45175811835E+02  0.47000000000E+01 0. -1.
         -5    1    1    2    0  502  0.60618141637E+02 -0.14863183479E+02  0.77317879286E+02  0.99476719769E+02  0.47000000000E+01 0. -1.
        -11    1    1    2    0    0 -0.53053830998E+02  0.11325625010E+02 -0.11574855174E+00  0.54249351730E+02  0.00000000000E+00 0.  1.
         11    1    1    2    0    0  0.35352287314E+02 -0.79013306501E+01  0.80603298719E+01  0.37110431984E+02  0.00000000000E+00 0. -1.
<mgrwt>
<rscale>  0 0.11636204E+03</rscale>
<asrwt>0</asrwt>
<pdfrwt beam="1">  1        1 0.24191265E-01 0.12629306E+03</pdfrwt>
<pdfrwt beam="2">  1       -1 0.12118322E-01 0.12629306E+03</pdfrwt>
<totfact> 0.84565818E+03</totfact>
</mgrwt>
</event>
<event>
 6    1  0.5258538E-006  0.1311829E+03  0.7546771E-02  0.1239108E+00
         -2   -1    0    0    0  501 -0.00000000000E+00  0.00000000000E+00  0.15789773392E+02  0.15789773392E+02  0.00000000000E+00 0.  1.
          2   -1    0    0  501    0  0.00000000000E+00 -0.00000000000E+00 -0.98808822193E+03  0.98808822193E+03  0.00000000000E+00 0. -1.
          5    1    1    2  502    0 -0.44800724212E+01 -0.46008644859E+02 -0.36299327193E+03  0.36595501352E+03  0.47000000000E+01 0.  1.
         -5    1    1    2    0  502 -0.18830181239E+02  0.78286312827E+02 -0.37061966881E+03  0.37929454439E+03  0.47000000000E+01 0.  1.
        -11    1    1    2    0    0 -0.12401334566E+02  0.20893378918E+02 -0.22358971040E+02  0.33018933471E+02  0.00000000000E+00 0.  1.
         11    1    1    2    0    0  0.35711588226E+02 -0.53171046886E+02 -0.21632653676E+03  0.22560950394E+03  0.00000000000E+00 0. -1.
<mgrwt>
<rscale>  0 0.12245045E+03</rscale>
<asrwt>0</asrwt>
<pdfrwt beam="2">  1        2 0.15201363E+00 0.13118291E+03</pdfrwt>
<pdfrwt beam="1">  1       -2 0.24291950E-02 0.13118291E+03</pdfrwt>
<totfact> 0.14801622E+04</totfact>
</mgrwt>
</event>
<event>
 6    1  0.5258538E-006  0.1476986E+03  0.7546771E-02  0.1213133E+00
         -2   -1    0    0    0  501 -0.00000000000E+00  0.00000000000E+00  0.36947201537E+02  0.36947201537E+02  0.00000000000E+00 0.  1.
          2   -1    0    0  501    0  0.00000000000E+00 -0.00000000000E+00 -0.52697128319E+03  0.52697128319E+03  0.00000000000E+00 0. -1.
          5    1    1    2  502    0 -0.75231210741E+02  0.12517750133E+02 -0.10698303349E+03  0.13146820373E+03  0.47000000000E+01 0. -1.
         -5    1    1    2    0  502  0.67400013410E+01 -0.51215249912E+02 -0.24176280527E+03  0.24726458189E+03  0.47000000000E+01 0. -1.
        -11    1    1    2    0    0 -0.16023309299E+02  0.19204839932E+02 -0.81677260275E+01  0.26311291610E+02  0.00000000000E+00 0.  1.
         11    1    1    2    0    0  0.84514518700E+02  0.19492659847E+02 -0.13311051687E+03  0.15887440750E+03  0.00000000000E+00 0. -1.
<mgrwt>
<rscale>  0 0.14014541E+03</rscale>
<asrwt>0</asrwt>
<pdfrwt beam="2">  1        2 0.81072509E-01 0.14769855E+03</pdfrwt>
<pdfrwt beam="1">  1       -2 0.56841846E-02 0.14769855E+03</pdfrwt>
<totfact> 0.90548049E+03</totfact>
</mgrwt>
</event>
<event>
 6    1  0.5258538E-006  0.1233060E+03  0.7546771E-02  0.1248255E+00
         -2   -1    0    0    0  501 -0.00000000000E+00  0.00000000000E+00  0.11928969590E+03  0.11928969590E+03  0.00000000000E+00 0.  1.
          2   -1    0    0  501    0  0.00000000000E+00 -0.00000000000E+00 -0.26501827821E+03  0.26501827821E+03  0.00000000000E+00 0. -1.
          5    1    1    2  502    0 -0.21024199052E+02  0.38483750050E+02 -0.19421874331E+03  0.19916331544E+03  0.47000000000E+01 0. -1.
         -5    1    1    2    0  502  0.47293023818E+02 -0.99487308717E+01 -0.31021374966E+02  0.57619641205E+02  0.47000000000E+01 0.  1.
        -11    1    1    2    0    0  0.18605362702E+02 -0.28272146024E+02 -0.26069110113E+01  0.33945099014E+02  0.00000000000E+00 0. -1.
         11    1    1    2    0    0 -0.44874187468E+02 -0.26287315440E+00  0.82118446976E+02  0.93579918450E+02  0.00000000000E+00 0.  1.
<mgrwt>
<rscale>  0 0.11692692E+03</rscale>
<asrwt>0</asrwt>
<pdfrwt beam="2">  1        2 0.40772043E-01 0.12330603E+03</pdfrwt>
<pdfrwt beam="1">  1       -2 0.18352261E-01 0.12330603E+03</pdfrwt>
<totfact> 0.29383184E+03</totfact>
</mgrwt>
</event>
<event>
 6    1  0.5258538E-006  0.1308062E+03  0.7546771E-02  0.1239122E+00
          2   -1    0    0  501    0  0.00000000000E+00  0.00000000000E+00  0.39394522176E+03  0.39394522176E+03  0.00000000000E+00 0. -1.
         -2   -1    0    0    0  501 -0.00000000000E+00 -0.00000000000E+00 -0.34767751937E+02  0.34767751937E+02  0.00000000000E+00 0.  1.
          5    1    1    2  502    0 -0.55085204296E+02  0.51213562662E+02  0.98378800744E+02  0.12392613594E+03  0.47000000000E+01 0. -1.
         -5    1    1    2    0  502  0.17017919267E+02 -0.45208053061E+02  0.13721152096E+03  0.14554198405E+03  0.47000000000E+01 0. -1.
        -11    1    1    2    0    0 -0.32487748259E+01 -0.13234849907E+02 -0.11477659653E+02  0.17817195656E+02  0.00000000000E+00 0.  1.
         11    1    1    2    0    0  0.41316059855E+02  0.72293403062E+01  0.13506480777E+03  0.14142765805E+03  0.00000000000E+00 0. -1.
<mgrwt>
<rscale>  0 0.12244232E+03</rscale>
<asrwt>0</asrwt>
<pdfrwt beam="1">  1        2 0.60606954E-01 0.13080622E+03</pdfrwt>
<pdfrwt beam="2">  1       -2 0.53488852E-02 0.13080622E+03</pdfrwt>
<totfact> 0.13495019E+04</totfact>
</mgrwt>
</event>
<event>
 6    1  0.5258538E-006  0.1581482E+03  0.7546771E-02  0.1199021E+00
         -2   -1    0    0    0  501 -0.00000000000E+00  0.00000000000E+00  0.21405407391E+02  0.21405407391E+02  0.00000000000E+00 0.  1.
          2   -1    0    0  501    0  0.00000000000E+00 -0.00000000000E+00 -0.10042769868E+04  0.10042769868E+04  0.00000000000E+00 0. -1.
          5    1    1    2  502    0 -0.92355320698E+02 -0.46226290973E+02 -0.23779294068E+03  0.25929509806E+03  0.47000000000E+01 0.  1.
         -5    1    1    2    0  502 -0.45303321596E+01  0.46292357579E+02 -0.22402516438E+03  0.22885119740E+03  0.47000000000E+01 0.  1.
        -11    1    1    2    0    0  0.99446280090E+02 -0.19005835717E+02 -0.49486107823E+03  0.50511213721E+03  0.00000000000E+00 0.  1.
         11    1    1    2    0    0 -0.25606272330E+01  0.18939769111E+02 -0.26192396131E+02  0.32423961523E+02  0.00000000000E+00 0. -1.
<mgrwt>
<rscale>  0 0.15118802E+03</rscale>
<asrwt>0</asrwt>
<pdfrwt beam="2">  1        2 0.15450415E+00 0.15814817E+03</pdfrwt>
<pdfrwt beam="1">  1       -2 0.32931396E-02 0.15814817E+03</pdfrwt>
<totfact> 0.93576361E+03</totfact>
</mgrwt>
</event>
<event>
 6    1  0.5258538E-006  0.1265544E+03  0.7546771E-02  0.1247765E+00
         -1   -1    0    0    0  501 -0.00000000000E+00  0.00000000000E+00  0.98421161568E+01  0.98421161568E+01  0.00000000000E+00 0.  1.
          1   -1    0    0  501    0  0.00000000000E+00 -0.00000000000E+00 -0.19195436915E+04  0.19195436915E+04  0.00000000000E+00 0. -1.
          5    1    1    2  502    0 -0.22269193124E+02 -0.46843614234E+02 -0.10188022541E+04  0.10201325228E+04  0.47000000000E+01 0.  1.
         -5    1    1    2    0  502  0.13354822328E+02  0.64491228156E+02 -0.60443602492E+03  0.60803163405E+03  0.47000000000E+01 0.  1.
        -11    1    1    2    0    0 -0.24023318237E+02  0.13898857155E+02 -0.30544232128E+02  0.41270427253E+02  0.00000000000E+00 0.  1.
         11    1    1    2    0    0  0.32937689033E+02 -0.31546471076E+02 -0.25591906416E+03  0.25995122350E+03  0.00000000000E+00 0. -1.
<mgrwt>
<rscale>  0 0.11721433E+03</rscale>
<asrwt>0</asrwt>
<pdfrwt beam="2">  1        1 0.29531446E+00 0.12655438E+03</pdfrwt>
<pdfrwt beam="1">  1       -1 0.15141715E-02 0.12655438E+03</pdfrwt>
<totfact> 0.38805413E+03</totfact>
</mgrwt>
</event>
<event>
 6    1  0.5258538E-006  0.1313039E+03  0.7546771E-02  0.1238901E+00
         -1   -1    0    0    0  501 -0.00000000000E+00  0.00000000000E+00  0.12950951093E+02  0.12950951093E+02  0.00000000000E+00 0.  1.
          1   -1    0    0  501    0  0.00000000000E+00 -0.00000000000E+00 -0.11342236497E+04  0.11342236497E+04  0.00000000000E+00 0. -1.
          5    1    1    2  502    0  0.29293815074E+02  0.18274384048E+02 -0.51887919288E+02  0.62502215016E+02  0.47000000000E+01 0. -1.
         -5    1    1    2    0  502  0.77384698037E+01 -0.26317398433E+01 -0.75041389657E+03  0.75047312819E+03  0.47000000000E+01 0. -1.
        -11    1    1    2    0    0  0.25010178084E+02 -0.45000393534E+00 -0.34313625590E+02  0.42463353759E+02  0.00000000000E+00 0.  1.
         11    1    1    2    0    0 -0.62042462961E+02 -0.15192640269E+02 -0.28465725715E+03  0.29173590382E+03  0.00000000000E+00 0. -1.
<mgrwt>
<rscale>  0 0.12257958E+03</rscale>
<asrwt>0</asrwt>
<pdfrwt beam="2">  1        1 0.17449591E+00 0.13130386E+03</pdfrwt>
<pdfrwt beam="1">  1       -1 0.19924544E-02 0.13130386E+03</pdfrwt>
<totfact> 0.85076520E+03</totfact>
</mgrwt>
</event>
<event>
 6    1  0.5258538E-006  0.2124320E+03  0.7546771E-02  0.1164047E+00
         -3   -1    0    0    0  501 -0.00000000000E+00  0.00000000000E+00  0.25758787919E+03  0.25758787919E+03  0.00000000000E+00 0.  1.
          3   -1    0    0  501    0  0.00000000000E+00 -0.00000000000E+00 -0.12693737129E+03  0.12693737129E+03  0.00000000000E+00 0. -1.
          5    1    1    2  502    0  0.24570264572E+02 -0.41464735217E+02 -0.94932308296E+02  0.10657042426E+03  0.47000000000E+01 0. -1.
         -5    1    1    2    0  502  0.14123676463E+02 -0.25383588986E+02  0.10180533613E+03  0.10597273843E+03  0.47000000000E+01 0.  1.
        -11    1    1    2    0    0 -0.23878367245E+02  0.24754811280E+02  0.12260925590E+03  0.12734208549E+03  0.00000000000E+00 0.  1.
         11    1    1    2    0    0 -0.14815573789E+02  0.42093512924E+02  0.11682241644E+01  0.44640002293E+02  0.00000000000E+00 0. -1.
<mgrwt>
<rscale>  0 0.18393670E+03</rscale>
<asrwt>0</asrwt>
<pdfrwt beam="2">  1        3 0.19528826E-01 0.21243201E+03</pdfrwt>
<pdfrwt beam="1">  1       -3 0.39628904E-01 0.21243201E+03</pdfrwt>
<totfact> 0.36395647E+02</totfact>
</mgrwt>
</event>
<event>
 6    1  0.5258538E-006  0.1405078E+03  0.7546771E-02  0.1230958E+00
          3   -1    0    0  501    0  0.00000000000E+00  0.00000000000E+00  0.64931241407E+03  0.64931241407E+03  0.00000000000E+00 0. -1.
         -3   -1    0    0    0  501 -0.00000000000E+00 -0.00000000000E+00 -0.15142078472E+03  0.15142078472E+03  0.00000000000E+00 0.  1.
          5    1    1    2  502    0 -0.61089035042E+02 -0.62622866149E+01  0.15407681624E+03  0.16593023154E+03  0.47000000000E+01 0. -1.
         -5    1    1    2    0  502  0.44243172493E+02  0.39418679035E+02  0.47147858628E+03  0.47521094041E+03  0.47000000000E+01 0.  1.
        -11    1    1    2    0    0  0.44616593174E+02 -0.64176099947E+01 -0.10642595488E+03  0.11557815527E+03  0.00000000000E+00 0.  1.
         11    1    1    2    0    0 -0.27770730625E+02 -0.26738782425E+02 -0.21237818284E+02  0.44013871569E+02  0.00000000000E+00 0. -1.
<mgrwt>
<rscale>  0 0.12766763E+03</rscale>
<asrwt>0</asrwt>
<pdfrwt beam="1">  1        3 0.99894216E-01 0.14050780E+03</pdfrwt>
<pdfrwt beam="2">  1       -3 0.23295506E-01 0.14050780E+03</pdfrwt>
<totfact> 0.36911971E+01</totfact>
</mgrwt>
</event>
<event>
 6    1  0.5258538E-006  0.1350951E+03  0.7546771E-02  0.1233396E+00
         -2   -1    0    0    0  501 -0.00000000000E+00  0.00000000000E+00  0.80059275322E+02  0.80059275322E+02  0.00000000000E+00 0.  1.
          2   -1    0    0  501    0  0.00000000000E+00 -0.00000000000E+00 -0.18035052626E+03  0.18035052626E+03  0.00000000000E+00 0. -1.
          5    1    1    2  502    0  0.28464068342E+02 -0.18740111904E+02  0.30034814064E+02  0.45668096485E+02  0.47000000000E+01 0. -1.
         -5    1    1    2    0  502  0.22391388426E+02  0.12332056209E+02 -0.10637534114E+03  0.10950459848E+03  0.47000000000E+01 0. -1.
        -11    1    1    2    0    0 -0.31184730541E+02  0.39307825358E+02 -0.39513598553E+02  0.63866399804E+02  0.00000000000E+00 0. -1.
         11    1    1    2    0    0 -0.19670726227E+02 -0.32899769663E+02  0.15562874685E+02  0.41370706818E+02  0.00000000000E+00 0.  1.
<mgrwt>
<rscale>  0 0.12607665E+03</rscale>
<asrwt>0</asrwt>
<pdfrwt beam="2">  1        2 0.27746234E-01 0.13509511E+03</pdfrwt>
<pdfrwt beam="1">  1       -2 0.12316812E-01 0.13509511E+03</pdfrwt>
<totfact> 0.85658464E+03</totfact>
</mgrwt>
</event>
<event>
 6    1  0.5258538E-006  0.2108396E+03  0.7546771E-02  0.1144636E+00
         -1   -1    0    0    0  501 -0.00000000000E+00  0.00000000000E+00  0.19229594990E+02  0.19229594990E+02  0.00000000000E+00 0.  1.
          1   -1    0    0  501    0  0.00000000000E+00 -0.00000000000E+00 -0.22513586869E+04  0.22513586869E+04  0.00000000000E+00 0. -1.
          5    1    1    2  502    0 -0.64599386139E+02 -0.46652333493E+02 -0.31029618989E+03  0.32039871469E+03  0.47000000000E+01 0. -1.
         -5    1    1    2    0  502 -0.10447094702E+03  0.31057026542E+02 -0.11289957056E+04  0.11342539887E+04  0.47000000000E+01 0. -1.
        -11    1    1    2    0    0  0.15679926758E+03  0.10900423066E+02 -0.78511927220E+03  0.80069788380E+03  0.00000000000E+00 0. -1.
         11    1    1    2    0    0  0.12271065579E+02  0.46948838853E+01 -0.77179242183E+01  0.15237694687E+02  0.00000000000E+00 0.  1.
<mgrwt>
<rscale>  0 0.20616913E+03</rscale>
<asrwt>0</asrwt>
<pdfrwt beam="2">  1        1 0.34636282E+00 0.21083958E+03</pdfrwt>
<pdfrwt beam="1">  1       -1 0.29583997E-02 0.21083958E+03</pdfrwt>
<totfact> 0.89697074E+02</totfact>
</mgrwt>
</event>
<event>
 6    1  0.5258538E-006  0.1620615E+03  0.7546771E-02  0.1193713E+00
          1   -1    0    0  501    0  0.00000000000E+00  0.00000000000E+00  0.12082044170E+04  0.12082044170E+04  0.00000000000E+00 0. -1.
         -1   -1    0    0    0  501 -0.00000000000E+00 -0.00000000000E+00 -0.18630431840E+02  0.18630431840E+02  0.00000000000E+00 0.  1.
          5    1    1    2  502    0 -0.12009861721E+02  0.51168904876E+02  0.19384095961E+03  0.20089524939E+03  0.47000000000E+01 0.  1.
         -5    1    1    2    0  502  0.10795491819E+03 -0.13319890194E+02  0.46838075395E+03  0.48086828187E+03  0.47000000000E+01 0.  1.
        -11    1    1    2    0    0 -0.90125429874E+02 -0.62719917742E+02  0.46284802190E+03  0.47569388536E+03  0.00000000000E+00 0. -1.
         11    1    1    2    0    0 -0.58196265906E+01  0.24870903059E+02  0.64504249692E+02  0.69377432217E+02  0.00000000000E+00 0.  1.
<mgrwt>
<rscale>  0 0.15563621E+03</rscale>
<asrwt>0</asrwt>
<pdfrwt beam="1">  1        1 0.18587754E+00 0.16206145E+03</pdfrwt>
<pdfrwt beam="2">  1       -1 0.28662212E-02 0.16206145E+03</pdfrwt>
<totfact> 0.45000547E+03</totfact>
</mgrwt>
</event>
<event>
 6    1  0.5258538E-006  0.3110869E+03  0.7546771E-02  0.1079826E+00
         -1   -1    0    0    0  501 -0.00000000000E+00  0.00000000000E+00  0.32267319286E+02  0.32267319286E+02  0.00000000000E+00 0.  1.
          1   -1    0    0  501    0  0.00000000000E+00 -0.00000000000E+00 -0.74979175087E+03  0.74979175087E+03  0.00000000000E+00 0. -1.
          5    1    1    2  502    0 -0.12091674010E+03  0.16799025154E+02 -0.34682421940E+03  0.36771210811E+03  0.47000000000E+01 0. -1.
         -5    1    1    2    0  502  0.12640481999E+02 -0.90101662964E+01  0.41799236522E+00  0.16224352051E+02  0.47000000000E+01 0. -1.
        -11    1    1    2    0    0  0.89223604815E+02 -0.45373653732E+02 -0.22976743130E+03  0.25062460493E+03  0.00000000000E+00 0.  1.
         11    1    1    2    0    0  0.19052653287E+02  0.37584794874E+02 -0.14135077324E+03  0.14749800507E+03  0.00000000000E+00 0. -1.
<mgrwt>
<rscale>  0 0.31108693E+03</rscale>
<asrwt>0</asrwt>
<pdfrwt beam="2">  1        1 0.11535257E+00 0.31108693E+03</pdfrwt>
<pdfrwt beam="1">  1       -1 0.49642032E-02 0.31108693E+03</pdfrwt>
<totfact> 0.45327287E+03</totfact>
</mgrwt>
</event>
<event>
 6    1  0.5258538E-006  0.1266446E+03  0.7546771E-02  0.1247254E+00
          1   -1    0    0  501    0  0.00000000000E+00  0.00000000000E+00  0.32516202512E+03  0.32516202512E+03  0.00000000000E+00 0. -1.
         -1   -1    0    0    0  501 -0.00000000000E+00 -0.00000000000E+00 -0.37400107400E+02  0.37400107400E+02  0.00000000000E+00 0.  1.
          5    1    1    2  502    0  0.22639860813E+01  0.42670638552E+02  0.14342393160E+03  0.14972783035E+03  0.47000000000E+01 0. -1.
         -5    1    1    2    0  502 -0.20775602800E+02 -0.51106228449E+02  0.24366043222E+02  0.60491869869E+02  0.47000000000E+01 0. -1.
        -11    1    1    2    0    0 -0.29303389242E+01 -0.26524082424E+02  0.12257074095E+01  0.26713595664E+02  0.00000000000E+00 0.  1.
         11    1    1    2    0    0  0.21441955643E+02  0.34959672321E+02  0.11874623549E+03  0.12562883663E+03  0.00000000000E+00 0. -1.
<mgrwt>
<rscale>  0 0.11751476E+03</rscale>
<asrwt>0</asrwt>
<pdfrwt beam="1">  1        1 0.50024925E-01 0.12664457E+03</pdfrwt>
<pdfrwt beam="2">  1       -1 0.57538629E-02 0.12664457E+03</pdfrwt>
<totfact> 0.10588619E+04</totfact>
</mgrwt>
</event>
<event>
 6    1  0.5258538E-006  0.1524379E+03  0.7546771E-02  0.1206326E+00
         -1   -1    0    0    0  501 -0.00000000000E+00  0.00000000000E+00  0.35336271250E+02  0.35336271250E+02  0.00000000000E+00 0.  1.
          1   -1    0    0  501    0  0.00000000000E+00 -0.00000000000E+00 -0.54836268687E+03  0.54836268687E+03  0.00000000000E+00 0. -1.
          5    1    1    2  502    0  0.23314195568E+02  0.32815881073E+02 -0.26538340696E+03  0.26846019529E+03  0.47000000000E+01 0.  1.
         -5    1    1    2    0  502  0.37196066500E+01  0.50154309252E+02 -0.18556860603E+02  0.53812055207E+02  0.47000000000E+01 0.  1.
        -11    1    1    2    0    0  0.13261140217E+02 -0.77175070892E+02 -0.10602784809E+03  0.13180953675E+03  0.00000000000E+00 0.  1.
         11    1    1    2    0    0 -0.40294942435E+02 -0.57951194334E+01 -0.12305829996E+03  0.12961717087E+03  0.00000000000E+00 0. -1.
<mgrwt>
<rscale>  0 0.14533478E+03</rscale>
<asrwt>0</asrwt>
<pdfrwt beam="2">  1        1 0.84363493E-01 0.15243795E+03</pdfrwt>
<pdfrwt beam="1">  1       -1 0.54363493E-02 0.15243795E+03</pdfrwt>
<totfact> 0.59864221E+03</totfact>
</mgrwt>
</event>
<event>
 6    1  0.5258538E-006  0.1458903E+03  0.7546771E-02  0.1216002E+00
          2   -1    0    0  501    0  0.00000000000E+00  0.00000000000E+00  0.62392470702E+03  0.62392470702E+03  0.00000000000E+00 0. -1.
         -2   -1    0    0    0  501 -0.00000000000E+00 -0.00000000000E+00 -0.30962149959E+02  0.30962149959E+02  0.00000000000E+00 0.  1.
          5    1    1    2  502    0  0.24956701749E+02 -0.95397395010E+01  0.26222600122E+02  0.37730072212E+02  0.47000000000E+01 0.  1.
         -5    1    1    2    0  502 -0.99813070249E+02  0.16933416853E+02  0.40563381910E+03  0.41810318678E+03  0.47000000000E+01 0.  1.
        -11    1    1    2    0    0  0.55143320784E+02 -0.18076937283E+02  0.16621775456E+03  0.17605653472E+03  0.00000000000E+00 0. -1.
         11    1    1    2    0    0  0.19713047717E+02  0.10683259931E+02 -0.51116167224E+01  0.22997063260E+02  0.00000000000E+00 0.  1.
<mgrwt>
<rscale>  0 0.13803196E+03</rscale>
<asrwt>0</asrwt>
<pdfrwt beam="1">  1        2 0.95988407E-01 0.14589035E+03</pdfrwt>
<pdfrwt beam="2">  1       -2 0.47634082E-02 0.14589035E+03</pdfrwt>
<totfact> 0.97575433E+03</totfact>
</mgrwt>
</event>
<event>
 6    1  0.5258538E-006  0.4163937E+03  0.7546771E-02  0.1038882E+00
         -1   -1    0    0    0  501 -0.00000000000E+00  0.00000000000E+00  0.79770894085E+03  0.79770894085E+03  0.00000000000E+00 0.  1.
          1   -1    0    0  501    0  0.00000000000E+00 -0.00000000000E+00 -0.22885269083E+03  0.22885269083E+03  0.00000000000E+00 0. -1.
          5    1    1    2  502    0  0.98649927475E+01 -0.16025849408E+02  0.12693969651E+01  0.19438294674E+02  0.47000000000E+01 0. -1.
         -5    1    1    2    0  502 -0.32970558907E+03 -0.21947623610E+03  0.15214590119E+03  0.42431834621E+03  0.47000000000E+01 0. -1.
        -11    1    1    2    0    0  0.72641369881E+02  0.37825668396E+02  0.38206587098E+02  0.90373077326E+02  0.00000000000E+00 0. -1.
         11    1    1    2    0    0  0.24719922645E+03  0.19767641711E+03  0.37723436477E+03  0.49243191347E+03  0.00000000000E+00 0.  1.
<mgrwt>
<rscale>  0 0.41446758E+03</rscale>
<asrwt>0</asrwt>
<pdfrwt beam="2">  1        1 0.35208106E-01 0.41639369E+03</pdfrwt>
<pdfrwt beam="1">  1       -1 0.12272445E+00 0.41639369E+03</pdfrwt>
<totfact> 0.76532202E+01</totfact>
</mgrwt>
</event>
<event>
 6    1  0.5258538E-006  0.2776836E+03  0.7546771E-02  0.1096961E+00
          2   -1    0    0  501    0  0.00000000000E+00  0.00000000000E+00  0.85261783635E+03  0.85261783635E+03  0.00000000000E+00 0. -1.
         -2   -1    0    0    0  501 -0.00000000000E+00 -0.00000000000E+00 -0.22609248669E+02  0.22609248669E+02  0.00000000000E+00 0.  1.
          5    1    1    2  502    0 -0.60053676885E+02 -0.75034613860E+02  0.20177781889E+03  0.22354645061E+03  0.47000000000E+01 0.  1.
         -5    1    1    2    0  502 -0.10788162464E+02  0.30159117683E+02  0.26333035785E+03  0.26531287981E+03  0.47000000000E+01 0.  1.
        -11    1    1    2    0    0  0.47111889998E+02 -0.68513557484E+01  0.62010904420E+02  0.78178152458E+02  0.00000000000E+00 0.  1.
         11    1    1    2    0    0  0.23729949351E+02  0.51726851926E+02  0.30288950652E+03  0.30818960214E+03  0.00000000000E+00 0. -1.
<mgrwt>
<rscale>  0 0.27768362E+03</rscale>
<asrwt>0</asrwt>
<pdfrwt beam="1">  1        2 0.13117195E+00 0.27768362E+03</pdfrwt>
<pdfrwt beam="2">  1       -2 0.34783466E-02 0.27768362E+03</pdfrwt>
<totfact> 0.11049310E+04</totfact>
</mgrwt>
</event>
<event>
 6    1  0.5258538E-006  0.1315942E+03  0.7546771E-02  0.1238646E+00
          1   -1    0    0  501    0  0.00000000000E+00  0.00000000000E+00  0.30990398810E+03  0.30990398810E+03  0.00000000000E+00 0. -1.
         -1   -1    0    0    0  501 -0.00000000000E+00 -0.00000000000E+00 -0.50178305557E+02  0.50178305557E+02  0.00000000000E+00 0.  1.
          5    1    1    2  502    0 -0.57059059431E+02  0.27011134668E+02  0.62132896965E+02  0.88701322113E+02  0.47000000000E+01 0. -1.
         -5    1    1    2    0  502  0.56333862194E+02  0.14126394190E+02  0.15016403276E+03  0.16107261027E+03  0.47000000000E+01 0. -1.
        -11    1    1    2    0    0  0.42065570653E+01 -0.62658540182E+02  0.58528055027E+02  0.85844749434E+02  0.00000000000E+00 0.  1.
         11    1    1    2    0    0 -0.34813598283E+01  0.21521011323E+02 -0.11099302215E+02  0.24463611841E+02  0.00000000000E+00 0. -1.
<mgrwt>
<rscale>  0 0.12273912E+03</rscale>
<asrwt>0</asrwt>
<pdfrwt beam="1">  1        1 0.47677535E-01 0.13159419E+03</pdfrwt>
<pdfrwt beam="2">  1       -1 0.77197395E-02 0.13159419E+03</pdfrwt>
<totfact> 0.72641755E+03</totfact>
</mgrwt>
</event>
<event>
 6    1  0.5258538E-006  0.1534319E+03  0.7546771E-02  0.1205430E+00
         -2   -1    0    0    0  501 -0.00000000000E+00  0.00000000000E+00  0.90106513690E+02  0.90106513690E+02  0.00000000000E+00 0.  1.
          2   -1    0    0  501    0  0.00000000000E+00 -0.00000000000E+00 -0.22100636020E+03  0.22100636020E+03  0.00000000000E+00 0. -1.
          5    1    1    2  502    0  0.25048470368E+02  0.32845143069E+01  0.38052584183E+02  0.45916261444E+02  0.47000000000E+01 0. -1.
         -5    1    1    2    0  502  0.41886309896E+02 -0.61904625385E+02 -0.87749470666E+02  0.11536336161E+03  0.47000000000E+01 0. -1.
        -11    1    1    2    0    0 -0.50903303468E+02  0.82609972664E+02 -0.61122150920E+02  0.11467986406E+03  0.00000000000E+00 0.  1.
         11    1    1    2    0    0 -0.16031476796E+02 -0.23989861586E+02 -0.20080809106E+02  0.35153386771E+02  0.00000000000E+00 0. -1.
<mgrwt>
<rscale>  0 0.14603641E+03</rscale>
<asrwt>0</asrwt>
<pdfrwt beam="2">  1        2 0.34000978E-01 0.15343186E+03</pdfrwt>
<pdfrwt beam="1">  1       -2 0.13862541E-01 0.15343186E+03</pdfrwt>
<totfact> 0.57288299E+03</totfact>
</mgrwt>
</event>
<event>
 6    1  0.5258538E-006  0.1519506E+03  0.7546771E-02  0.1206786E+00
         -2   -1    0    0    0  501 -0.00000000000E+00  0.00000000000E+00  0.12672613398E+03  0.12672613398E+03  0.00000000000E+00 0.  1.
          2   -1    0    0  501    0  0.00000000000E+00 -0.00000000000E+00 -0.17613387262E+03  0.17613387262E+03  0.00000000000E+00 0. -1.
          5    1    1    2  502    0 -0.73057634603E+01 -0.45601854511E+02 -0.56646547499E+01  0.46766244536E+02  0.47000000000E+01 0.  1.
         -5    1    1    2    0  502 -0.77207886254E+02  0.63514581474E+02 -0.76516282921E+02  0.12598409150E+03  0.47000000000E+01 0.  1.
        -11    1    1    2    0    0  0.95923188266E+01 -0.39220940976E+02 -0.95083630391E+01  0.41481366409E+02  0.00000000000E+00 0. -1.
         11    1    1    2    0    0  0.74921330887E+02  0.21308214012E+02  0.42281562068E+02  0.88628304154E+02  0.00000000000E+00 0.  1.
<mgrwt>
<rscale>  0 0.14497583E+03</rscale>
<asrwt>0</asrwt>
<pdfrwt beam="2">  1        2 0.27097519E-01 0.15195056E+03</pdfrwt>
<pdfrwt beam="1">  1       -2 0.19496328E-01 0.15195056E+03</pdfrwt>
<totfact> 0.41647193E+03</totfact>
</mgrwt>
</event>
<event>
 6    1  0.5258538E-006  0.1376617E+03  0.7546771E-02  0.1226600E+00
         -1   -1    0    0    0  501 -0.00000000000E+00  0.00000000000E+00  0.66356006836E+02  0.66356006836E+02  0.00000000000E+00 0.  1.
          1   -1    0    0  501    0  0.00000000000E+00 -0.00000000000E+00 -0.24659027556E+03  0.24659027556E+03  0.00000000000E+00 0. -1.
          5    1    1    2  502    0 -0.13381388476E+02 -0.95562030426E+02 -0.10623346019E+03  0.14359248337E+03  0.47000000000E+01 0.  1.
         -5    1    1    2    0  502  0.11442075255E+02  0.37907825661E+02 -0.28346489094E+02  0.48923795605E+02  0.47000000000E+01 0.  1.
        -11    1    1    2    0    0  0.38729850689E+02  0.15296251791E+01 -0.35495329323E+02  0.52557202088E+02  0.00000000000E+00 0.  1.
         11    1    1    2    0    0 -0.36790537468E+02  0.56124579586E+02 -0.10158990122E+02  0.67872801336E+02  0.00000000000E+00 0. -1.
<mgrwt>
<rscale>  0 0.13057832E+03</rscale>
<asrwt>0</asrwt>
<pdfrwt beam="2">  1        1 0.37936965E-01 0.13766174E+03</pdfrwt>
<pdfrwt beam="1">  1       -1 0.10208617E-01 0.13766174E+03</pdfrwt>
<totfact> 0.63260070E+03</totfact>
</mgrwt>
</event>
<event>
 6    1  0.5258538E-006  0.1216817E+03  0.7546771E-02  0.1248291E+00
         -3   -1    0    0    0  501 -0.00000000000E+00  0.00000000000E+00  0.43885523174E+03  0.43885523174E+03  0.00000000000E+00 0.  1.
          3   -1    0    0  501    0  0.00000000000E+00 -0.00000000000E+00 -0.31719001214E+02  0.31719001214E+02  0.00000000000E+00 0. -1.
          5    1    1    2  502    0  0.32449480702E+02  0.14500663951E+02  0.36871203349E+02  0.51427752131E+02  0.47000000000E+01 0. -1.
         -5    1    1    2    0  502 -0.81833835648E+02 -0.23975120273E+02  0.11197154716E+03  0.14082365008E+03  0.47000000000E+01 0.  1.
        -11    1    1    2    0    0  0.53060681445E+02 -0.11263894252E+02  0.24978599966E+03  0.25560781846E+03  0.00000000000E+00 0.  1.
         11    1    1    2    0    0 -0.36763264986E+01  0.20738350574E+02  0.85074803570E+01  0.22715012284E+02  0.00000000000E+00 0. -1.
<mgrwt>
<rscale>  0 0.11690560E+03</rscale>
<asrwt>0</asrwt>
<pdfrwt beam="2">  1        3 0.48798467E-02 0.12168170E+03</pdfrwt>
<pdfrwt beam="1">  1       -3 0.67516185E-01 0.12168170E+03</pdfrwt>
<totfact> 0.11520954E+03</totfact>
</mgrwt>
</event>
<event>
 6    1  0.5258538E-006  0.8036118E+03  0.7546771E-02  0.9554804E-01
         -2   -1    0    0    0  501 -0.00000000000E+00  0.00000000000E+00  0.97253819238E+03  0.97253819238E+03  0.00000000000E+00 0.  1.
          2   -1    0    0  501    0  0.00000000000E+00 -0.00000000000E+00 -0.16600683722E+03  0.16600683722E+03  0.00000000000E+00 0. -1.
          5    1    1    2  502    0  0.23420528111E+03  0.25441400388E+03  0.24229474106E+03  0.42226464524E+03  0.47000000000E+01 0. -1.
         -5    1    1    2    0  502 -0.13038560994E+01 -0.11866538445E+02  0.46153387823E+01  0.13634739729E+02  0.47000000000E+01 0.  1.
        -11    1    1    2    0    0 -0.19167026444E+03 -0.27570578572E+03  0.55610561848E+03  0.64961883397E+03  0.00000000000E+00 0.  1.
         11    1    1    2    0    0 -0.41231160574E+02  0.33158320284E+02  0.35156568354E+01  0.53026810665E+02  0.00000000000E+00 0. -1.
<mgrwt>
<rscale>  0 0.80361182E+03</rscale>
<asrwt>0</asrwt>
<pdfrwt beam="2">  1        2 0.25539514E-01 0.80361182E+03</pdfrwt>
<pdfrwt beam="1">  1       -2 0.14962126E+00 0.80361182E+03</pdfrwt>
<totfact> 0.65030071E+01</totfact>
</mgrwt>
</event>
<event>
 6    1  0.5258538E-006  0.3807710E+03  0.7546771E-02  0.1050649E+00
          1   -1    0    0  501    0  0.00000000000E+00  0.00000000000E+00  0.16195996649E+04  0.16195996649E+04  0.00000000000E+00 0. -1.
         -1   -1    0    0    0  501 -0.00000000000E+00 -0.00000000000E+00 -0.22379997445E+02  0.22379997445E+02  0.00000000000E+00 0.  1.
          5    1    1    2  502    0 -0.26460299500E+02  0.32393038663E+02  0.33169447203E+03  0.33435425701E+03  0.47000000000E+01 0. -1.
         -5    1    1    2    0  502  0.89552273748E+02  0.10775663470E+03  0.40814733914E+03  0.43155236357E+03  0.47000000000E+01 0. -1.
        -11    1    1    2    0    0  0.17514069450E+02 -0.73090479748E+02  0.36174283056E+03  0.36946831572E+03  0.00000000000E+00 0. -1.
         11    1    1    2    0    0 -0.80606043697E+02 -0.67059193617E+02  0.49563502569E+03  0.50660472601E+03  0.00000000000E+00 0.  1.
<mgrwt>
<rscale>  0 0.38077099E+03</rscale>
<asrwt>0</asrwt>
<pdfrwt beam="1">  1        1 0.24916909E+00 0.38077099E+03</pdfrwt>
<pdfrwt beam="2">  1       -1 0.34430778E-02 0.38077099E+03</pdfrwt>
<totfact> 0.18292604E+03</totfact>
</mgrwt>
</event>
<event>
 6    1  0.5258538E-006  0.6943291E+03  0.7546771E-02  0.9726980E-01
          1   -1    0    0  501    0  0.00000000000E+00  0.00000000000E+00  0.49004027621E+03  0.49004027621E+03  0.00000000000E+00 0. -1.
         -1   -1    0    0    0  501 -0.00000000000E+00 -0.00000000000E+00 -0.24594557755E+03  0.24594557755E+03  0.00000000000E+00 0.  1.
          5    1    1    2  502    0  0.67276651965E+02  0.24420724072E+02  0.47034065266E+03  0.47577824583E+03  0.47000000000E+01 0. -1.
         -5    1    1    2    0  502 -0.81922300973E+01 -0.88032788810E+01 -0.13923532641E+02  0.18988552189E+02  0.47000000000E+01 0.  1.
        -11    1    1    2    0    0 -0.45931693830E+02  0.37379103055E+02 -0.97522392083E+02  0.11409441179E+03  0.00000000000E+00 0.  1.
         11    1    1    2    0    0 -0.13152728038E+02 -0.52996548246E+02 -0.11480002927E+03  0.12712464396E+03  0.00000000000E+00 0. -1.
<mgrwt>
<rscale>  0 0.69432914E+03</rscale>
<asrwt>0</asrwt>
<pdfrwt beam="1">  1        1 0.75390812E-01 0.69432914E+03</pdfrwt>
<pdfrwt beam="2">  1       -1 0.37837781E-01 0.69432914E+03</pdfrwt>
<totfact> 0.31100538E+02</totfact>
</mgrwt>
</event>
<event>
 6    1  0.5258538E-006  0.1499345E+03  0.7546771E-02  0.1220016E+00
          1   -1    0    0  501    0  0.00000000000E+00  0.00000000000E+00  0.64667269939E+03  0.64667269939E+03  0.00000000000E+00 0. -1.
         -1   -1    0    0    0  501 -0.00000000000E+00 -0.00000000000E+00 -0.20049836195E+03  0.20049836195E+03  0.00000000000E+00 0.  1.
          5    1    1    2  502    0  0.10919276377E+02  0.77355085766E+02  0.42029196911E+03  0.42751663031E+03  0.47000000000E+01 0. -1.
         -5    1    1    2    0  502  0.24261173233E+02 -0.61661695644E+02  0.20473752913E+03  0.21524477943E+03  0.47000000000E+01 0.  1.
        -11    1    1    2    0    0 -0.22395363972E+02  0.32866355609E+02 -0.38545230755E+02  0.55384875846E+02  0.00000000000E+00 0.  1.
         11    1    1    2    0    0 -0.12785085638E+02 -0.48559745731E+02 -0.14030993005E+03  0.14902477576E+03  0.00000000000E+00 0. -1.
<mgrwt>
<rscale>  0 0.13514406E+03</rscale>
<asrwt>0</asrwt>
<pdfrwt beam="1">  1        1 0.99488107E-01 0.14993451E+03</pdfrwt>
<pdfrwt beam="2">  1       -1 0.30845902E-01 0.14993451E+03</pdfrwt>
<totfact> 0.31531636E+02</totfact>
</mgrwt>
</event>
<event>
 6    1  0.5258538E-006  0.1880293E+03  0.7546771E-02  0.1184056E+00
         -2   -1    0    0    0  501 -0.00000000000E+00  0.00000000000E+00  0.47195068985E+02  0.47195068985E+02  0.00000000000E+00 0.  1.
          2   -1    0    0  501    0  0.00000000000E+00 -0.00000000000E+00 -0.46834635176E+03  0.46834635176E+03  0.00000000000E+00 0. -1.
          5    1    1    2  502    0 -0.21451963472E+02 -0.71382007797E+02 -0.25780042860E+03  0.26840031438E+03  0.47000000000E+01 0. -1.
         -5    1    1    2    0  502  0.39913074214E+02  0.37692267310E+02 -0.58181935583E+01  0.55404890438E+02  0.47000000000E+01 0.  1.
        -11    1    1    2    0    0 -0.60299308719E+02  0.23889653353E+02 -0.10967568344E+03  0.12741851399E+03  0.00000000000E+00 0.  1.
         11    1    1    2    0    0  0.41838197976E+02  0.98000871340E+01 -0.47856977173E+02  0.64317701933E+02  0.00000000000E+00 0. -1.
<mgrwt>
<rscale>  0 0.16418108E+03</rscale>
<asrwt>0</asrwt>
<pdfrwt beam="2">  1        2 0.72053287E-01 0.18802934E+03</pdfrwt>
<pdfrwt beam="1">  1       -2 0.72607797E-02 0.18802934E+03</pdfrwt>
<totfact> 0.71944383E+03</totfact>
</mgrwt>
</event>
<event>
 6    1  0.5258538E-006  0.3659649E+03  0.7546771E-02  0.1057247E+00
          2   -1    0    0  501    0  0.00000000000E+00  0.00000000000E+00  0.49803676141E+03  0.49803676141E+03  0.00000000000E+00 0. -1.
         -2   -1    0    0    0  501 -0.00000000000E+00 -0.00000000000E+00 -0.26179671461E+03  0.26179671461E+03  0.00000000000E+00 0.  1.
          5    1    1    2  502    0 -0.11239737722E+03 -0.12516498721E+03  0.91267538509E+01  0.16853733137E+03  0.47000000000E+01 0. -1.
         -5    1    1    2    0  502 -0.16592578817E+03 -0.76929852569E+02  0.12342544657E+03  0.22069322658E+03  0.47000000000E+01 0. -1.
        -11    1    1    2    0    0  0.92883367865E+02  0.80530106307E+02  0.82086107304E+02  0.14781930544E+03  0.00000000000E+00 0. -1.
         11    1    1    2    0    0  0.18543979752E+03  0.12156473347E+03  0.21601739069E+02  0.22278361264E+03  0.00000000000E+00 0.  1.
<mgrwt>
<rscale>  0 0.36339742E+03</rscale>
<asrwt>0</asrwt>
<pdfrwt beam="1">  1        2 0.76621040E-01 0.36596495E+03</pdfrwt>
<pdfrwt beam="2">  1       -2 0.40276418E-01 0.36596495E+03</pdfrwt>
<totfact> 0.36839616E+02</totfact>
</mgrwt>
</event>
<event>
 6    1  0.5258538E-006  0.1268948E+03  0.7546771E-02  0.1241075E+00
         -1   -1    0    0    0  501 -0.00000000000E+00  0.00000000000E+00  0.76212358922E+02  0.76212358922E+02  0.00000000000E+00 0.  1.
          1   -1    0    0  501    0  0.00000000000E+00 -0.00000000000E+00 -0.19017907899E+03  0.19017907899E+03  0.00000000000E+00 0. -1.
          5    1    1    2  502    0 -0.80409276948E+01 -0.32564057502E+02 -0.72560068109E+02  0.80075763144E+02  0.47000000000E+01 0. -1.
         -5    1    1    2    0  502 -0.33382007241E+02  0.67569074120E+02 -0.23520531306E+02  0.79090097850E+02  0.47000000000E+01 0.  1.
        -11    1    1    2    0    0  0.10980297849E+02 -0.62180633427E+02 -0.20357140103E+02  0.66343132783E+02  0.00000000000E+00 0.  1.
         11    1    1    2    0    0  0.30442637087E+02  0.27175616809E+02  0.24710194455E+01  0.40882444140E+02  0.00000000000E+00 0. -1.
<mgrwt>
<rscale>  0 0.12123430E+03</rscale>
<asrwt>0</asrwt>
<pdfrwt beam="2">  1        1 0.29258319E-01 0.12689480E+03</pdfrwt>
<pdfrwt beam="1">  1       -1 0.11724978E-01 0.12689480E+03</pdfrwt>
<totfact> 0.70195021E+03</totfact>
</mgrwt>
</event>
<event>
 6    1  0.5258538E-006  0.2871959E+03  0.7546771E-02  0.1100014E+00
         -1   -1    0    0    0  501 -0.00000000000E+00  0.00000000000E+00  0.23059712473E+03  0.23059712473E+03  0.00000000000E+00 0.  1.
          1   -1    0    0  501    0  0.00000000000E+00 -0.00000000000E+00 -0.43119269593E+03  0.43119269593E+03  0.00000000000E+00 0. -1.
          5    1    1    2  502    0 -0.24117972752E+03 -0.73951518785E+01 -0.24570467538E+03  0.34440561369E+03  0.47000000000E+01 0. -1.
         -5    1    1    2    0  502  0.30224762514E+02  0.34130364906E+02 -0.49082142968E+02  0.67153293560E+02  0.47000000000E+01 0.  1.
        -11    1    1    2    0    0  0.90134284138E+02 -0.42731069226E+01  0.89735506327E+02  0.12725922252E+03  0.00000000000E+00 0.  1.
         11    1    1    2    0    0  0.12082068087E+03 -0.22462106104E+02  0.44557408170E+01  0.12297169090E+03  0.00000000000E+00 0. -1.
<mgrwt>
<rscale>  0 0.27222274E+03</rscale>
<asrwt>0</asrwt>
<pdfrwt beam="2">  1        1 0.66337336E-01 0.28719587E+03</pdfrwt>
<pdfrwt beam="1">  1       -1 0.35476482E-01 0.28719587E+03</pdfrwt>
<totfact> 0.42183654E+02</totfact>
</mgrwt>
</event>
<event>
 6    1  0.5258538E-006  0.1300564E+03  0.7546771E-02  0.1240857E+00
          1   -1    0    0  501    0  0.00000000000E+00  0.00000000000E+00  0.87551379030E+02  0.87551379030E+02  0.00000000000E+00 0. -1.
         -1   -1    0    0    0  501 -0.00000000000E+00 -0.00000000000E+00 -0.20054874849E+03  0.20054874849E+03  0.00000000000E+00 0.  1.
          5    1    1    2  502    0  0.56646856470E+02  0.42994581051E+02 -0.13268348618E+01  0.71282893027E+02  0.47000000000E+01 0. -1.
         -5    1    1    2    0  502 -0.22311034616E+02 -0.53398916775E+02  0.11325419694E+02  0.59157262526E+02  0.47000000000E+01 0. -1.
        -11    1    1    2    0    0 -0.41001671511E+00  0.30965893881E+02 -0.28096327934E+01  0.31095799298E+02  0.00000000000E+00 0. -1.
         11    1    1    2    0    0 -0.33925805139E+02 -0.20561558157E+02 -0.12018632150E+03  0.12656417267E+03  0.00000000000E+00 0.  1.
<mgrwt>
<rscale>  0 0.12136833E+03</rscale>
<asrwt>0</asrwt>
<pdfrwt beam="1">  1        1 0.13469443E-01 0.13005638E+03</pdfrwt>
<pdfrwt beam="2">  1       -1 0.30853654E-01 0.13005638E+03</pdfrwt>
<totfact> 0.40031142E+03</totfact>
</mgrwt>
</event>
<event>
 6    1  0.5258538E-006  0.3393140E+03  0.7546771E-02  0.1067088E+00
         -1   -1    0    0    0  501 -0.00000000000E+00  0.00000000000E+00  0.10903620901E+03  0.10903620901E+03  0.00000000000E+00 0.  1.
          1   -1    0    0  501    0  0.00000000000E+00 -0.00000000000E+00 -0.26398112909E+03  0.26398112909E+03  0.00000000000E+00 0. -1.
          5    1    1    2  502    0  0.80638675805E+02 -0.31923023170E+02 -0.21075903224E+03  0.22795423908E+03  0.47000000000E+01 0. -1.
         -5    1    1    2    0  502 -0.85574589230E+01 -0.30896168365E+01  0.12064939828E+02  0.15824936286E+02  0.47000000000E+01 0.  1.
        -11    1    1    2    0    0 -0.56302233302E+02  0.59585860848E+02  0.69682701226E+01  0.82273769066E+02  0.00000000000E+00 0. -1.
         11    1    1    2    0    0 -0.15778983580E+02 -0.24573220841E+02  0.36780902212E+02  0.46964393671E+02  0.00000000000E+00 0.  1.
<mgrwt>
<rscale>  0 0.33931402E+03</rscale>
<asrwt>0</asrwt>
<pdfrwt beam="2">  1        1 0.40612481E-01 0.33931402E+03</pdfrwt>
<pdfrwt beam="1">  1       -1 0.16774801E-01 0.33931402E+03</pdfrwt>
<totfact> 0.27736524E+03</totfact>
</mgrwt>
</event>
<event>
 6    1  0.5258538E-006  0.2935336E+03  0.7546771E-02  0.1114714E+00
          2   -1    0    0  501    0  0.00000000000E+00  0.00000000000E+00  0.25345552620E+03  0.25345552620E+03  0.00000000000E+00 0. -1.
         -2   -1    0    0    0  501 -0.00000000000E+00 -0.00000000000E+00 -0.19569481481E+03  0.19569481481E+03  0.00000000000E+00 0.  1.
          5    1    1    2  502    0  0.10705813060E+03  0.36465285676E+02  0.10462882987E+03  0.15414422606E+03  0.47000000000E+01 0. -1.
         -5    1    1    2    0  502 -0.83633580017E+02  0.65848721282E+02 -0.90403748862E+02  0.13973388139E+03  0.47000000000E+01 0.  1.
        -11    1    1    2    0    0  0.15813882532E+02 -0.77067424669E+02 -0.15334903258E+02  0.80153765250E+02  0.00000000000E+00 0.  1.
         11    1    1    2    0    0 -0.39238433111E+02 -0.25246582290E+02  0.58870533641E+02  0.75118468312E+02  0.00000000000E+00 0. -1.
<mgrwt>
<rscale>  0 0.24778329E+03</rscale>
<asrwt>0</asrwt>
<pdfrwt beam="1">  1        2 0.38993158E-01 0.29353363E+03</pdfrwt>
<pdfrwt beam="2">  1       -2 0.30106894E-01 0.29353363E+03</pdfrwt>
<totfact> 0.13362398E+03</totfact>
</mgrwt>
</event>
<event>
 6    1  0.5258538E-006  0.3445680E+03  0.7546771E-02  0.1064867E+00
          1   -1    0    0  501    0  0.00000000000E+00  0.00000000000E+00  0.86971666109E+03  0.86971666109E+03  0.00000000000E+00 0. -1.
         -1   -1    0    0    0  501 -0.00000000000E+00 -0.00000000000E+00 -0.34128090475E+02  0.34128090475E+02  0.00000000000E+00 0.  1.
          5    1    1    2  502    0  0.14117216794E+02  0.18902888381E+02  0.27220104704E+02  0.36326837177E+02  0.47000000000E+01 0. -1.
         -5    1    1    2    0  502 -0.13962368739E+03 -0.64398180478E+02  0.38815010504E+03  0.41752184826E+03  0.47000000000E+01 0. -1.
        -11    1    1    2    0    0  0.42003908153E+02  0.37033621134E+02  0.68875055788E+02  0.88767058666E+02  0.00000000000E+00 0.  1.
         11    1    1    2    0    0  0.83502562439E+02  0.84616709632E+01  0.35134330508E+03  0.36122900746E+03  0.00000000000E+00 0. -1.
<mgrwt>
<rscale>  0 0.34456795E+03</rscale>
<asrwt>0</asrwt>
<pdfrwt beam="1">  1        1 0.13380255E+00 0.34456795E+03</pdfrwt>
<pdfrwt beam="2">  1       -1 0.52504761E-02 0.34456795E+03</pdfrwt>
<totfact> 0.33103576E+03</totfact>
</mgrwt>
</event>
<event>
 6    1  0.5258538E-006  0.3418191E+03  0.7546771E-02  0.1066024E+00
         -1   -1    0    0    0  501 -0.00000000000E+00  0.00000000000E+00  0.31414002670E+02  0.31414002670E+02  0.00000000000E+00 0.  1.
          1   -1    0    0  501    0  0.00000000000E+00 -0.00000000000E+00 -0.92984266464E+03  0.92984266464E+03  0.00000000000E+00 0. -1.
          5    1    1    2  502    0  0.12490784875E+02  0.19117050071E+02 -0.20281632182E+02  0.30901713774E+02  0.47000000000E+01 0.  1.
         -5    1    1    2    0  502  0.80478461582E+02 -0.85527647037E+02 -0.64329772607E+03  0.65394633997E+03  0.47000000000E+01 0.  1.
        -11    1    1    2    0    0 -0.58415321182E+02  0.83972612239E+02 -0.19832065455E+03  0.22314755516E+03  0.00000000000E+00 0. -1.
         11    1    1    2    0    0 -0.34553925275E+02 -0.17562015274E+02 -0.36528649166E+02  0.53261058404E+02  0.00000000000E+00 0.  1.
<mgrwt>
<rscale>  0 0.34181913E+03</rscale>
<asrwt>0</asrwt>
<pdfrwt beam="2">  1        1 0.14305271E+00 0.34181913E+03</pdfrwt>
<pdfrwt beam="1">  1       -1 0.48329238E-02 0.34181913E+03</pdfrwt>
<totfact> 0.33609928E+03</totfact>
</mgrwt>
</event>
<event>
 6    1  0.5258538E-006  0.6133481E+03  0.7546771E-02  0.9878094E-01
         -2   -1    0    0    0  501 -0.00000000000E+00  0.00000000000E+00  0.26376123530E+03  0.26376123530E+03  0.00000000000E+00 0.  1.
          2   -1    0    0  501    0  0.00000000000E+00 -0.00000000000E+00 -0.35656854435E+03  0.35656854435E+03  0.00000000000E+00 0. -1.
          5    1    1    2  502    0 -0.19379546324E+02  0.10456055169E+01 -0.10769287905E+03  0.10952856387E+03  0.47000000000E+01 0. -1.
         -5    1    1    2    0  502  0.11877680962E+03 -0.79544481524E+02 -0.19928999917E+03  0.24530358500E+03  0.47000000000E+01 0. -1.
        -11    1    1    2    0    0 -0.31282209378E+02  0.17335346604E+02  0.14871627749E+03  0.15295627498E+03  0.00000000000E+00 0.  1.
         11    1    1    2    0    0 -0.68115053919E+02  0.61163529403E+02  0.65459291668E+02  0.11254135580E+03  0.00000000000E+00 0. -1.
<mgrwt>
<rscale>  0 0.61334806E+03</rscale>
<asrwt>0</asrwt>
<pdfrwt beam="2">  1        2 0.54856699E-01 0.61334806E+03</pdfrwt>
<pdfrwt beam="1">  1       -2 0.40578652E-01 0.61334806E+03</pdfrwt>
<totfact> 0.52447204E+02</totfact>
</mgrwt>
</event>
<event>
 6    1  0.5258538E-006  0.1281858E+03  0.7546771E-02  0.1291412E+00
         -3   -1    0    0    0  501 -0.00000000000E+00  0.00000000000E+00  0.81184503189E+02  0.81184503189E+02  0.00000000000E+00 0.  1.
          3   -1    0    0  501    0  0.00000000000E+00 -0.00000000000E+00 -0.90030068252E+02  0.90030068252E+02  0.00000000000E+00 0. -1.
          5    1    1    2  502    0  0.61464876761E+02 -0.19139023461E+02 -0.40178077958E+02  0.76030265307E+02  0.47000000000E+01 0. -1.
         -5    1    1    2    0  502 -0.47907522885E+02  0.17937720876E+02  0.17249947761E+02  0.54189881684E+02  0.47000000000E+01 0.  1.
        -11    1    1    2    0    0 -0.15797241889E+02  0.15495142553E+02  0.14610721689E+02  0.26516513389E+02  0.00000000000E+00 0. -1.
         11    1    1    2    0    0  0.22398880126E+01 -0.14293839968E+02 -0.52815655468E+00  0.14477911061E+02  0.00000000000E+00 0.  1.
<mgrwt>
<rscale>  0 0.94895159E+02</rscale>
<asrwt>0</asrwt>
<pdfrwt beam="2">  1        3 0.13850780E-01 0.12818575E+03</pdfrwt>
<pdfrwt beam="1">  1       -3 0.12489924E-01 0.12818575E+03</pdfrwt>
<totfact> 0.48623760E+03</totfact>
</mgrwt>
</event>
<event>
 6    1  0.5258538E-006  0.2035137E+03  0.7546771E-02  0.1150844E+00
          1   -1    0    0  501    0  0.00000000000E+00  0.00000000000E+00  0.29904851185E+03  0.29904851185E+03  0.00000000000E+00 0. -1.
         -1   -1    0    0    0  501 -0.00000000000E+00 -0.00000000000E+00 -0.13182913862E+03  0.13182913862E+03  0.00000000000E+00 0.  1.
          5    1    1    2  502    0  0.77371522805E+02  0.67274298763E+02  0.69111398285E+02  0.12373624848E+03  0.47000000000E+01 0. -1.
         -5    1    1    2    0  502  0.82917009157E+02 -0.57189031288E+02  0.63066334777E+02  0.11893388201E+03  0.47000000000E+01 0. -1.
        -11    1    1    2    0    0 -0.58468371887E+02  0.37804797789E+02  0.29303587639E+02  0.75541071580E+02  0.00000000000E+00 0.  1.
         11    1    1    2    0    0 -0.10182016008E+03 -0.47890065263E+02  0.57380525346E+01  0.11266644840E+03  0.00000000000E+00 0. -1.
<mgrwt>
<rscale>  0 0.19869607E+03</rscale>
<asrwt>0</asrwt>
<pdfrwt beam="1">  1        1 0.46007463E-01 0.20351373E+03</pdfrwt>
<pdfrwt beam="2">  1       -1 0.20281406E-01 0.20351373E+03</pdfrwt>
<totfact> 0.17201976E+03</totfact>
</mgrwt>
</event>
<event>
 6    1  0.5258538E-006  0.1824670E+03  0.7546771E-02  0.1170984E+00
          2   -1    0    0  501    0  0.00000000000E+00  0.00000000000E+00  0.64115303701E+03  0.64115303701E+03  0.00000000000E+00 0. -1.
         -2   -1    0    0    0  501 -0.00000000000E+00 -0.00000000000E+00 -0.45938287663E+02  0.45938287663E+02  0.00000000000E+00 0.  1.
          5    1    1    2  502    0 -0.11427161727E+02 -0.96638270307E+02  0.13545385076E+03  0.16685134401E+03  0.47000000000E+01 0. -1.
         -5    1    1    2    0  502  0.80351264823E+02 -0.17025424123E+02  0.17219141451E+03  0.19083543711E+03  0.47000000000E+01 0. -1.
        -11    1    1    2    0    0  0.13228817092E+01  0.30899045958E+02  0.11912653711E+02  0.33142304922E+02  0.00000000000E+00 0.  1.
         11    1    1    2    0    0 -0.70246984805E+02  0.82764648473E+02  0.27565683036E+03  0.29626223863E+03  0.00000000000E+00 0. -1.
<mgrwt>
<rscale>  0 0.17675196E+03</rscale>
<asrwt>0</asrwt>
<pdfrwt beam="1">  1        2 0.98638922E-01 0.18246705E+03</pdfrwt>
<pdfrwt beam="2">  1       -2 0.70674294E-02 0.18246705E+03</pdfrwt>
<totfact> 0.52499978E+03</totfact>
</mgrwt>
</event>
<event>
 6    1  0.5258538E-006  0.1341445E+03  0.7546771E-02  0.1233665E+00
         -1   -1    0    0    0  501 -0.00000000000E+00  0.00000000000E+00  0.71656186691E+02  0.71656186691E+02  0.00000000000E+00 0.  1.
          1   -1    0    0  501    0  0.00000000000E+00 -0.00000000000E+00 -0.19821355578E+03  0.19821355578E+03  0.00000000000E+00 0. -1.
          5    1    1    2  502    0  0.46375919175E+00  0.24720054670E+02 -0.90276562867E+02  0.93718962748E+02  0.47000000000E+01 0. -1.
         -5    1    1    2    0  502 -0.48648240059E+02 -0.31837234296E+02  0.14831699520E+02  0.60185796157E+02  0.47000000000E+01 0. -1.
        -11    1    1    2    0    0 -0.23163440115E+02  0.72333377354E+01 -0.35381114598E+02  0.42903256321E+02  0.00000000000E+00 0.  1.
         11    1    1    2    0    0  0.71347920982E+02 -0.11615810906E+00 -0.15731391147E+02  0.73061727249E+02  0.00000000000E+00 0. -1.
<mgrwt>
<rscale>  0 0.12590275E+03</rscale>
<asrwt>0</asrwt>
<pdfrwt beam="2">  1        1 0.30494393E-01 0.13414450E+03</pdfrwt>
<pdfrwt beam="1">  1       -1 0.11024029E-01 0.13414450E+03</pdfrwt>
<totfact> 0.73591721E+03</totfact>
</mgrwt>
</event>
<event>
 6    1  0.5258538E-006  0.1706407E+03  0.7546771E-02  0.1183114E+00
         -3   -1    0    0    0  501 -0.00000000000E+00  0.00000000000E+00  0.27009464278E+02  0.27009464278E+02  0.00000000000E+00 0.  1.
          3   -1    0    0  501    0  0.00000000000E+00 -0.00000000000E+00 -0.96826120936E+03  0.96826120936E+03  0.00000000000E+00 0. -1.
          5    1    1    2  502    0 -0.72079092158E+02 -0.61267444577E+02 -0.54867633797E+03  0.55679162093E+03  0.47000000000E+01 0. -1.
         -5    1    1    2    0  502  0.39486213719E+01 -0.32813226682E+02 -0.24945624262E+02  0.41673416297E+02  0.47000000000E+01 0. -1.
        -11    1    1    2    0    0 -0.22000509703E+02  0.22777495213E+02 -0.11468655631E+03  0.11897832959E+03  0.00000000000E+00 0. -1.
         11    1    1    2    0    0  0.90130980489E+02  0.71303176046E+02 -0.25294322654E+03  0.27782730681E+03  0.00000000000E+00 0.  1.
<mgrwt>
<rscale>  0 0.16504695E+03</rscale>
<asrwt>0</asrwt>
<pdfrwt beam="2">  1        3 0.14896327E+00 0.17064069E+03</pdfrwt>
<pdfrwt beam="1">  1       -3 0.41553021E-02 0.17064069E+03</pdfrwt>
<totfact> 0.25698642E+02</totfact>
</mgrwt>
</event>
<event>
 6    1  0.5258538E-006  0.2319785E+03  0.7546771E-02  0.1128095E+00
          2   -1    0    0  501    0  0.00000000000E+00  0.00000000000E+00  0.27787181622E+03  0.27787181622E+03  0.00000000000E+00 0.  1.
         -2   -1    0    0    0  501 -0.00000000000E+00 -0.00000000000E+00 -0.18813102774E+03  0.18813102774E+03  0.00000000000E+00 0. -1.
          5    1    1    2  502    0 -0.16741852167E+02  0.19339468031E+02  0.10908725930E+02  0.28202747014E+02  0.47000000000E+01 0. -1.
         -5    1    1    2    0  502  0.19992327251E+03  0.49298808568E+02  0.81554538957E+02  0.22152408502E+03  0.47000000000E+01 0. -1.
        -11    1    1    2    0    0 -0.13562825434E+03 -0.79517699964E+01 -0.19834846989E+02  0.13730140268E+03  0.00000000000E+00 0. -1.
         11    1    1    2    0    0 -0.47553166001E+02 -0.60686506602E+02  0.17112370577E+02  0.78974609255E+02  0.00000000000E+00 0.  1.
<mgrwt>
<rscale>  0 0.22794461E+03</rscale>
<asrwt>0</asrwt>
<pdfrwt beam="1">  1        2 0.42749510E-01 0.23197852E+03</pdfrwt>
<pdfrwt beam="2">  1       -2 0.28943235E-01 0.23197852E+03</pdfrwt>
<totfact> 0.12938401E+03</totfact>
</mgrwt>
</event>
<event>
 6    1  0.5258538E-006  0.2868583E+03  0.7546771E-02  0.1093036E+00
         -1   -1    0    0    0  501 -0.00000000000E+00  0.00000000000E+00  0.47214859986E+03  0.47214859986E+03  0.00000000000E+00 0.  1.
          1   -1    0    0  501    0  0.00000000000E+00 -0.00000000000E+00 -0.17007752081E+03  0.17007752081E+03  0.00000000000E+00 0. -1.
          5    1    1    2  502    0 -0.67823876323E+02  0.80415836983E+02  0.67116532945E+01  0.10551739822E+03  0.47000000000E+01 0. -1.
         -5    1    1    2    0  502 -0.12321997179E+03  0.10065229435E+03  0.16279098243E+03  0.22767749069E+03  0.47000000000E+01 0.  1.
        -11    1    1    2    0    0  0.86584149767E+02 -0.25038362085E+02  0.29512216792E+02  0.94840421270E+02  0.00000000000E+00 0. -1.
         11    1    1    2    0    0  0.10445969835E+03 -0.15602976925E+03  0.10305622653E+03  0.21419081049E+03  0.00000000000E+00 0.  1.
<mgrwt>
<rscale>  0 0.28491205E+03</rscale>
<asrwt>0</asrwt>
<pdfrwt beam="2">  1        1 0.26165773E-01 0.28685831E+03</pdfrwt>
<pdfrwt beam="1">  1       -1 0.72638246E-01 0.28685831E+03</pdfrwt>
<totfact> 0.36033690E+02</totfact>
</mgrwt>
</event>
<event>
 6    1  0.5258538E-006  0.2432489E+03  0.7546771E-02  0.1117647E+00
         -1   -1    0    0    0  501 -0.00000000000E+00  0.00000000000E+00  0.12424720750E+03  0.12424720750E+03  0.00000000000E+00 0.  1.
          1   -1    0    0  501    0  0.00000000000E+00 -0.00000000000E+00 -0.11905705212E+03  0.11905705212E+03  0.00000000000E+00 0. -1.
          5    1    1    2  502    0  0.18945480990E+02 -0.13175867330E+02 -0.48246064899E+02  0.53687126092E+02  0.47000000000E+01 0. -1.
         -5    1    1    2    0  502 -0.71762306656E+02  0.19813749536E+02  0.35788848607E+02  0.82736600196E+02  0.47000000000E+01 0. -1.
        -11    1    1    2    0    0  0.31340753478E+02  0.19258926407E+02  0.48744384906E+02  0.61066882472E+02  0.00000000000E+00 0.  1.
         11    1    1    2    0    0  0.21476072188E+02 -0.25896808614E+02 -0.31097013240E+02  0.45813650864E+02  0.00000000000E+00 0. -1.
<mgrwt>
<rscale>  0 0.24324890E+03</rscale>
<asrwt>0</asrwt>
<pdfrwt beam="2">  1        1 0.18316470E-01 0.24324890E+03</pdfrwt>
<pdfrwt beam="1">  1       -1 0.19114955E-01 0.24324890E+03</pdfrwt>
<totfact> 0.61296955E+03</totfact>
</mgrwt>
</event>
<event>
 6    1  0.5258538E-006  0.1355506E+03  0.7546771E-02  0.1231702E+00
          2   -1    0    0  501    0  0.00000000000E+00  0.00000000000E+00  0.54756144711E+03  0.54756144711E+03  0.00000000000E+00 0. -1.
         -2   -1    0    0    0  501 -0.00000000000E+00 -0.00000000000E+00 -0.26506319556E+02  0.26506319556E+02  0.00000000000E+00 0.  1.
          5    1    1    2  502    0  0.10760881129E+02  0.76965201294E+02  0.15760615745E+03  0.17578745586E+03  0.47000000000E+01 0. -1.
         -5    1    1    2    0  502 -0.43481004766E+02 -0.35975932291E+02  0.15129365093E+03  0.16154480583E+03  0.47000000000E+01 0. -1.
        -11    1    1    2    0    0  0.20573685764E+02  0.24794353781E+02  0.36031502165E+02  0.48335346007E+02  0.00000000000E+00 0.  1.
         11    1    1    2    0    0  0.12146437873E+02 -0.65783622784E+02  0.17612381702E+03  0.18840015897E+03  0.00000000000E+00 0. -1.
<mgrwt>
<rscale>  0 0.12717941E+03</rscale>
<asrwt>0</asrwt>
<pdfrwt beam="1">  1        2 0.84240214E-01 0.13555059E+03</pdfrwt>
<pdfrwt beam="2">  1       -2 0.40778957E-02 0.13555059E+03</pdfrwt>
<totfact> 0.14196341E+04</totfact>
</mgrwt>
</event>
<event>
 6    1  0.5258538E-006  0.1532226E+03  0.7546771E-02  0.1205419E+00
         -2   -1    0    0    0  501 -0.00000000000E+00  0.00000000000E+00  0.25733443789E+03  0.25733443789E+03  0.00000000000E+00 0.  1.
          2   -1    0    0  501    0  0.00000000000E+00 -0.00000000000E+00 -0.85759684216E+02  0.85759684216E+02  0.00000000000E+00 0. -1.
          5    1    1    2  502    0 -0.21929348915E+02 -0.37012567573E+02  0.81398559193E+02  0.92188079169E+02  0.47000000000E+01 0. -1.
         -5    1    1    2    0  502 -0.29579383516E+02 -0.34970871586E+02 -0.45984829881E+02  0.65073776346E+02  0.47000000000E+01 0. -1.
        -11    1    1    2    0    0  0.30412356378E+02  0.58541785834E+02  0.22884425115E+02  0.69826563870E+02  0.00000000000E+00 0. -1.
         11    1    1    2    0    0  0.21096376054E+02  0.13441653326E+02  0.11327659925E+03  0.11600570272E+03  0.00000000000E+00 0.  1.
<mgrwt>
<rscale>  0 0.14604479E+03</rscale>
<asrwt>0</asrwt>
<pdfrwt beam="2">  1        2 0.13193798E-01 0.15322258E+03</pdfrwt>
<pdfrwt beam="1">  1       -2 0.39589913E-01 0.15322258E+03</pdfrwt>
<totfact> 0.26811071E+03</totfact>
</mgrwt>
</event>
<event>
 6    1  0.5258538E-006  0.2658480E+03  0.7546771E-02  0.1103680E+00
         -1   -1    0    0    0  501 -0.00000000000E+00  0.00000000000E+00  0.22946799139E+02  0.22946799139E+02  0.00000000000E+00 0.  1.
          1   -1    0    0  501    0  0.00000000000E+00 -0.00000000000E+00 -0.76998907292E+03  0.76998907292E+03  0.00000000000E+00 0. -1.
          5    1    1    2  502    0 -0.25020374226E+01 -0.18988843106E+01  0.66112964931E+01  0.86985742630E+01  0.47000000000E+01 0. -1.
         -5    1    1    2    0  502 -0.13840202030E+02  0.72488575086E+02 -0.49927452888E+03  0.50472100204E+03  0.47000000000E+01 0. -1.
        -11    1    1    2    0    0  0.49073025363E+02 -0.44857441395E+02 -0.20167235905E+03  0.21234898698E+03  0.00000000000E+00 0.  1.
         11    1    1    2    0    0 -0.32730785910E+02 -0.25732249381E+02 -0.52706682340E+02  0.67167308773E+02  0.00000000000E+00 0. -1.
<mgrwt>
<rscale>  0 0.26584796E+03</rscale>
<asrwt>0</asrwt>
<pdfrwt beam="2">  1        1 0.11845985E+00 0.26584796E+03</pdfrwt>
<pdfrwt beam="1">  1       -1 0.35302769E-02 0.26584796E+03</pdfrwt>
<totfact> 0.72147069E+03</totfact>
</mgrwt>
</event>
<event>
 6    1  0.5258538E-006  0.1799312E+03  0.7546771E-02  0.1173740E+00
         -2   -1    0    0    0  501 -0.00000000000E+00  0.00000000000E+00  0.20598433255E+03  0.20598433255E+03  0.00000000000E+00 0.  1.
          2   -1    0    0  501    0  0.00000000000E+00 -0.00000000000E+00 -0.15634309881E+03  0.15634309881E+03  0.00000000000E+00 0. -1.
          5    1    1    2  502    0  0.68368563680E+02 -0.56175234179E+02 -0.10999269209E+02  0.89291608552E+02  0.47000000000E+01 0.  1.
         -5    1    1    2    0  502  0.49778522117E+02  0.33460706038E+01  0.99102293269E+02  0.11105157353E+03  0.47000000000E+01 0.  1.
        -11    1    1    2    0    0 -0.36431290562E+02 -0.21585726950E+02  0.61657981518E+01  0.42792518117E+02  0.00000000000E+00 0.  1.
         11    1    1    2    0    0 -0.81715795235E+02  0.74414890525E+02 -0.44627588474E+02  0.11919173116E+03  0.00000000000E+00 0. -1.
<mgrwt>
<rscale>  0 0.17399944E+03</rscale>
<asrwt>0</asrwt>
<pdfrwt beam="2">  1        2 0.24052784E-01 0.17993123E+03</pdfrwt>
<pdfrwt beam="1">  1       -2 0.31689897E-01 0.17993123E+03</pdfrwt>
<totfact> 0.20426333E+03</totfact>
</mgrwt>
</event>
<event>
 6    1  0.5258538E-006  0.2452334E+03  0.7546771E-02  0.1118971E+00
         -1   -1    0    0    0  501 -0.00000000000E+00  0.00000000000E+00  0.34371929176E+03  0.34371929176E+03  0.00000000000E+00 0.  1.
          1   -1    0    0  501    0  0.00000000000E+00 -0.00000000000E+00 -0.16865753018E+03  0.16865753018E+03  0.00000000000E+00 0. -1.
          5    1    1    2  502    0  0.38358322454E+02  0.11597677372E+02  0.39332598421E+02  0.56347229928E+02  0.47000000000E+01 0.  1.
         -5    1    1    2    0  502  0.11853074931E+03 -0.15265014501E+03  0.85139066153E+01  0.19351015971E+03  0.47000000000E+01 0.  1.
        -11    1    1    2    0    0 -0.10573007346E+03  0.59473152454E+02  0.11185725907E+03  0.16500894128E+03  0.00000000000E+00 0.  1.
         11    1    1    2    0    0 -0.51158998303E+02  0.81579315189E+02  0.15357997477E+02  0.97510491028E+02  0.00000000000E+00 0. -1.
<mgrwt>
<rscale>  0 0.24123747E+03</rscale>
<asrwt>0</asrwt>
<pdfrwt beam="2">  1        1 0.25947312E-01 0.24523341E+03</pdfrwt>
<pdfrwt beam="1">  1       -1 0.52879891E-01 0.24523341E+03</pdfrwt>
<totfact> 0.67603851E+02</totfact>
</mgrwt>
</event>
<event>
 6    1  0.5258538E-006  0.2038663E+03  0.7546771E-02  0.1150427E+00
          1   -1    0    0  501    0  0.00000000000E+00  0.00000000000E+00  0.77570023542E+03  0.77570023542E+03  0.00000000000E+00 0. -1.
         -1   -1    0    0    0  501 -0.00000000000E+00 -0.00000000000E+00 -0.56212711243E+02  0.56212711243E+02  0.00000000000E+00 0.  1.
          5    1    1    2  502    0  0.27884954463E+02 -0.15133955585E+03  0.35618172854E+03  0.38803188735E+03  0.47000000000E+01 0.  1.
         -5    1    1    2    0  502  0.45886597619E+02  0.81864029780E+01  0.16764670581E+03  0.17406925347E+03  0.47000000000E+01 0.  1.
        -11    1    1    2    0    0 -0.54589262719E+02  0.13117811857E+03  0.10579117928E+03  0.17714248505E+03  0.00000000000E+00 0.  1.
         11    1    1    2    0    0 -0.19182289363E+02  0.11975034298E+02  0.89867910537E+02  0.92669320791E+02  0.00000000000E+00 0. -1.
<mgrwt>
<rscale>  0 0.19918724E+03</rscale>
<asrwt>0</asrwt>
<pdfrwt beam="1">  1        1 0.11933849E+00 0.20386629E+03</pdfrwt>
<pdfrwt beam="2">  1       -1 0.86481100E-02 0.20386629E+03</pdfrwt>
<totfact> 0.18379328E+03</totfact>
</mgrwt>
</event>
<event>
 6    1  0.5258538E-006  0.1178067E+03  0.7546771E-02  0.1259117E+00
         -1   -1    0    0    0  501 -0.00000000000E+00  0.00000000000E+00  0.54644462297E+02  0.54644462297E+02  0.00000000000E+00 0.  1.
          1   -1    0    0  501    0  0.00000000000E+00 -0.00000000000E+00 -0.13903355187E+04  0.13903355187E+04  0.00000000000E+00 0. -1.
          5    1    1    2  502    0  0.40350641928E+01 -0.41063987532E+02 -0.13082362667E+04  0.13088952411E+04  0.47000000000E+01 0. -1.
         -5    1    1    2    0  502 -0.78174492184E+01  0.16865985379E+02 -0.38766857201E+02  0.43249661182E+02  0.47000000000E+01 0.  1.
        -11    1    1    2    0    0 -0.12349783488E+02  0.45293828354E+02  0.33951700284E+02  0.57937604294E+02  0.00000000000E+00 0.  1.
         11    1    1    2    0    0  0.16132168514E+02 -0.21095826200E+02 -0.22639632775E+02  0.34897474353E+02  0.00000000000E+00 0. -1.
<mgrwt>
<rscale>  0 0.11078819E+03</rscale>
<asrwt>0</asrwt>
<pdfrwt beam="2">  1        1 0.21389772E+00 0.11780671E+03</pdfrwt>
<pdfrwt beam="1">  1       -1 0.84068425E-02 0.11780671E+03</pdfrwt>
<totfact> 0.68951138E+02</totfact>
</mgrwt>
</event>
<event>
 6    1  0.5258538E-006  0.1310828E+03  0.7546771E-02  0.1235916E+00
         -2   -1    0    0    0  501 -0.00000000000E+00  0.00000000000E+00  0.99878350193E+02  0.99878350193E+02  0.00000000000E+00 0.  1.
          2   -1    0    0  501    0  0.00000000000E+00 -0.00000000000E+00 -0.14550083992E+03  0.14550083992E+03  0.00000000000E+00 0. -1.
          5    1    1    2  502    0  0.37343339679E+02  0.33777793554E+02  0.71830972442E+01  0.51079851622E+02  0.47000000000E+01 0. -1.
         -5    1    1    2    0  502 -0.69063723930E+02 -0.10295725980E+02 -0.52965205476E+02  0.87767892350E+02  0.47000000000E+01 0. -1.
        -11    1    1    2    0    0  0.29498242328E+02 -0.56473892123E+02 -0.21220776384E+02  0.67154807292E+02  0.00000000000E+00 0.  1.
         11    1    1    2    0    0  0.22221419228E+01  0.32991824550E+02  0.21380394886E+02  0.39376638852E+02  0.00000000000E+00 0. -1.
<mgrwt>
<rscale>  0 0.12445965E+03</rscale>
<asrwt>0</asrwt>
<pdfrwt beam="2">  1        2 0.22384745E-01 0.13108278E+03</pdfrwt>
<pdfrwt beam="1">  1       -2 0.15365900E-01 0.13108278E+03</pdfrwt>
<totfact> 0.75717428E+03</totfact>
</mgrwt>
</event>
<event>
 6    1  0.5258538E-006  0.1361009E+03  0.7546771E-02  0.1230908E+00
         -3   -1    0    0    0  501 -0.00000000000E+00  0.00000000000E+00  0.32434012130E+03  0.32434012130E+03  0.00000000000E+00 0.  1.
          3   -1    0    0  501    0  0.00000000000E+00 -0.00000000000E+00 -0.45047147787E+02  0.45047147787E+02  0.00000000000E+00 0. -1.
          5    1    1    2  502    0 -0.65752654276E+02 -0.36632262996E+02  0.49285392348E+02  0.90091476486E+02  0.47000000000E+01 0. -1.
         -5    1    1    2    0  502  0.13129476470E+02  0.47816168462E+02  0.10131315524E+03  0.11289470556E+03  0.47000000000E+01 0. -1.
        -11    1    1    2    0    0  0.13884863057E+02 -0.47509627283E+02  0.42901142276E+02  0.65501619180E+02  0.00000000000E+00 0. -1.
         11    1    1    2    0    0  0.38738314749E+02  0.36325721816E+02  0.85793283648E+02  0.10089946786E+03  0.00000000000E+00 0.  1.
<mgrwt>
<rscale>  0 0.12770075E+03</rscale>
<asrwt>0</asrwt>
<pdfrwt beam="2">  1        3 0.69303306E-02 0.13610095E+03</pdfrwt>
<pdfrwt beam="1">  1       -3 0.49898479E-01 0.13610095E+03</pdfrwt>
<totfact> 0.12458652E+03</totfact>
</mgrwt>
</event>
<event>
 6    1  0.5258538E-006  0.5484243E+03  0.7546771E-02  0.1001859E+00
         -2   -1    0    0    0  501 -0.00000000000E+00  0.00000000000E+00  0.12205603438E+03  0.12205603438E+03  0.00000000000E+00 0. -1.
          2   -1    0    0  501    0  0.00000000000E+00 -0.00000000000E+00 -0.61604739524E+03  0.61604739524E+03  0.00000000000E+00 0.  1.
          5    1    1    2  502    0  0.22926655212E+01  0.16202068322E+02 -0.58402099685E+02  0.60833038563E+02  0.47000000000E+01 0.  1.
         -5    1    1    2    0  502  0.84839735916E+02 -0.20658571635E+03 -0.37729157463E+03  0.43845918998E+03  0.47000000000E+01 0.  1.
        -11    1    1    2    0    0 -0.50783934969E+02  0.18683815370E+03 -0.39001718564E+02  0.19750604492E+03  0.00000000000E+00 0.  1.
         11    1    1    2    0    0 -0.36348466469E+02  0.35454943199E+01 -0.19295967978E+02  0.41305156153E+02  0.00000000000E+00 0. -1.
<mgrwt>
<rscale>  0 0.54842430E+03</rscale>
<asrwt>0</asrwt>
<pdfrwt beam="2">  1        2 0.94776522E-01 0.54842430E+03</pdfrwt>
<pdfrwt beam="1">  1       -2 0.18777852E-01 0.54842430E+03</pdfrwt>
<totfact> 0.11474378E+03</totfact>
</mgrwt>
</event>
<event>
 6    1  0.5258538E-006  0.1265359E+03  0.7546771E-02  0.1247365E+00
          2   -1    0    0  501    0  0.00000000000E+00  0.00000000000E+00  0.37138123312E+03  0.37138123312E+03  0.00000000000E+00 0. -1.
         -2   -1    0    0    0  501 -0.00000000000E+00 -0.00000000000E+00 -0.38476793033E+02  0.38476793033E+02  0.00000000000E+00 0.  1.
          5    1    1    2  502    0  0.29659350297E+02  0.44177184539E+02  0.15599005935E+03  0.16488265315E+03  0.47000000000E+01 0.  1.
         -5    1    1    2    0  502 -0.48903484074E+02 -0.47961903786E+02  0.10995292011E+03  0.12962881474E+03  0.47000000000E+01 0.  1.
        -11    1    1    2    0    0  0.25007884782E+02 -0.31297361106E+02  0.60493921977E+00  0.40066008847E+02  0.00000000000E+00 0.  1.
         11    1    1    2    0    0 -0.57637510054E+01  0.35082080353E+02  0.66356521404E+02  0.75280549416E+02  0.00000000000E+00 0. -1.
<mgrwt>
<rscale>  0 0.11744919E+03</rscale>
<asrwt>0</asrwt>
<pdfrwt beam="1">  1        2 0.57135572E-01 0.12653591E+03</pdfrwt>
<pdfrwt beam="2">  1       -2 0.59195069E-02 0.12653591E+03</pdfrwt>
<totfact> 0.12297776E+04</totfact>
</mgrwt>
</event>
<event>
 6    1  0.5258538E-006  0.1867997E+03  0.7546771E-02  0.1173045E+00
         -3   -1    0    0    0  501 -0.00000000000E+00  0.00000000000E+00  0.86590332257E+03  0.86590332257E+03  0.00000000000E+00 0.  1.
          3   -1    0    0  501    0  0.00000000000E+00 -0.00000000000E+00 -0.32985614522E+02  0.32985614522E+02  0.00000000000E+00 0. -1.
          5    1    1    2  502    0 -0.57904216183E+02 -0.55183275967E+02  0.60820541519E+02  0.10059483321E+03  0.47000000000E+01 0. -1.
         -5    1    1    2    0  502 -0.48185298387E+02  0.23216181272E+02  0.31003126417E+03  0.31464629160E+03  0.47000000000E+01 0.  1.
        -11    1    1    2    0    0  0.13465410944E+02  0.30473965628E+02  0.42632913490E+02  0.54106794265E+02  0.00000000000E+00 0. -1.
         11    1    1    2    0    0  0.92624103625E+02  0.14931290674E+01  0.41943298887E+03  0.42954101801E+03  0.00000000000E+00 0.  1.
<mgrwt>
<rscale>  0 0.17468811E+03</rscale>
<asrwt>0</asrwt>
<pdfrwt beam="2">  1        3 0.50747106E-02 0.18679971E+03</pdfrwt>
<pdfrwt beam="1">  1       -3 0.13321588E+00 0.18679971E+03</pdfrwt>
<totfact> 0.24821574E+02</totfact>
</mgrwt>
</event>
<event>
 6    1  0.5258538E-006  0.2256455E+03  0.7546771E-02  0.1132433E+00
         -2   -1    0    0    0  501 -0.00000000000E+00  0.00000000000E+00  0.34745218739E+03  0.34745218739E+03  0.00000000000E+00 0.  1.
          2   -1    0    0  501    0  0.00000000000E+00 -0.00000000000E+00 -0.15113640803E+03  0.15113640803E+03  0.00000000000E+00 0. -1.
          5    1    1    2  502    0 -0.80021390572E+02 -0.17878243307E+03  0.34444477312E+02  0.19893489724E+03  0.47000000000E+01 0.  1.
         -5    1    1    2    0  502 -0.18509417177E+02  0.18839123830E+02 -0.86372170425E+01  0.28181600897E+02  0.47000000000E+01 0.  1.
        -11    1    1    2    0    0  0.93207338151E+02  0.17297990689E+03  0.15319649819E+03  0.24915622234E+03  0.00000000000E+00 0.  1.
         11    1    1    2    0    0  0.53234695981E+01 -0.13036597653E+02  0.17312020900E+02  0.22315874945E+02  0.00000000000E+00 0. -1.
<mgrwt>
<rscale>  0 0.22195554E+03</rscale>
<asrwt>0</asrwt>
<pdfrwt beam="2">  1        2 0.23251755E-01 0.22564549E+03</pdfrwt>
<pdfrwt beam="1">  1       -2 0.53454182E-01 0.22564549E+03</pdfrwt>
<totfact> 0.78246618E+02</totfact>
</mgrwt>
</event>
<event>
 6    1  0.5258538E-006  0.1506956E+03  0.7546771E-02  0.1208455E+00
          3   -1    0    0  501    0  0.00000000000E+00  0.00000000000E+00  0.81198671641E+02  0.81198671641E+02  0.00000000000E+00 0. -1.
         -3   -1    0    0    0  501 -0.00000000000E+00 -0.00000000000E+00 -0.23341910624E+03  0.23341910624E+03  0.00000000000E+00 0.  1.
          5    1    1    2  502    0 -0.23721253102E+02 -0.17712224226E+02  0.26901902589E+01  0.30095645190E+02  0.47000000000E+01 0.  1.
         -5    1    1    2    0  502  0.96150605438E+02  0.60559059394E+02 -0.81894007211E+02  0.14014655550E+03  0.47000000000E+01 0.  1.
        -11    1    1    2    0    0 -0.58055741780E+02 -0.49486840567E+02 -0.92092754561E+02  0.11958466451E+03  0.00000000000E+00 0.  1.
         11    1    1    2    0    0 -0.14373610556E+02  0.66400053990E+01  0.19076136915E+02  0.24790912684E+02  0.00000000000E+00 0. -1.
<mgrwt>
<rscale>  0 0.14368518E+03</rscale>
<asrwt>0</asrwt>
<pdfrwt beam="1">  1        3 0.12492104E-01 0.15069559E+03</pdfrwt>
<pdfrwt beam="2">  1       -3 0.35910631E-01 0.15069559E+03</pdfrwt>
<totfact> 0.90996145E+02</totfact>
</mgrwt>
</event>
<event>
 6    1  0.5258538E-006  0.4409608E+03  0.7546771E-02  0.1030452E+00
         -1   -1    0    0    0  501 -0.00000000000E+00  0.00000000000E+00  0.62357452233E+02  0.62357452233E+02  0.00000000000E+00 0.  1.
          1   -1    0    0  501    0  0.00000000000E+00 -0.00000000000E+00 -0.77956360737E+03  0.77956360737E+03  0.00000000000E+00 0. -1.
          5    1    1    2  502    0  0.10687582120E+03  0.11177563908E+03 -0.57199246238E+03  0.59254848044E+03  0.47000000000E+01 0. -1.
         -5    1    1    2    0  502  0.14705139395E+02 -0.12241371778E+02 -0.78376602209E+01  0.21204037950E+02  0.47000000000E+01 0.  1.
        -11    1    1    2    0    0 -0.82834499216E+02 -0.86935246922E+01 -0.67141485340E+02  0.10698182409E+03  0.00000000000E+00 0. -1.
         11    1    1    2    0    0 -0.38746461383E+02 -0.90840742612E+02 -0.70234547197E+02  0.12118671713E+03  0.00000000000E+00 0.  1.
<mgrwt>
<rscale>  0 0.44096077E+03</rscale>
<asrwt>0</asrwt>
<pdfrwt beam="2">  1        1 0.11993285E+00 0.44096077E+03</pdfrwt>
<pdfrwt beam="1">  1       -1 0.95934549E-02 0.44096077E+03</pdfrwt>
<totfact> 0.15610803E+03</totfact>
</mgrwt>
</event>
<event>
 6    1  0.5258538E-006  0.3048425E+03  0.7546771E-02  0.1084228E+00
          2   -1    0    0  501    0  0.00000000000E+00  0.00000000000E+00  0.23998532175E+03  0.23998532175E+03  0.00000000000E+00 0. -1.
         -2   -1    0    0    0  501 -0.00000000000E+00 -0.00000000000E+00 -0.42535649188E+03  0.42535649188E+03  0.00000000000E+00 0.  1.
          5    1    1    2  502    0  0.88326374266E+02 -0.99811880846E+02  0.24072556665E+02  0.13551951126E+03  0.47000000000E+01 0. -1.
         -5    1    1    2    0  502  0.17002851068E+03 -0.29379093464E+01 -0.18860417230E+01  0.17012928292E+03  0.47000000000E+01 0. -1.
        -11    1    1    2    0    0 -0.61493784898E+02  0.62147254011E+02 -0.95846098039E+02  0.12973141975E+03  0.00000000000E+00 0.  1.
         11    1    1    2    0    0 -0.19686110005E+03  0.40602536182E+02 -0.11171158703E+03  0.22996159969E+03  0.00000000000E+00 0. -1.
<mgrwt>
<rscale>  0 0.30203500E+03</rscale>
<asrwt>0</asrwt>
<pdfrwt beam="1">  1        2 0.36920819E-01 0.30484249E+03</pdfrwt>
<pdfrwt beam="2">  1       -2 0.65439460E-01 0.30484249E+03</pdfrwt>
<totfact> 0.30869368E+02</totfact>
</mgrwt>
</event>
<event>
 6    1  0.5258538E-006  0.2537780E+03  0.7546771E-02  0.1113282E+00
         -3   -1    0    0    0  501 -0.00000000000E+00  0.00000000000E+00  0.97643933754E+03  0.97643933754E+03  0.00000000000E+00 0.  1.
          3   -1    0    0  501    0  0.00000000000E+00 -0.00000000000E+00 -0.72697510148E+02  0.72697510148E+02  0.00000000000E+00 0. -1.
          5    1    1    2  502    0  0.14250561137E+03 -0.18166645655E+03  0.25233687419E+03  0.34206218555E+03  0.47000000000E+01 0. -1.
         -5    1    1    2    0  502  0.72327001388E+01  0.19333993843E+02  0.11821896590E+02  0.24247938226E+02  0.47000000000E+01 0. -1.
        -11    1    1    2    0    0 -0.96705234363E+02  0.72590053657E+02  0.45551840010E+03  0.47129420861E+03  0.00000000000E+00 0.  1.
         11    1    1    2    0    0 -0.53033077142E+02  0.89742409047E+02  0.18406465651E+03  0.21153251530E+03  0.00000000000E+00 0. -1.
<mgrwt>
<rscale>  0 0.25003539E+03</rscale>
<asrwt>0</asrwt>
<pdfrwt beam="2">  1        3 0.11184233E-01 0.25377796E+03</pdfrwt>
<pdfrwt beam="1">  1       -3 0.15022143E+00 0.25377796E+03</pdfrwt>
<totfact> 0.51811342E+01</totfact>
</mgrwt>
</event>
<event>
 6    1  0.5258538E-006  0.1273600E+03  0.7546771E-02  0.1245943E+00
          2   -1    0    0  501    0  0.00000000000E+00  0.00000000000E+00  0.14705890595E+03  0.14705890595E+03  0.00000000000E+00 0.  1.
         -2   -1    0    0    0  501 -0.00000000000E+00 -0.00000000000E+00 -0.85644486901E+02  0.85644486901E+02  0.00000000000E+00 0. -1.
          5    1    1    2  502    0  0.39828372293E+02  0.41733353007E+02  0.70357451755E+02  0.91105614592E+02  0.47000000000E+01 0. -1.
         -5    1    1    2    0  502 -0.15548077523E+02 -0.39108141083E+02 -0.18750806952E+02  0.46312764709E+02  0.47000000000E+01 0. -1.
        -11    1    1    2    0    0 -0.30898393484E+02  0.33548986097E+02 -0.18151346147E+02  0.49088863859E+02  0.00000000000E+00 0. -1.
         11    1    1    2    0    0  0.66180987149E+01 -0.36174198021E+02  0.27959120393E+02  0.46196149690E+02  0.00000000000E+00 0.  1.
<mgrwt>
<rscale>  0 0.11829126E+03</rscale>
<asrwt>0</asrwt>
<pdfrwt beam="1">  1        2 0.22624447E-01 0.12735998E+03</pdfrwt>
<pdfrwt beam="2">  1       -2 0.13176075E-01 0.12735998E+03</pdfrwt>
<totfact> 0.95812075E+03</totfact>
</mgrwt>
</event>
<event>
 6    1  0.5258538E-006  0.1298106E+03  0.7546771E-02  0.1243384E+00
         -2   -1    0    0    0  501 -0.00000000000E+00  0.00000000000E+00  0.64465359931E+02  0.64465359931E+02  0.00000000000E+00 0.  1.
          2   -1    0    0  501    0  0.00000000000E+00 -0.00000000000E+00 -0.42436517979E+03  0.42436517979E+03  0.00000000000E+00 0. -1.
          5    1    1    2  502    0 -0.53977447955E+02 -0.69964221161E+01 -0.17127540922E+03  0.17977728059E+03  0.47000000000E+01 0. -1.
         -5    1    1    2    0  502  0.62441610633E+02  0.40972662582E+02 -0.20054675612E+03  0.21405327656E+03  0.47000000000E+01 0. -1.
        -11    1    1    2    0    0 -0.15172046007E+02  0.21524366030E+02 -0.17702475501E+02  0.31731166885E+02  0.00000000000E+00 0. -1.
         11    1    1    2    0    0  0.67078833299E+01 -0.55500606496E+02  0.29624820984E+02  0.63268815688E+02  0.00000000000E+00 0.  1.
<mgrwt>
<rscale>  0 0.11982615E+03</rscale>
<asrwt>0</asrwt>
<pdfrwt beam="2">  1        2 0.65286953E-01 0.12981057E+03</pdfrwt>
<pdfrwt beam="1">  1       -2 0.99177473E-02 0.12981057E+03</pdfrwt>
<totfact> 0.48307150E+03</totfact>
</mgrwt>
</event>
<event>
 6    1  0.5258538E-006  0.2748423E+03  0.7546771E-02  0.1098540E+00
         -2   -1    0    0    0  501 -0.00000000000E+00  0.00000000000E+00  0.16921358514E+03  0.16921358514E+03  0.00000000000E+00 0.  1.
          2   -1    0    0  501    0  0.00000000000E+00 -0.00000000000E+00 -0.11160196276E+03  0.11160196276E+03  0.00000000000E+00 0. -1.
          5    1    1    2  502    0  0.10706051252E+02 -0.22690815924E+02 -0.30561560052E+02  0.39819487861E+02  0.47000000000E+01 0.  1.
         -5    1    1    2    0  502 -0.22954420624E+02  0.10040582519E+03  0.31814707253E+02  0.10790042056E+03  0.47000000000E+01 0.  1.
        -11    1    1    2    0    0 -0.28001375546E+02 -0.73772566374E+02  0.46041680058E+02  0.91358113403E+02  0.00000000000E+00 0.  1.
         11    1    1    2    0    0  0.40249744917E+02 -0.39424428926E+01  0.10316795120E+02  0.41737526082E+02  0.00000000000E+00 0. -1.
<mgrwt>
<rscale>  0 0.27484227E+03</rscale>
<asrwt>0</asrwt>
<pdfrwt beam="2">  1        2 0.17169533E-01 0.27484227E+03</pdfrwt>
<pdfrwt beam="1">  1       -2 0.26032859E-01 0.27484227E+03</pdfrwt>
<totfact> 0.43619161E+03</totfact>
</mgrwt>
</event>
<event>
 6    1  0.5258538E-006  0.2179733E+03  0.7546771E-02  0.1138780E+00
         -1   -1    0    0    0  501 -0.00000000000E+00  0.00000000000E+00  0.18208657667E+04  0.18208657667E+04  0.00000000000E+00 0.  1.
          1   -1    0    0  501    0  0.00000000000E+00 -0.00000000000E+00 -0.25263386183E+02  0.25263386183E+02  0.00000000000E+00 0. -1.
          5    1    1    2  502    0  0.57234552619E+02 -0.11467064931E+03  0.10291009279E+04  0.10370612140E+04  0.47000000000E+01 0. -1.
         -5    1    1    2    0  502  0.54998448996E+01 -0.52531071817E+02  0.10316694358E+03  0.11599685362E+03  0.47000000000E+01 0. -1.
        -11    1    1    2    0    0 -0.14792137641E+02 -0.57578741744E+01  0.22219412116E+02  0.27306825626E+02  0.00000000000E+00 0. -1.
         11    1    1    2    0    0 -0.47942259877E+02  0.17295959530E+03  0.64111509689E+03  0.66576425959E+03  0.00000000000E+00 0.  1.
<mgrwt>
<rscale>  0 0.21355640E+03</rscale>
<asrwt>0</asrwt>
<pdfrwt beam="2">  1        1 0.38866762E-02 0.21797333E+03</pdfrwt>
<pdfrwt beam="1">  1       -1 0.28013309E+00 0.21797333E+03</pdfrwt>
<totfact> 0.12237154E+02</totfact>
</mgrwt>
</event>
<event>
 6    1  0.5258538E-006  0.2604323E+03  0.7546771E-02  0.1106884E+00
          1   -1    0    0  501    0  0.00000000000E+00  0.00000000000E+00  0.15123242135E+03  0.15123242135E+03  0.00000000000E+00 0. -1.
         -1   -1    0    0    0  501 -0.00000000000E+00 -0.00000000000E+00 -0.11212043643E+03  0.11212043643E+03  0.00000000000E+00 0.  1.
          5    1    1    2  502    0  0.80410677750E+02  0.57872799637E+02  0.23232813439E+02  0.10186752012E+03  0.47000000000E+01 0. -1.
         -5    1    1    2    0  502 -0.29280254545E+02 -0.26914734554E+02  0.31545184168E+02  0.50979651691E+02  0.47000000000E+01 0.  1.
        -11    1    1    2    0    0 -0.65362180935E+01 -0.54296660603E+02  0.73141155834E+01  0.55175590494E+02  0.00000000000E+00 0. -1.
         11    1    1    2    0    0 -0.44594205112E+02  0.23338595520E+02 -0.22980128274E+02  0.55330095481E+02  0.00000000000E+00 0.  1.
<mgrwt>
<rscale>  0 0.26043230E+03</rscale>
<asrwt>0</asrwt>
<pdfrwt beam="1">  1        1 0.23266526E-01 0.26043230E+03</pdfrwt>
<pdfrwt beam="2">  1       -1 0.17249298E-01 0.26043230E+03</pdfrwt>
<totfact> 0.53325661E+03</totfact>
</mgrwt>
</event>
<event>
 6    1  0.5258538E-006  0.2494140E+03  0.7546771E-02  0.1115015E+00
         -2   -1    0    0    0  501 -0.00000000000E+00  0.00000000000E+00  0.16897369968E+04  0.16897369968E+04  0.00000000000E+00 0. -1.
          2   -1    0    0  501    0  0.00000000000E+00 -0.00000000000E+00 -0.37184180442E+02  0.37184180442E+02  0.00000000000E+00 0.  1.
          5    1    1    2  502    0 -0.20927133005E+00 -0.11033035206E+03  0.39647975617E+03  0.41157152164E+03  0.47000000000E+01 0. -1.
         -5    1    1    2    0  502 -0.10390203596E+03 -0.78731772831E+02  0.26497512485E+03  0.29534426001E+03  0.47000000000E+01 0. -1.
        -11    1    1    2    0    0  0.61997858151E+02  0.17458646777E+02  0.26083659939E+03  0.26867130540E+03  0.00000000000E+00 0.  1.
         11    1    1    2    0    0  0.42113449143E+02  0.17160347811E+03  0.73026133593E+03  0.75133409017E+03  0.00000000000E+00 0. -1.
<mgrwt>
<rscale>  0 0.24731258E+03</rscale>
<asrwt>0</asrwt>
<pdfrwt beam="2">  1        2 0.57206445E-02 0.24941404E+03</pdfrwt>
<pdfrwt beam="1">  1       -2 0.25995948E+00 0.24941404E+03</pdfrwt>
<totfact> 0.82453308E+01</totfact>
</mgrwt>
</event>
<event>
 6    1  0.5258538E-006  0.1267596E+03  0.7546771E-02  0.1247021E+00
          1   -1    0    0  501    0  0.00000000000E+00  0.00000000000E+00  0.21510336948E+02  0.21510336948E+02  0.00000000000E+00 0. -1.
         -1   -1    0    0    0  501 -0.00000000000E+00 -0.00000000000E+00 -0.56784535042E+03  0.56784535042E+03  0.00000000000E+00 0.  1.
          5    1    1    2  502    0 -0.44099642215E+02  0.26520973516E+02 -0.49634799727E+02  0.71650846636E+02  0.47000000000E+01 0. -1.
         -5    1    1    2    0  502  0.28297875730E+02 -0.12199240396E+02 -0.27650478606E+03  0.27825631700E+03  0.47000000000E+01 0. -1.
        -11    1    1    2    0    0  0.47473294756E+02 -0.39768017178E+01 -0.18478629562E+03  0.19082846674E+03  0.00000000000E+00 0.  1.
         11    1    1    2    0    0 -0.31671528271E+02 -0.10344931402E+02 -0.35409132063E+02  0.48620056995E+02  0.00000000000E+00 0. -1.
<mgrwt>
<rscale>  0 0.11765243E+03</rscale>
<asrwt>0</asrwt>
<pdfrwt beam="1">  1        1 0.33092829E-02 0.12675959E+03</pdfrwt>
<pdfrwt beam="2">  1       -1 0.87360817E-01 0.12675959E+03</pdfrwt>
<totfact> 0.38385642E+03</totfact>
</mgrwt>
</event>
<event>
 6    1  0.5258538E-006  0.1144993E+03  0.7546771E-02  0.1263211E+00
          2   -1    0    0  501    0  0.00000000000E+00  0.00000000000E+00  0.74886117587E+03  0.74886117587E+03  0.00000000000E+00 0. -1.
         -2   -1    0    0    0  501 -0.00000000000E+00 -0.00000000000E+00 -0.21355761127E+02  0.21355761127E+02  0.00000000000E+00 0.  1.
          5    1    1    2  502    0  0.10525265749E+02 -0.25323039048E+02  0.60623805350E+03  0.60687618592E+03  0.47000000000E+01 0. -1.
         -5    1    1    2    0  502 -0.11973506265E+02 -0.22099647874E+01  0.34906525279E+01  0.13510124045E+02  0.47000000000E+01 0.  1.
        -11    1    1    2    0    0 -0.28626482362E+02 -0.89898063006E+01  0.90220152920E+02  0.95078746851E+02  0.00000000000E+00 0. -1.
         11    1    1    2    0    0  0.30074722878E+02  0.36522810136E+02  0.27556555802E+02  0.54751880187E+02  0.00000000000E+00 0.  1.
<mgrwt>
<rscale>  0 0.10858614E+03</rscale>
<asrwt>0</asrwt>
<pdfrwt beam="1">  1        2 0.11520939E+00 0.11449925E+03</pdfrwt>
<pdfrwt beam="2">  1       -2 0.32855023E-02 0.11449925E+03</pdfrwt>
<totfact> 0.13433779E+04</totfact>
</mgrwt>
</event>
<event>
 6    1  0.5258538E-006  0.3166856E+03  0.7546771E-02  0.1077185E+00
         -2   -1    0    0    0  501 -0.00000000000E+00  0.00000000000E+00  0.33972842651E+02  0.33972842651E+02  0.00000000000E+00 0. -1.
          2   -1    0    0  501    0  0.00000000000E+00 -0.00000000000E+00 -0.73801435991E+03  0.73801435991E+03  0.00000000000E+00 0.  1.
          5    1    1    2  502    0 -0.15331331203E+02 -0.55178389884E+00 -0.23141301870E+03  0.23196859573E+03  0.47000000000E+01 0.  1.
         -5    1    1    2    0  502  0.85708883777E+02 -0.82549436320E+02 -0.24381147748E+03  0.27134212490E+03  0.47000000000E+01 0.  1.
        -11    1    1    2    0    0 -0.29200173967E+02  0.79030250742E+02 -0.87678530607E+02  0.12159751404E+03  0.00000000000E+00 0. -1.
         11    1    1    2    0    0 -0.41177378607E+02  0.40709694771E+01 -0.14113849047E+03  0.14707896788E+03  0.00000000000E+00 0.  1.
<mgrwt>
<rscale>  0 0.31668562E+03</rscale>
<asrwt>0</asrwt>
<pdfrwt beam="2">  1        2 0.11354067E+00 0.31668562E+03</pdfrwt>
<pdfrwt beam="1">  1       -2 0.52265913E-02 0.31668562E+03</pdfrwt>
<totfact> 0.72016334E+03</totfact>
</mgrwt>
</event>
<event>
 6    1  0.5258538E-006  0.1364563E+03  0.7546771E-02  0.1229600E+00
          1   -1    0    0  501    0  0.00000000000E+00  0.00000000000E+00  0.11135570973E+03  0.11135570973E+03  0.00000000000E+00 0. -1.
         -1   -1    0    0    0  501 -0.00000000000E+00 -0.00000000000E+00 -0.14676395477E+03  0.14676395477E+03  0.00000000000E+00 0.  1.
          5    1    1    2  502    0 -0.54447728302E+02  0.18688513958E+01  0.26105461815E+02  0.60594000193E+02  0.47000000000E+01 0. -1.
         -5    1    1    2    0  502  0.55503768715E+02  0.52853909135E+02 -0.73796517696E+01  0.77141125949E+02  0.47000000000E+01 0. -1.
        -11    1    1    2    0    0  0.38447078609E+01  0.19475569833E+02 -0.40053653123E+02  0.44703184756E+02  0.00000000000E+00 0.  1.
         11    1    1    2    0    0 -0.49007482737E+01 -0.74198330364E+02 -0.14080401961E+02  0.75681353594E+02  0.00000000000E+00 0. -1.
<mgrwt>
<rscale>  0 0.12856535E+03</rscale>
<asrwt>0</asrwt>
<pdfrwt beam="1">  1        1 0.17131648E-01 0.13645625E+03</pdfrwt>
<pdfrwt beam="2">  1       -1 0.22579070E-01 0.13645625E+03</pdfrwt>
<totfact> 0.49296526E+03</totfact>
</mgrwt>
</event>
<event>
 6    1  0.5258538E-006  0.1340949E+03  0.7546771E-02  0.1236638E+00
         -1   -1    0    0    0  501 -0.00000000000E+00  0.00000000000E+00  0.16682788959E+03  0.16682788959E+03  0.00000000000E+00 0.  1.
          1   -1    0    0  501    0  0.00000000000E+00 -0.00000000000E+00 -0.83286101022E+02  0.83286101022E+02  0.00000000000E+00 0. -1.
          5    1    1    2  502    0 -0.25057010245E+02 -0.11850429774E+02 -0.49786076873E+02  0.57175430901E+02  0.47000000000E+01 0. -1.
         -5    1    1    2    0  502 -0.14623281062E+02 -0.16160719417E+02  0.76332323770E+02  0.79521838845E+02  0.47000000000E+01 0. -1.
        -11    1    1    2    0    0  0.47574887941E+02  0.14751107147E+02 -0.45021176115E+01  0.50012340354E+02  0.00000000000E+00 0. -1.
         11    1    1    2    0    0 -0.78945966339E+01  0.13260042044E+02  0.61497659278E+02  0.63404380509E+02  0.00000000000E+00 0.  1.
<mgrwt>
<rscale>  0 0.12400153E+03</rscale>
<asrwt>0</asrwt>
<pdfrwt beam="2">  1        1 0.12813246E-01 0.13409489E+03</pdfrwt>
<pdfrwt beam="1">  1       -1 0.25665829E-01 0.13409489E+03</pdfrwt>
<totfact> 0.58166418E+03</totfact>
</mgrwt>
</event>
<event>
 6    1  0.5258538E-006  0.1876773E+03  0.7546771E-02  0.1165285E+00
          1   -1    0    0  501    0  0.00000000000E+00  0.00000000000E+00  0.76648659885E+02  0.76648659885E+02  0.00000000000E+00 0. -1.
         -1   -1    0    0    0  501 -0.00000000000E+00 -0.00000000000E+00 -0.47916625710E+03  0.47916625710E+03  0.00000000000E+00 0.  1.
          5    1    1    2  502    0  0.72473724851E+02  0.32995848933E+02  0.79744970021E+01  0.80167633388E+02  0.47000000000E+01 0. -1.
         -5    1    1    2    0  502  0.25424773814E+02  0.67066786758E+02 -0.11575668898E+03  0.13625738164E+03  0.47000000000E+01 0. -1.
        -11    1    1    2    0    0 -0.66846874602E+02 -0.24233953542E+02 -0.68335911504E+02  0.98618385453E+02  0.00000000000E+00 0. -1.
         11    1    1    2    0    0 -0.31051624062E+02 -0.75828682150E+02 -0.22639949374E+03  0.24077151650E+03  0.00000000000E+00 0.  1.
<mgrwt>
<rscale>  0 0.18262655E+03</rscale>
<asrwt>0</asrwt>
<pdfrwt beam="1">  1        1 0.11792102E-01 0.18767735E+03</pdfrwt>
<pdfrwt beam="2">  1       -1 0.73717882E-01 0.18767735E+03</pdfrwt>
<totfact> 0.98531937E+02</totfact>
</mgrwt>
</event>
<event>
 6    1  0.5258538E-006  0.3174491E+03  0.7546771E-02  0.1076829E+00
          2   -1    0    0  501    0  0.00000000000E+00  0.00000000000E+00  0.11538866798E+03  0.11538866798E+03  0.00000000000E+00 0. -1.
         -2   -1    0    0    0  501 -0.00000000000E+00 -0.00000000000E+00 -0.21833586162E+03  0.21833586162E+03  0.00000000000E+00 0.  1.
          5    1    1    2  502    0  0.10685602587E+03 -0.38006413402E+02  0.35221293954E+02  0.11885002007E+03  0.47000000000E+01 0. -1.
         -5    1    1    2    0  502 -0.30665706951E+02 -0.12701578015E+02 -0.16208323242E+02  0.37235942437E+02  0.47000000000E+01 0. -1.
        -11    1    1    2    0    0 -0.28187108877E+02  0.31561426011E+02 -0.11851522247E+03  0.12584313520E+03  0.00000000000E+00 0.  1.
         11    1    1    2    0    0 -0.48003210039E+02  0.19146565406E+02 -0.34449418798E+01  0.51795431897E+02  0.00000000000E+00 0. -1.
<mgrwt>
<rscale>  0 0.31744911E+03</rscale>
<asrwt>0</asrwt>
<pdfrwt beam="1">  1        2 0.17752103E-01 0.31744911E+03</pdfrwt>
<pdfrwt beam="2">  1       -2 0.33590132E-01 0.31744911E+03</pdfrwt>
<totfact> 0.26516149E+03</totfact>
</mgrwt>
</event>
<event>
 6    1  0.5258538E-006  0.1253120E+03  0.7546771E-02  0.1249751E+00
          1   -1    0    0  501    0  0.00000000000E+00  0.00000000000E+00  0.28534794945E+03  0.28534794945E+03  0.00000000000E+00 0. -1.
         -1   -1    0    0    0  501 -0.00000000000E+00 -0.00000000000E+00 -0.73722730201E+02  0.73722730201E+02  0.00000000000E+00 0.  1.
          5    1    1    2  502    0  0.53852448439E+02 -0.32830960123E+02  0.16479644168E+03  0.17651604838E+03  0.47000000000E+01 0. -1.
         -5    1    1    2    0  502 -0.53495305884E+02  0.14633233547E+02  0.68092430430E+02  0.87946281090E+02  0.47000000000E+01 0.  1.
        -11    1    1    2    0    0 -0.24137511868E+02  0.47530862486E+02 -0.19641594592E+02  0.56811923097E+02  0.00000000000E+00 0.  1.
         11    1    1    2    0    0  0.23780369313E+02 -0.29333135911E+02 -0.16220582728E+01  0.37796427081E+02  0.00000000000E+00 0. -1.
<mgrwt>
<rscale>  0 0.11605474E+03</rscale>
<asrwt>0</asrwt>
<pdfrwt beam="1">  1        1 0.43899684E-01 0.12531200E+03</pdfrwt>
<pdfrwt beam="2">  1       -1 0.11341959E-01 0.12531200E+03</pdfrwt>
<totfact> 0.44705615E+03</totfact>
</mgrwt>
</event>
<event>
 6    1  0.5258538E-006  0.1457664E+03  0.7546771E-02  0.1215862E+00
         -2   -1    0    0    0  501 -0.00000000000E+00  0.00000000000E+00  0.36660276178E+03  0.36660276178E+03  0.00000000000E+00 0.  1.
          2   -1    0    0  501    0  0.00000000000E+00 -0.00000000000E+00 -0.54447455888E+02  0.54447455888E+02  0.00000000000E+00 0. -1.
          5    1    1    2  502    0  0.47435998752E+01  0.34589596931E+02  0.56108908239E+02  0.66251351227E+02  0.47000000000E+01 0. -1.
         -5    1    1    2    0  502  0.47629196511E+02 -0.88256919894E+02  0.38506078850E+02  0.10752968138E+03  0.47000000000E+01 0. -1.
        -11    1    1    2    0    0 -0.33026171759E+02 -0.12972629041E+02  0.13425266509E+03  0.13886250469E+03  0.00000000000E+00 0. -1.
         11    1    1    2    0    0 -0.19346624627E+02  0.66639952005E+02  0.83287653714E+02  0.10840668037E+03  0.00000000000E+00 0.  1.
<mgrwt>
<rscale>  0 0.13813375E+03</rscale>
<asrwt>0</asrwt>
<pdfrwt beam="2">  1        2 0.83765319E-02 0.14576643E+03</pdfrwt>
<pdfrwt beam="1">  1       -2 0.56400423E-01 0.14576643E+03</pdfrwt>
<totfact> 0.23295840E+03</totfact>
</mgrwt>
</event>
<event>
 6    1  0.5258538E-006  0.1313356E+03  0.7546771E-02  0.1238764E+00
         -2   -1    0    0    0  501 -0.00000000000E+00  0.00000000000E+00  0.84697559795E+02  0.84697559795E+02  0.00000000000E+00 0.  1.
          2   -1    0    0  501    0  0.00000000000E+00 -0.00000000000E+00 -0.17926758393E+03  0.17926758393E+03  0.00000000000E+00 0. -1.
          5    1    1    2  502    0 -0.79174930874E+02 -0.21428138740E+02 -0.74044786899E+02  0.11060088280E+03  0.47000000000E+01 0. -1.
         -5    1    1    2    0  502  0.47260059038E+02 -0.32373099441E+01 -0.24110670172E+02  0.53361107298E+02  0.47000000000E+01 0. -1.
        -11    1    1    2    0    0  0.60881391264E+02  0.28389285076E+01  0.13454994992E+02  0.62415063947E+02  0.00000000000E+00 0.  1.
         11    1    1    2    0    0 -0.28966519428E+02  0.21826520176E+02 -0.98695620558E+01  0.37588089682E+02  0.00000000000E+00 0. -1.
<mgrwt>
<rscale>  0 0.12266494E+03</rscale>
<asrwt>0</asrwt>
<pdfrwt beam="2">  1        2 0.27579628E-01 0.13133560E+03</pdfrwt>
<pdfrwt beam="1">  1       -2 0.13030394E-01 0.13133560E+03</pdfrwt>
<totfact> 0.78610414E+03</totfact>
</mgrwt>
</event>
<event>
 6    1  0.5258538E-006  0.1285869E+03  0.7546771E-02  0.1244949E+00
         -1   -1    0    0    0  501 -0.00000000000E+00  0.00000000000E+00  0.16427270089E+02  0.16427270089E+02  0.00000000000E+00 0.  1.
          1   -1    0    0  501    0  0.00000000000E+00 -0.00000000000E+00 -0.86107327377E+03  0.86107327377E+03  0.00000000000E+00 0. -1.
          5    1    1    2  502    0  0.34768538601E+02  0.49369541563E+01 -0.42814094847E+02  0.55573028623E+02  0.47000000000E+01 0.  1.
         -5    1    1    2    0  502 -0.85954152842E+01  0.10037847019E+02 -0.59033254394E+03  0.59049914646E+03  0.47000000000E+01 0.  1.
        -11    1    1    2    0    0 -0.42659925343E+02 -0.39425058451E+02 -0.95844122713E+02  0.11207274567E+03  0.00000000000E+00 0.  1.
         11    1    1    2    0    0  0.16486802027E+02  0.24450257276E+02 -0.11565524219E+03  0.11935562311E+03  0.00000000000E+00 0. -1.
<mgrwt>
<rscale>  0 0.11888439E+03</rscale>
<asrwt>0</asrwt>
<pdfrwt beam="2">  1        1 0.13247282E+00 0.12858689E+03</pdfrwt>
<pdfrwt beam="1">  1       -1 0.25272721E-02 0.12858689E+03</pdfrwt>
<totfact> 0.95652874E+03</totfact>
</mgrwt>
</event>
<event>
 6    1  0.5258538E-006  0.2168003E+03  0.7546771E-02  0.1139852E+00
         -1   -1    0    0    0  501 -0.00000000000E+00  0.00000000000E+00  0.24045191918E+03  0.24045191918E+03  0.00000000000E+00 0.  1.
          1   -1    0    0  501    0  0.00000000000E+00 -0.00000000000E+00 -0.17973939524E+03  0.17973939524E+03  0.00000000000E+00 0. -1.
          5    1    1    2  502    0  0.24681913822E+02 -0.48456252351E+02 -0.49139831005E+02  0.73443980373E+02  0.47000000000E+01 0. -1.
         -5    1    1    2    0  502  0.71261392968E+02 -0.10044908664E+03  0.76538389091E+02  0.14508073662E+03  0.47000000000E+01 0. -1.
        -11    1    1    2    0    0 -0.63285079592E+02  0.28386018195E+02 -0.87423542076E+01  0.69908483641E+02  0.00000000000E+00 0.  1.
         11    1    1    2    0    0 -0.32658227198E+02  0.12051932080E+03  0.42056320069E+02  0.13175811378E+03  0.00000000000E+00 0. -1.
<mgrwt>
<rscale>  0 0.21217851E+03</rscale>
<asrwt>0</asrwt>
<pdfrwt beam="2">  1        1 0.27652215E-01 0.21680030E+03</pdfrwt>
<pdfrwt beam="1">  1       -1 0.36992603E-01 0.21680030E+03</pdfrwt>
<totfact> 0.11882502E+03</totfact>
</mgrwt>
</event>
<event>
 6    1  0.5258538E-006  0.1721243E+03  0.7546771E-02  0.1181903E+00
          2   -1    0    0  501    0  0.00000000000E+00  0.00000000000E+00  0.20605298152E+04  0.20605298152E+04  0.00000000000E+00 0. -1.
         -2   -1    0    0    0  501 -0.00000000000E+00 -0.00000000000E+00 -0.14545341557E+02  0.14545341557E+02  0.00000000000E+00 0.  1.
          5    1    1    2  502    0 -0.11827152448E+03  0.11731648479E+02  0.70540276080E+03  0.71536069925E+03  0.47000000000E+01 0.  1.
         -5    1    1    2    0  502  0.21477115130E+01  0.10937202516E+02  0.76297789891E+03  0.76307378364E+03  0.47000000000E+01 0.  1.
        -11    1    1    2    0    0  0.13054993049E+03 -0.28000612361E+02  0.49952043011E+03  0.51705703625E+03  0.00000000000E+00 0.  1.
         11    1    1    2    0    0 -0.14426117527E+02  0.53317613661E+01  0.78083383835E+02  0.79583637623E+02  0.00000000000E+00 0. -1.
<mgrwt>
<rscale>  0 0.16616930E+03</rscale>
<asrwt>0</asrwt>
<pdfrwt beam="1">  1        2 0.31700436E+00 0.17212425E+03</pdfrwt>
<pdfrwt beam="2">  1       -2 0.22377465E-02 0.17212425E+03</pdfrwt>
<totfact> 0.45119895E+03</totfact>
</mgrwt>
</event>
<event>
 6    1  0.5258538E-006  0.3083074E+03  0.7546771E-02  0.1081160E+00
          1   -1    0    0  501    0  0.00000000000E+00  0.00000000000E+00  0.59464504285E+03  0.59464504285E+03  0.00000000000E+00 0. -1.
         -1   -1    0    0    0  501 -0.00000000000E+00 -0.00000000000E+00 -0.39962255525E+02  0.39962255525E+02  0.00000000000E+00 0.  1.
          5    1    1    2  502    0  0.36885744881E+02 -0.10405744468E+03  0.13748698451E+03  0.17638954299E+03  0.47000000000E+01 0. -1.
         -5    1    1    2    0  502  0.26181600178E+01  0.52096463155E+01  0.18813485606E+03  0.18828385284E+03  0.47000000000E+01 0. -1.
        -11    1    1    2    0    0  0.30694394128E+02  0.41247307662E+02  0.71269356561E+02  0.87879505034E+02  0.00000000000E+00 0.  1.
         11    1    1    2    0    0 -0.70198299027E+02  0.57600490698E+02  0.15779159019E+03  0.18205439751E+03  0.00000000000E+00 0. -1.
<mgrwt>
<rscale>  0 0.30830736E+03</rscale>
<asrwt>0</asrwt>
<pdfrwt beam="1">  1        1 0.91483846E-01 0.30830736E+03</pdfrwt>
<pdfrwt beam="2">  1       -1 0.61480398E-02 0.30830736E+03</pdfrwt>
<totfact> 0.45872462E+03</totfact>
</mgrwt>
</event>
<event>
 6    1  0.5258538E-006  0.2036674E+03  0.7546771E-02  0.1150914E+00
         -1   -1    0    0    0  501 -0.00000000000E+00  0.00000000000E+00  0.37064011170E+03  0.37064011170E+03  0.00000000000E+00 0.  1.
          1   -1    0    0  501    0  0.00000000000E+00 -0.00000000000E+00 -0.11295936277E+03  0.11295936277E+03  0.00000000000E+00 0. -1.
          5    1    1    2  502    0 -0.12335137972E+03 -0.69977344892E+01 -0.67974948971E+01  0.12382579337E+03  0.47000000000E+01 0.  1.
         -5    1    1    2    0  502 -0.25514023941E+02 -0.53778862360E+02  0.64420392967E+02  0.87836259508E+02  0.47000000000E+01 0.  1.
        -11    1    1    2    0    0  0.98192029692E+02  0.68903908758E+02  0.18110416195E+03  0.21722831494E+03  0.00000000000E+00 0.  1.
         11    1    1    2    0    0  0.50673373967E+02 -0.81273119091E+01  0.18953688915E+02  0.54709106660E+02  0.00000000000E+00 0. -1.
<mgrwt>
<rscale>  0 0.19861365E+03</rscale>
<asrwt>0</asrwt>
<pdfrwt beam="2">  1        1 0.17378364E-01 0.20366744E+03</pdfrwt>
<pdfrwt beam="1">  1       -1 0.57021555E-01 0.20366744E+03</pdfrwt>
<totfact> 0.97993025E+02</totfact>
</mgrwt>
</event>
<event>
 6    1  0.5258538E-006  0.3764717E+03  0.7546771E-02  0.1052246E+00
          2   -1    0    0  501    0  0.00000000000E+00  0.00000000000E+00  0.10882079613E+04  0.10882079613E+04  0.00000000000E+00 0.  1.
         -2   -1    0    0    0  501 -0.00000000000E+00 -0.00000000000E+00 -0.32560631139E+02  0.32560631139E+02  0.00000000000E+00 0. -1.
          5    1    1    2  502    0  0.13380626499E+02 -0.35299486044E+01  0.11777903942E+02  0.18769942033E+02  0.47000000000E+01 0. -1.
         -5    1    1    2    0  502 -0.10289918541E+03  0.69303044430E+02  0.85821349686E+03  0.86714684484E+03  0.47000000000E+01 0. -1.
        -11    1    1    2    0    0  0.64281489723E+02 -0.97119233164E+01  0.15071066994E+03  0.16413451011E+03  0.00000000000E+00 0.  1.
         11    1    1    2    0    0  0.25237069184E+02 -0.56061172509E+02  0.34945259470E+02  0.70717295505E+02  0.00000000000E+00 0. -1.
<mgrwt>
<rscale>  0 0.37647171E+03</rscale>
<asrwt>0</asrwt>
<pdfrwt beam="1">  1        2 0.16741658E+00 0.37647171E+03</pdfrwt>
<pdfrwt beam="2">  1       -2 0.50093287E-02 0.37647171E+03</pdfrwt>
<totfact> 0.45519303E+03</totfact>
</mgrwt>
</event>
<event>
 6    1  0.5258538E-006  0.1672133E+03  0.7546771E-02  0.1193944E+00
          1   -1    0    0  501    0  0.00000000000E+00  0.00000000000E+00  0.14377616657E+04  0.14377616657E+04  0.00000000000E+00 0. -1.
         -1   -1    0    0    0  501 -0.00000000000E+00 -0.00000000000E+00 -0.16631654311E+02  0.16631654311E+02  0.00000000000E+00 0.  1.
          5    1    1    2  502    0  0.42107174397E+02 -0.97164685993E+02  0.86529449409E+03  0.87176295049E+03  0.47000000000E+01 0.  1.
         -5    1    1    2    0  502  0.42373013680E+02  0.25107471579E+02  0.17401728649E+03  0.18091424326E+03  0.47000000000E+01 0.  1.
        -11    1    1    2    0    0 -0.22821803126E+02 -0.74586384081E+01  0.64323104464E+02  0.68658049439E+02  0.00000000000E+00 0.  1.
         11    1    1    2    0    0 -0.61658384951E+02  0.79515852822E+02  0.31749512634E+03  0.33305807682E+03  0.00000000000E+00 0. -1.
<mgrwt>
<rscale>  0 0.15543947E+03</rscale>
<asrwt>0</asrwt>
<pdfrwt beam="1">  1        1 0.22119400E+00 0.16721333E+03</pdfrwt>
<pdfrwt beam="2">  1       -1 0.25587172E-02 0.16721333E+03</pdfrwt>
<totfact> 0.37277681E+03</totfact>
</mgrwt>
</event>
<event>
 6    1  0.5258538E-006  0.1532795E+03  0.7546771E-02  0.1205388E+00
          4   -1    0    0  501    0  0.00000000000E+00  0.00000000000E+00  0.19642724959E+04  0.19642724959E+04  0.00000000000E+00 0.  1.
         -4   -1    0    0    0  501 -0.00000000000E+00 -0.00000000000E+00 -0.15254418052E+02  0.15254418052E+02  0.00000000000E+00 0. -1.
          5    1    1    2  502    0  0.11714484840E+02  0.47031684301E+02  0.79453117764E+03  0.79602204161E+03  0.47000000000E+01 0. -1.
         -5    1    1    2    0  502  0.75877830091E+02 -0.61036360067E+02  0.82262749988E+03  0.82838455798E+03  0.47000000000E+01 0. -1.
        -11    1    1    2    0    0 -0.28850912714E+02  0.48905268546E+02  0.17625043480E+03  0.18517104585E+03  0.00000000000E+00 0.  1.
         11    1    1    2    0    0 -0.58741402217E+02 -0.34900592780E+02  0.15560896549E+03  0.16994926846E+03  0.00000000000E+00 0. -1.
<mgrwt>
<rscale>  0 0.14606947E+03</rscale>
<asrwt>0</asrwt>
<pdfrwt beam="1">  1        4 0.30219557E+00 0.15327952E+03</pdfrwt>
<pdfrwt beam="2">  1       -4 0.23468351E-02 0.15327952E+03</pdfrwt>
<totfact> 0.49629547E+01</totfact>
</mgrwt>
</event>
<event>
 6    1  0.5258538E-006  0.1299627E+03  0.7546771E-02  0.1245199E+00
         -1   -1    0    0    0  501 -0.00000000000E+00  0.00000000000E+00  0.92929898178E+02  0.92929898178E+02  0.00000000000E+00 0.  1.
          1   -1    0    0  501    0  0.00000000000E+00 -0.00000000000E+00 -0.13744543046E+03  0.13744543046E+03  0.00000000000E+00 0. -1.
          5    1    1    2  502    0  0.45542242817E+02 -0.75957904692E+01 -0.68969677132E+01  0.46919612928E+02  0.47000000000E+01 0. -1.
         -5    1    1    2    0  502 -0.78924520869E+02  0.19899491494E+02 -0.44078390290E+02  0.92682599482E+02  0.47000000000E+01 0. -1.
        -11    1    1    2    0    0  0.46951633454E+02  0.12565174240E+02 -0.19479108884E+02  0.52361963013E+02  0.00000000000E+00 0. -1.
         11    1    1    2    0    0 -0.13569355402E+02 -0.24868875266E+02  0.25938934605E+02  0.38411153217E+02  0.00000000000E+00 0.  1.
<mgrwt>
<rscale>  0 0.11873468E+03</rscale>
<asrwt>0</asrwt>
<pdfrwt beam="2">  1        1 0.21145451E-01 0.12996265E+03</pdfrwt>
<pdfrwt beam="1">  1       -1 0.14296907E-01 0.12996265E+03</pdfrwt>
<totfact> 0.77710231E+03</totfact>
</mgrwt>
</event>
<event>
 6    1  0.5258538E-006  0.1333909E+03  0.7546771E-02  0.1235247E+00
         -1   -1    0    0    0  501 -0.00000000000E+00  0.00000000000E+00  0.52636680747E+02  0.52636680747E+02  0.00000000000E+00 0.  1.
          1   -1    0    0  501    0  0.00000000000E+00 -0.00000000000E+00 -0.27153470284E+03  0.27153470284E+03  0.00000000000E+00 0. -1.
          5    1    1    2  502    0 -0.18384492595E+02  0.37626993755E+02 -0.20855085447E+02  0.47019196251E+02  0.47000000000E+01 0. -1.
         -5    1    1    2    0  502  0.60758464250E+02 -0.56955318117E+02 -0.12884578706E+03  0.15348884677E+03  0.47000000000E+01 0. -1.
        -11    1    1    2    0    0 -0.43464644263E+02  0.41655946886E+02 -0.10839834053E+02  0.61171032476E+02  0.00000000000E+00 0.  1.
         11    1    1    2    0    0  0.10906726078E+01 -0.22327622524E+02 -0.58357315534E+02  0.62492308092E+02  0.00000000000E+00 0. -1.
<mgrwt>
<rscale>  0 0.12488661E+03</rscale>
<asrwt>0</asrwt>
<pdfrwt beam="2">  1        1 0.41774569E-01 0.13339087E+03</pdfrwt>
<pdfrwt beam="1">  1       -1 0.80979510E-02 0.13339087E+03</pdfrwt>
<totfact> 0.79660168E+03</totfact>
</mgrwt>
</event>
<event>
 6    1  0.5258538E-006  0.1570107E+03  0.7546771E-02  0.1200099E+00
         -3   -1    0    0    0  501 -0.00000000000E+00  0.00000000000E+00  0.27910411710E+03  0.27910411710E+03  0.00000000000E+00 0.  1.
          3   -1    0    0  501    0  0.00000000000E+00 -0.00000000000E+00 -0.79228684398E+02  0.79228684398E+02  0.00000000000E+00 0. -1.
          5    1    1    2  502    0  0.11666833328E+02  0.71021834536E+02 -0.17132932049E+02  0.74133955387E+02  0.47000000000E+01 0. -1.
         -5    1    1    2    0  502  0.48389893027E+02  0.26190198550E+01  0.82803661734E+02  0.96057156988E+02  0.47000000000E+01 0. -1.
        -11    1    1    2    0    0  0.19327601300E+02 -0.26284322538E+02  0.64799676110E+02  0.72549430096E+02  0.00000000000E+00 0.  1.
         11    1    1    2    0    0 -0.79384327654E+02 -0.47356531853E+02  0.69405026903E+02  0.11559225902E+03  0.00000000000E+00 0. -1.
<mgrwt>
<rscale>  0 0.15030492E+03</rscale>
<asrwt>0</asrwt>
<pdfrwt beam="2">  1        3 0.12189028E-01 0.15701073E+03</pdfrwt>
<pdfrwt beam="1">  1       -3 0.42939095E-01 0.15701073E+03</pdfrwt>
<totfact> 0.67620490E+02</totfact>
</mgrwt>
</event>
<event>
 6    1  0.5258538E-006  0.3951855E+03  0.7546771E-02  0.1046277E+00
          1   -1    0    0  501    0  0.00000000000E+00  0.00000000000E+00  0.14620899648E+04  0.14620899648E+04  0.00000000000E+00 0. -1.
         -1   -1    0    0    0  501 -0.00000000000E+00 -0.00000000000E+00 -0.15326307234E+03  0.15326307234E+03  0.00000000000E+00 0.  1.
          5    1    1    2  502    0  0.61534754996E+02 -0.30367293382E+03  0.90969610131E+03  0.96102698378E+03  0.47000000000E+01 0. -1.
         -5    1    1    2    0  502 -0.45447150194E+02 -0.70883929662E+02  0.20622552069E+03  0.22280267128E+03  0.47000000000E+01 0. -1.
        -11    1    1    2    0    0  0.12980925795E+02  0.16860079131E+03  0.13280840681E+03  0.21501814850E+03  0.00000000000E+00 0. -1.
         11    1    1    2    0    0 -0.29068530597E+02  0.20595607217E+03  0.60096863603E+02  0.21650523354E+03  0.00000000000E+00 0.  1.
<mgrwt>
<rscale>  0 0.39287015E+03</rscale>
<asrwt>0</asrwt>
<pdfrwt beam="1">  1        1 0.22493691E+00 0.39518551E+03</pdfrwt>
<pdfrwt beam="2">  1       -1 0.23578935E-01 0.39518551E+03</pdfrwt>
<totfact> 0.11468501E+02</totfact>
</mgrwt>
</event>
<event>
 6    1  0.5258538E-006  0.1368972E+03  0.7546771E-02  0.1229515E+00
         -1   -1    0    0    0  501 -0.00000000000E+00  0.00000000000E+00  0.57024473173E+02  0.57024473173E+02  0.00000000000E+00 0.  1.
          1   -1    0    0  501    0  0.00000000000E+00 -0.00000000000E+00 -0.31173598514E+03  0.31173598514E+03  0.00000000000E+00 0. -1.
          5    1    1    2  502    0 -0.15926091292E+02  0.71126706242E+02 -0.79077160994E+02  0.10764727640E+03  0.47000000000E+01 0.  1.
         -5    1    1    2    0  502 -0.33564161777E+02 -0.45308177820E+02 -0.13601489186E+03  0.14731437384E+03  0.47000000000E+01 0.  1.
        -11    1    1    2    0    0  0.21055157351E+02  0.28713715605E+02 -0.38285716845E+02  0.52283775966E+02  0.00000000000E+00 0. -1.
         11    1    1    2    0    0  0.28435095719E+02 -0.54532244027E+02 -0.13337422724E+01  0.61515032111E+02  0.00000000000E+00 0.  1.
<mgrwt>
<rscale>  0 0.12862222E+03</rscale>
<asrwt>0</asrwt>
<pdfrwt beam="2">  1        1 0.47959383E-01 0.13689723E+03</pdfrwt>
<pdfrwt beam="1">  1       -1 0.87729957E-02 0.13689723E+03</pdfrwt>
<totfact> 0.59597074E+03</totfact>
</mgrwt>
</event>
<event>
 6    1  0.5258538E-006  0.1624317E+03  0.7546771E-02  0.1192647E+00
          2   -1    0    0  501    0  0.00000000000E+00  0.00000000000E+00  0.44704694339E+03  0.44704694339E+03  0.00000000000E+00 0. -1.
         -2   -1    0    0    0  501 -0.00000000000E+00 -0.00000000000E+00 -0.55619880725E+02  0.55619880725E+02  0.00000000000E+00 0.  1.
          5    1    1    2  502    0 -0.29316398526E+02  0.77317308456E+02  0.18637678668E+03  0.20395051857E+03  0.47000000000E+01 0. -1.
         -5    1    1    2    0  502 -0.65544935804E+02 -0.35357116492E+02  0.93265015328E+02  0.11944336474E+03  0.47000000000E+01 0. -1.
        -11    1    1    2    0    0  0.91920836447E+02 -0.30450662470E-01  0.50270367755E+02  0.10476903633E+03  0.00000000000E+00 0.  1.
         11    1    1    2    0    0  0.29404978838E+01 -0.41929741301E+02  0.61514892894E+02  0.74503904469E+02  0.00000000000E+00 0. -1.
<mgrwt>
<rscale>  0 0.15655022E+03</rscale>
<asrwt>0</asrwt>
<pdfrwt beam="1">  1        2 0.68776451E-01 0.16243173E+03</pdfrwt>
<pdfrwt beam="2">  1       -2 0.85569050E-02 0.16243173E+03</pdfrwt>
<totfact> 0.58208987E+03</totfact>
</mgrwt>
</event>
<event>
 6    1  0.5258538E-006  0.1720210E+03  0.7546771E-02  0.1181851E+00
          2   -1    0    0  501    0  0.00000000000E+00  0.00000000000E+00  0.11962386909E+04  0.11962386909E+04  0.00000000000E+00 0. -1.
         -2   -1    0    0    0  501 -0.00000000000E+00 -0.00000000000E+00 -0.27011690678E+02  0.27011690678E+02  0.00000000000E+00 0.  1.
          5    1    1    2  502    0 -0.13327934236E+03  0.49257774235E+02  0.68705559745E+03  0.70161042995E+03  0.47000000000E+01 0.  1.
         -5    1    1    2    0  502  0.18683451704E+02 -0.20409354698E+02  0.20128018266E+03  0.20322749582E+03  0.47000000000E+01 0.  1.
        -11    1    1    2    0    0  0.90709367137E+01 -0.27116846701E+02  0.13707923215E+03  0.14002971526E+03  0.00000000000E+00 0. -1.
         11    1    1    2    0    0  0.10552495394E+03 -0.17315728355E+01  0.14381198800E+03  0.17838274059E+03  0.00000000000E+00 0.  1.
<mgrwt>
<rscale>  0 0.16621743E+03</rscale>
<asrwt>0</asrwt>
<pdfrwt beam="1">  1        2 0.18403668E+00 0.17202097E+03</pdfrwt>
<pdfrwt beam="2">  1       -2 0.41556456E-02 0.17202097E+03</pdfrwt>
<totfact> 0.51429904E+03</totfact>
</mgrwt>
</event>
<event>
 6    1  0.5258538E-006  0.1438699E+03  0.7546771E-02  0.1225972E+00
          2   -1    0    0  501    0  0.00000000000E+00  0.00000000000E+00  0.46518382720E+03  0.46518382720E+03  0.00000000000E+00 0. -1.
         -2   -1    0    0    0  501 -0.00000000000E+00 -0.00000000000E+00 -0.36352605865E+02  0.36352605865E+02  0.00000000000E+00 0.  1.
          5    1    1    2  502    0  0.25267688936E+02 -0.52433261943E+02  0.16011314569E+03  0.17042890743E+03  0.47000000000E+01 0. -1.
         -5    1    1    2    0  502 -0.10783571877E+02  0.83613790464E+02  0.17748258338E+03  0.19654441936E+03  0.47000000000E+01 0.  1.
        -11    1    1    2    0    0  0.85489483978E+01  0.18270548601E+02 -0.76944305099E+01  0.21589389194E+02  0.00000000000E+00 0.  1.
         11    1    1    2    0    0 -0.23033065457E+02 -0.49451077122E+02  0.98929922771E+02  0.11297371709E+03  0.00000000000E+00 0. -1.
<mgrwt>
<rscale>  0 0.13100510E+03</rscale>
<asrwt>0</asrwt>
<pdfrwt beam="1">  1        2 0.71566738E-01 0.14386989E+03</pdfrwt>
<pdfrwt beam="2">  1       -2 0.55927089E-02 0.14386989E+03</pdfrwt>
<totfact> 0.10625243E+04</totfact>
</mgrwt>
</event>
<event>
 6    1  0.5258538E-006  0.2823661E+03  0.7546771E-02  0.1094404E+00
         -2   -1    0    0    0  501 -0.00000000000E+00  0.00000000000E+00  0.11225059938E+03  0.11225059938E+03  0.00000000000E+00 0.  1.
          2   -1    0    0  501    0  0.00000000000E+00 -0.00000000000E+00 -0.17757281396E+03  0.17757281396E+03  0.00000000000E+00 0. -1.
          5    1    1    2  502    0  0.77298709462E+02  0.13155122535E+02 -0.11979504087E+03  0.14325183961E+03  0.47000000000E+01 0.  1.
         -5    1    1    2    0  502 -0.84218910943E+01 -0.76262568140E+00  0.26161326476E+02  0.27892917569E+02  0.47000000000E+01 0.  1.
        -11    1    1    2    0    0 -0.84712435418E+02  0.12192828938E+02  0.16619643012E+02  0.87184140334E+02  0.00000000000E+00 0.  1.
         11    1    1    2    0    0  0.15835617051E+02 -0.24585325791E+02  0.11691856811E+02  0.31494515830E+02  0.00000000000E+00 0. -1.
<mgrwt>
<rscale>  0 0.28236611E+03</rscale>
<asrwt>0</asrwt>
<pdfrwt beam="2">  1        2 0.27318894E-01 0.28236611E+03</pdfrwt>
<pdfrwt beam="1">  1       -2 0.17269323E-01 0.28236611E+03</pdfrwt>
<totfact> 0.52296335E+03</totfact>
</mgrwt>
</event>
<event>
 6    1  0.5258538E-006  0.2679220E+03  0.7546771E-02  0.1102475E+00
         -2   -1    0    0    0  501 -0.00000000000E+00  0.00000000000E+00  0.32898654676E+02  0.32898654676E+02  0.00000000000E+00 0.  1.
          2   -1    0    0  501    0  0.00000000000E+00 -0.00000000000E+00 -0.54547965890E+03  0.54547965890E+03  0.00000000000E+00 0. -1.
          5    1    1    2  502    0 -0.16757003093E+02 -0.43250290507E+01 -0.28727257030E+03  0.28783176107E+03  0.47000000000E+01 0. -1.
         -5    1    1    2    0  502  0.66247803982E+02  0.13018609354E+02 -0.96191051264E+02  0.11761404706E+03  0.47000000000E+01 0.  1.
        -11    1    1    2    0    0  0.26258959797E+02 -0.15512788955E+02 -0.70806752490E+02  0.77095886978E+02  0.00000000000E+00 0.  1.
         11    1    1    2    0    0 -0.75749760685E+02  0.68192086514E+01 -0.58310630168E+02  0.95836618477E+02  0.00000000000E+00 0. -1.
<mgrwt>
<rscale>  0 0.26792198E+03</rscale>
<asrwt>0</asrwt>
<pdfrwt beam="2">  1        2 0.83919950E-01 0.26792198E+03</pdfrwt>
<pdfrwt beam="1">  1       -2 0.50613313E-02 0.26792198E+03</pdfrwt>
<totfact> 0.10759393E+04</totfact>
</mgrwt>
</event>
<event>
 6    1  0.5258538E-006  0.7460674E+03  0.7546771E-02  0.9949026E-01
         -1   -1    0    0    0  501 -0.00000000000E+00  0.00000000000E+00  0.44679477740E+03  0.44679477740E+03  0.00000000000E+00 0.  1.
          1   -1    0    0  501    0  0.00000000000E+00 -0.00000000000E+00 -0.17571988273E+04  0.17571988273E+04  0.00000000000E+00 0. -1.
          5    1    1    2  502    0  0.15894937309E+03 -0.34246548297E+03 -0.16218554144E+04  0.16652280881E+04  0.47000000000E+01 0. -1.
         -5    1    1    2    0  502 -0.39829705623E+02  0.11630606357E+03 -0.33847415929E+01  0.12307336165E+03  0.47000000000E+01 0.  1.
        -11    1    1    2    0    0 -0.29333033745E+02  0.14507526379E+03  0.14525259869E+03  0.20737785913E+03  0.00000000000E+00 0.  1.
         11    1    1    2    0    0 -0.89786633719E+02  0.81084155619E+02  0.16958350736E+03  0.20831429585E+03  0.00000000000E+00 0. -1.
<mgrwt>
<rscale>  0 0.57942990E+03</rscale>
<asrwt>0</asrwt>
<pdfrwt beam="2">  1        1 0.27033828E+00 0.74606736E+03</pdfrwt>
<pdfrwt beam="1">  1       -1 0.68737658E-01 0.74606736E+03</pdfrwt>
<totfact> 0.97317577E+00</totfact>
</mgrwt>
</event>
<event>
 6    1  0.5258538E-006  0.1425524E+03  0.7546771E-02  0.1221506E+00
         -1   -1    0    0    0  501 -0.00000000000E+00  0.00000000000E+00  0.56572051784E+02  0.56572051784E+02  0.00000000000E+00 0.  1.
          1   -1    0    0  501    0  0.00000000000E+00 -0.00000000000E+00 -0.29634312270E+03  0.29634312270E+03  0.00000000000E+00 0. -1.
          5    1    1    2  502    0 -0.34804395230E+00  0.56190135827E+02 -0.95733750629E+02  0.11110577622E+03  0.47000000000E+01 0.  1.
         -5    1    1    2    0  502  0.63845436607E+02 -0.50971732594E+02 -0.71769052758E+02  0.10884504689E+03  0.47000000000E+01 0.  1.
        -11    1    1    2    0    0 -0.62558791099E+02  0.34089832723E+02 -0.37669294095E+02  0.80589669043E+02  0.00000000000E+00 0.  1.
         11    1    1    2    0    0 -0.93860155627E+00 -0.39308235956E+02 -0.34598973430E+02  0.52374682331E+02  0.00000000000E+00 0. -1.
<mgrwt>
<rscale>  0 0.13409318E+03</rscale>
<asrwt>0</asrwt>
<pdfrwt beam="2">  1        1 0.45591249E-01 0.14255236E+03</pdfrwt>
<pdfrwt beam="1">  1       -1 0.87033927E-02 0.14255236E+03</pdfrwt>
<totfact> 0.64388543E+03</totfact>
</mgrwt>
</event>
<event>
 6    1  0.5258538E-006  0.1329298E+03  0.7546771E-02  0.1236000E+00
         -1   -1    0    0    0  501 -0.00000000000E+00  0.00000000000E+00  0.58901589872E+02  0.58901589872E+02  0.00000000000E+00 0.  1.
          1   -1    0    0  501    0  0.00000000000E+00 -0.00000000000E+00 -0.23999701927E+03  0.23999701927E+03  0.00000000000E+00 0. -1.
          5    1    1    2  502    0  0.70987255891E+02 -0.75924499097E+01 -0.13517330483E+03  0.15294034175E+03  0.47000000000E+01 0. -1.
         -5    1    1    2    0  502 -0.27257407137E+02 -0.39438987068E+01  0.99740308184E+01  0.29666342404E+02  0.47000000000E+01 0. -1.
        -11    1    1    2    0    0 -0.62996985243E+02 -0.18766346937E+02 -0.31587498981E+02  0.72928499360E+02  0.00000000000E+00 0.  1.
         11    1    1    2    0    0  0.19267136490E+02  0.30302695554E+02 -0.24308656402E+02  0.43363425630E+02  0.00000000000E+00 0. -1.
<mgrwt>
<rscale>  0 0.12440650E+03</rscale>
<asrwt>0</asrwt>
<pdfrwt beam="2">  1        1 0.36922619E-01 0.13292984E+03</pdfrwt>
<pdfrwt beam="1">  1       -1 0.90617830E-02 0.13292984E+03</pdfrwt>
<totfact> 0.78251585E+03</totfact>
</mgrwt>
</event>
<event>
 6    1  0.5258538E-006  0.1296383E+03  0.7546771E-02  0.1243390E+00
         -4   -1    0    0    0  501 -0.00000000000E+00  0.00000000000E+00  0.49702881319E+02  0.49702881319E+02  0.00000000000E+00 0.  1.
          4   -1    0    0  501    0  0.00000000000E+00 -0.00000000000E+00 -0.25866450861E+03  0.25866450861E+03  0.00000000000E+00 0. -1.
          5    1    1    2  502    0 -0.35327952470E+02 -0.52844560703E+02 -0.11966916930E+03  0.13558544133E+03  0.47000000000E+01 0.  1.
         -5    1    1    2    0  502  0.47945325824E+02  0.20883635571E+02 -0.23410418125E+02  0.57489287522E+02  0.47000000000E+01 0.  1.
        -11    1    1    2    0    0 -0.11052597833E+02 -0.22649182383E+02  0.51076816253E+01  0.25714466610E+02  0.00000000000E+00 0.  1.
         11    1    1    2    0    0 -0.15647755211E+01  0.54610107515E+02 -0.70989721497E+02  0.89578194464E+02  0.00000000000E+00 0. -1.
<mgrwt>
<rscale>  0 0.11982286E+03</rscale>
<asrwt>0</asrwt>
<pdfrwt beam="2">  1        4 0.39794539E-01 0.12963828E+03</pdfrwt>
<pdfrwt beam="1">  1       -4 0.76465973E-02 0.12963828E+03</pdfrwt>
<totfact> 0.11948382E+03</totfact>
</mgrwt>
</event>
<event>
 6    1  0.5258538E-006  0.1365904E+03  0.7546771E-02  0.1229859E+00
          2   -1    0    0  501    0  0.00000000000E+00  0.00000000000E+00  0.32576146990E+03  0.32576146990E+03  0.00000000000E+00 0. -1.
         -2   -1    0    0    0  501 -0.00000000000E+00 -0.00000000000E+00 -0.66742167577E+02  0.66742167577E+02  0.00000000000E+00 0.  1.
          5    1    1    2  502    0  0.81515960260E+02 -0.12318005107E+02  0.96118412947E+02  0.12671789272E+03  0.47000000000E+01 0.  1.
         -5    1    1    2    0  502 -0.27516354158E+02  0.23102381477E+02  0.15463950811E+03  0.15882801152E+03  0.47000000000E+01 0.  1.
        -11    1    1    2    0    0  0.85814199205E+00 -0.42953697881E+02  0.12797679329E+01  0.42981325891E+02  0.00000000000E+00 0.  1.
         11    1    1    2    0    0 -0.54857748094E+02  0.32169321511E+02  0.69816133342E+01  0.63976407348E+02  0.00000000000E+00 0. -1.
<mgrwt>
<rscale>  0 0.12839357E+03</rscale>
<asrwt>0</asrwt>
<pdfrwt beam="1">  1        2 0.50117148E-01 0.13659037E+03</pdfrwt>
<pdfrwt beam="2">  1       -2 0.10268026E-01 0.13659037E+03</pdfrwt>
<totfact> 0.60794303E+03</totfact>
</mgrwt>
</event>
<event>
 6    1  0.5258538E-006  0.3216619E+03  0.7546771E-02  0.1074887E+00
         -2   -1    0    0    0  501 -0.00000000000E+00  0.00000000000E+00  0.12439631153E+03  0.12439631153E+03  0.00000000000E+00 0.  1.
          2   -1    0    0  501    0  0.00000000000E+00 -0.00000000000E+00 -0.20793696903E+03  0.20793696903E+03  0.00000000000E+00 0. -1.
          5    1    1    2  502    0  0.36545553144E+02  0.57495422475E+01 -0.15908402386E+02  0.40543827608E+02  0.47000000000E+01 0. -1.
         -5    1    1    2    0  502 -0.78444689536E+02 -0.74635214357E+02 -0.10873961621E+03  0.15352647548E+03  0.47000000000E+01 0. -1.
        -11    1    1    2    0    0 -0.24315620551E+02  0.59253145919E+02  0.11408582495E+02  0.65056440562E+02  0.00000000000E+00 0. -1.
         11    1    1    2    0    0  0.66214756944E+02  0.96325261908E+01  0.29698778600E+02  0.73206536923E+02  0.00000000000E+00 0.  1.
<mgrwt>
<rscale>  0 0.32166188E+03</rscale>
<asrwt>0</asrwt>
<pdfrwt beam="2">  1        2 0.31990303E-01 0.32166188E+03</pdfrwt>
<pdfrwt beam="1">  1       -2 0.19137894E-01 0.32166188E+03</pdfrwt>
<totfact> 0.37064063E+03</totfact>
</mgrwt>
</event>
<event>
 6    1  0.5258538E-006  0.1423165E+03  0.7546771E-02  0.1220041E+00
         -2   -1    0    0    0  501 -0.00000000000E+00  0.00000000000E+00  0.54063713057E+02  0.54063713057E+02  0.00000000000E+00 0.  1.
          2   -1    0    0  501    0  0.00000000000E+00 -0.00000000000E+00 -0.35890501996E+03  0.35890501996E+03  0.00000000000E+00 0. -1.
          5    1    1    2  502    0  0.17725249986E+02  0.41219480258E+02 -0.79989903288E+02  0.91835203859E+02  0.47000000000E+01 0.  1.
         -5    1    1    2    0  502  0.25730820319E+02 -0.93583879658E+02 -0.16352594905E+03  0.19021788470E+03  0.47000000000E+01 0.  1.
        -11    1    1    2    0    0 -0.22671565148E+02  0.56601532516E+02 -0.81404450468E+02  0.10170751155E+03  0.00000000000E+00 0.  1.
         11    1    1    2    0    0 -0.20784505157E+02 -0.42371331152E+01  0.20078995904E+02  0.29208132911E+02  0.00000000000E+00 0. -1.
<mgrwt>
<rscale>  0 0.13512653E+03</rscale>
<asrwt>0</asrwt>
<pdfrwt beam="2">  1        2 0.55216158E-01 0.14231646E+03</pdfrwt>
<pdfrwt beam="1">  1       -2 0.83174942E-02 0.14231646E+03</pdfrwt>
<totfact> 0.76420116E+03</totfact>
</mgrwt>
</event>
<event>
 6    1  0.5258538E-006  0.1223318E+03  0.7546771E-02  0.1248969E+00
          1   -1    0    0  501    0  0.00000000000E+00  0.00000000000E+00  0.14492141425E+04  0.14492141425E+04  0.00000000000E+00 0. -1.
         -1   -1    0    0    0  501 -0.00000000000E+00 -0.00000000000E+00 -0.87320382198E+01  0.87320382198E+01  0.00000000000E+00 0.  1.
          5    1    1    2  502    0  0.55315746590E+02  0.22070791263E+02  0.46919061983E+03  0.47297873037E+03  0.47000000000E+01 0. -1.
         -5    1    1    2    0  502 -0.30425823922E+02 -0.54055868610E+02  0.41639985669E+03  0.42102101889E+03  0.47000000000E+01 0.  1.
        -11    1    1    2    0    0 -0.31554770706E+02  0.62059123214E+02  0.40169483197E+03  0.40768342664E+03  0.00000000000E+00 0. -1.
         11    1    1    2    0    0  0.66648480388E+01 -0.30074045867E+02  0.15319679575E+03  0.15626300478E+03  0.00000000000E+00 0.  1.
<mgrwt>
<rscale>  0 0.11650920E+03</rscale>
<asrwt>0</asrwt>
<pdfrwt beam="1">  1        1 0.22295583E+00 0.12233176E+03</pdfrwt>
<pdfrwt beam="2">  1       -1 0.13433916E-02 0.12233176E+03</pdfrwt>
<totfact> 0.91828455E+03</totfact>
</mgrwt>
</event>
<event>
 6    1  0.5258538E-006  0.1560575E+03  0.7546771E-02  0.1202805E+00
          2   -1    0    0  501    0  0.00000000000E+00  0.00000000000E+00  0.85064166863E+03  0.85064166863E+03  0.00000000000E+00 0. -1.
         -2   -1    0    0    0  501 -0.00000000000E+00 -0.00000000000E+00 -0.48513172735E+02  0.48513172735E+02  0.00000000000E+00 0.  1.
          5    1    1    2  502    0  0.70426866682E+01  0.34965347731E+02  0.65907368151E+03  0.66005483306E+03  0.47000000000E+01 0. -1.
         -5    1    1    2    0  502  0.41975010841E+01  0.52508687772E+02  0.84244546388E+02  0.99468662920E+02  0.47000000000E+01 0.  1.
        -11    1    1    2    0    0 -0.46810108115E+02 -0.62066085055E+02  0.56037414608E+02  0.95830981273E+02  0.00000000000E+00 0.  1.
         11    1    1    2    0    0  0.35569920362E+02 -0.25407950448E+02  0.27728533824E+01  0.43800364113E+02  0.00000000000E+00 0. -1.
<mgrwt>
<rscale>  0 0.14811813E+03</rscale>
<asrwt>0</asrwt>
<pdfrwt beam="1">  1        2 0.13086794E+00 0.15605753E+03</pdfrwt>
<pdfrwt beam="2">  1       -2 0.74635657E-02 0.15605753E+03</pdfrwt>
<totfact> 0.33977024E+03</totfact>
</mgrwt>
</event>
<event>
 6    1  0.5258538E-006  0.3168318E+03  0.7546771E-02  0.1078479E+00
         -2   -1    0    0    0  501 -0.00000000000E+00  0.00000000000E+00  0.35982504507E+03  0.35982504507E+03  0.00000000000E+00 0.  1.
          2   -1    0    0  501    0  0.00000000000E+00 -0.00000000000E+00 -0.26900232827E+03  0.26900232827E+03  0.00000000000E+00 0. -1.
          5    1    1    2  502    0  0.14529030054E+03  0.69610532147E+02  0.14302510555E+02  0.16180713651E+03  0.47000000000E+01 0.  1.
         -5    1    1    2    0  502  0.49566279449E+02  0.14669443694E+03  0.35293178118E+02  0.15888288866E+03  0.47000000000E+01 0.  1.
        -11    1    1    2    0    0 -0.56008233498E+00 -0.30289026097E+02  0.23913893213E+02  0.38595505991E+02  0.00000000000E+00 0.  1.
         11    1    1    2    0    0 -0.19429649765E+03 -0.18601594299E+03  0.17313134910E+02  0.26954184218E+03  0.00000000000E+00 0. -1.
<mgrwt>
<rscale>  0 0.31392581E+03</rscale>
<asrwt>0</asrwt>
<pdfrwt beam="2">  1        2 0.41384974E-01 0.31683175E+03</pdfrwt>
<pdfrwt beam="1">  1       -2 0.55357699E-01 0.31683175E+03</pdfrwt>
<totfact> 0.38623896E+02</totfact>
</mgrwt>
</event>
<event>
 6    1  0.5258538E-006  0.1351488E+03  0.7546771E-02  0.1233035E+00
         -3   -1    0    0    0  501 -0.00000000000E+00  0.00000000000E+00  0.18978373764E+03  0.18978373764E+03  0.00000000000E+00 0.  1.
          3   -1    0    0  501    0  0.00000000000E+00 -0.00000000000E+00 -0.74798443660E+02  0.74798443660E+02  0.00000000000E+00 0. -1.
          5    1    1    2  502    0 -0.45912335918E+02  0.65970761128E+02  0.57554452425E+02  0.98968120661E+02  0.47000000000E+01 0. -1.
         -5    1    1    2    0  502  0.48666717992E+02 -0.14665301205E+02  0.95791795956E+01  0.51936222247E+02  0.47000000000E+01 0. -1.
        -11    1    1    2    0    0 -0.11909470671E+02 -0.22091449778E+02  0.70994459428E+02  0.75299939671E+02  0.00000000000E+00 0.  1.
         11    1    1    2    0    0  0.91550885974E+01 -0.29214010145E+02 -0.23142797465E+02  0.38377898724E+02  0.00000000000E+00 0. -1.
<mgrwt>
<rscale>  0 0.12631079E+03</rscale>
<asrwt>0</asrwt>
<pdfrwt beam="2">  1        3 0.11507453E-01 0.13514879E+03</pdfrwt>
<pdfrwt beam="1">  1       -3 0.29197498E-01 0.13514879E+03</pdfrwt>
<totfact> 0.15120282E+03</totfact>
</mgrwt>
</event>
<event>
 6    1  0.5258538E-006  0.3193964E+03  0.7546771E-02  0.1109911E+00
         -1   -1    0    0    0  501 -0.00000000000E+00  0.00000000000E+00  0.15834762321E+03  0.15834762321E+03  0.00000000000E+00 0.  1.
          1   -1    0    0  501    0  0.00000000000E+00 -0.00000000000E+00 -0.32010871623E+03  0.32010871623E+03  0.00000000000E+00 0. -1.
          5    1    1    2  502    0 -0.15991650852E+02  0.12802039613E+03  0.38093577077E+02  0.13460373448E+03  0.47000000000E+01 0. -1.
         -5    1    1    2    0  502 -0.77707114920E+02 -0.11661267674E+03 -0.14626244063E+03  0.20261220009E+03  0.47000000000E+01 0.  1.
        -11    1    1    2    0    0  0.17809728277E+02  0.40959368250E+01  0.24952104035E+02  0.30928475804E+02  0.00000000000E+00 0.  1.
         11    1    1    2    0    0  0.75889037494E+02 -0.15503656210E+02 -0.78544333504E+02  0.11031192906E+03  0.00000000000E+00 0. -1.
<mgrwt>
<rscale>  0 0.25544542E+03</rscale>
<asrwt>0</asrwt>
<pdfrwt beam="2">  1        1 0.49247495E-01 0.31939644E+03</pdfrwt>
<pdfrwt beam="1">  1       -1 0.24361173E-01 0.31939644E+03</pdfrwt>
<totfact> 0.11754453E+03</totfact>
</mgrwt>
</event>
<event>
 6    1  0.5258538E-006  0.1493915E+03  0.7546771E-02  0.1210206E+00
          4   -1    0    0  501    0  0.00000000000E+00  0.00000000000E+00  0.13695324467E+03  0.13695324467E+03  0.00000000000E+00 0. -1.
         -4   -1    0    0    0  501 -0.00000000000E+00 -0.00000000000E+00 -0.14005959403E+03  0.14005959403E+03  0.00000000000E+00 0.  1.
          5    1    1    2  502    0  0.64186179588E+02 -0.15485739629E+02  0.10429563142E+02  0.67011488338E+02  0.47000000000E+01 0.  1.
         -5    1    1    2    0  502 -0.51329966871E+02 -0.65304454725E+02  0.12515938996E+02  0.84131896655E+02  0.47000000000E+01 0.  1.
        -11    1    1    2    0    0  0.34595292717E+02  0.33932860034E+02  0.10841249440E+02  0.49656882279E+02  0.00000000000E+00 0. -1.
         11    1    1    2    0    0 -0.47451505435E+02  0.46857334319E+02 -0.36893100934E+02  0.76212571431E+02  0.00000000000E+00 0.  1.
<mgrwt>
<rscale>  0 0.14234679E+03</rscale>
<asrwt>0</asrwt>
<pdfrwt beam="1">  1        4 0.21069730E-01 0.14939152E+03</pdfrwt>
<pdfrwt beam="2">  1       -4 0.21547630E-01 0.14939152E+03</pdfrwt>
<totfact> 0.68205845E+02</totfact>
</mgrwt>
</event>
<event>
 6    1  0.5258538E-006  0.1685114E+03  0.7546771E-02  0.1185416E+00
          2   -1    0    0  501    0  0.00000000000E+00  0.00000000000E+00  0.14514463304E+03  0.14514463304E+03  0.00000000000E+00 0. -1.
         -2   -1    0    0    0  501 -0.00000000000E+00 -0.00000000000E+00 -0.17387656417E+03  0.17387656417E+03  0.00000000000E+00 0.  1.
          5    1    1    2  502    0  0.89563051988E+02 -0.13211098189E+02 -0.14627438341E+02  0.91826604800E+02  0.47000000000E+01 0.  1.
         -5    1    1    2    0  502  0.33497974417E+01  0.77540510667E+02 -0.18088244714E+02  0.79831237835E+02  0.47000000000E+01 0.  1.
        -11    1    1    2    0    0 -0.19934986429E+02 -0.56570953538E+02 -0.29329212529E+02  0.66767351121E+02  0.00000000000E+00 0.  1.
         11    1    1    2    0    0 -0.72977863000E+02 -0.77584589400E+01  0.33312964455E+02  0.80596003461E+02  0.00000000000E+00 0. -1.
<mgrwt>
<rscale>  0 0.16294074E+03</rscale>
<asrwt>0</asrwt>
<pdfrwt beam="1">  1        2 0.22329944E-01 0.16851142E+03</pdfrwt>
<pdfrwt beam="2">  1       -2 0.26750240E-01 0.16851142E+03</pdfrwt>
<totfact> 0.30027575E+03</totfact>
</mgrwt>
</event>
<event>
 6    1  0.5258538E-006  0.1200426E+03  0.7546771E-02  0.1253706E+00
          4   -1    0    0  501    0  0.00000000000E+00  0.00000000000E+00  0.50615751562E+02  0.50615751562E+02  0.00000000000E+00 0. -1.
         -4   -1    0    0    0  501 -0.00000000000E+00 -0.00000000000E+00 -0.35606347102E+03  0.35606347102E+03  0.00000000000E+00 0.  1.
          5    1    1    2  502    0 -0.73096447816E+01 -0.20077813981E+02  0.35792480635E+02  0.41949269256E+02  0.47000000000E+01 0. -1.
         -5    1    1    2    0  502 -0.20908196184E+02  0.23492309968E+02 -0.79806036959E+02  0.85907711123E+02  0.47000000000E+01 0.  1.
        -11    1    1    2    0    0  0.50156885031E+02 -0.21181967401E+02 -0.23091897199E+03  0.23725083875E+03  0.00000000000E+00 0.  1.
         11    1    1    2    0    0 -0.21939044065E+02  0.17767471415E+02 -0.30515191138E+02  0.41571403454E+02  0.00000000000E+00 0. -1.
<mgrwt>
<rscale>  0 0.11379098E+03</rscale>
<asrwt>0</asrwt>
<pdfrwt beam="1">  1        4 0.77870390E-02 0.12004255E+03</pdfrwt>
<pdfrwt beam="2">  1       -4 0.54778993E-01 0.12004255E+03</pdfrwt>
<totfact> 0.59958119E+02</totfact>
</mgrwt>
</event>
<event>
 6    1  0.5258538E-006  0.4550805E+03  0.7546771E-02  0.1026218E+00
         -1   -1    0    0    0  501 -0.00000000000E+00  0.00000000000E+00  0.27054856304E+03  0.27054856304E+03  0.00000000000E+00 0.  1.
          1   -1    0    0  501    0  0.00000000000E+00 -0.00000000000E+00 -0.19136881690E+03  0.19136881690E+03  0.00000000000E+00 0. -1.
          5    1    1    2  502    0 -0.33516501230E+01  0.11628320980E+02  0.26815671393E+02  0.29792979703E+02  0.47000000000E+01 0.  1.
         -5    1    1    2    0  502  0.21969164441E+02  0.12270344616E+03 -0.13596137440E+03  0.18451657165E+03  0.47000000000E+01 0.  1.
        -11    1    1    2    0    0 -0.17155697090E+02 -0.75919525650E+02  0.38588830596E+02  0.86874565693E+02  0.00000000000E+00 0. -1.
         11    1    1    2    0    0 -0.14618172285E+01 -0.58412241494E+02  0.14973661855E+03  0.16073326289E+03  0.00000000000E+00 0.  1.
<mgrwt>
<rscale>  0 0.45508047E+03</rscale>
<asrwt>0</asrwt>
<pdfrwt beam="2">  1        1 0.29441357E-01 0.45508047E+03</pdfrwt>
<pdfrwt beam="1">  1       -1 0.41622856E-01 0.45508047E+03</pdfrwt>
<totfact> 0.89514176E+02</totfact>
</mgrwt>
</event>
<event>
 6    1  0.5258538E-006  0.2745658E+03  0.7546771E-02  0.1098695E+00
         -1   -1    0    0    0  501 -0.00000000000E+00  0.00000000000E+00  0.35062770452E+02  0.35062770452E+02  0.00000000000E+00 0.  1.
          1   -1    0    0  501    0  0.00000000000E+00 -0.00000000000E+00 -0.53750997147E+03  0.53750997147E+03  0.00000000000E+00 0. -1.
          5    1    1    2  502    0 -0.16039312434E+02  0.90951466552E+02 -0.32673000573E+03  0.33956444963E+03  0.47000000000E+01 0. -1.
         -5    1    1    2    0  502 -0.18515581329E+02 -0.21783268725E+02 -0.15419396999E+02  0.32820502009E+02  0.47000000000E+01 0. -1.
        -11    1    1    2    0    0 -0.93496525075E+01 -0.55600179865E+02 -0.13807625857E+03  0.14914371989E+03  0.00000000000E+00 0. -1.
         11    1    1    2    0    0  0.43904546271E+02 -0.13568017962E+02 -0.22221539730E+02  0.51044070396E+02  0.00000000000E+00 0.  1.
<mgrwt>
<rscale>  0 0.27456576E+03</rscale>
<asrwt>0</asrwt>
<pdfrwt beam="2">  1        1 0.82693837E-01 0.27456576E+03</pdfrwt>
<pdfrwt beam="1">  1       -1 0.53942727E-02 0.27456576E+03</pdfrwt>
<totfact> 0.63987519E+03</totfact>
</mgrwt>
</event>
<event>
 6    1  0.5258538E-006  0.1255364E+03  0.7546771E-02  0.1249642E+00
         -1   -1    0    0    0  501 -0.00000000000E+00  0.00000000000E+00  0.19339230148E+02  0.19339230148E+02  0.00000000000E+00 0.  1.
          1   -1    0    0  501    0  0.00000000000E+00 -0.00000000000E+00 -0.64727779881E+03  0.64727779881E+03  0.00000000000E+00 0. -1.
          5    1    1    2  502    0  0.21002686771E+02 -0.52786796897E+00 -0.41513964162E+03  0.41569749042E+03  0.47000000000E+01 0.  1.
         -5    1    1    2    0  502 -0.32154408620E+02 -0.26463044089E+01 -0.22557281756E+02  0.39646309802E+02  0.47000000000E+01 0.  1.
        -11    1    1    2    0    0 -0.15599647131E+02  0.37481415447E+02 -0.13491513877E+03  0.14089109327E+03  0.00000000000E+00 0. -1.
         11    1    1    2    0    0  0.26751368979E+02 -0.34307243070E+02 -0.55326506525E+02  0.70382135472E+02  0.00000000000E+00 0.  1.
<mgrwt>
<rscale>  0 0.11611782E+03</rscale>
<asrwt>0</asrwt>
<pdfrwt beam="2">  1        1 0.99581184E-01 0.12553637E+03</pdfrwt>
<pdfrwt beam="1">  1       -1 0.29752667E-02 0.12553637E+03</pdfrwt>
<totfact> 0.11446723E+04</totfact>
</mgrwt>
</event>
<event>
 6    1  0.5258538E-006  0.3773273E+03  0.7546771E-02  0.1051926E+00
         -1   -1    0    0    0  501 -0.00000000000E+00  0.00000000000E+00  0.81476672185E+02  0.81476672185E+02  0.00000000000E+00 0.  1.
          1   -1    0    0  501    0  0.00000000000E+00 -0.00000000000E+00 -0.43686098844E+03  0.43686098844E+03  0.00000000000E+00 0. -1.
          5    1    1    2  502    0  0.57975570983E+02 -0.13398560480E+03 -0.19177084945E+03  0.24106318223E+03  0.47000000000E+01 0. -1.
         -5    1    1    2    0  502  0.39590809956E+01  0.18124337785E+02 -0.10496721598E+03  0.10669757435E+03  0.47000000000E+01 0. -1.
        -11    1    1    2    0    0 -0.45188099964E+02  0.12056133476E+02  0.59913298291E+01  0.47150936002E+02  0.00000000000E+00 0.  1.
         11    1    1    2    0    0 -0.16746552015E+02  0.10380513354E+03 -0.64637580650E+02  0.12342596804E+03  0.00000000000E+00 0. -1.
<mgrwt>
<rscale>  0 0.37732734E+03</rscale>
<asrwt>0</asrwt>
<pdfrwt beam="2">  1        1 0.67209382E-01 0.37732734E+03</pdfrwt>
<pdfrwt beam="1">  1       -1 0.12534873E-01 0.37732734E+03</pdfrwt>
<totfact> 0.23189013E+03</totfact>
</mgrwt>
</event>
<event>
 6    1  0.5258538E-006  0.1429650E+03  0.7546771E-02  0.1219913E+00
          1   -1    0    0  501    0  0.00000000000E+00  0.00000000000E+00  0.25516711175E+02  0.25516711175E+02  0.00000000000E+00 0. -1.
         -1   -1    0    0    0  501 -0.00000000000E+00 -0.00000000000E+00 -0.88488291296E+03  0.88488291296E+03  0.00000000000E+00 0.  1.
          5    1    1    2  502    0  0.61372269829E+01 -0.38444175103E+02 -0.83037940306E+02  0.91831419920E+02  0.47000000000E+01 0. -1.
         -5    1    1    2    0  502 -0.59164206789E+02  0.83189302992E+02 -0.14764618001E+03  0.17956154368E+03  0.47000000000E+01 0. -1.
        -11    1    1    2    0    0  0.23041308115E+02 -0.70938207898E+02 -0.40762216252E+03  0.41438986304E+03  0.00000000000E+00 0. -1.
         11    1    1    2    0    0  0.29985671691E+02  0.26193080008E+02 -0.22105991896E+03  0.22461679750E+03  0.00000000000E+00 0.  1.
<mgrwt>
<rscale>  0 0.13521747E+03</rscale>
<asrwt>0</asrwt>
<pdfrwt beam="1">  1        1 0.39256473E-02 0.14296495E+03</pdfrwt>
<pdfrwt beam="2">  1       -1 0.13613585E+00 0.14296495E+03</pdfrwt>
<totfact> 0.11128300E+03</totfact>
</mgrwt>
</event>
<event>
 6    1  0.5258538E-006  0.1470685E+03  0.7546771E-02  0.1213675E+00
          2   -1    0    0  501    0  0.00000000000E+00  0.00000000000E+00  0.48205563544E+03  0.48205563544E+03  0.00000000000E+00 0. -1.
         -2   -1    0    0    0  501 -0.00000000000E+00 -0.00000000000E+00 -0.40942398680E+02  0.40942398680E+02  0.00000000000E+00 0.  1.
          5    1    1    2  502    0  0.46623297392E+01  0.69544593673E+02  0.13453272443E+03  0.15158935243E+03  0.47000000000E+01 0.  1.
         -5    1    1    2    0  502 -0.70541848892E+02 -0.28741249601E+02  0.18748943292E+03  0.20242675053E+03  0.47000000000E+01 0.  1.
        -11    1    1    2    0    0  0.48031148997E+02 -0.58984670867E+02  0.40112047942E+02  0.85995110683E+02  0.00000000000E+00 0.  1.
         11    1    1    2    0    0  0.17848370156E+02  0.18181326794E+02  0.78979031469E+02  0.82986820478E+02  0.00000000000E+00 0. -1.
<mgrwt>
<rscale>  0 0.13974301E+03</rscale>
<asrwt>0</asrwt>
<pdfrwt beam="1">  1        2 0.74162401E-01 0.14706846E+03</pdfrwt>
<pdfrwt beam="2">  1       -2 0.62988309E-02 0.14706846E+03</pdfrwt>
<totfact> 0.85447797E+03</totfact>
</mgrwt>
</event>
<event>
 6    1  0.5258538E-006  0.1441251E+03  0.7546771E-02  0.1217899E+00
          1   -1    0    0  501    0  0.00000000000E+00  0.00000000000E+00  0.13739705228E+03  0.13739705228E+03  0.00000000000E+00 0. -1.
         -1   -1    0    0    0  501 -0.00000000000E+00 -0.00000000000E+00 -0.12423101794E+03  0.12423101794E+03  0.00000000000E+00 0.  1.
          5    1    1    2  502    0  0.81050548741E+01 -0.24972741864E+02  0.47288964313E+02  0.54292411039E+02  0.47000000000E+01 0.  1.
         -5    1    1    2    0  502  0.46432679971E+02  0.71580537786E+02 -0.30668761388E+02  0.90787830044E+02  0.47000000000E+01 0.  1.
        -11    1    1    2    0    0 -0.47097479981E+02 -0.32251773245E+02  0.40317852842E+02  0.69884753385E+02  0.00000000000E+00 0. -1.
         11    1    1    2    0    0 -0.74402548639E+01 -0.14356022677E+02 -0.43772021425E+02  0.46663075758E+02  0.00000000000E+00 0.  1.
<mgrwt>
<rscale>  0 0.13665737E+03</rscale>
<asrwt>0</asrwt>
<pdfrwt beam="1">  1        1 0.21138008E-01 0.14412510E+03</pdfrwt>
<pdfrwt beam="2">  1       -1 0.19112464E-01 0.14412510E+03</pdfrwt>
<totfact> 0.49491920E+03</totfact>
</mgrwt>
</event>
<event>
 6    1  0.5258538E-006  0.1413212E+03  0.7546771E-02  0.1222155E+00
         -1   -1    0    0    0  501 -0.00000000000E+00  0.00000000000E+00  0.50703430330E+02  0.50703430330E+02  0.00000000000E+00 0.  1.
          1   -1    0    0  501    0  0.00000000000E+00 -0.00000000000E+00 -0.32008994386E+03  0.32008994386E+03  0.00000000000E+00 0. -1.
          5    1    1    2  502    0  0.75851658898E+02 -0.44202559760E+02 -0.12496086269E+03  0.15278955348E+03  0.47000000000E+01 0. -1.
         -5    1    1    2    0  502 -0.47103712957E+02 -0.15161907386E+02 -0.35800461078E+02  0.61256887150E+02  0.47000000000E+01 0. -1.
        -11    1    1    2    0    0 -0.49896619340E+02  0.70866532986E+02 -0.70809020456E+02  0.11191807493E+03  0.00000000000E+00 0.  1.
         11    1    1    2    0    0  0.21148673399E+02 -0.11502065840E+02 -0.37816169300E+02  0.44828858625E+02  0.00000000000E+00 0. -1.
<mgrwt>
<rscale>  0 0.13363802E+03</rscale>
<asrwt>0</asrwt>
<pdfrwt beam="2">  1        1 0.49244608E-01 0.14132118E+03</pdfrwt>
<pdfrwt beam="1">  1       -1 0.78005276E-02 0.14132118E+03</pdfrwt>
<totfact> 0.69019072E+03</totfact>
</mgrwt>
</event>
<event>
 6    1  0.5258538E-006  0.1452794E+03  0.7546771E-02  0.1215701E+00
          4   -1    0    0  501    0  0.00000000000E+00  0.00000000000E+00  0.27259048633E+02  0.27259048633E+02  0.00000000000E+00 0. -1.
         -4   -1    0    0    0  501 -0.00000000000E+00 -0.00000000000E+00 -0.68445058806E+03  0.68445058806E+03  0.00000000000E+00 0.  1.
          5    1    1    2  502    0  0.42136208491E+02 -0.55868288077E+02 -0.13698800083E+03  0.15389778442E+03  0.47000000000E+01 0. -1.
         -5    1    1    2    0  502  0.30855672199E+02  0.68212692784E+02 -0.13304227764E+03  0.15273304032E+03  0.47000000000E+01 0. -1.
        -11    1    1    2    0    0  0.28252279155E+01  0.18897821403E+02 -0.15866306599E+02  0.24836450061E+02  0.00000000000E+00 0.  1.
         11    1    1    2    0    0 -0.75817108605E+02 -0.31242226110E+02 -0.37129495436E+03  0.38024236190E+03  0.00000000000E+00 0. -1.
<mgrwt>
<rscale>  0 0.13825155E+03</rscale>
<asrwt>0</asrwt>
<pdfrwt beam="1">  1        4 0.41936996E-02 0.14527943E+03</pdfrwt>
<pdfrwt beam="2">  1       -4 0.10530009E+00 0.14527943E+03</pdfrwt>
<totfact> 0.40490685E+02</totfact>
</mgrwt>
</event>
<event>
 6    1  0.5258538E-006  0.4150078E+03  0.7546771E-02  0.1039436E+00
          1   -1    0    0  501    0  0.00000000000E+00  0.00000000000E+00  0.36191136567E+03  0.36191136567E+03  0.00000000000E+00 0. -1.
         -1   -1    0    0    0  501 -0.00000000000E+00 -0.00000000000E+00 -0.47870437212E+03  0.47870437212E+03  0.00000000000E+00 0.  1.
          5    1    1    2  502    0  0.64788926171E+02 -0.13002339385E+03 -0.49372678893E+02  0.15350387397E+03  0.47000000000E+01 0.  1.
         -5    1    1    2    0  502  0.39385306722E+02 -0.25174610229E+03  0.59116276141E+02  0.26161828398E+03  0.47000000000E+01 0.  1.
        -11    1    1    2    0    0 -0.10234187209E+03  0.26047339779E+03 -0.11851770084E+03  0.30391889568E+03  0.00000000000E+00 0. -1.
         11    1    1    2    0    0 -0.18323608045E+01  0.12129609836E+03 -0.80189028588E+01  0.12157468415E+03  0.00000000000E+00 0.  1.
<mgrwt>
<rscale>  0 0.41279899E+03</rscale>
<asrwt>0</asrwt>
<pdfrwt beam="1">  1        1 0.55678671E-01 0.41500779E+03</pdfrwt>
<pdfrwt beam="2">  1       -1 0.73646827E-01 0.41500779E+03</pdfrwt>
<totfact> 0.13248036E+02</totfact>
</mgrwt>
</event>
<event>
 6    1  0.5258538E-006  0.1545081E+03  0.7546771E-02  0.1203576E+00
         -1   -1    0    0    0  501 -0.00000000000E+00  0.00000000000E+00  0.22417367755E+02  0.22417367755E+02  0.00000000000E+00 0.  1.
          1   -1    0    0  501    0  0.00000000000E+00 -0.00000000000E+00 -0.10537949796E+04  0.10537949796E+04  0.00000000000E+00 0. -1.
          5    1    1    2  502    0  0.29948822348E+02  0.89056719710E+02 -0.56581980496E+03  0.57358711019E+03  0.47000000000E+01 0. -1.
         -5    1    1    2    0  502  0.43179524363E+02 -0.35204365944E+02 -0.20024269130E+03  0.20790152507E+03  0.47000000000E+01 0. -1.
        -11    1    1    2    0    0 -0.62574309378E+02 -0.71343716588E+01 -0.72434260110E+02  0.95985235796E+02  0.00000000000E+00 0.  1.
         11    1    1    2    0    0 -0.10554037333E+02 -0.46717982107E+02 -0.19288085547E+03  0.19873847630E+03  0.00000000000E+00 0. -1.
<mgrwt>
<rscale>  0 0.14750268E+03</rscale>
<asrwt>0</asrwt>
<pdfrwt beam="2">  1        1 0.16212229E+00 0.15450805E+03</pdfrwt>
<pdfrwt beam="1">  1       -1 0.34488260E-02 0.15450805E+03</pdfrwt>
<totfact> 0.43992394E+03</totfact>
</mgrwt>
</event>
<event>
 6    1  0.5258538E-006  0.1981406E+03  0.7546771E-02  0.1155716E+00
         -2   -1    0    0    0  501 -0.00000000000E+00  0.00000000000E+00  0.11042877530E+03  0.11042877530E+03  0.00000000000E+00 0.  1.
          2   -1    0    0  501    0  0.00000000000E+00 -0.00000000000E+00 -0.39239639950E+03  0.39239639950E+03  0.00000000000E+00 0. -1.
          5    1    1    2  502    0  0.94408275090E+02 -0.12942598623E+02 -0.13827698988E+03  0.16799717020E+03  0.47000000000E+01 0.  1.
         -5    1    1    2    0  502  0.36252506765E+02  0.95026533162E+02 -0.11550451659E+03  0.15397295088E+03  0.47000000000E+01 0.  1.
        -11    1    1    2    0    0 -0.17971341781E+01 -0.20218180724E+02  0.21455876223E+02  0.29535726630E+02  0.00000000000E+00 0.  1.
         11    1    1    2    0    0 -0.12886364768E+03 -0.61865753815E+02 -0.49641993957E+02  0.15131932709E+03  0.00000000000E+00 0. -1.
<mgrwt>
<rscale>  0 0.19307585E+03</rscale>
<asrwt>0</asrwt>
<pdfrwt beam="2">  1        2 0.60368676E-01 0.19814062E+03</pdfrwt>
<pdfrwt beam="1">  1       -2 0.16989043E-01 0.19814062E+03</pdfrwt>
<totfact> 0.22398378E+03</totfact>
</mgrwt>
</event>
<event>
 6    1  0.5258538E-006  0.1367276E+03  0.7546771E-02  0.1229607E+00
          1   -1    0    0  501    0  0.00000000000E+00  0.00000000000E+00  0.24546610836E+03  0.24546610836E+03  0.00000000000E+00 0. -1.
         -1   -1    0    0    0  501 -0.00000000000E+00 -0.00000000000E+00 -0.81446325729E+02  0.81446325729E+02  0.00000000000E+00 0.  1.
          5    1    1    2  502    0  0.19018524505E+02 -0.51505748822E+02  0.98581104878E+02  0.11293746356E+03  0.47000000000E+01 0. -1.
         -5    1    1    2    0  502  0.33234757858E+02  0.69905308248E+02  0.73441586281E+02  0.10680382880E+03  0.47000000000E+01 0. -1.
        -11    1    1    2    0    0 -0.21553821806E+02 -0.46428619660E+02  0.22192699618E+02  0.55791575299E+02  0.00000000000E+00 0. -1.
         11    1    1    2    0    0 -0.30699460556E+02  0.28029060234E+02 -0.30195608141E+02  0.51379566435E+02  0.00000000000E+00 0.  1.
<mgrwt>
<rscale>  0 0.12856063E+03</rscale>
<asrwt>0</asrwt>
<pdfrwt beam="1">  1        1 0.37764016E-01 0.13672757E+03</pdfrwt>
<pdfrwt beam="2">  1       -1 0.12530204E-01 0.13672757E+03</pdfrwt>
<totfact> 0.46405119E+03</totfact>
</mgrwt>
</event>
<event>
 6    1  0.5258538E-006  0.1695773E+03  0.7546771E-02  0.1184805E+00
         -4   -1    0    0    0  501 -0.00000000000E+00  0.00000000000E+00  0.18145118311E+03  0.18145118311E+03  0.00000000000E+00 0.  1.
          4   -1    0    0  501    0  0.00000000000E+00 -0.00000000000E+00 -0.14445892606E+03  0.14445892606E+03  0.00000000000E+00 0. -1.
          5    1    1    2  502    0  0.23840232557E+01 -0.95898359520E+02  0.21767356633E+02  0.98478864435E+02  0.47000000000E+01 0. -1.
         -5    1    1    2    0  502  0.61220086340E+02  0.57688679744E+00 -0.37215673595E+02  0.71800613723E+02  0.47000000000E+01 0. -1.
        -11    1    1    2    0    0 -0.23403566930E+01  0.46271808395E+02 -0.18453822905E+02  0.49870844202E+02  0.00000000000E+00 0. -1.
         11    1    1    2    0    0 -0.61263752903E+02  0.49049664328E+02  0.70894396917E+02  0.10575978680E+03  0.00000000000E+00 0.  1.
<mgrwt>
<rscale>  0 0.16349593E+03</rscale>
<asrwt>0</asrwt>
<pdfrwt beam="2">  1        4 0.22224450E-01 0.16957727E+03</pdfrwt>
<pdfrwt beam="1">  1       -4 0.27915567E-01 0.16957727E+03</pdfrwt>
<totfact> 0.39253932E+02</totfact>
</mgrwt>
</event>
<event>
 6    1  0.5258538E-006  0.1388916E+03  0.7546771E-02  0.1225308E+00
         -2   -1    0    0    0  501 -0.00000000000E+00  0.00000000000E+00  0.46053387778E+02  0.46053387778E+02  0.00000000000E+00 0.  1.
          2   -1    0    0  501    0  0.00000000000E+00 -0.00000000000E+00 -0.34494332583E+03  0.34494332583E+03  0.00000000000E+00 0. -1.
          5    1    1    2  502    0  0.76056687526E+02 -0.34217580978E+02 -0.61204779301E+02  0.10355470812E+03  0.47000000000E+01 0. -1.
         -5    1    1    2    0  502 -0.28697103623E+02 -0.35281955464E+01 -0.12709805636E+03  0.13042997298E+03  0.47000000000E+01 0. -1.
        -11    1    1    2    0    0 -0.29314657463E+02 -0.18850555100E+02 -0.41214801683E+01  0.35095286984E+02  0.00000000000E+00 0.  1.
         11    1    1    2    0    0 -0.18044926440E+02  0.56596331625E+02 -0.10646562222E+03  0.12191674552E+03  0.00000000000E+00 0. -1.
<mgrwt>
<rscale>  0 0.13145783E+03</rscale>
<asrwt>0</asrwt>
<pdfrwt beam="2">  1        2 0.53068202E-01 0.13889159E+03</pdfrwt>
<pdfrwt beam="1">  1       -2 0.70851368E-02 0.13889159E+03</pdfrwt>
<totfact> 0.10189694E+04</totfact>
</mgrwt>
</event>
<event>
 6    1  0.5258538E-006  0.2190447E+03  0.7546771E-02  0.1138083E+00
         -3   -1    0    0    0  501 -0.00000000000E+00  0.00000000000E+00  0.14933076449E+03  0.14933076449E+03  0.00000000000E+00 0.  1.
          3   -1    0    0  501    0  0.00000000000E+00 -0.00000000000E+00 -0.33760812880E+03  0.33760812880E+03  0.00000000000E+00 0. -1.
          5    1    1    2  502    0 -0.36467822973E+02 -0.60149405184E+02 -0.34226332306E+02  0.78366988455E+02  0.47000000000E+01 0.  1.
         -5    1    1    2    0  502 -0.14059776017E+03  0.30695693357E+02 -0.14905185060E+03  0.20724019861E+03  0.47000000000E+01 0.  1.
        -11    1    1    2    0    0  0.15486066840E+03  0.49419433420E+02  0.18127064656E+02  0.16356251859E+03  0.00000000000E+00 0.  1.
         11    1    1    2    0    0  0.22204914745E+02 -0.19965721592E+02 -0.23126246059E+02  0.37769187631E+02  0.00000000000E+00 0. -1.
<mgrwt>
<rscale>  0 0.21445891E+03</rscale>
<asrwt>0</asrwt>
<pdfrwt beam="2">  1        3 0.51939712E-01 0.21904468E+03</pdfrwt>
<pdfrwt beam="1">  1       -3 0.22973964E-01 0.21904468E+03</pdfrwt>
<totfact> 0.15969135E+02</totfact>
</mgrwt>
</event>
<event>
 6    1  0.5258538E-006  0.1417058E+03  0.7546771E-02  0.1224209E+00
          1   -1    0    0  501    0  0.00000000000E+00  0.00000000000E+00  0.96251508181E+03  0.96251508181E+03  0.00000000000E+00 0. -1.
         -1   -1    0    0    0  501 -0.00000000000E+00 -0.00000000000E+00 -0.26470806996E+02  0.26470806996E+02  0.00000000000E+00 0.  1.
          5    1    1    2  502    0 -0.23007811329E+02 -0.27887502191E+02  0.94187739714E+02  0.10099748746E+03  0.47000000000E+01 0.  1.
         -5    1    1    2    0  502 -0.55032956298E+01  0.88260173925E+02  0.72059249730E+03  0.72601362366E+03  0.47000000000E+01 0.  1.
        -11    1    1    2    0    0  0.36038230548E+02 -0.69713974801E+02  0.58003725754E+02  0.97587010124E+02  0.00000000000E+00 0.  1.
         11    1    1    2    0    0 -0.75271235893E+01  0.93413030662E+01  0.63260312039E+02  0.64387767564E+02  0.00000000000E+00 0. -1.
<mgrwt>
<rscale>  0 0.13221280E+03</rscale>
<asrwt>0</asrwt>
<pdfrwt beam="1">  1        1 0.14807922E+00 0.14170583E+03</pdfrwt>
<pdfrwt beam="2">  1       -1 0.40724326E-02 0.14170583E+03</pdfrwt>
<totfact> 0.40081613E+03</totfact>
</mgrwt>
</event>
<event>
 6    1  0.5258538E-006  0.1407854E+03  0.7546771E-02  0.1223101E+00
          1   -1    0    0  501    0  0.00000000000E+00  0.00000000000E+00  0.64147604655E+03  0.64147604655E+03  0.00000000000E+00 0. -1.
         -1   -1    0    0    0  501 -0.00000000000E+00 -0.00000000000E+00 -0.29542107490E+02  0.29542107490E+02  0.00000000000E+00 0.  1.
          5    1    1    2  502    0 -0.58427046114E+02 -0.19654712677E+02  0.46913916845E+03  0.47319517836E+03  0.47000000000E+01 0.  1.
         -5    1    1    2    0  502  0.28891448174E+01 -0.13688206953E+02 -0.18201158634E+01  0.14870002996E+02  0.47000000000E+01 0.  1.
        -11    1    1    2    0    0  0.55558699056E+02  0.61667987833E+02  0.98229488615E+02  0.12860304117E+03  0.00000000000E+00 0.  1.
         11    1    1    2    0    0 -0.20797759943E-01 -0.28325068204E+02  0.46385397856E+02  0.54349931514E+02  0.00000000000E+00 0. -1.
<mgrwt>
<rscale>  0 0.13297948E+03</rscale>
<asrwt>0</asrwt>
<pdfrwt beam="1">  1        1 0.98688612E-01 0.14078538E+03</pdfrwt>
<pdfrwt beam="2">  1       -1 0.45449401E-02 0.14078538E+03</pdfrwt>
<totfact> 0.62785921E+03</totfact>
</mgrwt>
</event>
<event>
 6    1  0.5258538E-006  0.1437907E+03  0.7546771E-02  0.1217366E+00
         -1   -1    0    0    0  501 -0.00000000000E+00  0.00000000000E+00  0.95557830319E+02  0.95557830319E+02  0.00000000000E+00 0.  1.
          1   -1    0    0  501    0  0.00000000000E+00 -0.00000000000E+00 -0.19257501041E+03  0.19257501041E+03  0.00000000000E+00 0. -1.
          5    1    1    2  502    0  0.34536720607E+02  0.46291984074E+02 -0.36196604527E+01  0.58059665875E+02  0.47000000000E+01 0. -1.
         -5    1    1    2    0  502  0.34857639595E+02 -0.61564150026E+02 -0.85642539493E+02  0.11118423529E+03  0.47000000000E+01 0. -1.
        -11    1    1    2    0    0 -0.63216458314E+02  0.51446809403E+02 -0.64269985095E+00  0.81507716583E+02  0.00000000000E+00 0.  1.
         11    1    1    2    0    0 -0.61779018877E+01 -0.36174643450E+02 -0.71122802952E+01  0.37381222980E+02  0.00000000000E+00 0. -1.
<mgrwt>
<rscale>  0 0.13704145E+03</rscale>
<asrwt>0</asrwt>
<pdfrwt beam="2">  1        1 0.29626925E-01 0.14379067E+03</pdfrwt>
<pdfrwt beam="1">  1       -1 0.14701205E-01 0.14379067E+03</pdfrwt>
<totfact> 0.49041848E+03</totfact>
</mgrwt>
</event>
<event>
 6    1  0.5258538E-006  0.3114560E+03  0.7546771E-02  0.1079650E+00
          2   -1    0    0  501    0  0.00000000000E+00  0.00000000000E+00  0.17692067964E+03  0.17692067964E+03  0.00000000000E+00 0. -1.
         -2   -1    0    0    0  501 -0.00000000000E+00 -0.00000000000E+00 -0.13707394936E+03  0.13707394936E+03  0.00000000000E+00 0.  1.
          5    1    1    2  502    0 -0.27792242213E+02  0.16250312986E+01  0.37655604579E+01  0.28483660219E+02  0.47000000000E+01 0. -1.
         -5    1    1    2    0  502  0.13898525829E+03  0.19101644241E+01  0.12377804399E+02  0.13962754310E+03  0.47000000000E+01 0. -1.
        -11    1    1    2    0    0 -0.66975138603E+02  0.10266401956E+02 -0.30736816013E+02  0.74403091727E+02  0.00000000000E+00 0.  1.
         11    1    1    2    0    0 -0.44217877473E+02 -0.13801597678E+02  0.54440181439E+02  0.71480333951E+02  0.00000000000E+00 0. -1.
<mgrwt>
<rscale>  0 0.31145604E+03</rscale>
<asrwt>0</asrwt>
<pdfrwt beam="1">  1        2 0.27218566E-01 0.31145604E+03</pdfrwt>
<pdfrwt beam="2">  1       -2 0.21088300E-01 0.31145604E+03</pdfrwt>
<totfact> 0.37469554E+03</totfact>
</mgrwt>
</event>
<event>
 6    1  0.5258538E-006  0.1773823E+03  0.7546771E-02  0.1176388E+00
         -1   -1    0    0    0  501 -0.00000000000E+00  0.00000000000E+00  0.24964816016E+03  0.24964816016E+03  0.00000000000E+00 0.  1.
          1   -1    0    0  501    0  0.00000000000E+00 -0.00000000000E+00 -0.15560042586E+03  0.15560042586E+03  0.00000000000E+00 0. -1.
          5    1    1    2  502    0  0.33965265862E+02  0.13856317468E+03 -0.74055265780E+02  0.16080940598E+03  0.47000000000E+01 0.  1.
         -5    1    1    2    0  502 -0.16521719165E+02 -0.13913925446E+02  0.14346100984E+02  0.26352706481E+02  0.47000000000E+01 0.  1.
        -11    1    1    2    0    0  0.30907194889E+01 -0.11848742999E+03  0.84439870845E+02  0.14552977496E+03  0.00000000000E+00 0. -1.
         11    1    1    2    0    0 -0.20534266186E+02 -0.61618192508E+01  0.69317028256E+02  0.72556698592E+02  0.00000000000E+00 0.  1.
<mgrwt>
<rscale>  0 0.17140718E+03</rscale>
<asrwt>0</asrwt>
<pdfrwt beam="2">  1        1 0.23938527E-01 0.17738228E+03</pdfrwt>
<pdfrwt beam="1">  1       -1 0.38407409E-01 0.17738228E+03</pdfrwt>
<totfact> 0.13302260E+03</totfact>
</mgrwt>
</event>
<event>
 6    1  0.5258538E-006  0.1278128E+03  0.7546771E-02  0.1244959E+00
         -2   -1    0    0    0  501 -0.00000000000E+00  0.00000000000E+00  0.10847674735E+02  0.10847674735E+02  0.00000000000E+00 0.  1.
          2   -1    0    0  501    0  0.00000000000E+00 -0.00000000000E+00 -0.15535195696E+04  0.15535195696E+04  0.00000000000E+00 0. -1.
          5    1    1    2  502    0  0.88183888741E+01 -0.60187495185E+02 -0.56575383007E+03  0.56903408052E+03  0.47000000000E+01 0.  1.
         -5    1    1    2    0  502 -0.35210188148E+02  0.56387390376E+02 -0.68298062663E+03  0.68622439588E+03  0.47000000000E+01 0.  1.
        -11    1    1    2    0    0  0.14526140195E+02 -0.36673007044E+02 -0.22393378266E+03  0.22738130357E+03  0.00000000000E+00 0. -1.
         11    1    1    2    0    0  0.11865659079E+02  0.40473111852E+02 -0.70003655512E+02  0.81727464376E+02  0.00000000000E+00 0.  1.
<mgrwt>
<rscale>  0 0.11887825E+03</rscale>
<asrwt>0</asrwt>
<pdfrwt beam="2">  1        2 0.23900306E+00 0.12781275E+03</pdfrwt>
<pdfrwt beam="1">  1       -2 0.16688727E-02 0.12781275E+03</pdfrwt>
<totfact> 0.12497478E+04</totfact>
</mgrwt>
</event>
<event>
 6    1  0.5258538E-006  0.1298190E+03  0.7546771E-02  0.1242134E+00
         -1   -1    0    0    0  501 -0.00000000000E+00  0.00000000000E+00  0.35922493549E+02  0.35922493549E+02  0.00000000000E+00 0.  1.
          1   -1    0    0  501    0  0.00000000000E+00 -0.00000000000E+00 -0.35811112387E+03  0.35811112387E+03  0.00000000000E+00 0. -1.
          5    1    1    2  502    0 -0.47029525943E+02  0.19025911092E+01 -0.75586278232E+02  0.89167099427E+02  0.47000000000E+01 0. -1.
         -5    1    1    2    0  502  0.82289080425E+02  0.11012630510E+01 -0.12030967207E+03  0.14583968160E+03  0.47000000000E+01 0. -1.
        -11    1    1    2    0    0  0.20978350735E+02  0.12246846554E+02 -0.54882333323E+01  0.24903757852E+02  0.00000000000E+00 0.  1.
         11    1    1    2    0    0 -0.56237905217E+02 -0.15250700714E+02 -0.12080444669E+03  0.13412307853E+03  0.00000000000E+00 0. -1.
<mgrwt>
<rscale>  0 0.12058553E+03</rscale>
<asrwt>0</asrwt>
<pdfrwt beam="2">  1        1 0.55094020E-01 0.12981897E+03</pdfrwt>
<pdfrwt beam="1">  1       -1 0.55265374E-02 0.12981897E+03</pdfrwt>
<totfact> 0.99894095E+03</totfact>
</mgrwt>
</event>
<event>
 6    1  0.5258538E-006  0.1285311E+03  0.7546771E-02  0.1244242E+00
          2   -1    0    0  501    0  0.00000000000E+00  0.00000000000E+00  0.11558630447E+03  0.11558630447E+03  0.00000000000E+00 0. -1.
         -2   -1    0    0    0  501 -0.00000000000E+00 -0.00000000000E+00 -0.10860867102E+03  0.10860867102E+03  0.00000000000E+00 0.  1.
          5    1    1    2  502    0 -0.27229587537E+01  0.48390254323E+02  0.14163998882E+02  0.50712326728E+02  0.47000000000E+01 0.  1.
         -5    1    1    2    0  502 -0.39782658231E+01 -0.77550661820E+02 -0.63683579893E+01  0.78054966089E+02  0.47000000000E+01 0.  1.
        -11    1    1    2    0    0 -0.23694669810E+01  0.57582148811E+02 -0.18768090221E+02  0.60609895612E+02  0.00000000000E+00 0.  1.
         11    1    1    2    0    0  0.90706915578E+01 -0.28421741314E+02  0.17950082777E+02  0.34817787069E+02  0.00000000000E+00 0. -1.
<mgrwt>
<rscale>  0 0.11930833E+03</rscale>
<asrwt>0</asrwt>
<pdfrwt beam="1">  1        2 0.17782508E-01 0.12853110E+03</pdfrwt>
<pdfrwt beam="2">  1       -2 0.16709026E-01 0.12853110E+03</pdfrwt>
<totfact> 0.85429581E+03</totfact>
</mgrwt>
</event>
<event>
 6    1  0.5258538E-006  0.1168484E+03  0.7546771E-02  0.1261017E+00
          2   -1    0    0  501    0  0.00000000000E+00  0.00000000000E+00  0.18373833699E+02  0.18373833699E+02  0.00000000000E+00 0. -1.
         -2   -1    0    0    0  501 -0.00000000000E+00 -0.00000000000E+00 -0.58983164426E+03  0.58983164426E+03  0.00000000000E+00 0.  1.
          5    1    1    2  502    0 -0.15515866308E+01  0.40897453068E+02 -0.31583379587E+02  0.51909622948E+02  0.47000000000E+01 0. -1.
         -5    1    1    2    0  502  0.10279975536E+02 -0.25625738644E+02 -0.27113244109E+03  0.27257521346E+03  0.47000000000E+01 0.  1.
        -11    1    1    2    0    0  0.24993237026E+02 -0.39989703289E+02 -0.17162498280E+03  0.17798587862E+03  0.00000000000E+00 0. -1.
         11    1    1    2    0    0 -0.33721625931E+02  0.24717988865E+02 -0.97117007087E+02  0.10573476294E+03  0.00000000000E+00 0.  1.
<mgrwt>
<rscale>  0 0.10975870E+03</rscale>
<asrwt>0</asrwt>
<pdfrwt beam="1">  1        2 0.28267433E-02 0.11684837E+03</pdfrwt>
<pdfrwt beam="2">  1       -2 0.90743342E-01 0.11684837E+03</pdfrwt>
<totfact> 0.34256607E+03</totfact>
</mgrwt>
</event>
<event>
 6    1  0.5258538E-006  0.2563708E+03  0.7546771E-02  0.1109344E+00
         -2   -1    0    0    0  501 -0.00000000000E+00  0.00000000000E+00  0.19855406321E+03  0.19855406321E+03  0.00000000000E+00 0.  1.
          2   -1    0    0  501    0  0.00000000000E+00 -0.00000000000E+00 -0.82755781320E+02  0.82755781320E+02  0.00000000000E+00 0. -1.
          5    1    1    2  502    0  0.17640984233E+02  0.89247957111E+02  0.37688515657E+01  0.91173989796E+02  0.47000000000E+01 0.  1.
         -5    1    1    2    0  502 -0.32083230327E+02 -0.28746210062E+02  0.29295760005E+02  0.52306881148E+02  0.47000000000E+01 0.  1.
        -11    1    1    2    0    0  0.24243775095E+02 -0.25943551726E+02 -0.11223148849E+02  0.37239596898E+02  0.00000000000E+00 0. -1.
         11    1    1    2    0    0 -0.98015290012E+01 -0.34558195323E+02  0.93956819172E+02  0.10058937669E+03  0.00000000000E+00 0.  1.
<mgrwt>
<rscale>  0 0.25637080E+03</rscale>
<asrwt>0</asrwt>
<pdfrwt beam="2">  1        2 0.12731659E-01 0.25637080E+03</pdfrwt>
<pdfrwt beam="1">  1       -2 0.30546779E-01 0.25637080E+03</pdfrwt>
<totfact> 0.46551510E+03</totfact>
</mgrwt>
</event>
<event>
 6    1  0.5258538E-006  0.1775048E+03  0.7546771E-02  0.1176030E+00
         -2   -1    0    0    0  501 -0.00000000000E+00  0.00000000000E+00  0.11990370594E+03  0.11990370594E+03  0.00000000000E+00 0.  1.
          2   -1    0    0  501    0  0.00000000000E+00 -0.00000000000E+00 -0.24196303542E+03  0.24196303542E+03  0.00000000000E+00 0. -1.
          5    1    1    2  502    0 -0.87093922608E+01  0.42995021021E+02 -0.90689634429E+01  0.45041774433E+02  0.47000000000E+01 0.  1.
         -5    1    1    2    0  502 -0.11652035061E+03 -0.56961900629E+02 -0.93620354857E+02  0.16002659489E+03  0.47000000000E+01 0.  1.
        -11    1    1    2    0    0  0.28774268159E+02  0.41431159373E+01 -0.47637411348E+02  0.55807229618E+02  0.00000000000E+00 0. -1.
         11    1    1    2    0    0  0.96455474708E+02  0.98237636705E+01  0.28267400170E+02  0.10099114241E+03  0.00000000000E+00 0.  1.
<mgrwt>
<rscale>  0 0.17175447E+03</rscale>
<asrwt>0</asrwt>
<pdfrwt beam="2">  1        2 0.37225082E-01 0.17750476E+03</pdfrwt>
<pdfrwt beam="1">  1       -2 0.18446724E-01 0.17750476E+03</pdfrwt>
<totfact> 0.32647259E+03</totfact>
</mgrwt>
</event>
<event>
 6    1  0.5258538E-006  0.1911597E+03  0.7546771E-02  0.1173440E+00
         -2   -1    0    0    0  501 -0.00000000000E+00  0.00000000000E+00  0.20998348323E+03  0.20998348323E+03  0.00000000000E+00 0.  1.
          2   -1    0    0  501    0  0.00000000000E+00 -0.00000000000E+00 -0.14433103382E+03  0.14433103382E+03  0.00000000000E+00 0. -1.
          5    1    1    2  502    0  0.46056121557E+02  0.28354516750E+02 -0.96111520017E+02  0.11038414394E+03  0.47000000000E+01 0. -1.
         -5    1    1    2    0  502  0.23889302704E+02  0.37951223013E+02  0.69268405460E+02  0.82651050247E+02  0.47000000000E+01 0.  1.
        -11    1    1    2    0    0 -0.79027654341E+02 -0.76077992087E+02  0.57554516773E+02  0.12387797799E+03  0.00000000000E+00 0.  1.
         11    1    1    2    0    0  0.90822300790E+01  0.97722523236E+01  0.34941047199E+02  0.37401344870E+02  0.00000000000E+00 0. -1.
<mgrwt>
<rscale>  0 0.17429667E+03</rscale>
<asrwt>0</asrwt>
<pdfrwt beam="2">  1        2 0.22204774E-01 0.19115971E+03</pdfrwt>
<pdfrwt beam="1">  1       -2 0.32305151E-01 0.19115971E+03</pdfrwt>
<totfact> 0.21622446E+03</totfact>
</mgrwt>
</event>
<event>
 6    1  0.5258538E-006  0.2475243E+03  0.7546771E-02  0.1114879E+00
          2   -1    0    0  501    0  0.00000000000E+00  0.00000000000E+00  0.74174530112E+03  0.74174530112E+03  0.00000000000E+00 0. -1.
         -2   -1    0    0    0  501 -0.00000000000E+00 -0.00000000000E+00 -0.20650045635E+02  0.20650045635E+02  0.00000000000E+00 0.  1.
          5    1    1    2  502    0  0.18814643658E+02  0.19223149017E+02  0.36276614471E+03  0.36379236663E+03  0.47000000000E+01 0. -1.
         -5    1    1    2    0  502 -0.53529087349E+02  0.67829334963E+01  0.86426317311E+02  0.10199494940E+03  0.47000000000E+01 0.  1.
        -11    1    1    2    0    0  0.11560352508E+02 -0.67399570827E+02  0.19041851080E+03  0.20232536458E+03  0.00000000000E+00 0. -1.
         11    1    1    2    0    0  0.23154091183E+02  0.41393488314E+02  0.81484282676E+02  0.94282666151E+02  0.00000000000E+00 0.  1.
<mgrwt>
<rscale>  0 0.24752434E+03</rscale>
<asrwt>0</asrwt>
<pdfrwt beam="1">  1        2 0.11411464E+00 0.24752434E+03</pdfrwt>
<pdfrwt beam="2">  1       -2 0.31769307E-02 0.24752434E+03</pdfrwt>
<totfact> 0.15026686E+04</totfact>
</mgrwt>
</event>
<event>
 6    1  0.5258538E-006  0.1420479E+03  0.7546771E-02  0.1222417E+00
          1   -1    0    0  501    0  0.00000000000E+00  0.00000000000E+00  0.25748494584E+03  0.25748494584E+03  0.00000000000E+00 0. -1.
         -1   -1    0    0    0  501 -0.00000000000E+00 -0.00000000000E+00 -0.66226631364E+02  0.66226631364E+02  0.00000000000E+00 0.  1.
          5    1    1    2  502    0  0.21258743539E+02  0.22234460196E+02  0.15154239773E+03  0.15470453680E+03  0.47000000000E+01 0. -1.
         -5    1    1    2    0  502 -0.29238658143E+02  0.39960383046E+02 -0.42559157781E+01  0.49919276460E+02  0.47000000000E+01 0.  1.
        -11    1    1    2    0    0 -0.21625113194E+02  0.89627857520E+01  0.34137141969E+02  0.41392288061E+02  0.00000000000E+00 0.  1.
         11    1    1    2    0    0  0.29605027798E+02 -0.71157628994E+02  0.98346905601E+01  0.77695475887E+02  0.00000000000E+00 0. -1.
<mgrwt>
<rscale>  0 0.13345531E+03</rscale>
<asrwt>0</asrwt>
<pdfrwt beam="1">  1        1 0.39613068E-01 0.14204787E+03</pdfrwt>
<pdfrwt beam="2">  1       -1 0.10188713E-01 0.14204787E+03</pdfrwt>
<totfact> 0.60261250E+03</totfact>
</mgrwt>
</event>
<event>
 6    1  0.5258538E-006  0.1397542E+03  0.7546771E-02  0.1224151E+00
         -1   -1    0    0    0  501 -0.00000000000E+00  0.00000000000E+00  0.76333751619E+02  0.76333751619E+02  0.00000000000E+00 0.  1.
          1   -1    0    0  501    0  0.00000000000E+00 -0.00000000000E+00 -0.20910850224E+03  0.20910850224E+03  0.00000000000E+00 0. -1.
          5    1    1    2  502    0 -0.50004337604E+02  0.14684004219E+00 -0.19314156604E+02  0.53810612211E+02  0.47000000000E+01 0. -1.
         -5    1    1    2    0  502  0.62825615661E+02 -0.61317163555E+02 -0.65932976001E+02  0.10989130927E+03  0.47000000000E+01 0. -1.
        -11    1    1    2    0    0  0.37941783737E+02  0.27838839969E+02 -0.37536421757E+02  0.60196037430E+02  0.00000000000E+00 0. -1.
         11    1    1    2    0    0 -0.50763061793E+02  0.33331483544E+02 -0.99911962620E+01  0.61544294948E+02  0.00000000000E+00 0.  1.
<mgrwt>
<rscale>  0 0.13225295E+03</rscale>
<asrwt>0</asrwt>
<pdfrwt beam="2">  1        1 0.32170538E-01 0.13975423E+03</pdfrwt>
<pdfrwt beam="1">  1       -1 0.11743654E-01 0.13975423E+03</pdfrwt>
<totfact> 0.62647595E+03</totfact>
</mgrwt>
</event>
<event>
 6    1  0.5258538E-006  0.1316165E+03  0.7546771E-02  0.1238112E+00
         -4   -1    0    0    0  501 -0.00000000000E+00  0.00000000000E+00  0.29328490394E+02  0.29328490394E+02  0.00000000000E+00 0.  1.
          4   -1    0    0  501    0  0.00000000000E+00 -0.00000000000E+00 -0.50425296617E+03  0.50425296617E+03  0.00000000000E+00 0. -1.
          5    1    1    2  502    0 -0.53024185020E+02  0.65855738287E+02 -0.22366442514E+03  0.23915770432E+03  0.47000000000E+01 0. -1.
         -5    1    1    2    0  502  0.37648194877E+02 -0.27622568490E+02 -0.12128364409E+03  0.13004693457E+03  0.47000000000E+01 0. -1.
        -11    1    1    2    0    0  0.48530209019E+02 -0.25575557207E+02 -0.11173490889E+03  0.12447481744E+03  0.00000000000E+00 0. -1.
         11    1    1    2    0    0 -0.33154218875E+02 -0.12657612590E+02 -0.18241497666E+02  0.39902000236E+02  0.00000000000E+00 0.  1.
<mgrwt>
<rscale>  0 0.12307270E+03</rscale>
<asrwt>0</asrwt>
<pdfrwt beam="2">  1        4 0.77577371E-01 0.13161647E+03</pdfrwt>
<pdfrwt beam="1">  1       -4 0.45120759E-02 0.13161647E+03</pdfrwt>
<totfact> 0.70643386E+02</totfact>
</mgrwt>
</event>
<event>
 6    1  0.5258538E-006  0.1142971E+03  0.7546771E-02  0.1263125E+00
         -1   -1    0    0    0  501 -0.00000000000E+00  0.00000000000E+00  0.16916362856E+02  0.16916362856E+02  0.00000000000E+00 0.  1.
          1   -1    0    0  501    0  0.00000000000E+00 -0.00000000000E+00 -0.63742293598E+03  0.63742293598E+03  0.00000000000E+00 0. -1.
          5    1    1    2  502    0  0.84553983933E+01  0.48049184493E+02 -0.33357232374E+03  0.33715397530E+03  0.47000000000E+01 0. -1.
         -5    1    1    2    0  502 -0.92362444050E+01 -0.25602783497E+02 -0.19110991623E+02  0.33587657470E+02  0.47000000000E+01 0.  1.
        -11    1    1    2    0    0  0.36691108961E+02  0.13684284496E+02 -0.81241684305E+02  0.90187074394E+02  0.00000000000E+00 0. -1.
         11    1    1    2    0    0 -0.35910262949E+02 -0.36130685492E+02 -0.18658157346E+03  0.19341059168E+03  0.00000000000E+00 0.  1.
<mgrwt>
<rscale>  0 0.10863158E+03</rscale>
<asrwt>0</asrwt>
<pdfrwt beam="2">  1        1 0.98065069E-01 0.11429714E+03</pdfrwt>
<pdfrwt beam="1">  1       -1 0.26025173E-02 0.11429714E+03</pdfrwt>
<totfact> 0.14092965E+04</totfact>
</mgrwt>
</event>
<event>
 6    1  0.5258538E-006  0.1306326E+03  0.7546771E-02  0.1240705E+00
          3   -1    0    0  501    0  0.00000000000E+00  0.00000000000E+00  0.94044157392E+02  0.94044157392E+02  0.00000000000E+00 0.  1.
         -3   -1    0    0    0  501 -0.00000000000E+00 -0.00000000000E+00 -0.15013047838E+03  0.15013047838E+03  0.00000000000E+00 0. -1.
          5    1    1    2  502    0  0.21953934220E+02 -0.19005592684E+02  0.44493077664E+02  0.53337714059E+02  0.47000000000E+01 0. -1.
         -5    1    1    2    0  502 -0.59371289968E+02  0.24715736788E+02 -0.42645252608E+02  0.77307989804E+02  0.47000000000E+01 0. -1.
        -11    1    1    2    0    0 -0.13010832009E+02 -0.24546999740E+02 -0.52533369252E+02  0.59427197736E+02  0.00000000000E+00 0. -1.
         11    1    1    2    0    0  0.50428187758E+02  0.18836855635E+02 -0.54007767927E+01  0.54101734175E+02  0.00000000000E+00 0.  1.
<mgrwt>
<rscale>  0 0.12146170E+03</rscale>
<asrwt>0</asrwt>
<pdfrwt beam="1">  1        3 0.14468332E-01 0.13063264E+03</pdfrwt>
<pdfrwt beam="2">  1       -3 0.23096996E-01 0.13063264E+03</pdfrwt>
<totfact> 0.15634514E+03</totfact>
</mgrwt>
</event>
<event>
 6    1  0.5258538E-006  0.1390061E+03  0.7546771E-02  0.1225077E+00
          2   -1    0    0  501    0  0.00000000000E+00  0.00000000000E+00  0.73460371383E+02  0.73460371383E+02  0.00000000000E+00 0. -1.
         -2   -1    0    0    0  501 -0.00000000000E+00 -0.00000000000E+00 -0.21395845699E+03  0.21395845699E+03  0.00000000000E+00 0.  1.
          5    1    1    2  502    0 -0.62078694697E+01 -0.45572577843E+02  0.90132155270E+01  0.47103349655E+02  0.47000000000E+01 0. -1.
         -5    1    1    2    0  502  0.64962325792E+02  0.29857738682E+02 -0.85514385894E+02  0.11156338345E+03  0.47000000000E+01 0. -1.
        -11    1    1    2    0    0 -0.61050885778E+02  0.37401126808E+02 -0.75539522992E+02  0.10407821326E+03  0.00000000000E+00 0.  1.
         11    1    1    2    0    0  0.22964294563E+01 -0.21686287647E+02  0.11542607748E+02  0.24673882017E+02  0.00000000000E+00 0. -1.
<mgrwt>
<rscale>  0 0.13161603E+03</rscale>
<asrwt>0</asrwt>
<pdfrwt beam="1">  1        2 0.11301596E-01 0.13900613E+03</pdfrwt>
<pdfrwt beam="2">  1       -2 0.32916685E-01 0.13900613E+03</pdfrwt>
<totfact> 0.45261088E+03</totfact>
</mgrwt>
</event>
<event>
 6    1  0.5258538E-006  0.1434498E+03  0.7546771E-02  0.1252870E+00
          2   -1    0    0  501    0  0.00000000000E+00  0.00000000000E+00  0.83695600287E+03  0.83695600287E+03  0.00000000000E+00 0. -1.
         -2   -1    0    0    0  501 -0.00000000000E+00 -0.00000000000E+00 -0.12278698860E+02  0.12278698860E+02  0.00000000000E+00 0.  1.
          5    1    1    2  502    0  0.34865241626E+02  0.20497988610E+02  0.51571669240E+03  0.51732151457E+03  0.47000000000E+01 0. -1.
         -5    1    1    2    0  502  0.93084382827E+01 -0.30779885723E+02  0.22108207322E+02  0.39305358660E+02  0.47000000000E+01 0.  1.
        -11    1    1    2    0    0 -0.14108074169E+02 -0.13378605219E+02  0.10236123112E+03  0.10419139345E+03  0.00000000000E+00 0. -1.
         11    1    1    2    0    0 -0.30065605740E+02  0.23660502333E+02  0.18449117317E+03  0.18841643505E+03  0.00000000000E+00 0.  1.
<mgrwt>
<rscale>  0 0.11426485E+03</rscale>
<asrwt>0</asrwt>
<pdfrwt beam="1">  1        2 0.12876242E+00 0.14344983E+03</pdfrwt>
<pdfrwt beam="2">  1       -2 0.18890313E-02 0.14344983E+03</pdfrwt>
<totfact> 0.26723530E+04</totfact>
</mgrwt>
</event>
<event>
 6    1  0.5258538E-006  0.1625718E+03  0.7546771E-02  0.1213174E+00
         -2   -1    0    0    0  501 -0.00000000000E+00  0.00000000000E+00  0.27415686390E+02  0.27415686390E+02  0.00000000000E+00 0.  1.
          2   -1    0    0  501    0  0.00000000000E+00 -0.00000000000E+00 -0.60204992243E+03  0.60204992243E+03  0.00000000000E+00 0. -1.
          5    1    1    2  502    0 -0.75196632629E+01 -0.50946042976E+02 -0.40185783568E+03  0.40517138933E+03  0.47000000000E+01 0. -1.
         -5    1    1    2    0  502  0.13148916524E+02  0.41684748098E+02 -0.22758984966E+02  0.49503268846E+02  0.47000000000E+01 0.  1.
        -11    1    1    2    0    0  0.39639767801E+02 -0.88260739063E+01 -0.75843991957E+02  0.86032098009E+02  0.00000000000E+00 0. -1.
         11    1    1    2    0    0 -0.45269021062E+02  0.18087368785E+02 -0.74173423432E+02  0.88758852635E+02  0.00000000000E+00 0.  1.
<mgrwt>
<rscale>  0 0.14011540E+03</rscale>
<asrwt>0</asrwt>
<pdfrwt beam="2">  1        2 0.92623068E-01 0.16257183E+03</pdfrwt>
<pdfrwt beam="1">  1       -2 0.42177978E-02 0.16257183E+03</pdfrwt>
<totfact> 0.12285438E+04</totfact>
</mgrwt>
</event>
<event>
 6    1  0.5258538E-006  0.1560112E+03  0.7546771E-02  0.1201854E+00
          1   -1    0    0  501    0  0.00000000000E+00  0.00000000000E+00  0.79727994475E+03  0.79727994475E+03  0.00000000000E+00 0. -1.
         -1   -1    0    0    0  501 -0.00000000000E+00 -0.00000000000E+00 -0.25609606216E+02  0.25609606216E+02  0.00000000000E+00 0.  1.
          5    1    1    2  502    0  0.24459266883E+02 -0.10465858980E+03  0.36349402975E+03  0.37908003881E+03  0.47000000000E+01 0. -1.
         -5    1    1    2    0  502 -0.32361452149E+02  0.11646645896E+02  0.37032402460E+02  0.50758218820E+02  0.47000000000E+01 0. -1.
        -11    1    1    2    0    0 -0.17051549607E+02  0.76829582714E+02  0.34365773472E+03  0.35255379555E+03  0.00000000000E+00 0. -1.
         11    1    1    2    0    0  0.24953734873E+02  0.16182361194E+02  0.27486171603E+02  0.40497497791E+02  0.00000000000E+00 0.  1.
<mgrwt>
<rscale>  0 0.14888168E+03</rscale>
<asrwt>0</asrwt>
<pdfrwt beam="1">  1        1 0.12265843E+00 0.15601123E+03</pdfrwt>
<pdfrwt beam="2">  1       -1 0.39399400E-02 0.15601123E+03</pdfrwt>
<totfact> 0.56867282E+03</totfact>
</mgrwt>
</event>
<event>
 6    1  0.5258538E-006  0.1507032E+03  0.7546771E-02  0.1208864E+00
          1   -1    0    0  501    0  0.00000000000E+00  0.00000000000E+00  0.12805119003E+03  0.12805119003E+03  0.00000000000E+00 0. -1.
         -1   -1    0    0    0  501 -0.00000000000E+00 -0.00000000000E+00 -0.14730594139E+03  0.14730594139E+03  0.00000000000E+00 0.  1.
          5    1    1    2  502    0  0.21015316869E+02  0.14053326080E+01 -0.52226090423E+02  0.56509052582E+02  0.47000000000E+01 0. -1.
         -5    1    1    2    0  502 -0.37343522929E+02  0.81178675870E+02  0.33094599968E+02  0.95403661710E+02  0.47000000000E+01 0. -1.
        -11    1    1    2    0    0  0.23633563808E+02 -0.10060723380E+03  0.45405048849E+01  0.10344552680E+03  0.00000000000E+00 0.  1.
         11    1    1    2    0    0 -0.73053577482E+01  0.18023225319E+02 -0.46637657905E+01  0.19998890322E+02  0.00000000000E+00 0. -1.
<mgrwt>
<rscale>  0 0.14337047E+03</rscale>
<asrwt>0</asrwt>
<pdfrwt beam="1">  1        1 0.19700183E-01 0.15070321E+03</pdfrwt>
<pdfrwt beam="2">  1       -1 0.22662453E-01 0.15070321E+03</pdfrwt>
<totfact> 0.41217388E+03</totfact>
</mgrwt>
</event>
<event>
 6    1  0.5258538E-006  0.1370981E+03  0.7546771E-02  0.1229784E+00
         -1   -1    0    0    0  501 -0.00000000000E+00  0.00000000000E+00  0.12152005873E+02  0.12152005873E+02  0.00000000000E+00 0.  1.
          1   -1    0    0  501    0  0.00000000000E+00 -0.00000000000E+00 -0.13863779084E+04  0.13863779084E+04  0.00000000000E+00 0. -1.
          5    1    1    2  502    0  0.46457739306E+02 -0.51307700186E+02 -0.26643528159E+03  0.27531918008E+03  0.47000000000E+01 0. -1.
         -5    1    1    2    0  502 -0.22929090833E+02  0.25282288643E+00 -0.74475238822E+03  0.74512013587E+03  0.47000000000E+01 0. -1.
        -11    1    1    2    0    0 -0.99229504682E+00 -0.13057120802E+02 -0.55871445926E+01  0.14236897057E+02  0.00000000000E+00 0.  1.
         11    1    1    2    0    0 -0.22536353426E+02  0.64111998102E+02 -0.35745108813E+03  0.36385370128E+03  0.00000000000E+00 0. -1.
<mgrwt>
<rscale>  0 0.12844314E+03</rscale>
<asrwt>0</asrwt>
<pdfrwt beam="2">  1        1 0.21328887E+00 0.13709812E+03</pdfrwt>
<pdfrwt beam="1">  1       -1 0.18695397E-02 0.13709812E+03</pdfrwt>
<totfact> 0.63142347E+03</totfact>
</mgrwt>
</event>
<event>
 6    1  0.5258538E-006  0.1401920E+03  0.7546771E-02  0.1234615E+00
          2   -1    0    0  501    0  0.00000000000E+00  0.00000000000E+00  0.71528076794E+03  0.71528076794E+03  0.00000000000E+00 0. -1.
         -2   -1    0    0    0  501 -0.00000000000E+00 -0.00000000000E+00 -0.18441225655E+02  0.18441225655E+02  0.00000000000E+00 0.  1.
          5    1    1    2  502    0 -0.31604609946E+02  0.11777764713E+02  0.34446005806E+02  0.48437427961E+02  0.47000000000E+01 0. -1.
         -5    1    1    2    0  502  0.76119144739E+02  0.33487615742E+02  0.38190640469E+03  0.39088378905E+03  0.47000000000E+01 0. -1.
        -11    1    1    2    0    0 -0.19515566220E+02  0.65245769626E+01  0.24317211552E+02  0.31855206907E+02  0.00000000000E+00 0.  1.
         11    1    1    2    0    0 -0.24998968573E+02 -0.51789957418E+02  0.25616992024E+03  0.26254556967E+03  0.00000000000E+00 0. -1.
<mgrwt>
<rscale>  0 0.12529117E+03</rscale>
<asrwt>0</asrwt>
<pdfrwt beam="1">  1        2 0.11004317E+00 0.14019202E+03</pdfrwt>
<pdfrwt beam="2">  1       -2 0.28371122E-02 0.14019202E+03</pdfrwt>
<totfact> 0.17877373E+04</totfact>
</mgrwt>
</event>
<event>
 6    1  0.5258538E-006  0.2042896E+03  0.7546771E-02  0.1148268E+00
          1   -1    0    0  501    0  0.00000000000E+00  0.00000000000E+00  0.10133091608E+04  0.10133091608E+04  0.00000000000E+00 0. -1.
         -1   -1    0    0    0  501 -0.00000000000E+00 -0.00000000000E+00 -0.40063053900E+02  0.40063053900E+02  0.00000000000E+00 0.  1.
          5    1    1    2  502    0 -0.18304034163E+02 -0.36846513817E+01  0.14562239402E+03  0.14688970680E+03  0.47000000000E+01 0. -1.
         -5    1    1    2    0  502 -0.32277488986E+01  0.17401156075E+03  0.43005059458E+03  0.46395694363E+03  0.47000000000E+01 0.  1.
        -11    1    1    2    0    0 -0.32695314004E+02 -0.71004605493E+02  0.20163459819E+03  0.21625713571E+03  0.00000000000E+00 0. -1.
         11    1    1    2    0    0  0.54227097066E+02 -0.99322303875E+02  0.19593852009E+03  0.22626842855E+03  0.00000000000E+00 0.  1.
<mgrwt>
<rscale>  0 0.20175307E+03</rscale>
<asrwt>0</asrwt>
<pdfrwt beam="1">  1        1 0.15589370E+00 0.20428960E+03</pdfrwt>
<pdfrwt beam="2">  1       -1 0.61635475E-02 0.20428960E+03</pdfrwt>
<totfact> 0.19991742E+03</totfact>
</mgrwt>
</event>
<event>
 6    1  0.5258538E-006  0.2443946E+03  0.7546771E-02  0.1119499E+00
          2   -1    0    0  501    0  0.00000000000E+00  0.00000000000E+00  0.10194324705E+04  0.10194324705E+04  0.00000000000E+00 0.  1.
         -2   -1    0    0    0  501 -0.00000000000E+00 -0.00000000000E+00 -0.55109032381E+02  0.55109032381E+02  0.00000000000E+00 0. -1.
          5    1    1    2  502    0  0.12329616449E+03 -0.69289172123E+02  0.20595920272E+03  0.24988840857E+03  0.47000000000E+01 0.  1.
         -5    1    1    2    0  502  0.84438455267E+02  0.38517769495E+02  0.26295949948E+03  0.27889650349E+03  0.47000000000E+01 0.  1.
        -11    1    1    2    0    0 -0.17411734739E+03  0.14399478112E+02  0.46756024267E+03  0.49913602971E+03  0.00000000000E+00 0. -1.
         11    1    1    2    0    0 -0.33617272364E+02  0.16371924515E+02  0.27844493252E+02  0.46620561108E+02  0.00000000000E+00 0.  1.
<mgrwt>
<rscale>  0 0.24044205E+03</rscale>
<asrwt>0</asrwt>
<pdfrwt beam="1">  1        2 0.15683575E+00 0.24439463E+03</pdfrwt>
<pdfrwt beam="2">  1       -2 0.84783134E-02 0.24439463E+03</pdfrwt>
<totfact> 0.22001664E+03</totfact>
</mgrwt>
</event>
<event>
 6    1  0.5258538E-006  0.3019016E+03  0.7546771E-02  0.1084294E+00
         -1   -1    0    0    0  501 -0.00000000000E+00  0.00000000000E+00  0.69068624684E+02  0.69068624684E+02  0.00000000000E+00 0.  1.
          1   -1    0    0  501    0  0.00000000000E+00 -0.00000000000E+00 -0.32990593046E+03  0.32990593046E+03  0.00000000000E+00 0. -1.
          5    1    1    2  502    0 -0.63528912625E+02  0.83585455991E+02 -0.19133661036E+03  0.21829851043E+03  0.47000000000E+01 0. -1.
         -5    1    1    2    0  502  0.33375329828E+02  0.57735602280E+01 -0.78914217999E+01  0.35094318299E+02  0.47000000000E+01 0. -1.
        -11    1    1    2    0    0  0.54302238235E+02 -0.30782931216E+02 -0.86748656256E+01  0.63020434981E+02  0.00000000000E+00 0. -1.
         11    1    1    2    0    0 -0.24148655439E+02 -0.58576085002E+02 -0.52934407989E+02  0.82561291432E+02  0.00000000000E+00 0.  1.
<mgrwt>
<rscale>  0 0.30190163E+03</rscale>
<asrwt>0</asrwt>
<pdfrwt beam="2">  1        1 0.50754757E-01 0.30190163E+03</pdfrwt>
<pdfrwt beam="1">  1       -1 0.10625943E-01 0.30190163E+03</pdfrwt>
<totfact> 0.42956392E+03</totfact>
</mgrwt>
</event>
<event>
 6    1  0.5258538E-006  0.2438332E+03  0.7546771E-02  0.1117265E+00
          2   -1    0    0  501    0  0.00000000000E+00  0.00000000000E+00  0.63487628301E+02  0.63487628301E+02  0.00000000000E+00 0. -1.
         -2   -1    0    0    0  501 -0.00000000000E+00 -0.00000000000E+00 -0.23411901695E+03  0.23411901695E+03  0.00000000000E+00 0.  1.
          5    1    1    2  502    0 -0.50604669754E+02  0.36998559416E+02  0.17074477909E+02  0.65141030047E+02  0.47000000000E+01 0. -1.
         -5    1    1    2    0  502  0.48458598779E+01 -0.27521406697E+02 -0.72746965996E+02  0.78071257491E+02  0.47000000000E+01 0.  1.
        -11    1    1    2    0    0  0.38382351188E+02  0.38164889884E+02 -0.69890745494E+02  0.88399547557E+02  0.00000000000E+00 0. -1.
         11    1    1    2    0    0  0.73764586880E+01 -0.47642042604E+02 -0.45068155068E+02  0.65994810156E+02  0.00000000000E+00 0.  1.
<mgrwt>
<rscale>  0 0.24383323E+03</rscale>
<asrwt>0</asrwt>
<pdfrwt beam="1">  1        2 0.97673274E-02 0.24383323E+03</pdfrwt>
<pdfrwt beam="2">  1       -2 0.36018310E-01 0.24383323E+03</pdfrwt>
<totfact> 0.47438082E+03</totfact>
</mgrwt>
</event>
<event>
 6    1  0.5258538E-006  0.1747947E+03  0.7546771E-02  0.1178777E+00
          1   -1    0    0  501    0  0.00000000000E+00  0.00000000000E+00  0.11792094889E+03  0.11792094889E+03  0.00000000000E+00 0. -1.
         -1   -1    0    0    0  501 -0.00000000000E+00 -0.00000000000E+00 -0.25498780956E+03  0.25498780956E+03  0.00000000000E+00 0.  1.
          5    1    1    2  502    0 -0.16175070279E+02  0.52307272003E+02  0.36429467841E+01  0.55073084752E+02  0.47000000000E+01 0. -1.
         -5    1    1    2    0  502  0.11804481642E+03  0.15162597946E+02 -0.15689091576E+02  0.12013625870E+03  0.47000000000E+01 0. -1.
        -11    1    1    2    0    0 -0.10670992495E+03 -0.36267552328E+02 -0.12182459612E+03  0.16596257305E+03  0.00000000000E+00 0.  1.
         11    1    1    2    0    0  0.48401788110E+01 -0.31202317621E+02 -0.31961197589E+01  0.31736841956E+02  0.00000000000E+00 0. -1.
<mgrwt>
<rscale>  0 0.16911239E+03</rscale>
<asrwt>0</asrwt>
<pdfrwt beam="1">  1        1 0.18141684E-01 0.17479475E+03</pdfrwt>
<pdfrwt beam="2">  1       -1 0.39228894E-01 0.17479475E+03</pdfrwt>
<totfact> 0.18258500E+03</totfact>
</mgrwt>
</event>
<event>
 6    1  0.5258538E-006  0.3255205E+03  0.7546771E-02  0.1073136E+00
         -1   -1    0    0    0  501 -0.00000000000E+00  0.00000000000E+00  0.41027624508E+02  0.41027624508E+02  0.00000000000E+00 0.  1.
          1   -1    0    0  501    0  0.00000000000E+00 -0.00000000000E+00 -0.64568451111E+03  0.64568451111E+03  0.00000000000E+00 0. -1.
          5    1    1    2  502    0  0.69096270756E+02  0.10239808574E+03 -0.32233084476E+03  0.34522300919E+03  0.47000000000E+01 0.  1.
         -5    1    1    2    0  502  0.89335854502E+01 -0.35943283775E+02 -0.12333224905E+03  0.12885907905E+03  0.47000000000E+01 0.  1.
        -11    1    1    2    0    0 -0.36405269376E+02 -0.75539462375E+02 -0.55092724221E+02  0.10033325608E+03  0.00000000000E+00 0.  1.
         11    1    1    2    0    0 -0.41624586830E+02  0.90846604120E+01 -0.10390106858E+03  0.11229679130E+03  0.00000000000E+00 0. -1.
<mgrwt>
<rscale>  0 0.32552052E+03</rscale>
<asrwt>0</asrwt>
<pdfrwt beam="2">  1        1 0.99336084E-01 0.32552052E+03</pdfrwt>
<pdfrwt beam="1">  1       -1 0.63119419E-02 0.32552052E+03</pdfrwt>
<totfact> 0.39286586E+03</totfact>
</mgrwt>
</event>
<event>
 6    1  0.5258538E-006  0.3187415E+03  0.7546771E-02  0.1076230E+00
         -2   -1    0    0    0  501 -0.00000000000E+00  0.00000000000E+00  0.55449606645E+02  0.55449606645E+02  0.00000000000E+00 0. -1.
          2   -1    0    0  501    0  0.00000000000E+00 -0.00000000000E+00 -0.45805629602E+03  0.45805629602E+03  0.00000000000E+00 0.  1.
          5    1    1    2  502    0 -0.10675055592E+03 -0.10272035685E+02 -0.12389461435E+03  0.16393035524E+03  0.47000000000E+01 0.  1.
         -5    1    1    2    0  502  0.67237222348E+01 -0.19166002914E+02 -0.17635319404E+03  0.17758120158E+03  0.47000000000E+01 0.  1.
        -11    1    1    2    0    0  0.93640954144E+02 -0.71621342741E+01 -0.96005705994E+02  0.13430197334E+03  0.00000000000E+00 0.  1.
         11    1    1    2    0    0  0.63858795412E+01  0.36600172872E+02 -0.63531749984E+01  0.37692372496E+02  0.00000000000E+00 0. -1.
<mgrwt>
<rscale>  0 0.31874153E+03</rscale>
<asrwt>0</asrwt>
<pdfrwt beam="2">  1        2 0.70470198E-01 0.31874153E+03</pdfrwt>
<pdfrwt beam="1">  1       -2 0.85307089E-02 0.31874153E+03</pdfrwt>
<totfact> 0.58738033E+03</totfact>
</mgrwt>
</event>
<event>
 6    1  0.5258538E-006  0.1437878E+03  0.7546771E-02  0.1218154E+00
          2   -1    0    0  501    0  0.00000000000E+00  0.00000000000E+00  0.81532531591E+03  0.81532531591E+03  0.00000000000E+00 0. -1.
         -2   -1    0    0    0  501 -0.00000000000E+00 -0.00000000000E+00 -0.26330008371E+02  0.26330008371E+02  0.00000000000E+00 0.  1.
          5    1    1    2  502    0  0.36177979570E+02 -0.14676190796E+02  0.41893422606E+02  0.57457685645E+02  0.47000000000E+01 0. -1.
         -5    1    1    2    0  502  0.31444994226E+02 -0.71393545187E+01  0.57699784372E+03  0.57791726026E+03  0.47000000000E+01 0. -1.
        -11    1    1    2    0    0 -0.52635147712E+02  0.44791499667E+02  0.56083132375E+02  0.89005926511E+02  0.00000000000E+00 0.  1.
         11    1    1    2    0    0 -0.14987826083E+02 -0.22975954352E+02  0.11402090884E+03  0.11727445187E+03  0.00000000000E+00 0. -1.
<mgrwt>
<rscale>  0 0.13647355E+03</rscale>
<asrwt>0</asrwt>
<pdfrwt beam="1">  1        2 0.12543464E+00 0.14378777E+03</pdfrwt>
<pdfrwt beam="2">  1       -2 0.40507712E-02 0.14378777E+03</pdfrwt>
<totfact> 0.90107552E+03</totfact>
</mgrwt>
</event>
<event>
 6    1  0.5258538E-006  0.1402542E+03  0.7546771E-02  0.1223994E+00
          2   -1    0    0  501    0  0.00000000000E+00  0.00000000000E+00  0.13539111225E+03  0.13539111225E+03  0.00000000000E+00 0.  1.
         -2   -1    0    0    0  501 -0.00000000000E+00 -0.00000000000E+00 -0.11680431824E+03  0.11680431824E+03  0.00000000000E+00 0. -1.
          5    1    1    2  502    0  0.58339143653E+02  0.69045757920E+02  0.22532278673E+02  0.93276824298E+02  0.47000000000E+01 0. -1.
         -5    1    1    2    0  502  0.87461122184E+00 -0.45844156383E+02 -0.11201505122E+02  0.47434326561E+02  0.47000000000E+01 0. -1.
        -11    1    1    2    0    0 -0.82751281479E+02 -0.27173330758E+02  0.89311970117E+01  0.87555301215E+02  0.00000000000E+00 0.  1.
         11    1    1    2    0    0  0.23537526604E+02  0.39717292205E+01 -0.16751765506E+01  0.23928978418E+02  0.00000000000E+00 0. -1.
<mgrwt>
<rscale>  0 0.13236095E+03</rscale>
<asrwt>0</asrwt>
<pdfrwt beam="1">  1        2 0.20829402E-01 0.14025420E+03</pdfrwt>
<pdfrwt beam="2">  1       -2 0.17969895E-01 0.14025420E+03</pdfrwt>
<totfact> 0.63669722E+03</totfact>
</mgrwt>
</event>
<event>
 6    1  0.5258538E-006  0.1268931E+03  0.7546771E-02  0.1246087E+00
         -1   -1    0    0    0  501 -0.00000000000E+00  0.00000000000E+00  0.37219504674E+02  0.37219504674E+02  0.00000000000E+00 0.  1.
          1   -1    0    0  501    0  0.00000000000E+00 -0.00000000000E+00 -0.35214099130E+03  0.35214099130E+03  0.00000000000E+00 0. -1.
          5    1    1    2  502    0 -0.58936816918E+02  0.64645992988E+00 -0.20279639116E+03  0.21124022478E+03  0.47000000000E+01 0. -1.
         -5    1    1    2    0  502  0.39437036343E+02 -0.10579465891E+02 -0.21309414493E+02  0.46296717812E+02  0.47000000000E+01 0. -1.
        -11    1    1    2    0    0  0.23286491429E+02  0.41226504692E+02 -0.88309806623E+02  0.10020233190E+03  0.00000000000E+00 0.  1.
         11    1    1    2    0    0 -0.37867108542E+01 -0.31293498731E+02 -0.25058743536E+01  0.31621221485E+02  0.00000000000E+00 0. -1.
<mgrwt>
<rscale>  0 0.11820536E+03</rscale>
<asrwt>0</asrwt>
<pdfrwt beam="2">  1        1 0.54175535E-01 0.12689312E+03</pdfrwt>
<pdfrwt beam="1">  1       -1 0.57260779E-02 0.12689312E+03</pdfrwt>
<totfact> 0.96612705E+03</totfact>
</mgrwt>
</event>
<event>
 6    1  0.5258538E-006  0.3383239E+03  0.7546771E-02  0.1067512E+00
         -2   -1    0    0    0  501 -0.00000000000E+00  0.00000000000E+00  0.65700952676E+02  0.65700952676E+02  0.00000000000E+00 0.  1.
          2   -1    0    0  501    0  0.00000000000E+00 -0.00000000000E+00 -0.43554565666E+03  0.43554565666E+03  0.00000000000E+00 0. -1.
          5    1    1    2  502    0  0.46473333325E+02 -0.29885360231E+01 -0.24922390673E+02  0.53027517524E+02  0.47000000000E+01 0. -1.
         -5    1    1    2    0  502 -0.99338991844E+01  0.12604718334E+03 -0.16728451113E+03  0.20974454092E+03  0.47000000000E+01 0. -1.
        -11    1    1    2    0    0 -0.17103429356E+02 -0.73515881767E+02 -0.29451493548E+02  0.81021618349E+02  0.00000000000E+00 0.  1.
         11    1    1    2    0    0 -0.19436004785E+02 -0.49542765554E+02 -0.14818630863E+03  0.15745293254E+03  0.00000000000E+00 0. -1.
<mgrwt>
<rscale>  0 0.33832390E+03</rscale>
<asrwt>0</asrwt>
<pdfrwt beam="2">  1        2 0.67007022E-01 0.33832390E+03</pdfrwt>
<pdfrwt beam="1">  1       -2 0.10107839E-01 0.33832390E+03</pdfrwt>
<totfact> 0.47521338E+03</totfact>
</mgrwt>
</event>
<event>
 6    1  0.5258538E-006  0.1386101E+03  0.7546771E-02  0.1242740E+00
          2   -1    0    0  501    0  0.00000000000E+00  0.00000000000E+00  0.12608740798E+04  0.12608740798E+04  0.00000000000E+00 0. -1.
         -2   -1    0    0    0  501 -0.00000000000E+00 -0.00000000000E+00 -0.12296765464E+02  0.12296765464E+02  0.00000000000E+00 0.  1.
          5    1    1    2  502    0 -0.89528990532E+02  0.47445956756E+01  0.57871873432E+03  0.58564102894E+03  0.47000000000E+01 0.  1.
         -5    1    1    2    0  502  0.34609459636E+02 -0.28512163746E+02  0.47996165306E+03  0.48207472095E+03  0.47000000000E+01 0.  1.
        -11    1    1    2    0    0  0.20050774079E+02 -0.10240332829E+02  0.25607084956E+02  0.34097225072E+02  0.00000000000E+00 0.  1.
         11    1    1    2    0    0  0.34868756817E+02  0.34007900899E+02  0.16428984204E+03  0.17135787033E+03  0.00000000000E+00 0. -1.
<mgrwt>
<rscale>  0 0.12021647E+03</rscale>
<asrwt>0</asrwt>
<pdfrwt beam="1">  1        2 0.19398052E+00 0.13861010E+03</pdfrwt>
<pdfrwt beam="2">  1       -2 0.18918111E-02 0.13861010E+03</pdfrwt>
<totfact> 0.14946955E+04</totfact>
</mgrwt>
</event>
<event>
 6    1  0.5258538E-006  0.1692890E+03  0.7546771E-02  0.1184446E+00
         -1   -1    0    0    0  501 -0.00000000000E+00  0.00000000000E+00  0.71068479694E+02  0.71068479694E+02  0.00000000000E+00 0.  1.
          1   -1    0    0  501    0  0.00000000000E+00 -0.00000000000E+00 -0.56725081203E+03  0.56725081203E+03  0.00000000000E+00 0. -1.
          5    1    1    2  502    0 -0.64065161941E+02  0.24402614463E+02 -0.11304482534E+03  0.13229155341E+03  0.47000000000E+01 0. -1.
         -5    1    1    2    0  502  0.27954042395E+02  0.83906386252E+02 -0.34011318797E+03  0.35145523296E+03  0.47000000000E+01 0. -1.
        -11    1    1    2    0    0  0.27608896961E+02 -0.75345976777E+02  0.20215664196E+02  0.82752283877E+02  0.00000000000E+00 0.  1.
         11    1    1    2    0    0  0.85022225844E+01 -0.32963023938E+02 -0.63239983218E+02  0.71820221480E+02  0.00000000000E+00 0. -1.
<mgrwt>
<rscale>  0 0.16382376E+03</rscale>
<asrwt>0</asrwt>
<pdfrwt beam="2">  1        1 0.87269356E-01 0.16928901E+03</pdfrwt>
<pdfrwt beam="1">  1       -1 0.10933612E-01 0.16928901E+03</pdfrwt>
<totfact> 0.19947136E+03</totfact>
</mgrwt>
</event>
<event>
 6    1  0.5258538E-006  0.2934226E+03  0.7546771E-02  0.1088576E+00
          2   -1    0    0  501    0  0.00000000000E+00  0.00000000000E+00  0.46955094629E+03  0.46955094629E+03  0.00000000000E+00 0. -1.
         -2   -1    0    0    0  501 -0.00000000000E+00 -0.00000000000E+00 -0.45839989098E+02  0.45839989098E+02  0.00000000000E+00 0.  1.
          5    1    1    2  502    0  0.35629771714E+02  0.10262924361E+01  0.89104910004E+02  0.96084904618E+02  0.47000000000E+01 0.  1.
         -5    1    1    2    0  502 -0.94726475535E+02 -0.66976716729E+02  0.20885373791E+03  0.23895807077E+03  0.47000000000E+01 0.  1.
        -11    1    1    2    0    0  0.18973061574E+02  0.42880989611E+02  0.12559704636E+03  0.13406481414E+03  0.00000000000E+00 0. -1.
         11    1    1    2    0    0  0.40123642247E+02  0.23069434682E+02  0.15526291963E+00  0.46283145856E+02  0.00000000000E+00 0.  1.
<mgrwt>
<rscale>  0 0.29342263E+03</rscale>
<asrwt>0</asrwt>
<pdfrwt beam="1">  1        2 0.72238604E-01 0.29342263E+03</pdfrwt>
<pdfrwt beam="2">  1       -2 0.70523063E-02 0.29342263E+03</pdfrwt>
<totfact> 0.76758296E+03</totfact>
</mgrwt>
</event>
<event>
 6    1  0.5258538E-006  0.2501786E+03  0.7546771E-02  0.1118437E+00
         -2   -1    0    0    0  501 -0.00000000000E+00  0.00000000000E+00  0.70025241836E+03  0.70025241836E+03  0.00000000000E+00 0.  1.
          2   -1    0    0  501    0  0.00000000000E+00 -0.00000000000E+00 -0.10055508670E+03  0.10055508670E+03  0.00000000000E+00 0. -1.
          5    1    1    2  502    0 -0.89624118518E+01 -0.28060176602E+02 -0.34650007330E+02  0.45721016449E+02  0.47000000000E+01 0. -1.
         -5    1    1    2    0  502 -0.81860618687E+02  0.14866100985E+03  0.16344398417E+03  0.23566349463E+03  0.47000000000E+01 0.  1.
        -11    1    1    2    0    0 -0.29621749844E+02  0.17743171913E+02  0.96718100353E+02  0.10269692863E+03  0.00000000000E+00 0.  1.
         11    1    1    2    0    0  0.12044478038E+03 -0.13834400516E+03  0.37418525447E+03  0.41672606536E+03  0.00000000000E+00 0. -1.
<mgrwt>
<rscale>  0 0.24204698E+03</rscale>
<asrwt>0</asrwt>
<pdfrwt beam="2">  1        2 0.15470014E-01 0.25017865E+03</pdfrwt>
<pdfrwt beam="1">  1       -2 0.10773114E+00 0.25017865E+03</pdfrwt>
<totfact> 0.27088194E+02</totfact>
</mgrwt>
</event>
<event>
 6    1  0.5258538E-006  0.1868206E+03  0.7546771E-02  0.1166590E+00
         -1   -1    0    0    0  501 -0.00000000000E+00  0.00000000000E+00  0.45106228668E+02  0.45106228668E+02  0.00000000000E+00 0.  1.
          1   -1    0    0  501    0  0.00000000000E+00 -0.00000000000E+00 -0.74390733460E+03  0.74390733460E+03  0.00000000000E+00 0. -1.
          5    1    1    2  502    0  0.26806289068E+02  0.14536803205E+02 -0.64411461806E+02  0.71420040556E+02  0.47000000000E+01 0.  1.
         -5    1    1    2    0  502 -0.14176840103E+03  0.63317807057E+02 -0.41230553887E+03  0.44059660871E+03  0.47000000000E+01 0.  1.
        -11    1    1    2    0    0  0.10349189493E+03 -0.87329474702E+02 -0.14463574152E+03  0.19813254955E+03  0.00000000000E+00 0.  1.
         11    1    1    2    0    0  0.11470217026E+02  0.94748644405E+01 -0.77448363733E+02  0.78864364447E+02  0.00000000000E+00 0. -1.
<mgrwt>
<rscale>  0 0.18125885E+03</rscale>
<asrwt>0</asrwt>
<pdfrwt beam="2">  1        1 0.11444728E+00 0.18682064E+03</pdfrwt>
<pdfrwt beam="1">  1       -1 0.69394200E-02 0.18682064E+03</pdfrwt>
<totfact> 0.27294859E+03</totfact>
</mgrwt>
</event>
<event>
 6    1  0.5258538E-006  0.1879565E+03  0.7546771E-02  0.1165257E+00
         -2   -1    0    0    0  501 -0.00000000000E+00  0.00000000000E+00  0.38093026978E+03  0.38093026978E+03  0.00000000000E+00 0.  1.
          2   -1    0    0  501    0  0.00000000000E+00 -0.00000000000E+00 -0.13000203109E+03  0.13000203109E+03  0.00000000000E+00 0. -1.
          5    1    1    2  502    0  0.36440396419E+02  0.75227384876E+02  0.10805270552E+01  0.83727650542E+02  0.47000000000E+01 0. -1.
         -5    1    1    2    0  502  0.97341971265E+02 -0.32720233185E+02 -0.24513938882E+02  0.10568394499E+03  0.47000000000E+01 0. -1.
        -11    1    1    2    0    0 -0.69557100217E+02  0.95750707747E+01  0.19358683817E+03  0.20592653079E+03  0.00000000000E+00 0.  1.
         11    1    1    2    0    0 -0.64225267467E+02 -0.52082222466E+02  0.80774812348E+02  0.11559417454E+03  0.00000000000E+00 0. -1.
<mgrwt>
<rscale>  0 0.18265587E+03</rscale>
<asrwt>0</asrwt>
<pdfrwt beam="2">  1        2 0.20000313E-01 0.18795645E+03</pdfrwt>
<pdfrwt beam="1">  1       -2 0.58604657E-01 0.18795645E+03</pdfrwt>
<totfact> 0.76687177E+02</totfact>
</mgrwt>
</event>
<event>
 6    1  0.5258538E-006  0.4145249E+03  0.7546771E-02  0.1038863E+00
         -1   -1    0    0    0  501 -0.00000000000E+00  0.00000000000E+00  0.59907310017E+02  0.59907310017E+02  0.00000000000E+00 0.  1.
          1   -1    0    0  501    0  0.00000000000E+00 -0.00000000000E+00 -0.71706985129E+03  0.71706985129E+03  0.00000000000E+00 0. -1.
          5    1    1    2  502    0  0.40026017695E+01 -0.11801083065E+03 -0.46794584801E+03  0.48263649224E+03  0.47000000000E+01 0.  1.
         -5    1    1    2    0  502  0.33879476007E+02 -0.31390404915E+02 -0.35311256844E+02  0.58327963064E+02  0.47000000000E+01 0.  1.
        -11    1    1    2    0    0 -0.54482117546E+02  0.59368159035E+02 -0.40253582945E+02  0.90073472118E+02  0.00000000000E+00 0.  1.
         11    1    1    2    0    0  0.16600039770E+02  0.90033076526E+02 -0.11365185347E+03  0.14593923389E+03  0.00000000000E+00 0. -1.
<mgrwt>
<rscale>  0 0.41452491E+03</rscale>
<asrwt>0</asrwt>
<pdfrwt beam="2">  1        1 0.11031843E+00 0.41452491E+03</pdfrwt>
<pdfrwt beam="1">  1       -1 0.92165098E-02 0.41452491E+03</pdfrwt>
<totfact> 0.18874013E+03</totfact>
</mgrwt>
</event>
<event>
 6    1  0.5258538E-006  0.2105513E+03  0.7546771E-02  0.1144887E+00
          2   -1    0    0  501    0  0.00000000000E+00  0.00000000000E+00  0.62489182524E+03  0.62489182524E+03  0.00000000000E+00 0. -1.
         -2   -1    0    0    0  501 -0.00000000000E+00 -0.00000000000E+00 -0.69270365245E+02  0.69270365245E+02  0.00000000000E+00 0.  1.
          5    1    1    2  502    0 -0.17451860531E+03  0.62147425265E+02  0.32949341799E+03  0.37803048629E+03  0.47000000000E+01 0.  1.
         -5    1    1    2    0  502  0.21939304852E+02  0.11529729358E+02  0.46537306280E+02  0.52934663806E+02  0.47000000000E+01 0.  1.
        -11    1    1    2    0    0  0.31137069721E+02  0.19174578977E+02  0.18015155061E+02  0.40764290766E+02  0.00000000000E+00 0.  1.
         11    1    1    2    0    0  0.12144223073E+03 -0.92851733601E+02  0.16157558067E+03  0.22243274963E+03  0.00000000000E+00 0. -1.
<mgrwt>
<rscale>  0 0.20586039E+03</rscale>
<asrwt>0</asrwt>
<pdfrwt beam="1">  1        2 0.96137200E-01 0.21055131E+03</pdfrwt>
<pdfrwt beam="2">  1       -2 0.10656980E-01 0.21055131E+03</pdfrwt>
<totfact> 0.28554910E+03</totfact>
</mgrwt>
</event>
<event>
 6    1  0.6510128E-006  0.3616870E+03  0.7546771E-02  0.1058984E+00
         -1   -1    0    0    0  501 -0.00000000000E+00  0.00000000000E+00  0.35830055346E+03  0.35830055346E+03  0.00000000000E+00 0.  1.
          1   -1    0    0  501    0  0.00000000000E+00 -0.00000000000E+00 -0.39112621374E+03  0.39112621374E+03  0.00000000000E+00 0. -1.
          5    1    1    2  502    0  0.27728029419E+02 -0.22081548090E+03 -0.14636797609E+03  0.26640944924E+03  0.47000000000E+01 0.  1.
         -5    1    1    2    0  502  0.10338623282E+01 -0.11736314819E+03  0.14957478736E+02  0.11841027655E+03  0.47000000000E+01 0.  1.
        -11    1    1    2    0    0 -0.28242598040E+02  0.28736429884E+03  0.11558225165E+03  0.31102273468E+03  0.00000000000E+00 0.  1.
         11    1    1    2    0    0 -0.51929370722E+00  0.50814330248E+02 -0.16997414567E+02  0.53584306718E+02  0.00000000000E+00 0. -1.
<mgrwt>
<rscale>  0 0.35899182E+03</rscale>
<asrwt>0</asrwt>
<pdfrwt beam="2">  1        1 0.60173264E-01 0.36168702E+03</pdfrwt>
<pdfrwt beam="1">  1       -1 0.55123162E-01 0.36168702E+03</pdfrwt>
<totfact> 0.21334327E+02</totfact>
</mgrwt>
</event>
<event>
 6    1  0.5258538E-006  0.1329762E+03  0.7546771E-02  0.1235545E+00
          1   -1    0    0  501    0  0.00000000000E+00  0.00000000000E+00  0.85658842757E+02  0.85658842757E+02  0.00000000000E+00 0. -1.
         -1   -1    0    0    0  501 -0.00000000000E+00 -0.00000000000E+00 -0.16253420622E+03  0.16253420622E+03  0.00000000000E+00 0.  1.
          5    1    1    2  502    0  0.10768977136E+02 -0.78262406283E+02 -0.57334987268E+02  0.97725973368E+02  0.47000000000E+01 0. -1.
         -5    1    1    2    0  502  0.42470498031E+01  0.35478405389E+02  0.18898301791E+02  0.40693863070E+02  0.47000000000E+01 0. -1.
        -11    1    1    2    0    0  0.27372931142E+02 -0.10081392368E+02  0.45543178921E+01  0.29523780972E+02  0.00000000000E+00 0. -1.
         11    1    1    2    0    0 -0.42388958081E+02  0.52865393261E+02 -0.42992995875E+02  0.80249431563E+02  0.00000000000E+00 0.  1.
<mgrwt>
<rscale>  0 0.12469623E+03</rscale>
<asrwt>0</asrwt>
<pdfrwt beam="1">  1        1 0.13178284E-01 0.13297621E+03</pdfrwt>
<pdfrwt beam="2">  1       -1 0.25005262E-01 0.13297621E+03</pdfrwt>
<totfact> 0.58496074E+03</totfact>
</mgrwt>
</event>
<event>
 6    1  0.5258538E-006  0.1349653E+03  0.7546771E-02  0.1233216E+00
          1   -1    0    0  501    0  0.00000000000E+00  0.00000000000E+00  0.12540223485E+03  0.12540223485E+03  0.00000000000E+00 0. -1.
         -1   -1    0    0    0  501 -0.00000000000E+00 -0.00000000000E+00 -0.11502249234E+03  0.11502249234E+03  0.00000000000E+00 0.  1.
          5    1    1    2  502    0  0.72619194843E+01  0.25918949481E+02 -0.36040822035E+02  0.45227848387E+02  0.47000000000E+01 0. -1.
         -5    1    1    2    0  502  0.22435010404E+02 -0.67247447498E+02  0.57570180746E+02  0.91443778344E+02  0.47000000000E+01 0. -1.
        -11    1    1    2    0    0 -0.10117611818E+02  0.41319040489E+02  0.34054040711E+02  0.54491346695E+02  0.00000000000E+00 0. -1.
         11    1    1    2    0    0 -0.19579318070E+02  0.94575271510E-02 -0.45203656908E+02  0.49261753759E+02  0.00000000000E+00 0.  1.
<mgrwt>
<rscale>  0 0.12619327E+03</rscale>
<asrwt>0</asrwt>
<pdfrwt beam="1">  1        1 0.19292651E-01 0.13496526E+03</pdfrwt>
<pdfrwt beam="2">  1       -1 0.17695768E-01 0.13496526E+03</pdfrwt>
<totfact> 0.62586221E+03</totfact>
</mgrwt>
</event>
<event>
 6    1  0.5258538E-006  0.1349166E+03  0.7546771E-02  0.1231697E+00
         -2   -1    0    0    0  501 -0.00000000000E+00  0.00000000000E+00  0.36576483439E+02  0.36576483439E+02  0.00000000000E+00 0.  1.
          2   -1    0    0  501    0  0.00000000000E+00 -0.00000000000E+00 -0.49648842700E+03  0.49648842700E+03  0.00000000000E+00 0. -1.
          5    1    1    2  502    0  0.39595171430E+01 -0.49442869774E+02 -0.29438082282E+03  0.29856730229E+03  0.47000000000E+01 0. -1.
         -5    1    1    2    0  502 -0.50136970197E+02  0.28360397616E+02 -0.75018521573E+02  0.94698978413E+02  0.47000000000E+01 0. -1.
        -11    1    1    2    0    0  0.76294759425E+00 -0.27209996717E+02  0.47218233119E+00  0.27224785886E+02  0.00000000000E+00 0.  1.
         11    1    1    2    0    0  0.45414505460E+02  0.48292468876E+02 -0.90984781495E+02  0.11257384385E+03  0.00000000000E+00 0. -1.
<mgrwt>
<rscale>  0 0.12718296E+03</rscale>
<asrwt>0</asrwt>
<pdfrwt beam="2">  1        2 0.76382833E-01 0.13491661E+03</pdfrwt>
<pdfrwt beam="1">  1       -2 0.56271514E-02 0.13491661E+03</pdfrwt>
<totfact> 0.97610800E+03</totfact>
</mgrwt>
</event>
<event>
 6    1  0.5258538E-006  0.1850618E+03  0.7546771E-02  0.1168250E+00
          1   -1    0    0  501    0  0.00000000000E+00  0.00000000000E+00  0.33997810728E+02  0.33997810728E+02  0.00000000000E+00 0. -1.
         -1   -1    0    0    0  501 -0.00000000000E+00 -0.00000000000E+00 -0.89883866250E+03  0.89883866250E+03  0.00000000000E+00 0.  1.
          5    1    1    2  502    0 -0.76368228976E+02  0.40463402659E+02 -0.95585702404E+02  0.12895002852E+03  0.47000000000E+01 0.  1.
         -5    1    1    2    0  502 -0.26029283974E+02  0.49745119607E+02 -0.33523388191E+03  0.33993520872E+03  0.47000000000E+01 0.  1.
        -11    1    1    2    0    0 -0.55261029142E+00 -0.54716144109E+02 -0.13166774067E+03  0.14258525778E+03  0.00000000000E+00 0.  1.
         11    1    1    2    0    0  0.10295012324E+03 -0.35492378158E+02 -0.30235352679E+03  0.32136597820E+03  0.00000000000E+00 0. -1.
<mgrwt>
<rscale>  0 0.17953894E+03</rscale>
<asrwt>0</asrwt>
<pdfrwt beam="1">  1        1 0.52304322E-02 0.18506175E+03</pdfrwt>
<pdfrwt beam="2">  1       -1 0.13828288E+00 0.18506175E+03</pdfrwt>
<totfact> 0.72527597E+02</totfact>
</mgrwt>
</event>
<event>
 6    1  0.1712504E-005  0.2900221E+03  0.7546771E-02  0.1092207E+00
          1   -1    0    0  501    0  0.00000000000E+00  0.00000000000E+00  0.52147768452E+03  0.52147768452E+03  0.00000000000E+00 0. -1.
         -1   -1    0    0    0  501 -0.00000000000E+00 -0.00000000000E+00 -0.15606810364E+03  0.15606810364E+03  0.00000000000E+00 0.  1.
          5    1    1    2  502    0 -0.80631889921E+02 -0.18885460583E+03  0.17605469531E+03  0.27052709579E+03  0.47000000000E+01 0.  1.
         -5    1    1    2    0  502 -0.81991351938E+02 -0.16184511831E+02  0.53418728876E+02  0.99298392790E+02  0.47000000000E+01 0.  1.
        -11    1    1    2    0    0  0.21498664266E+02  0.65994875771E+02  0.36591079422E+01  0.69504713971E+02  0.00000000000E+00 0. -1.
         11    1    1    2    0    0  0.14112457759E+03  0.13904424189E+03  0.13227704875E+03  0.23821558561E+03  0.00000000000E+00 0.  1.
<mgrwt>
<rscale>  0 0.28646865E+03</rscale>
<asrwt>0</asrwt>
<pdfrwt beam="1">  1        1 0.80227335E-01 0.29002214E+03</pdfrwt>
<pdfrwt beam="2">  1       -1 0.24010478E-01 0.29002214E+03</pdfrwt>
<totfact> 0.63795827E+02</totfact>
</mgrwt>
</event>
<event>
 6    1  0.5258538E-006  0.2774358E+03  0.7546771E-02  0.1097098E+00
         -2   -1    0    0    0  501 -0.00000000000E+00  0.00000000000E+00  0.33825456084E+02  0.33825456084E+02  0.00000000000E+00 0.  1.
          2   -1    0    0  501    0  0.00000000000E+00 -0.00000000000E+00 -0.56888096274E+03  0.56888096274E+03  0.00000000000E+00 0. -1.
          5    1    1    2  502    0  0.19829481447E+02 -0.60238212935E+02 -0.83096967886E+02  0.10463769256E+03  0.47000000000E+01 0.  1.
         -5    1    1    2    0  502 -0.23088489262E+02  0.22273745953E+01 -0.33006460900E+03  0.33091203612E+03  0.47000000000E+01 0.  1.
        -11    1    1    2    0    0  0.38120999131E+02  0.39957962628E+02 -0.21330379745E+02  0.59201642310E+02  0.00000000000E+00 0.  1.
         11    1    1    2    0    0 -0.34861991315E+02  0.18052875711E+02 -0.10056355003E+03  0.10795504784E+03  0.00000000000E+00 0. -1.
<mgrwt>
<rscale>  0 0.27743582E+03</rscale>
<asrwt>0</asrwt>
<pdfrwt beam="2">  1        2 0.87520145E-01 0.27743582E+03</pdfrwt>
<pdfrwt beam="1">  1       -2 0.52039165E-02 0.27743582E+03</pdfrwt>
<totfact> 0.98446389E+03</totfact>
</mgrwt>
</event>
<event>
 6    1  0.5258538E-006  0.1580605E+03  0.7546771E-02  0.1198473E+00
          2   -1    0    0  501    0  0.00000000000E+00  0.00000000000E+00  0.95503214466E+02  0.95503214466E+02  0.00000000000E+00 0. -1.
         -2   -1    0    0    0  501 -0.00000000000E+00 -0.00000000000E+00 -0.31384353164E+03  0.31384353164E+03  0.00000000000E+00 0.  1.
          5    1    1    2  502    0 -0.30508246144E+02  0.29606927545E+02  0.30063885210E+02  0.52280497658E+02  0.47000000000E+01 0. -1.
         -5    1    1    2    0  502 -0.46716019526E+02 -0.87860758461E+02 -0.35890654210E+02  0.10588733832E+03  0.47000000000E+01 0. -1.
        -11    1    1    2    0    0  0.28967920349E+02  0.52664047222E+01 -0.28214220816E+01  0.29577624154E+02  0.00000000000E+00 0. -1.
         11    1    1    2    0    0  0.48256345321E+02  0.52987426194E+02 -0.20969212609E+03  0.22160128597E+03  0.00000000000E+00 0.  1.
<mgrwt>
<rscale>  0 0.15163920E+03</rscale>
<asrwt>0</asrwt>
<pdfrwt beam="1">  1        2 0.14692802E-01 0.15806047E+03</pdfrwt>
<pdfrwt beam="2">  1       -2 0.48283621E-01 0.15806047E+03</pdfrwt>
<totfact> 0.16109848E+03</totfact>
</mgrwt>
</event>
<event>
 6    1  0.5258538E-006  0.1590458E+03  0.7546771E-02  0.1197327E+00
         -3   -1    0    0    0  501 -0.00000000000E+00  0.00000000000E+00  0.14376619951E+03  0.14376619951E+03  0.00000000000E+00 0.  1.
          3   -1    0    0  501    0  0.00000000000E+00 -0.00000000000E+00 -0.16309918094E+03  0.16309918094E+03  0.00000000000E+00 0. -1.
          5    1    1    2  502    0 -0.73006262389E+02  0.53589518820E+01  0.68487038340E+01  0.73672433498E+02  0.47000000000E+01 0. -1.
         -5    1    1    2    0  502  0.69647069812E+00 -0.72048185705E+02 -0.60432099685E+02  0.94157075184E+02  0.47000000000E+01 0. -1.
        -11    1    1    2    0    0  0.64654982117E+02 -0.28988824726E+01  0.15159348395E+02  0.66471618574E+02  0.00000000000E+00 0.  1.
         11    1    1    2    0    0  0.76548095744E+01  0.69588116296E+02  0.19091066021E+02  0.72564253190E+02  0.00000000000E+00 0. -1.
<mgrwt>
<rscale>  0 0.15258955E+03</rscale>
<asrwt>0</asrwt>
<pdfrwt beam="2">  1        3 0.25092181E-01 0.15904579E+03</pdfrwt>
<pdfrwt beam="1">  1       -3 0.22117877E-01 0.15904579E+03</pdfrwt>
<totfact> 0.66256770E+02</totfact>
</mgrwt>
</event>
<event>
 6    1  0.7309889E-006  0.4193580E+03  0.7546771E-02  0.1037275E+00
          1   -1    0    0  501    0  0.00000000000E+00  0.00000000000E+00  0.23828263391E+03  0.23828263391E+03  0.00000000000E+00 0. -1.
         -1   -1    0    0    0  501 -0.00000000000E+00 -0.00000000000E+00 -0.18450897026E+03  0.18450897026E+03  0.00000000000E+00 0.  1.
          5    1    1    2  502    0  0.12944339767E+02 -0.64286403881E+01  0.68566012835E+02  0.70230132176E+02  0.47000000000E+01 0.  1.
         -5    1    1    2    0  502  0.15671961194E+03  0.84815667406E+01  0.19672465300E+02  0.15824686295E+03  0.47000000000E+01 0.  1.
        -11    1    1    2    0    0 -0.54733419961E+02 -0.27114548263E+02 -0.45501869010E+02  0.76166699230E+02  0.00000000000E+00 0.  1.
         11    1    1    2    0    0 -0.11493053175E+03  0.25061621910E+02  0.11037054518E+02  0.11814790981E+03  0.00000000000E+00 0. -1.
<mgrwt>
<rscale>  0 0.41935800E+03</rscale>
<asrwt>0</asrwt>
<pdfrwt beam="1">  1        1 0.36658867E-01 0.41935800E+03</pdfrwt>
<pdfrwt beam="2">  1       -1 0.28385995E-01 0.41935800E+03</pdfrwt>
<totfact> 0.13249534E+03</totfact>
</mgrwt>
</event>
<event>
 6    1  0.5258538E-006  0.3353950E+03  0.7546771E-02  0.1068774E+00
          2   -1    0    0  501    0  0.00000000000E+00  0.00000000000E+00  0.15081584013E+04  0.15081584013E+04  0.00000000000E+00 0. -1.
         -2   -1    0    0    0  501 -0.00000000000E+00 -0.00000000000E+00 -0.18646886462E+02  0.18646886462E+02  0.00000000000E+00 0.  1.
          5    1    1    2  502    0  0.43682291680E+02 -0.62486589025E+02  0.11915708414E+04  0.11940166985E+04  0.47000000000E+01 0.  1.
         -5    1    1    2    0  502 -0.90945065788E+01 -0.16727696386E+02  0.23888409140E+02  0.30907474299E+02  0.47000000000E+01 0.  1.
        -11    1    1    2    0    0  0.21284186973E+02  0.39665708156E+02  0.48504293062E+02  0.66174401879E+02  0.00000000000E+00 0.  1.
         11    1    1    2    0    0 -0.55871972075E+02  0.39548577255E+02  0.22554797124E+03  0.23570671300E+03  0.00000000000E+00 0. -1.
<mgrwt>
<rscale>  0 0.33539504E+03</rscale>
<asrwt>0</asrwt>
<pdfrwt beam="1">  1        2 0.23202427E+00 0.33539504E+03</pdfrwt>
<pdfrwt beam="2">  1       -2 0.28687529E-02 0.33539504E+03</pdfrwt>
<totfact> 0.61324620E+03</totfact>
</mgrwt>
</event>
<event>
 6    1  0.5258538E-006  0.1368630E+03  0.7546771E-02  0.1230029E+00
         -1   -1    0    0    0  501 -0.00000000000E+00  0.00000000000E+00  0.19336469625E+03  0.19336469625E+03  0.00000000000E+00 0.  1.
          1   -1    0    0  501    0  0.00000000000E+00 -0.00000000000E+00 -0.11379233314E+03  0.11379233314E+03  0.00000000000E+00 0. -1.
          5    1    1    2  502    0 -0.20965771838E+02 -0.12476425273E+02 -0.73845405069E+02  0.77913147967E+02  0.47000000000E+01 0. -1.
         -5    1    1    2    0  502  0.61514254160E+01  0.58842930615E+02  0.29071273638E+02  0.66087513714E+02  0.47000000000E+01 0.  1.
        -11    1    1    2    0    0  0.47113452507E+02 -0.54553412509E+02  0.79942696037E+02  0.10764100925E+03  0.00000000000E+00 0.  1.
         11    1    1    2    0    0 -0.32299106086E+02  0.81869071674E+01  0.44403798501E+02  0.55515358453E+02  0.00000000000E+00 0. -1.
<mgrwt>
<rscale>  0 0.12828104E+03</rscale>
<asrwt>0</asrwt>
<pdfrwt beam="2">  1        1 0.17506513E-01 0.13686295E+03</pdfrwt>
<pdfrwt beam="1">  1       -1 0.29748415E-01 0.13686295E+03</pdfrwt>
<totfact> 0.30420957E+03</totfact>
</mgrwt>
</event>
<event>
 6    1  0.5258538E-006  0.1417249E+03  0.7546771E-02  0.1222179E+00
         -2   -1    0    0    0  501 -0.00000000000E+00  0.00000000000E+00  0.25606378422E+03  0.25606378422E+03  0.00000000000E+00 0.  1.
          2   -1    0    0  501    0  0.00000000000E+00 -0.00000000000E+00 -0.69044616481E+02  0.69044616481E+02  0.00000000000E+00 0. -1.
          5    1    1    2  502    0  0.15516292282E+02  0.17716387322E+02  0.75278190155E+02  0.79015958002E+02  0.47000000000E+01 0.  1.
         -5    1    1    2    0  502 -0.64178284633E+02  0.28027979885E+02 -0.20195605604E+02  0.73036787720E+02  0.47000000000E+01 0.  1.
        -11    1    1    2    0    0  0.18889374041E+02  0.21396156592E+02  0.74619961015E+02  0.79892068132E+02  0.00000000000E+00 0.  1.
         11    1    1    2    0    0  0.29772618309E+02 -0.67140523799E+02  0.57316622177E+02  0.93163586851E+02  0.00000000000E+00 0. -1.
<mgrwt>
<rscale>  0 0.13362143E+03</rscale>
<asrwt>0</asrwt>
<pdfrwt beam="2">  1        2 0.10622249E-01 0.14172490E+03</pdfrwt>
<pdfrwt beam="1">  1       -2 0.39394428E-01 0.14172490E+03</pdfrwt>
<totfact> 0.35000777E+03</totfact>
</mgrwt>
</event>
<event>
 6    1  0.5258538E-006  0.1321148E+03  0.7546771E-02  0.1237756E+00
         -2   -1    0    0    0  501 -0.00000000000E+00  0.00000000000E+00  0.52784522478E+02  0.52784522478E+02  0.00000000000E+00 0.  1.
          2   -1    0    0  501    0  0.00000000000E+00 -0.00000000000E+00 -0.27723796425E+03  0.27723796425E+03  0.00000000000E+00 0. -1.
          5    1    1    2  502    0 -0.40580323728E+02 -0.13110841354E+02 -0.15812593720E+02  0.45725102023E+02  0.47000000000E+01 0. -1.
         -5    1    1    2    0  502  0.66654548792E+02 -0.20799943903E+02 -0.15626124992E+03  0.17121663110E+03  0.47000000000E+01 0. -1.
        -11    1    1    2    0    0  0.29942313443E+02  0.13653913992E+02 -0.40768139099E+02  0.52392868477E+02  0.00000000000E+00 0.  1.
         11    1    1    2    0    0 -0.56016538507E+02  0.20256871265E+02 -0.11611459035E+02  0.60687885123E+02  0.00000000000E+00 0. -1.
<mgrwt>
<rscale>  0 0.12329624E+03</rscale>
<asrwt>0</asrwt>
<pdfrwt beam="2">  1        2 0.42651994E-01 0.13211475E+03</pdfrwt>
<pdfrwt beam="1">  1       -2 0.81206958E-02 0.13211475E+03</pdfrwt>
<totfact> 0.10374868E+04</totfact>
</mgrwt>
</event>
<event>
 6    1  0.5258538E-006  0.1955157E+03  0.7546771E-02  0.1158278E+00
         -3   -1    0    0    0  501 -0.00000000000E+00  0.00000000000E+00  0.84911508759E+02  0.84911508759E+02  0.00000000000E+00 0.  1.
          3   -1    0    0  501    0  0.00000000000E+00 -0.00000000000E+00 -0.44799794345E+03  0.44799794345E+03  0.00000000000E+00 0. -1.
          5    1    1    2  502    0 -0.22299840009E+02 -0.12446653687E+03 -0.27427553790E+03  0.30205688595E+03  0.47000000000E+01 0. -1.
         -5    1    1    2    0  502 -0.29423803210E+02 -0.16693594568E+02  0.74824664984E+00  0.34162642872E+02  0.47000000000E+01 0. -1.
        -11    1    1    2    0    0  0.16670825028E+02  0.28764857827E+02  0.17488295738E+02  0.37565595173E+02  0.00000000000E+00 0.  1.
         11    1    1    2    0    0  0.35052818192E+02  0.11239527361E+03 -0.10704743918E+03  0.15912432821E+03  0.00000000000E+00 0. -1.
<mgrwt>
<rscale>  0 0.19020351E+03</rscale>
<asrwt>0</asrwt>
<pdfrwt beam="2">  1        3 0.68922758E-01 0.19551571E+03</pdfrwt>
<pdfrwt beam="1">  1       -3 0.13063310E-01 0.19551571E+03</pdfrwt>
<totfact> 0.23595423E+02</totfact>
</mgrwt>
</event>
<event>
 6    1  0.5258538E-006  0.1318994E+03  0.7546771E-02  0.1246014E+00
          2   -1    0    0  501    0  0.00000000000E+00  0.00000000000E+00  0.11936718860E+03  0.11936718860E+03  0.00000000000E+00 0. -1.
         -2   -1    0    0    0  501 -0.00000000000E+00 -0.00000000000E+00 -0.10808025562E+03  0.10808025562E+03  0.00000000000E+00 0.  1.
          5    1    1    2  502    0 -0.41668993092E+02  0.41164978733E+02  0.69982588715E+02  0.91381142380E+02  0.47000000000E+01 0. -1.
         -5    1    1    2    0  502  0.34551360802E+02  0.33770639450E+00 -0.30471621029E+02  0.46308965299E+02  0.47000000000E+01 0. -1.
        -11    1    1    2    0    0 -0.37243010698E+01 -0.40039930260E+02 -0.50729047328E+02  0.64734092072E+02  0.00000000000E+00 0.  1.
         11    1    1    2    0    0  0.10841933359E+02 -0.14627548677E+01  0.22505012623E+02  0.25023244473E+02  0.00000000000E+00 0. -1.
<mgrwt>
<rscale>  0 0.11824902E+03</rscale>
<asrwt>0</asrwt>
<pdfrwt beam="1">  1        2 0.18364183E-01 0.13189939E+03</pdfrwt>
<pdfrwt beam="2">  1       -2 0.16627732E-01 0.13189939E+03</pdfrwt>
<totfact> 0.83180313E+03</totfact>
</mgrwt>
</event>
<event>
 6    1  0.5258538E-006  0.3134861E+03  0.7546771E-02  0.1080063E+00
         -2   -1    0    0    0  501 -0.00000000000E+00  0.00000000000E+00  0.18445166943E+03  0.18445166943E+03  0.00000000000E+00 0.  1.
          2   -1    0    0  501    0  0.00000000000E+00 -0.00000000000E+00 -0.61156257025E+03  0.61156257025E+03  0.00000000000E+00 0. -1.
          5    1    1    2  502    0  0.98348003000E+02 -0.11314072793E+02 -0.14370944495E+03  0.17457042276E+03  0.47000000000E+01 0.  1.
         -5    1    1    2    0  502  0.15693170081E+03  0.14353096325E+03 -0.23248750929E+03  0.31512097377E+03  0.47000000000E+01 0.  1.
        -11    1    1    2    0    0 -0.75605984355E+02 -0.75273365658E+00 -0.34431691376E+02  0.83080520276E+02  0.00000000000E+00 0. -1.
         11    1    1    2    0    0 -0.17967371946E+03 -0.13146415680E+03 -0.16482255208E+02  0.22324232288E+03  0.00000000000E+00 0.  1.
<mgrwt>
<rscale>  0 0.31059017E+03</rscale>
<asrwt>0</asrwt>
<pdfrwt beam="2">  1        2 0.94086548E-01 0.31348607E+03</pdfrwt>
<pdfrwt beam="1">  1       -2 0.28377180E-01 0.31348607E+03</pdfrwt>
<totfact> 0.56028479E+02</totfact>
</mgrwt>
</event>
<event>
 6    1  0.5258538E-006  0.1624587E+03  0.7546771E-02  0.1190554E+00
         -3   -1    0    0    0  501 -0.00000000000E+00  0.00000000000E+00  0.24517396380E+03  0.24517396380E+03  0.00000000000E+00 0.  1.
          3   -1    0    0  501    0  0.00000000000E+00 -0.00000000000E+00 -0.10578998719E+03  0.10578998719E+03  0.00000000000E+00 0. -1.
          5    1    1    2  502    0 -0.12904516015E+02  0.10871220758E+03  0.82761090726E+01  0.10988837333E+03  0.47000000000E+01 0. -1.
         -5    1    1    2    0  502  0.50428968744E+02 -0.11966029931E+02  0.15498842614E+02  0.54300744776E+02  0.47000000000E+01 0. -1.
        -11    1    1    2    0    0  0.89197642647E+01 -0.94312791546E+02  0.99925312159E+02  0.13769361951E+03  0.00000000000E+00 0.  1.
         11    1    1    2    0    0 -0.46444216994E+02 -0.24333861076E+01  0.15683712759E+02  0.49081213372E+02  0.00000000000E+00 0. -1.
<mgrwt>
<rscale>  0 0.15836562E+03</rscale>
<asrwt>0</asrwt>
<pdfrwt beam="2">  1        3 0.16275383E-01 0.16245867E+03</pdfrwt>
<pdfrwt beam="1">  1       -3 0.37719071E-01 0.16245867E+03</pdfrwt>
<totfact> 0.53303294E+02</totfact>
</mgrwt>
</event>
<event>
 6    1  0.5258538E-006  0.1629282E+03  0.7546771E-02  0.1192774E+00
          1   -1    0    0  501    0  0.00000000000E+00  0.00000000000E+00  0.38286380046E+03  0.38286380046E+03  0.00000000000E+00 0. -1.
         -1   -1    0    0    0  501 -0.00000000000E+00 -0.00000000000E+00 -0.62882427843E+02  0.62882427843E+02  0.00000000000E+00 0.  1.
          5    1    1    2  502    0  0.29857047664E+02  0.59902985694E+02  0.59486877088E+02  0.89669334424E+02  0.47000000000E+01 0.  1.
         -5    1    1    2    0  502 -0.84361967218E+02  0.29257136799E+02  0.16559047665E+03  0.18818931299E+03  0.47000000000E+01 0.  1.
        -11    1    1    2    0    0  0.27706888943E+02 -0.94464845042E+02  0.99744920206E+02  0.14014395367E+03  0.00000000000E+00 0. -1.
         11    1    1    2    0    0  0.26798030611E+02  0.53047225484E+01 -0.48409013208E+01  0.27743627224E+02  0.00000000000E+00 0.  1.
<mgrwt>
<rscale>  0 0.15644146E+03</rscale>
<asrwt>0</asrwt>
<pdfrwt beam="1">  1        1 0.58902122E-01 0.16292824E+03</pdfrwt>
<pdfrwt beam="2">  1       -1 0.96742199E-02 0.16292824E+03</pdfrwt>
<totfact> 0.40083320E+03</totfact>
</mgrwt>
</event>
<event>
 6    1  0.5258538E-006  0.2204162E+03  0.7546771E-02  0.1169154E+00
          1   -1    0    0  501    0  0.00000000000E+00  0.00000000000E+00  0.11759971853E+04  0.11759971853E+04  0.00000000000E+00 0. -1.
         -1   -1    0    0    0  501 -0.00000000000E+00 -0.00000000000E+00 -0.21549597614E+02  0.21549597614E+02  0.00000000000E+00 0.  1.
          5    1    1    2  502    0  0.10390592960E+03 -0.44468523043E+02  0.67844077205E+03  0.68780655924E+03  0.47000000000E+01 0. -1.
         -5    1    1    2    0  502 -0.78083346174E+02  0.36221114994E+02  0.19849252413E+03  0.21640321222E+03  0.47000000000E+01 0.  1.
        -11    1    1    2    0    0 -0.83408416933E+01 -0.35781426164E+02  0.57170894340E+02  0.67958746738E+02  0.00000000000E+00 0.  1.
         11    1    1    2    0    0 -0.17481741737E+02  0.44028834213E+02  0.22034339713E+03  0.22537826469E+03  0.00000000000E+00 0. -1.
<mgrwt>
<rscale>  0 0.17861098E+03</rscale>
<asrwt>0</asrwt>
<pdfrwt beam="1">  1        1 0.18092259E+00 0.22041621E+03</pdfrwt>
<pdfrwt beam="2">  1       -1 0.33153236E-02 0.22041621E+03</pdfrwt>
<totfact> 0.38548536E+03</totfact>
</mgrwt>
</event>
<event>
 6    1  0.5258538E-006  0.1273806E+03  0.7546771E-02  0.1248830E+00
         -3   -1    0    0    0  501 -0.00000000000E+00  0.00000000000E+00  0.30374052287E+02  0.30374052287E+02  0.00000000000E+00 0.  1.
          3   -1    0    0  501    0  0.00000000000E+00 -0.00000000000E+00 -0.47626375960E+03  0.47626375960E+03  0.00000000000E+00 0. -1.
          5    1    1    2  502    0  0.34184411059E+02  0.59083206380E+02 -0.12824208726E+03  0.14535309484E+03  0.47000000000E+01 0.  1.
         -5    1    1    2    0  502 -0.30649129652E+02 -0.34830489395E+02 -0.23484146851E+03  0.23942668496E+03  0.47000000000E+01 0.  1.
        -11    1    1    2    0    0  0.19488369766E+02 -0.51276548306E+01 -0.89034049935E+02  0.91286096685E+02  0.00000000000E+00 0. -1.
         11    1    1    2    0    0 -0.23023651173E+02 -0.19125062155E+02  0.62278983887E+01  0.30571935400E+02  0.00000000000E+00 0.  1.
<mgrwt>
<rscale>  0 0.11659042E+03</rscale>
<asrwt>0</asrwt>
<pdfrwt beam="2">  1        3 0.73271350E-01 0.12738057E+03</pdfrwt>
<pdfrwt beam="1">  1       -3 0.46729310E-02 0.12738057E+03</pdfrwt>
<totfact> 0.10466905E+03</totfact>
</mgrwt>
</event>
<event>
 6    1  0.5258538E-006  0.1150703E+03  0.7546771E-02  0.1260237E+00
          1   -1    0    0  501    0  0.00000000000E+00  0.00000000000E+00  0.55940659866E+03  0.55940659866E+03  0.00000000000E+00 0. -1.
         -1   -1    0    0    0  501 -0.00000000000E+00 -0.00000000000E+00 -0.22021727939E+02  0.22021727939E+02  0.00000000000E+00 0.  1.
          5    1    1    2  502    0  0.43157508911E+02  0.60183727089E+02  0.25271441057E+03  0.26338434823E+03  0.47000000000E+01 0. -1.
         -5    1    1    2    0  502 -0.25156792258E+02 -0.31662885342E+02  0.12394867873E+03  0.13046366339E+03  0.47000000000E+01 0.  1.
        -11    1    1    2    0    0 -0.30924704661E+02 -0.44979659870E+02  0.47248934597E+02  0.72193967760E+02  0.00000000000E+00 0.  1.
         11    1    1    2    0    0  0.12923988008E+02  0.16458818122E+02  0.11347284682E+03  0.11538634723E+03  0.00000000000E+00 0. -1.
<mgrwt>
<rscale>  0 0.11017986E+03</rscale>
<asrwt>0</asrwt>
<pdfrwt beam="1">  1        1 0.86062543E-01 0.11507030E+03</pdfrwt>
<pdfrwt beam="2">  1       -1 0.33879586E-02 0.11507030E+03</pdfrwt>
<totfact> 0.11477077E+04</totfact>
</mgrwt>
</event>
<event>
 6    1  0.5258538E-006  0.1368405E+03  0.7546771E-02  0.1229269E+00
          1   -1    0    0  501    0  0.00000000000E+00  0.00000000000E+00  0.19976476984E+03  0.19976476984E+03  0.00000000000E+00 0. -1.
         -1   -1    0    0    0  501 -0.00000000000E+00 -0.00000000000E+00 -0.80209279815E+02  0.80209279815E+02  0.00000000000E+00 0.  1.
          5    1    1    2  502    0  0.43695275209E+02  0.64960948173E+02  0.54642262009E+02  0.95588015256E+02  0.47000000000E+01 0.  1.
         -5    1    1    2    0  502  0.11400727535E+02 -0.56891496599E+02  0.48529314386E+02  0.75787883783E+02  0.47000000000E+01 0.  1.
        -11    1    1    2    0    0  0.36171768790E+01 -0.34766117744E+02  0.25762691760E+02  0.43422151009E+02  0.00000000000E+00 0. -1.
         11    1    1    2    0    0 -0.58713179623E+02  0.26696666170E+02 -0.93787781269E+01  0.65175999610E+02  0.00000000000E+00 0.  1.
<mgrwt>
<rscale>  0 0.12878543E+03</rscale>
<asrwt>0</asrwt>
<pdfrwt beam="1">  1        1 0.30733041E-01 0.13684051E+03</pdfrwt>
<pdfrwt beam="2">  1       -1 0.12339889E-01 0.13684051E+03</pdfrwt>
<totfact> 0.61344885E+03</totfact>
</mgrwt>
</event>
<event>
 6    1  0.5258538E-006  0.2663950E+03  0.7546771E-02  0.1103361E+00
          1   -1    0    0  501    0  0.00000000000E+00  0.00000000000E+00  0.40394219587E+03  0.40394219587E+03  0.00000000000E+00 0. -1.
         -1   -1    0    0    0  501 -0.00000000000E+00 -0.00000000000E+00 -0.43921058901E+02  0.43921058901E+02  0.00000000000E+00 0.  1.
          5    1    1    2  502    0 -0.31683317481E+02 -0.41689197016E+01  0.14235994866E+03  0.14597827742E+03  0.47000000000E+01 0. -1.
         -5    1    1    2    0  502  0.94000524167E+02  0.23714965694E+02  0.96475830873E+02  0.13685091919E+03  0.47000000000E+01 0.  1.
        -11    1    1    2    0    0 -0.60859712207E+01 -0.48175681079E+02  0.59395963486E+02  0.76719070455E+02  0.00000000000E+00 0.  1.
         11    1    1    2    0    0 -0.56231235466E+02  0.28629635086E+02  0.61789393957E+02  0.88314987701E+02  0.00000000000E+00 0. -1.
<mgrwt>
<rscale>  0 0.26639496E+03</rscale>
<asrwt>0</asrwt>
<pdfrwt beam="1">  1        1 0.62144951E-01 0.26639496E+03</pdfrwt>
<pdfrwt beam="2">  1       -1 0.67570863E-02 0.26639496E+03</pdfrwt>
<totfact> 0.66215721E+03</totfact>
</mgrwt>
</event>
<event>
 6    1  0.5258538E-006  0.1324457E+03  0.7546771E-02  0.1238218E+00
         -2   -1    0    0    0  501 -0.00000000000E+00  0.00000000000E+00  0.14716152067E+03  0.14716152067E+03  0.00000000000E+00 0.  1.
          2   -1    0    0  501    0  0.00000000000E+00 -0.00000000000E+00 -0.10372129225E+03  0.10372129225E+03  0.00000000000E+00 0. -1.
          5    1    1    2  502    0 -0.43944924130E+02  0.58129404611E+02  0.32648063872E+01  0.73095369197E+02  0.47000000000E+01 0.  1.
         -5    1    1    2    0  502  0.22585400158E+00 -0.56125560088E+02 -0.22891217322E+02  0.60796606285E+02  0.47000000000E+01 0.  1.
        -11    1    1    2    0    0  0.83298858288E+01 -0.85075052632E+01 -0.21784360810E+02  0.24825853855E+02  0.00000000000E+00 0. -1.
         11    1    1    2    0    0  0.35389184300E+02  0.65036607401E+01  0.84851000166E+02  0.92164983576E+02  0.00000000000E+00 0.  1.
<mgrwt>
<rscale>  0 0.12300642E+03</rscale>
<asrwt>0</asrwt>
<pdfrwt beam="2">  1        2 0.15957122E-01 0.13244571E+03</pdfrwt>
<pdfrwt beam="1">  1       -2 0.22640234E-01 0.13244571E+03</pdfrwt>
<totfact> 0.58151568E+03</totfact>
</mgrwt>
</event>
<event>
 6    1  0.5258538E-006  0.1429571E+03  0.7546771E-02  0.1219209E+00
         -3   -1    0    0    0  501 -0.00000000000E+00  0.00000000000E+00  0.10756992237E+03  0.10756992237E+03  0.00000000000E+00 0.  1.
          3   -1    0    0  501    0  0.00000000000E+00 -0.00000000000E+00 -0.15611677904E+03  0.15611677904E+03  0.00000000000E+00 0. -1.
          5    1    1    2  502    0 -0.36688820421E+02  0.46145561299E+02  0.63799357570E+01  0.59483409046E+02  0.47000000000E+01 0. -1.
         -5    1    1    2    0  502  0.77753390985E+02  0.97650375468E+01 -0.36671260503E+02  0.86647660758E+02  0.47000000000E+01 0. -1.
        -11    1    1    2    0    0 -0.29724049382E+02  0.16062978302E+02 -0.28212563026E+02  0.44016895576E+02  0.00000000000E+00 0. -1.
         11    1    1    2    0    0 -0.11340521182E+02 -0.71973577147E+02  0.99570311004E+01  0.73538736027E+02  0.00000000000E+00 0.  1.
<mgrwt>
<rscale>  0 0.13571876E+03</rscale>
<asrwt>0</asrwt>
<pdfrwt beam="2">  1        3 0.24017966E-01 0.14295707E+03</pdfrwt>
<pdfrwt beam="1">  1       -3 0.16549219E-01 0.14295707E+03</pdfrwt>
<totfact> 0.11746290E+03</totfact>
</mgrwt>
</event>
<event>
 6    1  0.5258538E-006  0.1269436E+03  0.7546771E-02  0.1246646E+00
          2   -1    0    0  501    0  0.00000000000E+00  0.00000000000E+00  0.12132710017E+03  0.12132710017E+03  0.00000000000E+00 0. -1.
         -2   -1    0    0    0  501 -0.00000000000E+00 -0.00000000000E+00 -0.10852940759E+03  0.10852940759E+03  0.00000000000E+00 0.  1.
          5    1    1    2  502    0  0.28037771564E+02  0.36915525284E+02  0.51947827508E+02  0.69782085266E+02  0.47000000000E+01 0. -1.
         -5    1    1    2    0  502 -0.50013203751E+02 -0.34313789349E+02 -0.14560203855E+02  0.62552747544E+02  0.47000000000E+01 0. -1.
        -11    1    1    2    0    0 -0.19610566660E+02  0.43168161675E+01  0.25238485434E+02  0.32251982474E+02  0.00000000000E+00 0. -1.
         11    1    1    2    0    0  0.41585998847E+02 -0.69185521016E+01 -0.49828416510E+02  0.65269692470E+02  0.00000000000E+00 0.  1.
<mgrwt>
<rscale>  0 0.11787379E+03</rscale>
<asrwt>0</asrwt>
<pdfrwt beam="1">  1        2 0.18665708E-01 0.12694358E+03</pdfrwt>
<pdfrwt beam="2">  1       -2 0.16696832E-01 0.12694358E+03</pdfrwt>
<totfact> 0.80847539E+03</totfact>
</mgrwt>
</event>
<event>
 6    1  0.5258538E-006  0.1748255E+03  0.7546771E-02  0.1197415E+00
         -1   -1    0    0    0  501 -0.00000000000E+00  0.00000000000E+00  0.41137668514E+02  0.41137668514E+02  0.00000000000E+00 0.  1.
          1   -1    0    0  501    0  0.00000000000E+00 -0.00000000000E+00 -0.65284442505E+03  0.65284442505E+03  0.00000000000E+00 0. -1.
          5    1    1    2  502    0  0.76891545591E+02  0.64364838295E+02 -0.46150351836E+03  0.47229517216E+03  0.47000000000E+01 0. -1.
         -5    1    1    2    0  502 -0.43090373636E+02 -0.34389115379E+02 -0.84407544577E+02  0.10092628567E+03  0.47000000000E+01 0.  1.
        -11    1    1    2    0    0 -0.48443302872E+02 -0.44278545811E+02 -0.16926431800E+02  0.67777926390E+02  0.00000000000E+00 0.  1.
         11    1    1    2    0    0  0.14642130917E+02  0.14302822895E+02 -0.48869261797E+02  0.52982709341E+02  0.00000000000E+00 0. -1.
<mgrwt>
<rscale>  0 0.15251604E+03</rscale>
<asrwt>0</asrwt>
<pdfrwt beam="2">  1        1 0.10043760E+00 0.17482549E+03</pdfrwt>
<pdfrwt beam="1">  1       -1 0.63288723E-02 0.17482549E+03</pdfrwt>
<totfact> 0.37782439E+03</totfact>
</mgrwt>
</event>
<event>
 6    1  0.5258538E-006  0.1257678E+03  0.7546771E-02  0.1242894E+00
         -1   -1    0    0    0  501 -0.00000000000E+00  0.00000000000E+00  0.43262341046E+02  0.43262341046E+02  0.00000000000E+00 0.  1.
          1   -1    0    0  501    0  0.00000000000E+00 -0.00000000000E+00 -0.31315855208E+03  0.31315855208E+03  0.00000000000E+00 0. -1.
          5    1    1    2  502    0 -0.61901122356E+02 -0.17294590538E+02 -0.91507947581E+02  0.11192250123E+03  0.47000000000E+01 0. -1.
         -5    1    1    2    0  502  0.50062652630E+02 -0.35005171870E+02 -0.80748915590E+02  0.10136127769E+03  0.47000000000E+01 0.  1.
        -11    1    1    2    0    0 -0.26004246561E+02  0.30200659841E+02 -0.90300512297E+02  0.98704018232E+02  0.00000000000E+00 0. -1.
         11    1    1    2    0    0  0.37842716287E+02  0.22099102567E+02 -0.73388355626E+01  0.44433095972E+02  0.00000000000E+00 0.  1.
<mgrwt>
<rscale>  0 0.12012341E+03</rscale>
<asrwt>0</asrwt>
<pdfrwt beam="2">  1        1 0.48178239E-01 0.12576782E+03</pdfrwt>
<pdfrwt beam="1">  1       -1 0.66557447E-02 0.12576782E+03</pdfrwt>
<totfact> 0.89266824E+03</totfact>
</mgrwt>
</event>
<event>
 6    1  0.5258538E-006  0.1375376E+03  0.7546771E-02  0.1226050E+00
         -1   -1    0    0    0  501 -0.00000000000E+00  0.00000000000E+00  0.18894165995E+03  0.18894165995E+03  0.00000000000E+00 0.  1.
          1   -1    0    0  501    0  0.00000000000E+00 -0.00000000000E+00 -0.86704338519E+02  0.86704338519E+02  0.00000000000E+00 0. -1.
          5    1    1    2  502    0  0.70073935860E+02 -0.18978429540E+02 -0.15506291279E+02  0.74384624379E+02  0.47000000000E+01 0. -1.
         -5    1    1    2    0  502 -0.39617797731E+02 -0.29638602029E+02  0.43336105707E+02  0.65940311533E+02  0.47000000000E+01 0. -1.
        -11    1    1    2    0    0 -0.62078970072E+02  0.43831579222E+02  0.32619613711E+02  0.82698519098E+02  0.00000000000E+00 0. -1.
         11    1    1    2    0    0  0.31622831943E+02  0.47854523468E+01  0.41787893291E+02  0.52622543457E+02  0.00000000000E+00 0.  1.
<mgrwt>
<rscale>  0 0.13095211E+03</rscale>
<asrwt>0</asrwt>
<pdfrwt beam="2">  1        1 0.13339129E-01 0.13753759E+03</pdfrwt>
<pdfrwt beam="1">  1       -1 0.29067948E-01 0.13753759E+03</pdfrwt>
<totfact> 0.44960233E+03</totfact>
</mgrwt>
</event>
<event>
 6    1  0.5258538E-006  0.1332249E+03  0.7546771E-02  0.1235342E+00
          1   -1    0    0  501    0  0.00000000000E+00  0.00000000000E+00  0.21760385169E+03  0.21760385169E+03  0.00000000000E+00 0. -1.
         -1   -1    0    0    0  501 -0.00000000000E+00 -0.00000000000E+00 -0.87245136254E+02  0.87245136254E+02  0.00000000000E+00 0.  1.
          5    1    1    2  502    0 -0.10522967422E+02  0.18194003097E+01  0.16055914948E+03  0.16098252558E+03  0.47000000000E+01 0. -1.
         -5    1    1    2    0  502 -0.23346708898E+02  0.29427356885E+02 -0.10889557074E+02  0.39391758057E+02  0.47000000000E+01 0. -1.
        -11    1    1    2    0    0  0.49436401652E+02 -0.44944332981E+02 -0.37738639470E+02  0.76734319469E+02  0.00000000000E+00 0.  1.
         11    1    1    2    0    0 -0.15566725332E+02  0.13697575787E+02  0.18427762497E+02  0.27740384832E+02  0.00000000000E+00 0. -1.
<mgrwt>
<rscale>  0 0.12482588E+03</rscale>
<asrwt>0</asrwt>
<pdfrwt beam="1">  1        1 0.33477516E-01 0.13322487E+03</pdfrwt>
<pdfrwt beam="2">  1       -1 0.13422329E-01 0.13322487E+03</pdfrwt>
<totfact> 0.48348577E+03</totfact>
</mgrwt>
</event>
<event>
 6    1  0.5258538E-006  0.3774945E+03  0.7546771E-02  0.1051864E+00
          2   -1    0    0  501    0  0.00000000000E+00  0.00000000000E+00  0.48963346227E+03  0.48963346227E+03  0.00000000000E+00 0. -1.
         -2   -1    0    0    0  501 -0.00000000000E+00 -0.00000000000E+00 -0.72759564875E+02  0.72759564875E+02  0.00000000000E+00 0.  1.
          5    1    1    2  502    0  0.30412375348E+02 -0.26731538569E+02  0.88979675881E+01  0.41722314842E+02  0.47000000000E+01 0.  1.
         -5    1    1    2    0  502  0.11484512171E+03  0.73838764978E+02  0.23715878004E+03  0.27369315327E+03  0.47000000000E+01 0.  1.
        -11    1    1    2    0    0 -0.84044222874E+02 -0.42302542654E+02  0.15854399556E+03  0.18436142504E+03  0.00000000000E+00 0. -1.
         11    1    1    2    0    0 -0.61213274186E+02 -0.48046837547E+01  0.12273154204E+02  0.62616133996E+02  0.00000000000E+00 0.  1.
<mgrwt>
<rscale>  0 0.37749446E+03</rscale>
<asrwt>0</asrwt>
<pdfrwt beam="1">  1        2 0.75328223E-01 0.37749446E+03</pdfrwt>
<pdfrwt beam="2">  1       -2 0.11193779E-01 0.37749446E+03</pdfrwt>
<totfact> 0.35461489E+03</totfact>
</mgrwt>
</event>
<event>
 6    1  0.5258538E-006  0.1368589E+03  0.7546771E-02  0.1228863E+00
          1   -1    0    0  501    0  0.00000000000E+00  0.00000000000E+00  0.99015068507E+02  0.99015068507E+02  0.00000000000E+00 0. -1.
         -1   -1    0    0    0  501 -0.00000000000E+00 -0.00000000000E+00 -0.15292996532E+03  0.15292996532E+03  0.00000000000E+00 0.  1.
          5    1    1    2  502    0  0.22653710565E+01 -0.37659023558E+02  0.33947936345E+02  0.50969464814E+02  0.47000000000E+01 0.  1.
         -5    1    1    2    0  502  0.49579432762E+02  0.17226628742E+02 -0.75474493649E+02  0.92050888547E+02  0.47000000000E+01 0.  1.
        -11    1    1    2    0    0 -0.48536153389E+02 -0.21490082982E+02 -0.32573295261E+02  0.62278418545E+02  0.00000000000E+00 0.  1.
         11    1    1    2    0    0 -0.33086504298E+01  0.41922477799E+02  0.20184955751E+02  0.46646261920E+02  0.00000000000E+00 0. -1.
<mgrwt>
<rscale>  0 0.12905643E+03</rscale>
<asrwt>0</asrwt>
<pdfrwt beam="1">  1        1 0.15233087E-01 0.13685893E+03</pdfrwt>
<pdfrwt beam="2">  1       -1 0.23527687E-01 0.13685893E+03</pdfrwt>
<totfact> 0.53644421E+03</totfact>
</mgrwt>
</event>
<event>
 6    1  0.5258538E-006  0.1324095E+03  0.7546771E-02  0.1237325E+00
          1   -1    0    0  501    0  0.00000000000E+00  0.00000000000E+00  0.34610305558E+03  0.34610305558E+03  0.00000000000E+00 0. -1.
         -1   -1    0    0    0  501 -0.00000000000E+00 -0.00000000000E+00 -0.48591643103E+02  0.48591643103E+02  0.00000000000E+00 0.  1.
          5    1    1    2  502    0 -0.84220835368E+02  0.98111531241E+01  0.12679862741E+03  0.15260861624E+03  0.47000000000E+01 0. -1.
         -5    1    1    2    0  502  0.41832824268E+02  0.80443813072E+00  0.12470311878E+03  0.13161911009E+03  0.47000000000E+01 0. -1.
        -11    1    1    2    0    0  0.78022675534E+01  0.11074934135E+02 -0.25070813747E+02  0.28496933993E+02  0.00000000000E+00 0.  1.
         11    1    1    2    0    0  0.34585743546E+02 -0.21690525389E+02  0.71080480021E+02  0.81970038358E+02  0.00000000000E+00 0. -1.
<mgrwt>
<rscale>  0 0.12356758E+03</rscale>
<asrwt>0</asrwt>
<pdfrwt beam="1">  1        1 0.53246622E-01 0.13240949E+03</pdfrwt>
<pdfrwt beam="2">  1       -1 0.74756376E-02 0.13240949E+03</pdfrwt>
<totfact> 0.66495319E+03</totfact>
</mgrwt>
</event>
<event>
 6    1  0.5258538E-006  0.2950162E+03  0.7546771E-02  0.1090001E+00
         -1   -1    0    0    0  501 -0.00000000000E+00  0.00000000000E+00  0.13919065850E+03  0.13919065850E+03  0.00000000000E+00 0.  1.
          1   -1    0    0  501    0  0.00000000000E+00 -0.00000000000E+00 -0.69339276518E+03  0.69339276518E+03  0.00000000000E+00 0. -1.
          5    1    1    2  502    0 -0.21305681950E+03  0.14852571772E+03 -0.35733681413E+03  0.44177458720E+03  0.47000000000E+01 0. -1.
         -5    1    1    2    0  502  0.10602281222E+02  0.25885028472E+02 -0.87640750181E+02  0.92116416335E+02  0.47000000000E+01 0. -1.
        -11    1    1    2    0    0  0.54922784202E+02 -0.93127801614E+02 -0.57679497161E+02  0.12254070365E+03  0.00000000000E+00 0. -1.
         11    1    1    2    0    0  0.14753175408E+03 -0.81282944580E+02 -0.51545045204E+02  0.17615171650E+03  0.00000000000E+00 0.  1.
<mgrwt>
<rscale>  0 0.29066841E+03</rscale>
<asrwt>0</asrwt>
<pdfrwt beam="2">  1        1 0.10667581E+00 0.29501622E+03</pdfrwt>
<pdfrwt beam="1">  1       -1 0.21413947E-01 0.29501622E+03</pdfrwt>
<totfact> 0.51702771E+02</totfact>
</mgrwt>
</event>
<event>
 6    1  0.5258538E-006  0.1772870E+03  0.7546771E-02  0.1177918E+00
          2   -1    0    0  501    0  0.00000000000E+00  0.00000000000E+00  0.19713333727E+03  0.19713333727E+03  0.00000000000E+00 0. -1.
         -2   -1    0    0    0  501 -0.00000000000E+00 -0.00000000000E+00 -0.14500546814E+03  0.14500546814E+03  0.00000000000E+00 0.  1.
          5    1    1    2  502    0  0.24018295440E+02 -0.11700320071E+03  0.38275852121E+02  0.12551397670E+03  0.47000000000E+01 0. -1.
         -5    1    1    2    0  502 -0.56219018951E+02 -0.45287016541E+01  0.33376321070E+02  0.65705068592E+02  0.47000000000E+01 0. -1.
        -11    1    1    2    0    0  0.31612257145E+02  0.83308452912E+02  0.24698538533E+02  0.92464322493E+02  0.00000000000E+00 0. -1.
         11    1    1    2    0    0  0.58846636542E+00  0.38223449453E+02 -0.44222842593E+02  0.58455437624E+02  0.00000000000E+00 0.  1.
<mgrwt>
<rscale>  0 0.16993311E+03</rscale>
<asrwt>0</asrwt>
<pdfrwt beam="1">  1        2 0.30328206E-01 0.17728703E+03</pdfrwt>
<pdfrwt beam="2">  1       -2 0.22308533E-01 0.17728703E+03</pdfrwt>
<totfact> 0.29469851E+03</totfact>
</mgrwt>
</event>
<event>
 6    1  0.5258538E-006  0.1383927E+03  0.7546771E-02  0.1228154E+00
          2   -1    0    0  501    0  0.00000000000E+00  0.00000000000E+00  0.53306033562E+02  0.53306033562E+02  0.00000000000E+00 0. -1.
         -2   -1    0    0    0  501 -0.00000000000E+00 -0.00000000000E+00 -0.51273376417E+03  0.51273376417E+03  0.00000000000E+00 0.  1.
          5    1    1    2  502    0  0.23181467810E+02 -0.59015934056E+02  0.79148631886E+01  0.64070242560E+02  0.47000000000E+01 0. -1.
         -5    1    1    2    0  502 -0.27487871370E+02  0.48515615438E+02 -0.64638789359E+02  0.85496263682E+02  0.47000000000E+01 0.  1.
        -11    1    1    2    0    0 -0.45491570279E+02  0.38238046758E+01 -0.10407498019E+03  0.11364728748E+03  0.00000000000E+00 0. -1.
         11    1    1    2    0    0  0.49797973838E+02  0.66765139424E+01 -0.29862882425E+03  0.30282600401E+03  0.00000000000E+00 0.  1.
<mgrwt>
<rscale>  0 0.12953043E+03</rscale>
<asrwt>0</asrwt>
<pdfrwt beam="1">  1        2 0.82009281E-02 0.13839269E+03</pdfrwt>
<pdfrwt beam="2">  1       -2 0.78882119E-01 0.13839269E+03</pdfrwt>
<totfact> 0.11779598E+03</totfact>
</mgrwt>
</event>
<event>
 6    1  0.5258538E-006  0.2745609E+03  0.7546771E-02  0.1100818E+00
          1   -1    0    0  501    0  0.00000000000E+00  0.00000000000E+00  0.54028112018E+03  0.54028112018E+03  0.00000000000E+00 0. -1.
         -1   -1    0    0    0  501 -0.00000000000E+00 -0.00000000000E+00 -0.15184087741E+03  0.15184087741E+03  0.00000000000E+00 0.  1.
          5    1    1    2  502    0 -0.68413072540E+02 -0.79345812907E+01  0.19641011279E+02  0.71771619731E+02  0.47000000000E+01 0. -1.
         -5    1    1    2    0  502 -0.17359603130E+03  0.42386032179E+02  0.30380562577E+03  0.35249412202E+03  0.47000000000E+01 0. -1.
        -11    1    1    2    0    0  0.56151406137E+02 -0.35530115047E+02  0.46447445266E+02  0.81072403801E+02  0.00000000000E+00 0. -1.
         11    1    1    2    0    0  0.18585769771E+03  0.10786641585E+01  0.18546160453E+02  0.18678385204E+03  0.00000000000E+00 0.  1.
<mgrwt>
<rscale>  0 0.27080728E+03</rscale>
<asrwt>0</asrwt>
<pdfrwt beam="1">  1        1 0.83120171E-01 0.27456091E+03</pdfrwt>
<pdfrwt beam="2">  1       -1 0.23360135E-01 0.27456091E+03</pdfrwt>
<totfact> 0.63679462E+02</totfact>
</mgrwt>
</event>
<event>
 6    1  0.5258538E-006  0.2893996E+03  0.7546771E-02  0.1092376E+00
         -1   -1    0    0    0  501 -0.00000000000E+00  0.00000000000E+00  0.16173688536E+03  0.16173688536E+03  0.00000000000E+00 0.  1.
          1   -1    0    0  501    0  0.00000000000E+00 -0.00000000000E+00 -0.67104902916E+03  0.67104902916E+03  0.00000000000E+00 0. -1.
          5    1    1    2  502    0 -0.12162602276E+03 -0.14824871558E+03 -0.30180291353E+03  0.35759985976E+03  0.47000000000E+01 0. -1.
         -5    1    1    2    0  502  0.24575345219E+02 -0.94049678568E+02 -0.17019607999E+03  0.19605633190E+03  0.47000000000E+01 0. -1.
        -11    1    1    2    0    0  0.68925788637E+02  0.77154736179E+02 -0.41712127511E+02  0.11155052324E+03  0.00000000000E+00 0. -1.
         11    1    1    2    0    0  0.28124888908E+02  0.16514365797E+03  0.43989772289E+01  0.16757919962E+03  0.00000000000E+00 0.  1.
<mgrwt>
<rscale>  0 0.28615156E+03</rscale>
<asrwt>0</asrwt>
<pdfrwt beam="2">  1        1 0.10323831E+00 0.28939960E+03</pdfrwt>
<pdfrwt beam="1">  1       -1 0.24882598E-01 0.28939960E+03</pdfrwt>
<totfact> 0.42291425E+02</totfact>
</mgrwt>
</event>
<event>
 6    1  0.5258538E-006  0.1323195E+03  0.7546771E-02  0.1235802E+00
          1   -1    0    0  501    0  0.00000000000E+00  0.00000000000E+00  0.66473501940E+03  0.66473501940E+03  0.00000000000E+00 0. -1.
         -1   -1    0    0    0  501 -0.00000000000E+00 -0.00000000000E+00 -0.56796257594E+02  0.56796257594E+02  0.00000000000E+00 0.  1.
          5    1    1    2  502    0 -0.77652813638E+01  0.58948646235E+02  0.13867354485E+03  0.15095590260E+03  0.47000000000E+01 0.  1.
         -5    1    1    2    0  502 -0.27555152681E+02 -0.33697775901E+02  0.46459873418E+03  0.46665715503E+03  0.47000000000E+01 0.  1.
        -11    1    1    2    0    0 -0.27269359425E+02 -0.27582543308E+02 -0.89865051730E+01  0.39814217736E+02  0.00000000000E+00 0. -1.
         11    1    1    2    0    0  0.62589793470E+02  0.23316729728E+01  0.13652987953E+02  0.64104001634E+02  0.00000000000E+00 0.  1.
<mgrwt>
<rscale>  0 0.12453207E+03</rscale>
<asrwt>0</asrwt>
<pdfrwt beam="1">  1        1 0.10226692E+00 0.13231949E+03</pdfrwt>
<pdfrwt beam="2">  1       -1 0.87378863E-02 0.13231949E+03</pdfrwt>
<totfact> 0.22450038E+03</totfact>
</mgrwt>
</event>
<event>
 6    1  0.5258538E-006  0.3146114E+03  0.7546771E-02  0.1078156E+00
          1   -1    0    0  501    0  0.00000000000E+00  0.00000000000E+00  0.87400528711E+03  0.87400528711E+03  0.00000000000E+00 0. -1.
         -1   -1    0    0    0  501 -0.00000000000E+00 -0.00000000000E+00 -0.28312272303E+02  0.28312272303E+02  0.00000000000E+00 0.  1.
          5    1    1    2  502    0 -0.98686932868E+02  0.55137639999E+01  0.49953659987E+03  0.50924298417E+03  0.47000000000E+01 0. -1.
         -5    1    1    2    0  502 -0.73323360054E+01 -0.40268329723E+02  0.66032543578E+02  0.77831152769E+02  0.47000000000E+01 0.  1.
        -11    1    1    2    0    0  0.46184772028E+02  0.59548618589E+01  0.22250506483E+03  0.22732575178E+03  0.00000000000E+00 0. -1.
         11    1    1    2    0    0  0.59834496845E+02  0.28799703864E+02  0.57618806530E+02  0.87917670699E+02  0.00000000000E+00 0.  1.
<mgrwt>
<rscale>  0 0.31461135E+03</rscale>
<asrwt>0</asrwt>
<pdfrwt beam="1">  1        1 0.13446233E+00 0.31461135E+03</pdfrwt>
<pdfrwt beam="2">  1       -1 0.43557349E-02 0.31461135E+03</pdfrwt>
<totfact> 0.43450544E+03</totfact>
</mgrwt>
</event>
<event>
 6    1  0.5258538E-006  0.1785360E+03  0.7546771E-02  0.1174586E+00
         -2   -1    0    0    0  501 -0.00000000000E+00  0.00000000000E+00  0.34533911998E+03  0.34533911998E+03  0.00000000000E+00 0.  1.
          2   -1    0    0  501    0  0.00000000000E+00 -0.00000000000E+00 -0.83042599301E+02  0.83042599301E+02  0.00000000000E+00 0. -1.
          5    1    1    2  502    0 -0.50796047141E+01 -0.99539108981E+02  0.28481352922E+02  0.10376470530E+03  0.47000000000E+01 0.  1.
         -5    1    1    2    0  502  0.12091921744E+02 -0.27744379911E+02  0.13460549584E+03  0.13804598762E+03  0.47000000000E+01 0.  1.
        -11    1    1    2    0    0  0.16144458096E+02  0.13286417987E+03  0.79642772320E+02  0.15574499993E+03  0.00000000000E+00 0.  1.
         11    1    1    2    0    0 -0.23156775126E+02 -0.55806909762E+01  0.19566899599E+02  0.30826026438E+02  0.00000000000E+00 0. -1.
<mgrwt>
<rscale>  0 0.17316628E+03</rscale>
<asrwt>0</asrwt>
<pdfrwt beam="2">  1        2 0.12775785E-01 0.17853597E+03</pdfrwt>
<pdfrwt beam="1">  1       -2 0.53129095E-01 0.17853597E+03</pdfrwt>
<totfact> 0.15804076E+03</totfact>
</mgrwt>
</event>
<event>
 6    1  0.5258538E-006  0.1431350E+03  0.7546771E-02  0.1220024E+00
         -2   -1    0    0    0  501 -0.00000000000E+00  0.00000000000E+00  0.36984002959E+02  0.36984002959E+02  0.00000000000E+00 0.  1.
          2   -1    0    0  501    0  0.00000000000E+00 -0.00000000000E+00 -0.45251005900E+03  0.45251005900E+03  0.00000000000E+00 0. -1.
          5    1    1    2  502    0  0.14064146085E+02  0.99698455591E+02 -0.15713970803E+03  0.18668840374E+03  0.47000000000E+01 0. -1.
         -5    1    1    2    0  502 -0.26570698465E+02 -0.31092310074E+02 -0.44914962370E+02  0.60927642391E+02  0.47000000000E+01 0. -1.
        -11    1    1    2    0    0  0.33333261083E+02 -0.24545791479E+01 -0.12540236824E+03  0.12978014183E+03  0.00000000000E+00 0. -1.
         11    1    1    2    0    0 -0.20826708704E+02 -0.66151566369E+02 -0.88069017405E+02  0.11209787400E+03  0.00000000000E+00 0.  1.
<mgrwt>
<rscale>  0 0.13513873E+03</rscale>
<asrwt>0</asrwt>
<pdfrwt beam="2">  1        2 0.69616932E-01 0.14313496E+03</pdfrwt>
<pdfrwt beam="1">  1       -2 0.56898466E-02 0.14313496E+03</pdfrwt>
<totfact> 0.10663612E+04</totfact>
</mgrwt>
</event>
<event>
 6    1  0.5258538E-006  0.3053697E+03  0.7546771E-02  0.1084051E+00
         -1   -1    0    0    0  501 -0.00000000000E+00  0.00000000000E+00  0.26895805129E+03  0.26895805129E+03  0.00000000000E+00 0.  1.
          1   -1    0    0  501    0  0.00000000000E+00 -0.00000000000E+00 -0.38752792129E+03  0.38752792129E+03  0.00000000000E+00 0. -1.
          5    1    1    2  502    0 -0.41242026445E+02 -0.69456962621E+02 -0.61361206571E+02  0.10155029332E+03  0.47000000000E+01 0.  1.
         -5    1    1    2    0  502 -0.22251641848E+03 -0.20303354098E+02 -0.12145270876E+03  0.25435926000E+03  0.47000000000E+01 0.  1.
        -11    1    1    2    0    0  0.25986934229E+03  0.10286733895E+03  0.57542641444E+02  0.28535052141E+03  0.00000000000E+00 0.  1.
         11    1    1    2    0    0  0.38891026414E+01 -0.13107022233E+02  0.67014038894E+01  0.15225897848E+02  0.00000000000E+00 0. -1.
<mgrwt>
<rscale>  0 0.30239166E+03</rscale>
<asrwt>0</asrwt>
<pdfrwt beam="2">  1        1 0.59619680E-01 0.30536975E+03</pdfrwt>
<pdfrwt beam="1">  1       -1 0.41378162E-01 0.30536975E+03</pdfrwt>
<totfact> 0.36839138E+02</totfact>
</mgrwt>
</event>
<event>
 6    1  0.5258538E-006  0.1572366E+03  0.7546771E-02  0.1200050E+00
          3   -1    0    0  501    0  0.00000000000E+00  0.00000000000E+00  0.72787778427E+02  0.72787778427E+02  0.00000000000E+00 0. -1.
         -3   -1    0    0    0  501 -0.00000000000E+00 -0.00000000000E+00 -0.30252608694E+03  0.30252608694E+03  0.00000000000E+00 0.  1.
          5    1    1    2  502    0  0.65496443418E+02 -0.42110879010E+02 -0.80423907944E+02  0.11204108711E+03  0.47000000000E+01 0.  1.
         -5    1    1    2    0  502 -0.41015024995E+02 -0.50080168935E+02 -0.73756288294E+00  0.64906776186E+02  0.47000000000E+01 0.  1.
        -11    1    1    2    0    0 -0.16213021520E+02  0.10034554374E+03 -0.81484172900E+02  0.13027571013E+03  0.00000000000E+00 0. -1.
         11    1    1    2    0    0 -0.82683969033E+01 -0.81544957987E+01 -0.67092664782E+02  0.68090291941E+02  0.00000000000E+00 0.  1.
<mgrwt>
<rscale>  0 0.15034515E+03</rscale>
<asrwt>0</asrwt>
<pdfrwt beam="1">  1        3 0.11198120E-01 0.15723664E+03</pdfrwt>
<pdfrwt beam="2">  1       -3 0.46542474E-01 0.15723664E+03</pdfrwt>
<totfact> 0.66551625E+02</totfact>
</mgrwt>
</event>
<event>
 6    1  0.5258538E-006  0.1460714E+03  0.7546771E-02  0.1216424E+00
          2   -1    0    0  501    0  0.00000000000E+00  0.00000000000E+00  0.15512066524E+04  0.15512066524E+04  0.00000000000E+00 0. -1.
         -2   -1    0    0    0  501 -0.00000000000E+00 -0.00000000000E+00 -0.12049157785E+02  0.12049157785E+02  0.00000000000E+00 0.  1.
          5    1    1    2  502    0 -0.44565525718E+02 -0.63518685141E+02  0.95327129113E+03  0.95643554615E+03  0.47000000000E+01 0. -1.
         -5    1    1    2    0  502 -0.20940898752E+02  0.35518875804E+02  0.12557604331E+03  0.13225560265E+03  0.47000000000E+01 0.  1.
        -11    1    1    2    0    0  0.87560933202E+02  0.21969022274E+02  0.32361751733E+03  0.33597299369E+03  0.00000000000E+00 0.  1.
         11    1    1    2    0    0 -0.22054508731E+02  0.60307870627E+01  0.13669264285E+03  0.13859166771E+03  0.00000000000E+00 0. -1.
<mgrwt>
<rscale>  0 0.13772476E+03</rscale>
<asrwt>0</asrwt>
<pdfrwt beam="1">  1        2 0.23864702E+00 0.14607137E+03</pdfrwt>
<pdfrwt beam="2">  1       -2 0.18537178E-02 0.14607137E+03</pdfrwt>
<totfact> 0.10829399E+04</totfact>
</mgrwt>
</event>
<event>
 6    1  0.5258538E-006  0.1224302E+03  0.7546771E-02  0.1257534E+00
         -1   -1    0    0    0  501 -0.00000000000E+00  0.00000000000E+00  0.12420150444E+03  0.12420150444E+03  0.00000000000E+00 0.  1.
          1   -1    0    0  501    0  0.00000000000E+00 -0.00000000000E+00 -0.13323156953E+03  0.13323156953E+03  0.00000000000E+00 0. -1.
          5    1    1    2  502    0 -0.14513757931E+02  0.16477764182E+02  0.25465245775E+02  0.33951945807E+02  0.47000000000E+01 0. -1.
         -5    1    1    2    0  502  0.37620919522E+02  0.86769994958E-02 -0.10603889961E+03  0.11261292951E+03  0.47000000000E+01 0.  1.
        -11    1    1    2    0    0 -0.19279783140E+02 -0.34674380146E+02  0.29302127301E+01  0.39782016327E+02  0.00000000000E+00 0. -1.
         11    1    1    2    0    0 -0.38273784520E+01  0.18187938965E+02  0.68613376021E+02  0.71086182333E+02  0.00000000000E+00 0.  1.
<mgrwt>
<rscale>  0 0.11165573E+03</rscale>
<asrwt>0</asrwt>
<pdfrwt beam="2">  1        1 0.20497164E-01 0.12243018E+03</pdfrwt>
<pdfrwt beam="1">  1       -1 0.19107924E-01 0.12243018E+03</pdfrwt>
<totfact> 0.50954030E+03</totfact>
</mgrwt>
</event>
<event>
 6    1  0.5258538E-006  0.1351777E+03  0.7546771E-02  0.1232803E+00
          2   -1    0    0  501    0  0.00000000000E+00  0.00000000000E+00  0.75005062673E+03  0.75005062673E+03  0.00000000000E+00 0. -1.
         -2   -1    0    0    0  501 -0.00000000000E+00 -0.00000000000E+00 -0.24263605863E+02  0.24263605863E+02  0.00000000000E+00 0.  1.
          5    1    1    2  502    0 -0.27337734183E+02 -0.46151613616E+01  0.19457584291E+02  0.34195599294E+02  0.47000000000E+01 0.  1.
         -5    1    1    2    0  502 -0.21556468356E+02  0.20633800890E+02  0.56025441200E+03  0.56106820551E+03  0.47000000000E+01 0.  1.
        -11    1    1    2    0    0  0.32285482905E+02 -0.51753818060E+02  0.10919978731E+03  0.12508158793E+03  0.00000000000E+00 0. -1.
         11    1    1    2    0    0  0.16608719634E+02  0.35735178532E+02  0.36875237267E+02  0.53968839862E+02  0.00000000000E+00 0.  1.
<mgrwt>
<rscale>  0 0.12646164E+03</rscale>
<asrwt>0</asrwt>
<pdfrwt beam="1">  1        2 0.11539239E+00 0.13517766E+03</pdfrwt>
<pdfrwt beam="2">  1       -2 0.37328630E-02 0.13517766E+03</pdfrwt>
<totfact> 0.11236138E+04</totfact>
</mgrwt>
</event>
<event>
 6    1  0.5258538E-006  0.1303864E+03  0.7546771E-02  0.1240933E+00
          2   -1    0    0  501    0  0.00000000000E+00  0.00000000000E+00  0.13837694162E+03  0.13837694162E+03  0.00000000000E+00 0.  1.
         -2   -1    0    0    0  501 -0.00000000000E+00 -0.00000000000E+00 -0.94029839901E+02  0.94029839901E+02  0.00000000000E+00 0. -1.
          5    1    1    2  502    0 -0.58742424297E+02  0.37274377797E+02 -0.11131113914E+02  0.70611920732E+02  0.47000000000E+01 0.  1.
         -5    1    1    2    0  502  0.49523093900E+02 -0.13499305927E+01  0.37754592023E+02  0.62464857006E+02  0.47000000000E+01 0.  1.
        -11    1    1    2    0    0  0.34945650427E+02 -0.42878853805E+02  0.36903821469E+02  0.66495763974E+02  0.00000000000E+00 0.  1.
         11    1    1    2    0    0 -0.25726320029E+02  0.69544066010E+01 -0.19180197864E+02  0.32834239804E+02  0.00000000000E+00 0. -1.
<mgrwt>
<rscale>  0 0.12132154E+03</rscale>
<asrwt>0</asrwt>
<pdfrwt beam="1">  1        2 0.21288760E-01 0.13038642E+03</pdfrwt>
<pdfrwt beam="2">  1       -2 0.14466129E-01 0.13038642E+03</pdfrwt>
<totfact> 0.88337011E+03</totfact>
</mgrwt>
</event>
<event>
 6    1  0.5258538E-006  0.3002820E+03  0.7546771E-02  0.1086822E+00
          1   -1    0    0  501    0  0.00000000000E+00  0.00000000000E+00  0.60066266152E+02  0.60066266152E+02  0.00000000000E+00 0. -1.
         -1   -1    0    0    0  501 -0.00000000000E+00 -0.00000000000E+00 -0.14357212831E+04  0.14357212831E+04  0.00000000000E+00 0.  1.
          5    1    1    2  502    0 -0.93678792592E+02  0.12797984060E+03 -0.23403484039E+03  0.28275245763E+03  0.47000000000E+01 0.  1.
         -5    1    1    2    0  502 -0.63674395449E+02  0.95141592897E+02 -0.44873324252E+03  0.46313061255E+03  0.47000000000E+01 0.  1.
        -11    1    1    2    0    0  0.56373893207E+02 -0.27425192989E+02 -0.10718432954E+03  0.12417180656E+03  0.00000000000E+00 0. -1.
         11    1    1    2    0    0  0.10097929483E+03 -0.19569624051E+03 -0.58570260454E+03  0.62573267255E+03  0.00000000000E+00 0.  1.
<mgrwt>
<rscale>  0 0.29685784E+03</rscale>
<asrwt>0</asrwt>
<pdfrwt beam="1">  1        1 0.92409638E-02 0.30028203E+03</pdfrwt>
<pdfrwt beam="2">  1       -1 0.22088020E+00 0.30028203E+03</pdfrwt>
<totfact> 0.86698987E+01</totfact>
</mgrwt>
</event>
<event>
 6    1  0.5258538E-006  0.3400065E+03  0.7546771E-02  0.1066793E+00
         -2   -1    0    0    0  501 -0.00000000000E+00  0.00000000000E+00  0.34244530278E+02  0.34244530278E+02  0.00000000000E+00 0.  1.
          2   -1    0    0  501    0  0.00000000000E+00 -0.00000000000E+00 -0.84396281644E+03  0.84396281644E+03  0.00000000000E+00 0. -1.
          5    1    1    2  502    0 -0.22953614451E+02  0.45989311390E+02 -0.20939367046E+03  0.21566104054E+03  0.47000000000E+01 0. -1.
         -5    1    1    2    0  502 -0.93559065709E+02 -0.74821105834E+02 -0.35026468607E+03  0.37021471737E+03  0.47000000000E+01 0. -1.
        -11    1    1    2    0    0  0.67904554188E+02 -0.12575356805E+02 -0.19878399837E+03  0.21043822392E+03  0.00000000000E+00 0. -1.
         11    1    1    2    0    0  0.48608125972E+02  0.41407151249E+02 -0.51275931268E+02  0.81893364886E+02  0.00000000000E+00 0.  1.
<mgrwt>
<rscale>  0 0.34000653E+03</rscale>
<asrwt>0</asrwt>
<pdfrwt beam="2">  1        2 0.12984042E+00 0.34000653E+03</pdfrwt>
<pdfrwt beam="1">  1       -2 0.52683900E-02 0.34000653E+03</pdfrwt>
<totfact> 0.60044617E+03</totfact>
</mgrwt>
</event>
<event>
 6    1  0.5258538E-006  0.1389487E+03  0.7546771E-02  0.1225945E+00
          2   -1    0    0  501    0  0.00000000000E+00  0.00000000000E+00  0.69294930169E+03  0.69294930169E+03  0.00000000000E+00 0. -1.
         -2   -1    0    0    0  501 -0.00000000000E+00 -0.00000000000E+00 -0.32286532840E+02  0.32286532840E+02  0.00000000000E+00 0.  1.
          5    1    1    2  502    0 -0.32880651744E+02 -0.17594155186E+02  0.37241260321E+02  0.52912125512E+02  0.47000000000E+01 0.  1.
         -5    1    1    2    0  502  0.66108589348E+01 -0.37123338136E+02  0.52018047307E+03  0.52156654442E+03  0.47000000000E+01 0.  1.
        -11    1    1    2    0    0  0.55308610168E+02  0.13483132976E+02  0.38650087263E+02  0.68808912788E+02  0.00000000000E+00 0.  1.
         11    1    1    2    0    0 -0.29038817359E+02  0.41234360346E+02  0.64590948200E+02  0.81948251818E+02  0.00000000000E+00 0. -1.
<mgrwt>
<rscale>  0 0.13102372E+03</rscale>
<asrwt>0</asrwt>
<pdfrwt beam="1">  1        2 0.10660757E+00 0.13894874E+03</pdfrwt>
<pdfrwt beam="2">  1       -2 0.49671594E-02 0.13894874E+03</pdfrwt>
<totfact> 0.80824265E+03</totfact>
</mgrwt>
</event>
<event>
 6    1  0.5258538E-006  0.2714049E+03  0.7546771E-02  0.1100478E+00
         -3   -1    0    0    0  501 -0.00000000000E+00  0.00000000000E+00  0.14773135088E+04  0.14773135088E+04  0.00000000000E+00 0.  1.
          3   -1    0    0  501    0  0.00000000000E+00 -0.00000000000E+00 -0.12465303228E+02  0.12465303228E+02  0.00000000000E+00 0. -1.
          5    1    1    2  502    0  0.67345800574E+02 -0.85441511887E+02  0.67158409549E+03  0.68035505152E+03  0.47000000000E+01 0.  1.
         -5    1    1    2    0  502 -0.25639989344E+02  0.23791030825E+02  0.29738656466E+03  0.29947333945E+03  0.47000000000E+01 0.  1.
        -11    1    1    2    0    0 -0.42842228792E+02 -0.97213195614E+01  0.25357709396E+03  0.25735443109E+03  0.00000000000E+00 0.  1.
         11    1    1    2    0    0  0.11364175615E+01  0.71371800623E+02  0.24230045142E+03  0.25259598993E+03  0.00000000000E+00 0. -1.
<mgrwt>
<rscale>  0 0.27140494E+03</rscale>
<asrwt>0</asrwt>
<pdfrwt beam="2">  1        3 0.19177401E-02 0.27140494E+03</pdfrwt>
<pdfrwt beam="1">  1       -3 0.22727886E+00 0.27140494E+03</pdfrwt>
<totfact> 0.28288015E+02</totfact>
</mgrwt>
</event>
<event>
 6    1  0.5258538E-006  0.1590233E+03  0.7546771E-02  0.1197475E+00
         -1   -1    0    0    0  501 -0.00000000000E+00  0.00000000000E+00  0.54135712826E+02  0.54135712826E+02  0.00000000000E+00 0.  1.
          1   -1    0    0  501    0  0.00000000000E+00 -0.00000000000E+00 -0.47012061079E+03  0.47012061079E+03  0.00000000000E+00 0. -1.
          5    1    1    2  502    0 -0.15205305548E+02  0.27320513255E+02 -0.16626459845E+03  0.16924425680E+03  0.47000000000E+01 0. -1.
         -5    1    1    2    0  502  0.10897203480E+03  0.21594916941E+01 -0.15920384238E+03  0.19299616888E+03  0.47000000000E+01 0. -1.
        -11    1    1    2    0    0  0.98274568040E+00  0.12341314149E+02  0.11314079035E+02  0.16771470073E+02  0.00000000000E+00 0.  1.
         11    1    1    2    0    0 -0.94749474930E+02 -0.41821319098E+02 -0.10183053617E+03  0.14524442787E+03  0.00000000000E+00 0. -1.
<mgrwt>
<rscale>  0 0.15246603E+03</rscale>
<asrwt>0</asrwt>
<pdfrwt beam="2">  1        1 0.72326249E-01 0.15902333E+03</pdfrwt>
<pdfrwt beam="1">  1       -1 0.83285711E-02 0.15902333E+03</pdfrwt>
<totfact> 0.38696626E+03</totfact>
</mgrwt>
</event>
<event>
 6    1  0.5258538E-006  0.1268578E+03  0.7546771E-02  0.1246849E+00
          3   -1    0    0  501    0  0.00000000000E+00  0.00000000000E+00  0.33587865532E+02  0.33587865532E+02  0.00000000000E+00 0. -1.
         -3   -1    0    0    0  501 -0.00000000000E+00 -0.00000000000E+00 -0.42419026971E+03  0.42419026971E+03  0.00000000000E+00 0.  1.
          5    1    1    2  502    0 -0.47563700164E+02  0.41236994934E+02 -0.10727947144E+03  0.12447397445E+03  0.47000000000E+01 0.  1.
         -5    1    1    2    0  502  0.49936096909E+02 -0.19741128739E+02 -0.27120678556E+02  0.60340261383E+02  0.47000000000E+01 0.  1.
        -11    1    1    2    0    0  0.41244576096E+02  0.70520880751E+01 -0.12313112130E+03  0.13004660717E+03  0.00000000000E+00 0.  1.
         11    1    1    2    0    0 -0.43616972841E+02 -0.28547954270E+02 -0.13307113288E+03  0.14291729223E+03  0.00000000000E+00 0. -1.
<mgrwt>
<rscale>  0 0.11775422E+03</rscale>
<asrwt>0</asrwt>
<pdfrwt beam="1">  1        3 0.51673639E-02 0.12685780E+03</pdfrwt>
<pdfrwt beam="2">  1       -3 0.65260042E-01 0.12685780E+03</pdfrwt>
<totfact> 0.11380599E+03</totfact>
</mgrwt>
</event>
<event>
 6    1  0.5258538E-006  0.1311992E+03  0.7546771E-02  0.1239494E+00
         -1   -1    0    0    0  501 -0.00000000000E+00  0.00000000000E+00  0.60610653086E+02  0.60610653086E+02  0.00000000000E+00 0.  1.
          1   -1    0    0  501    0  0.00000000000E+00 -0.00000000000E+00 -0.27312436055E+03  0.27312436055E+03  0.00000000000E+00 0. -1.
          5    1    1    2  502    0  0.18554726629E+01  0.54553858349E+02 -0.18200786986E+03  0.19007504026E+03  0.47000000000E+01 0.  1.
         -5    1    1    2    0  502 -0.30946104385E+02 -0.27364805216E+02 -0.10486365176E+02  0.42878290494E+02  0.47000000000E+01 0.  1.
        -11    1    1    2    0    0 -0.18794537770E+02 -0.27306716391E+02  0.19705062628E+02  0.38563984535E+02  0.00000000000E+00 0.  1.
         11    1    1    2    0    0  0.47885169492E+02  0.11766325713E+00 -0.39724535051E+02  0.62217698342E+02  0.00000000000E+00 0. -1.
<mgrwt>
<rscale>  0 0.12221042E+03</rscale>
<asrwt>0</asrwt>
<pdfrwt beam="2">  1        1 0.42019134E-01 0.13119918E+03</pdfrwt>
<pdfrwt beam="1">  1       -1 0.93247155E-02 0.13119918E+03</pdfrwt>
<totfact> 0.63809652E+03</totfact>
</mgrwt>
</event>
<event>
 6    1  0.5258538E-006  0.2419403E+03  0.7546771E-02  0.1121199E+00
         -4   -1    0    0    0  501 -0.00000000000E+00  0.00000000000E+00  0.12655512284E+03  0.12655512284E+03  0.00000000000E+00 0. -1.
          4   -1    0    0  501    0  0.00000000000E+00 -0.00000000000E+00 -0.51666899091E+03  0.51666899091E+03  0.00000000000E+00 0.  1.
          5    1    1    2  502    0  0.47425546876E+02 -0.15161142576E+02 -0.12256113849E+03  0.13237207186E+03  0.47000000000E+01 0.  1.
         -5    1    1    2    0  502  0.13863136380E+02 -0.18270779750E+03 -0.20744047803E+03  0.27681757124E+03  0.47000000000E+01 0.  1.
        -11    1    1    2    0    0 -0.76335289086E+02  0.93741111309E+02 -0.35303411468E+02  0.12593968068E+03  0.00000000000E+00 0.  1.
         11    1    1    2    0    0  0.15046605830E+02  0.10412782877E+03 -0.24808840080E+02  0.10809478997E+03  0.00000000000E+00 0. -1.
<mgrwt>
<rscale>  0 0.23790086E+03</rscale>
<asrwt>0</asrwt>
<pdfrwt beam="2">  1        4 0.79487536E-01 0.24194028E+03</pdfrwt>
<pdfrwt beam="1">  1       -4 0.19470019E-01 0.24194028E+03</pdfrwt>
<totfact> 0.62043112E+01</totfact>
</mgrwt>
</event>
<event>
 6    1  0.5258538E-006  0.2704282E+03  0.7546771E-02  0.1101035E+00
         -1   -1    0    0    0  501 -0.00000000000E+00  0.00000000000E+00  0.30768431362E+02  0.30768431362E+02  0.00000000000E+00 0.  1.
          1   -1    0    0  501    0  0.00000000000E+00 -0.00000000000E+00 -0.59420808510E+03  0.59420808510E+03  0.00000000000E+00 0. -1.
          5    1    1    2  502    0 -0.32826243357E+01 -0.17249879392E+02 -0.19915915028E+00  0.18178658530E+02  0.47000000000E+01 0.  1.
         -5    1    1    2    0  502 -0.63465664804E+02  0.24446921622E+02 -0.41579179267E+03  0.42134362157E+03  0.47000000000E+01 0.  1.
        -11    1    1    2    0    0  0.31018372910E+02 -0.48364218252E+02 -0.84508231890E+02  0.10219040230E+03  0.00000000000E+00 0. -1.
         11    1    1    2    0    0  0.35729916230E+02  0.41167176022E+02 -0.62940470030E+02  0.83263834064E+02  0.00000000000E+00 0.  1.
<mgrwt>
<rscale>  0 0.27042818E+03</rscale>
<asrwt>0</asrwt>
<pdfrwt beam="2">  1        1 0.91416627E-01 0.27042818E+03</pdfrwt>
<pdfrwt beam="1">  1       -1 0.47336049E-02 0.27042818E+03</pdfrwt>
<totfact> 0.67826436E+03</totfact>
</mgrwt>
</event>
<event>
 6    1  0.5258538E-006  0.1352318E+03  0.7546771E-02  0.1231943E+00
         -2   -1    0    0    0  501 -0.00000000000E+00  0.00000000000E+00  0.11181586790E+03  0.11181586790E+03  0.00000000000E+00 0.  1.
          2   -1    0    0  501    0  0.00000000000E+00 -0.00000000000E+00 -0.13141264672E+03  0.13141264672E+03  0.00000000000E+00 0. -1.
          5    1    1    2  502    0 -0.66612748752E+02  0.28860401964E+02 -0.15733554341E+02  0.74429939070E+02  0.47000000000E+01 0. -1.
         -5    1    1    2    0  502  0.21132244656E+02 -0.53263408036E+02  0.19983361684E+02  0.60868605570E+02  0.47000000000E+01 0. -1.
        -11    1    1    2    0    0  0.44977189810E+02 -0.10852462926E+02  0.21059829490E+02  0.50835420456E+02  0.00000000000E+00 0.  1.
         11    1    1    2    0    0  0.50331428569E+00  0.35255468998E+02 -0.44906415653E+02  0.57094549532E+02  0.00000000000E+00 0. -1.
<mgrwt>
<rscale>  0 0.12702161E+03</rscale>
<asrwt>0</asrwt>
<pdfrwt beam="2">  1        2 0.20217330E-01 0.13523178E+03</pdfrwt>
<pdfrwt beam="1">  1       -2 0.17202441E-01 0.13523178E+03</pdfrwt>
<totfact> 0.70630888E+03</totfact>
</mgrwt>
</event>
<event>
 6    1  0.5258538E-006  0.6377268E+03  0.7546771E-02  0.9830086E-01
         -2   -1    0    0    0  501 -0.00000000000E+00  0.00000000000E+00  0.74747935243E+02  0.74747935243E+02  0.00000000000E+00 0.  1.
          2   -1    0    0  501    0  0.00000000000E+00 -0.00000000000E+00 -0.13602229870E+04  0.13602229870E+04  0.00000000000E+00 0. -1.
          5    1    1    2  502    0 -0.63343794587E+02 -0.14007979955E+03 -0.10389343014E+04  0.10502577585E+04  0.47000000000E+01 0. -1.
         -5    1    1    2    0  502  0.10875277973E+02  0.35646526020E+02 -0.23214042069E+03  0.23515996983E+03  0.47000000000E+01 0.  1.
        -11    1    1    2    0    0 -0.32774607554E+01  0.57707131675E+02  0.29190380489E+02  0.64752861776E+02  0.00000000000E+00 0. -1.
         11    1    1    2    0    0  0.55745977369E+02  0.46726141853E+02 -0.43590710109E+02  0.84800332152E+02  0.00000000000E+00 0.  1.
<mgrwt>
<rscale>  0 0.63772677E+03</rscale>
<asrwt>0</asrwt>
<pdfrwt beam="2">  1        2 0.20926506E+00 0.63772677E+03</pdfrwt>
<pdfrwt beam="1">  1       -2 0.11499683E-01 0.63772677E+03</pdfrwt>
<totfact> 0.84477946E+02</totfact>
</mgrwt>
</event>
<event>
 6    1  0.5258538E-006  0.2628777E+03  0.7546771E-02  0.1105426E+00
          1   -1    0    0  501    0  0.00000000000E+00  0.00000000000E+00  0.40597537345E+03  0.40597537345E+03  0.00000000000E+00 0. -1.
         -1   -1    0    0    0  501 -0.00000000000E+00 -0.00000000000E+00 -0.42554725334E+02  0.42554725334E+02  0.00000000000E+00 0.  1.
          5    1    1    2  502    0  0.97676293691E+02  0.30231165896E+02  0.17696049531E+03  0.20443015590E+03  0.47000000000E+01 0.  1.
         -5    1    1    2    0  502 -0.34503575121E+02 -0.14806844878E+02  0.84374373871E+02  0.92470883620E+02  0.47000000000E+01 0.  1.
        -11    1    1    2    0    0 -0.43152764420E+02  0.31492398791E+02  0.24489083654E+02  0.58767741805E+02  0.00000000000E+00 0.  1.
         11    1    1    2    0    0 -0.20019954150E+02 -0.46916719809E+02  0.77596695287E+02  0.92861317465E+02  0.00000000000E+00 0. -1.
<mgrwt>
<rscale>  0 0.26287769E+03</rscale>
<asrwt>0</asrwt>
<pdfrwt beam="1">  1        1 0.62457747E-01 0.26287769E+03</pdfrwt>
<pdfrwt beam="2">  1       -1 0.65468811E-02 0.26287769E+03</pdfrwt>
<totfact> 0.68982089E+03</totfact>
</mgrwt>
</event>
<event>
 6    1  0.5258538E-006  0.1554229E+03  0.7546771E-02  0.1203635E+00
         -2   -1    0    0    0  501 -0.00000000000E+00  0.00000000000E+00  0.14655555958E+03  0.14655555958E+03  0.00000000000E+00 0.  1.
          2   -1    0    0  501    0  0.00000000000E+00 -0.00000000000E+00 -0.17650401050E+03  0.17650401050E+03  0.00000000000E+00 0. -1.
          5    1    1    2  502    0  0.51418882755E+02  0.32802200139E+02 -0.12013655305E+03  0.13481382427E+03  0.47000000000E+01 0.  1.
         -5    1    1    2    0  502  0.37760614026E+02 -0.87486192455E+01  0.25986265853E+02  0.46901794457E+02  0.47000000000E+01 0.  1.
        -11    1    1    2    0    0 -0.93775493034E+02 -0.36956209480E+02  0.31041859297E+02  0.10546658969E+03  0.00000000000E+00 0. -1.
         11    1    1    2    0    0  0.45959962535E+01  0.12902628586E+02  0.33159976974E+02  0.35877361649E+02  0.00000000000E+00 0.  1.
<mgrwt>
<rscale>  0 0.14745563E+03</rscale>
<asrwt>0</asrwt>
<pdfrwt beam="2">  1        2 0.27154463E-01 0.15542294E+03</pdfrwt>
<pdfrwt beam="1">  1       -2 0.22547009E-01 0.15542294E+03</pdfrwt>
<totfact> 0.32454680E+03</totfact>
</mgrwt>
</event>
<event>
 6    1  0.5258538E-006  0.1663523E+03  0.7546771E-02  0.1188544E+00
          1   -1    0    0  501    0  0.00000000000E+00  0.00000000000E+00  0.25885978409E+03  0.25885978409E+03  0.00000000000E+00 0. -1.
         -1   -1    0    0    0  501 -0.00000000000E+00 -0.00000000000E+00 -0.10611093158E+03  0.10611093158E+03  0.00000000000E+00 0.  1.
          5    1    1    2  502    0 -0.81899168255E+01  0.51745150507E+02 -0.11077964120E+02  0.53753573162E+02  0.47000000000E+01 0. -1.
         -5    1    1    2    0  502 -0.10478630525E+02  0.56412703280E+02  0.15810452742E+03  0.16825969922E+03  0.47000000000E+01 0. -1.
        -11    1    1    2    0    0 -0.36250220271E+02 -0.58049813658E+02  0.48317632744E+01  0.68609075724E+02  0.00000000000E+00 0.  1.
         11    1    1    2    0    0  0.54918767622E+02 -0.50108040130E+02  0.89052592986E+00  0.74348367562E+02  0.00000000000E+00 0. -1.
<mgrwt>
<rscale>  0 0.16013498E+03</rscale>
<asrwt>0</asrwt>
<pdfrwt beam="1">  1        1 0.39824582E-01 0.16635229E+03</pdfrwt>
<pdfrwt beam="2">  1       -1 0.16324759E-01 0.16635229E+03</pdfrwt>
<totfact> 0.28984606E+03</totfact>
</mgrwt>
</event>
<event>
 6    1  0.5258538E-006  0.1189460E+03  0.7546771E-02  0.1253614E+00
          1   -1    0    0  501    0  0.00000000000E+00  0.00000000000E+00  0.36921500387E+03  0.36921500387E+03  0.00000000000E+00 0. -1.
         -1   -1    0    0    0  501 -0.00000000000E+00 -0.00000000000E+00 -0.33110939699E+02  0.33110939699E+02  0.00000000000E+00 0.  1.
          5    1    1    2  502    0 -0.34118616966E+02 -0.26267883695E+02  0.18065603392E+03  0.18577614036E+03  0.47000000000E+01 0. -1.
         -5    1    1    2    0  502  0.45879575751E+02 -0.12873148912E+02  0.31088161199E+02  0.57089554217E+02  0.47000000000E+01 0.  1.
        -11    1    1    2    0    0  0.46431157194E+01 -0.23544118413E+02  0.63368369415E+01  0.24820143792E+02  0.00000000000E+00 0. -1.
         11    1    1    2    0    0 -0.16404074504E+02  0.62685151019E+02  0.11802303212E+03  0.13464010520E+03  0.00000000000E+00 0.  1.
<mgrwt>
<rscale>  0 0.11384308E+03</rscale>
<asrwt>0</asrwt>
<pdfrwt beam="1">  1        1 0.56802305E-01 0.11894596E+03</pdfrwt>
<pdfrwt beam="2">  1       -1 0.50939910E-02 0.11894596E+03</pdfrwt>
<totfact> 0.10774719E+04</totfact>
</mgrwt>
</event>
<event>
 6    1  0.5258538E-006  0.1298838E+03  0.7546771E-02  0.1240188E+00
          3   -1    0    0  501    0  0.00000000000E+00  0.00000000000E+00  0.11308827414E+03  0.11308827414E+03  0.00000000000E+00 0. -1.
         -3   -1    0    0    0  501 -0.00000000000E+00 -0.00000000000E+00 -0.11725323415E+03  0.11725323415E+03  0.00000000000E+00 0.  1.
          5    1    1    2  502    0  0.45098948524E+02 -0.32204813726E+02  0.36652684988E+02  0.66607615945E+02  0.47000000000E+01 0. -1.
         -5    1    1    2    0  502 -0.47894323926E+02 -0.29484926594E+01 -0.41095500364E+02  0.63352111436E+02  0.47000000000E+01 0. -1.
        -11    1    1    2    0    0 -0.35491784956E+01 -0.32361827313E+02 -0.66450141126E+00  0.32562648805E+02  0.00000000000E+00 0.  1.
         11    1    1    2    0    0  0.63445538977E+01  0.67515133699E+02  0.94235678087E+00  0.67819132100E+02  0.00000000000E+00 0. -1.
<mgrwt>
<rscale>  0 0.12178098E+03</rscale>
<asrwt>0</asrwt>
<pdfrwt beam="1">  1        3 0.17398196E-01 0.12988376E+03</pdfrwt>
<pdfrwt beam="2">  1       -3 0.18038959E-01 0.12988376E+03</pdfrwt>
<totfact> 0.17594325E+03</totfact>
</mgrwt>
</event>
<event>
 6    1  0.5258538E-006  0.2528393E+03  0.7546771E-02  0.1111524E+00
         -4   -1    0    0    0  501 -0.00000000000E+00  0.00000000000E+00  0.16753020543E+03  0.16753020543E+03  0.00000000000E+00 0.  1.
          4   -1    0    0  501    0  0.00000000000E+00 -0.00000000000E+00 -0.95397255300E+02  0.95397255300E+02  0.00000000000E+00 0. -1.
          5    1    1    2  502    0  0.58107104172E+02 -0.68175834893E+01 -0.49862551224E+02  0.77014797373E+02  0.47000000000E+01 0. -1.
         -5    1    1    2    0  502 -0.12371775741E+01 -0.52754475406E+01  0.60861913733E+02  0.61283142040E+02  0.47000000000E+01 0. -1.
        -11    1    1    2    0    0 -0.41756148010E+02 -0.14110799857E+02 -0.11836596830E+02  0.45637655437E+02  0.00000000000E+00 0. -1.
         11    1    1    2    0    0 -0.15113778587E+02  0.26203830887E+02  0.72970184446E+02  0.78991865875E+02  0.00000000000E+00 0.  1.
<mgrwt>
<rscale>  0 0.25283925E+03</rscale>
<asrwt>0</asrwt>
<pdfrwt beam="2">  1        4 0.14676501E-01 0.25283925E+03</pdfrwt>
<pdfrwt beam="1">  1       -4 0.25773878E-01 0.25283925E+03</pdfrwt>
<totfact> 0.10275580E+03</totfact>
</mgrwt>
</event>
<event>
 6    1  0.5258538E-006  0.2732508E+03  0.7546771E-02  0.1099433E+00
          2   -1    0    0  501    0  0.00000000000E+00  0.00000000000E+00  0.49837166482E+03  0.49837166482E+03  0.00000000000E+00 0. -1.
         -2   -1    0    0    0  501 -0.00000000000E+00 -0.00000000000E+00 -0.37454992035E+02  0.37454992035E+02  0.00000000000E+00 0.  1.
          5    1    1    2  502    0  0.50249447325E+02  0.23320202987E+02  0.37409954511E+03  0.37820814173E+03  0.47000000000E+01 0.  1.
         -5    1    1    2    0  502  0.81302306063E+01 -0.44710501752E+01 -0.82283268843E+01  0.13262213341E+02  0.47000000000E+01 0.  1.
        -11    1    1    2    0    0 -0.65752636053E+02  0.16458990592E+01  0.10210843969E+03  0.12145884730E+03  0.00000000000E+00 0. -1.
         11    1    1    2    0    0  0.73729581218E+01 -0.20495051871E+02 -0.70629851295E+01  0.22897454479E+02  0.00000000000E+00 0.  1.
<mgrwt>
<rscale>  0 0.27325085E+03</rscale>
<asrwt>0</asrwt>
<pdfrwt beam="1">  1        2 0.76672559E-01 0.27325085E+03</pdfrwt>
<pdfrwt beam="2">  1       -2 0.57623068E-02 0.27325085E+03</pdfrwt>
<totfact> 0.97817549E+03</totfact>
</mgrwt>
</event>
<event>
 6    1  0.5258538E-006  0.2225092E+03  0.7546771E-02  0.1135681E+00
         -4   -1    0    0    0  501 -0.00000000000E+00  0.00000000000E+00  0.13317659457E+03  0.13317659457E+03  0.00000000000E+00 0.  1.
          4   -1    0    0  501    0  0.00000000000E+00 -0.00000000000E+00 -0.34104080359E+03  0.34104080359E+03  0.00000000000E+00 0. -1.
          5    1    1    2  502    0 -0.14659436322E+02 -0.99336960498E+02 -0.11442970721E+03  0.15231210945E+03  0.47000000000E+01 0. -1.
         -5    1    1    2    0  502  0.57686481554E+02 -0.79642670892E+02 -0.12251936083E+01  0.98459515946E+02  0.47000000000E+01 0. -1.
        -11    1    1    2    0    0 -0.55181527602E+02  0.53983616891E+02 -0.25871166609E+02  0.81415902272E+02  0.00000000000E+00 0. -1.
         11    1    1    2    0    0  0.12154482370E+02  0.12499601450E+03 -0.66338141591E+02  0.14202987049E+03  0.00000000000E+00 0.  1.
<mgrwt>
<rscale>  0 0.21760527E+03</rscale>
<asrwt>0</asrwt>
<pdfrwt beam="2">  1        4 0.52467816E-01 0.22250922E+03</pdfrwt>
<pdfrwt beam="1">  1       -4 0.20488707E-01 0.22250922E+03</pdfrwt>
<totfact> 0.13680693E+02</totfact>
</mgrwt>
</event>
<event>
 6    1  0.5258538E-006  0.1400031E+03  0.7546771E-02  0.1224260E+00
         -2   -1    0    0    0  501 -0.00000000000E+00  0.00000000000E+00  0.13611778962E+02  0.13611778962E+02  0.00000000000E+00 0.  1.
          2   -1    0    0  501    0  0.00000000000E+00 -0.00000000000E+00 -0.17435737810E+04  0.17435737810E+04  0.00000000000E+00 0. -1.
          5    1    1    2  502    0 -0.85320025653E+02  0.15227262729E+02 -0.95065453395E+03  0.95460856335E+03  0.47000000000E+01 0.  1.
         -5    1    1    2    0  502  0.42415156728E+02  0.30973525673E+02 -0.48659634223E+03  0.48944508893E+03  0.47000000000E+01 0.  1.
        -11    1    1    2    0    0  0.76806167264E+01  0.23914673567E+02 -0.30931695212E+02  0.39845617749E+02  0.00000000000E+00 0.  1.
         11    1    1    2    0    0  0.35224252199E+02 -0.70115461969E+02 -0.26177943064E+03  0.27328628992E+03  0.00000000000E+00 0. -1.
<mgrwt>
<rscale>  0 0.13217743E+03</rscale>
<asrwt>0</asrwt>
<pdfrwt beam="2">  1        2 0.26824232E+00 0.14000311E+03</pdfrwt>
<pdfrwt beam="1">  1       -2 0.20941183E-02 0.14000311E+03</pdfrwt>
<totfact> 0.72091964E+03</totfact>
</mgrwt>
</event>
<event>
 6    1  0.5258538E-006  0.1333981E+03  0.7546771E-02  0.1235192E+00
         -1   -1    0    0    0  501 -0.00000000000E+00  0.00000000000E+00  0.18918151966E+02  0.18918151966E+02  0.00000000000E+00 0.  1.
          1   -1    0    0  501    0  0.00000000000E+00 -0.00000000000E+00 -0.74719609812E+03  0.74719609812E+03  0.00000000000E+00 0. -1.
          5    1    1    2  502    0 -0.14463187309E+02  0.52931381298E+02 -0.35904156370E+03  0.36324075952E+03  0.47000000000E+01 0. -1.
         -5    1    1    2    0  502  0.22620496867E+02 -0.70887162870E+01 -0.52822556065E+01  0.24737198738E+02  0.47000000000E+01 0. -1.
        -11    1    1    2    0    0  0.34269677039E+02  0.59253008492E+01 -0.14886730578E+03  0.15287574917E+03  0.00000000000E+00 0. -1.
         11    1    1    2    0    0 -0.42426986597E+02 -0.51767965860E+02 -0.21508682107E+03  0.22526054266E+03  0.00000000000E+00 0.  1.
<mgrwt>
<rscale>  0 0.12492148E+03</rscale>
<asrwt>0</asrwt>
<pdfrwt beam="2">  1        1 0.11495324E+00 0.13339809E+03</pdfrwt>
<pdfrwt beam="1">  1       -1 0.29104851E-02 0.13339809E+03</pdfrwt>
<totfact> 0.96735933E+03</totfact>
</mgrwt>
</event>
<event>
 6    1  0.5258538E-006  0.2306781E+03  0.7546771E-02  0.1129237E+00
         -2   -1    0    0    0  501 -0.00000000000E+00  0.00000000000E+00  0.45149884160E+02  0.45149884160E+02  0.00000000000E+00 0.  1.
          2   -1    0    0  501    0  0.00000000000E+00 -0.00000000000E+00 -0.12775275091E+04  0.12775275091E+04  0.00000000000E+00 0. -1.
          5    1    1    2  502    0  0.21542889711E+02  0.20244002713E+01 -0.35989266492E+03  0.36057317504E+03  0.47000000000E+01 0.  1.
         -5    1    1    2    0  502  0.14687015409E+03 -0.98063591957E+02 -0.52671211604E+03  0.55554932581E+03  0.47000000000E+01 0.  1.
        -11    1    1    2    0    0 -0.13635768195E+03  0.29633795322E+02 -0.21192136406E+03  0.25373656377E+03  0.00000000000E+00 0.  1.
         11    1    1    2    0    0 -0.32055361842E+02  0.66405396363E+02 -0.13385147995E+03  0.15281832865E+03  0.00000000000E+00 0. -1.
<mgrwt>
<rscale>  0 0.22634850E+03</rscale>
<asrwt>0</asrwt>
<pdfrwt beam="2">  1        2 0.19654270E+00 0.23067813E+03</pdfrwt>
<pdfrwt beam="1">  1       -2 0.69461359E-02 0.23067813E+03</pdfrwt>
<totfact> 0.21296724E+03</totfact>
</mgrwt>
</event>
<event>
 6    1  0.5258538E-006  0.2629865E+03  0.7546771E-02  0.1107576E+00
          2   -1    0    0  501    0  0.00000000000E+00  0.00000000000E+00  0.29153435833E+03  0.29153435833E+03  0.00000000000E+00 0. -1.
         -2   -1    0    0    0  501 -0.00000000000E+00 -0.00000000000E+00 -0.23959394181E+03  0.23959394181E+03  0.00000000000E+00 0.  1.
          5    1    1    2  502    0 -0.65772742748E+01 -0.68398452692E+01  0.45830757146E+02  0.47038200654E+02  0.47000000000E+01 0.  1.
         -5    1    1    2    0  502 -0.21583929113E+03  0.70625916395E+02  0.47840371103E+02  0.23213231307E+03  0.47000000000E+01 0.  1.
        -11    1    1    2    0    0  0.13682700803E+03 -0.37190099197E+02 -0.69797621479E+02  0.15803936715E+03  0.00000000000E+00 0.  1.
         11    1    1    2    0    0  0.85589557380E+02 -0.26595971929E+02  0.28066909755E+02  0.93918419272E+02  0.00000000000E+00 0. -1.
<mgrwt>
<rscale>  0 0.25928180E+03</rscale>
<asrwt>0</asrwt>
<pdfrwt beam="1">  1        2 0.44851439E-01 0.26298649E+03</pdfrwt>
<pdfrwt beam="2">  1       -2 0.36860607E-01 0.26298649E+03</pdfrwt>
<totfact> 0.78731915E+02</totfact>
</mgrwt>
</event>
<event>
 6    1  0.5258538E-006  0.2459969E+03  0.7546771E-02  0.1118507E+00
          2   -1    0    0  501    0  0.00000000000E+00  0.00000000000E+00  0.46520399373E+03  0.46520399373E+03  0.00000000000E+00 0. -1.
         -2   -1    0    0    0  501 -0.00000000000E+00 -0.00000000000E+00 -0.12222271027E+03  0.12222271027E+03  0.00000000000E+00 0.  1.
          5    1    1    2  502    0 -0.56562355224E+02  0.13175966486E+03  0.17907799259E+03  0.22945789754E+03  0.47000000000E+01 0. -1.
         -5    1    1    2    0  502 -0.74620481699E+02  0.34277737036E+02  0.14385152093E+02  0.83499713449E+02  0.47000000000E+01 0. -1.
        -11    1    1    2    0    0  0.69170623489E+02 -0.14358470028E+03  0.78881810866E+02  0.17782992267E+03  0.00000000000E+00 0.  1.
         11    1    1    2    0    0  0.62012213434E+02 -0.22452701614E+02  0.70636327910E+02  0.96639170347E+02  0.00000000000E+00 0. -1.
<mgrwt>
<rscale>  0 0.24194061E+03</rscale>
<asrwt>0</asrwt>
<pdfrwt beam="1">  1        2 0.71569844E-01 0.24599691E+03</pdfrwt>
<pdfrwt beam="2">  1       -2 0.18803494E-01 0.24599691E+03</pdfrwt>
<totfact> 0.15745363E+03</totfact>
</mgrwt>
</event>
<event>
 6    1  0.5258538E-006  0.1303619E+03  0.7546771E-02  0.1241399E+00
         -1   -1    0    0    0  501 -0.00000000000E+00  0.00000000000E+00  0.17694406845E+02  0.17694406845E+02  0.00000000000E+00 0.  1.
          1   -1    0    0  501    0  0.00000000000E+00 -0.00000000000E+00 -0.73763743218E+03  0.73763743218E+03  0.00000000000E+00 0. -1.
          5    1    1    2  502    0  0.47162791511E+01 -0.53208892673E+02 -0.32303871504E+03  0.32745920503E+03  0.47000000000E+01 0. -1.
         -5    1    1    2    0  502  0.32275925865E+02  0.52317333622E+02 -0.12855531511E+03  0.14257418360E+03  0.47000000000E+01 0. -1.
        -11    1    1    2    0    0 -0.63616370234E+02 -0.15386612364E+02 -0.19037243554E+03  0.20130935054E+03  0.00000000000E+00 0. -1.
         11    1    1    2    0    0  0.26624165218E+02  0.16278171415E+02 -0.77976559658E+02  0.83989099854E+02  0.00000000000E+00 0.  1.
<mgrwt>
<rscale>  0 0.12103517E+03</rscale>
<asrwt>0</asrwt>
<pdfrwt beam="2">  1        1 0.11348271E+00 0.13036187E+03</pdfrwt>
<pdfrwt beam="1">  1       -1 0.27222159E-02 0.13036187E+03</pdfrwt>
<totfact> 0.10846149E+04</totfact>
</mgrwt>
</event>
<event>
 6    1  0.9064172E-006  0.2065590E+03  0.7546771E-02  0.1148815E+00
          1   -1    0    0  501    0  0.00000000000E+00  0.00000000000E+00  0.11037547646E+04  0.11037547646E+04  0.00000000000E+00 0.  1.
         -1   -1    0    0    0  501 -0.00000000000E+00 -0.00000000000E+00 -0.36837973674E+02  0.36837973674E+02  0.00000000000E+00 0. -1.
          5    1    1    2  502    0  0.50408637980E+02 -0.14644743106E+02  0.33306790128E+03  0.33721182682E+03  0.47000000000E+01 0. -1.
         -5    1    1    2    0  502  0.84201889968E+01 -0.13891636585E+03  0.36042501351E+03  0.38638961768E+03  0.47000000000E+01 0. -1.
        -11    1    1    2    0    0 -0.71673106186E+02  0.72966698513E+02  0.17951042065E+03  0.20660388274E+03  0.00000000000E+00 0.  1.
         11    1    1    2    0    0  0.12844279210E+02  0.80594410445E+02  0.19391345545E+03  0.21038741100E+03  0.00000000000E+00 0. -1.
<mgrwt>
<rscale>  0 0.20109916E+03</rscale>
<asrwt>0</asrwt>
<pdfrwt beam="1">  1        1 0.16980840E+00 0.20655902E+03</pdfrwt>
<pdfrwt beam="2">  1       -1 0.56673814E-02 0.20655902E+03</pdfrwt>
<totfact> 0.19498630E+03</totfact>
</mgrwt>
</event>
<event>
 6    1  0.5258538E-006  0.1416355E+03  0.7546771E-02  0.1221429E+00
          1   -1    0    0  501    0  0.00000000000E+00  0.00000000000E+00  0.33128604253E+02  0.33128604253E+02  0.00000000000E+00 0. -1.
         -1   -1    0    0    0  501 -0.00000000000E+00 -0.00000000000E+00 -0.53586466459E+03  0.53586466459E+03  0.00000000000E+00 0.  1.
          5    1    1    2  502    0  0.63602851883E+02 -0.66603606046E+02 -0.18603236865E+03  0.20763307851E+03  0.47000000000E+01 0. -1.
         -5    1    1    2    0  502 -0.31534251095E+02  0.82217269609E+01 -0.10384645079E+02  0.34524435402E+02  0.47000000000E+01 0. -1.
        -11    1    1    2    0    0  0.17789112281E+02 -0.97261285015E+01 -0.20574229980E+02  0.28885100496E+02  0.00000000000E+00 0. -1.
         11    1    1    2    0    0 -0.49857713069E+02  0.68108007587E+02 -0.28574481663E+03  0.29795065444E+03  0.00000000000E+00 0.  1.
<mgrwt>
<rscale>  0 0.13414711E+03</rscale>
<asrwt>0</asrwt>
<pdfrwt beam="1">  1        1 0.50967088E-02 0.14163551E+03</pdfrwt>
<pdfrwt beam="2">  1       -1 0.82440710E-01 0.14163551E+03</pdfrwt>
<totfact> 0.24079442E+03</totfact>
</mgrwt>
</event>
<event>
 6    1  0.5258538E-006  0.1380350E+03  0.7546771E-02  0.1230759E+00
          1   -1    0    0  501    0  0.00000000000E+00  0.00000000000E+00  0.14764901309E+03  0.14764901309E+03  0.00000000000E+00 0. -1.
         -1   -1    0    0    0  501 -0.00000000000E+00 -0.00000000000E+00 -0.98389836187E+02  0.98389836187E+02  0.00000000000E+00 0.  1.
          5    1    1    2  502    0  0.44102705998E+02 -0.38206858023E+02 -0.31313858225E+02  0.66388706820E+02  0.47000000000E+01 0. -1.
         -5    1    1    2    0  502 -0.20151791660E+02 -0.15218411018E+02  0.73637901708E+02  0.77989264062E+02  0.47000000000E+01 0. -1.
        -11    1    1    2    0    0 -0.45285788313E+02  0.15283135235E+01  0.28479394021E+01  0.45400981534E+02  0.00000000000E+00 0.  1.
         11    1    1    2    0    0  0.21334873976E+02  0.51896955517E+02  0.40871940149E+01  0.56259896858E+02  0.00000000000E+00 0. -1.
<mgrwt>
<rscale>  0 0.12779894E+03</rscale>
<asrwt>0</asrwt>
<pdfrwt beam="1">  1        1 0.22715233E-01 0.13803505E+03</pdfrwt>
<pdfrwt beam="2">  1       -1 0.15136898E-01 0.13803505E+03</pdfrwt>
<totfact> 0.65200451E+03</totfact>
</mgrwt>
</event>
<event>
 6    1  0.5258538E-006  0.1579361E+03  0.7546771E-02  0.1208107E+00
         -2   -1    0    0    0  501 -0.00000000000E+00  0.00000000000E+00  0.88350146465E+02  0.88350146465E+02  0.00000000000E+00 0.  1.
          2   -1    0    0  501    0  0.00000000000E+00 -0.00000000000E+00 -0.20679650170E+03  0.20679650170E+03  0.00000000000E+00 0. -1.
          5    1    1    2  502    0 -0.79067021307E+02 -0.30581717261E+02 -0.77472030551E+02  0.11493842180E+03  0.47000000000E+01 0. -1.
         -5    1    1    2    0  502  0.55161408076E+02 -0.36816923577E+02 -0.15279046606E+02  0.68218810220E+02  0.47000000000E+01 0.  1.
        -11    1    1    2    0    0 -0.13165313855E+02  0.62803890431E+02  0.39651498553E+01  0.64291341218E+02  0.00000000000E+00 0. -1.
         11    1    1    2    0    0  0.37070927085E+02  0.45947504069E+01 -0.29660427931E+02  0.47698074922E+02  0.00000000000E+00 0.  1.
<mgrwt>
<rscale>  0 0.14395257E+03</rscale>
<asrwt>0</asrwt>
<pdfrwt beam="2">  1        2 0.31814846E-01 0.15793609E+03</pdfrwt>
<pdfrwt beam="1">  1       -2 0.13592330E-01 0.15793609E+03</pdfrwt>
<totfact> 0.63666387E+03</totfact>
</mgrwt>
</event>
<event>
 6    1  0.5258538E-006  0.4362295E+03  0.7546771E-02  0.1050456E+00
          1   -1    0    0  501    0  0.00000000000E+00  0.00000000000E+00  0.63936112518E+03  0.63936112518E+03  0.00000000000E+00 0. -1.
         -1   -1    0    0    0  501 -0.00000000000E+00 -0.00000000000E+00 -0.18922613416E+03  0.18922613416E+03  0.00000000000E+00 0.  1.
          5    1    1    2  502    0 -0.79397614700E+02 -0.44344947445E+02  0.25769735622E+03  0.27331387266E+03  0.47000000000E+01 0. -1.
         -5    1    1    2    0  502  0.21720141299E+03 -0.15010033756E+03  0.72618811673E+02  0.27386519850E+03  0.47000000000E+01 0.  1.
        -11    1    1    2    0    0 -0.24712477882E+02  0.10229365293E+03  0.27504590821E+02  0.10877132209E+03  0.00000000000E+00 0.  1.
         11    1    1    2    0    0 -0.11309132041E+03  0.92151632078E+02  0.92314232311E+02  0.17263686609E+03  0.00000000000E+00 0. -1.
<mgrwt>
<rscale>  0 0.38129546E+03</rscale>
<asrwt>0</asrwt>
<pdfrwt beam="1">  1        1 0.98363249E-01 0.43622949E+03</pdfrwt>
<pdfrwt beam="2">  1       -1 0.29111713E-01 0.43622949E+03</pdfrwt>
<totfact> 0.34408971E+02</totfact>
</mgrwt>
</event>
<event>
 6    1  0.5258538E-006  0.3322051E+03  0.7546771E-02  0.1070165E+00
          1   -1    0    0  501    0  0.00000000000E+00  0.00000000000E+00  0.79620279171E+03  0.79620279171E+03  0.00000000000E+00 0. -1.
         -1   -1    0    0    0  501 -0.00000000000E+00 -0.00000000000E+00 -0.34652045548E+02  0.34652045548E+02  0.00000000000E+00 0.  1.
          5    1    1    2  502    0 -0.15234667705E+02  0.19395355916E+02 -0.29482858915E+01  0.25279583084E+02  0.47000000000E+01 0. -1.
         -5    1    1    2    0  502 -0.72834275579E+02  0.66929528577E+02  0.34894738978E+03  0.36272684534E+03  0.47000000000E+01 0. -1.
        -11    1    1    2    0    0  0.55215061122E+02 -0.40406533479E+02  0.93362683408E+02  0.11574965043E+03  0.00000000000E+00 0.  1.
         11    1    1    2    0    0  0.32853882161E+02 -0.45918351014E+02  0.32218895886E+03  0.32709875840E+03  0.00000000000E+00 0. -1.
<mgrwt>
<rscale>  0 0.33220509E+03</rscale>
<asrwt>0</asrwt>
<pdfrwt beam="1">  1        1 0.12249272E+00 0.33220509E+03</pdfrwt>
<pdfrwt beam="2">  1       -1 0.53310845E-02 0.33220509E+03</pdfrwt>
<totfact> 0.37181875E+03</totfact>
</mgrwt>
</event>
<event>
 6    1  0.5258538E-006  0.3283231E+03  0.7546771E-02  0.1073249E+00
         -1   -1    0    0    0  501 -0.00000000000E+00  0.00000000000E+00  0.20385339959E+03  0.20385339959E+03  0.00000000000E+00 0.  1.
          1   -1    0    0  501    0  0.00000000000E+00 -0.00000000000E+00 -0.83085624883E+03  0.83085624883E+03  0.00000000000E+00 0. -1.
          5    1    1    2  502    0 -0.78774789579E+01  0.24890237617E+02 -0.61371286583E+02  0.66858832028E+02  0.47000000000E+01 0. -1.
         -5    1    1    2    0  502 -0.29083915776E+03 -0.79103623320E+02 -0.57740227714E+03  0.65135265299E+03  0.47000000000E+01 0. -1.
        -11    1    1    2    0    0  0.18353898764E+03  0.11383153388E+02  0.44766119663E+02  0.18926209772E+03  0.00000000000E+00 0.  1.
         11    1    1    2    0    0  0.11517764907E+03  0.42830232315E+02 -0.32995405180E+02  0.12723606568E+03  0.00000000000E+00 0. -1.
<mgrwt>
<rscale>  0 0.32526981E+03</rscale>
<asrwt>0</asrwt>
<pdfrwt beam="2">  1        1 0.12782404E+00 0.32832312E+03</pdfrwt>
<pdfrwt beam="1">  1       -1 0.31362062E-01 0.32832312E+03</pdfrwt>
<totfact> 0.20598009E+02</totfact>
</mgrwt>
</event>
<event>
 6    1  0.5258538E-006  0.1280171E+03  0.7546771E-02  0.1245058E+00
          1   -1    0    0  501    0  0.00000000000E+00  0.00000000000E+00  0.20641029288E+04  0.20641029288E+04  0.00000000000E+00 0. -1.
         -1   -1    0    0    0  501 -0.00000000000E+00 -0.00000000000E+00 -0.10760460016E+02  0.10760460016E+02  0.00000000000E+00 0.  1.
          5    1    1    2  502    0  0.25059579495E+01 -0.62305397270E+02  0.73578711089E+03  0.73843957431E+03  0.47000000000E+01 0. -1.
         -5    1    1    2    0  502  0.24819454045E+02  0.58340534116E+02  0.10600053968E+04  0.10619101443E+04  0.47000000000E+01 0. -1.
        -11    1    1    2    0    0  0.20737216163E+02 -0.21072487612E+02  0.16190810069E+03  0.16458528165E+03  0.00000000000E+00 0. -1.
         11    1    1    2    0    0 -0.48062628158E+02  0.25037350766E+02  0.95641860415E+02  0.10992838861E+03  0.00000000000E+00 0.  1.
<mgrwt>
<rscale>  0 0.11881918E+03</rscale>
<asrwt>0</asrwt>
<pdfrwt beam="1">  1        1 0.31755398E+00 0.12801710E+03</pdfrwt>
<pdfrwt beam="2">  1       -1 0.16554570E-02 0.12801710E+03</pdfrwt>
<totfact> 0.27651229E+03</totfact>
</mgrwt>
</event>
<event>
 6    1  0.5258538E-006  0.1307942E+03  0.7546771E-02  0.1239468E+00
         -2   -1    0    0    0  501 -0.00000000000E+00  0.00000000000E+00  0.86129832078E+03  0.86129832078E+03  0.00000000000E+00 0.  1.
          2   -1    0    0  501    0  0.00000000000E+00 -0.00000000000E+00 -0.15577743406E+02  0.15577743406E+02  0.00000000000E+00 0. -1.
          5    1    1    2  502    0  0.59059580625E+02  0.27413926393E+02  0.25375311418E+03  0.26201582086E+03  0.47000000000E+01 0. -1.
         -5    1    1    2    0  502 -0.33391720830E+02 -0.56118537192E+02  0.26821314968E+03  0.27608817595E+03  0.47000000000E+01 0. -1.
        -11    1    1    2    0    0 -0.57337083732E+02  0.18341928742E+02  0.25950502709E+03  0.26639599585E+03  0.00000000000E+00 0.  1.
         11    1    1    2    0    0  0.31669223937E+02  0.10362682056E+02  0.64249286432E+02  0.72376071538E+02  0.00000000000E+00 0. -1.
<mgrwt>
<rscale>  0 0.12222709E+03</rscale>
<asrwt>0</asrwt>
<pdfrwt beam="2">  1        2 0.23965766E-02 0.13079423E+03</pdfrwt>
<pdfrwt beam="1">  1       -2 0.13250740E+00 0.13079423E+03</pdfrwt>
<totfact> 0.17739417E+03</totfact>
</mgrwt>
</event>
<event>
 6    1  0.5258538E-006  0.1941369E+03  0.7546771E-02  0.1159744E+00
         -1   -1    0    0    0  501 -0.00000000000E+00  0.00000000000E+00  0.82661291717E+03  0.82661291717E+03  0.00000000000E+00 0.  1.
          1   -1    0    0  501    0  0.00000000000E+00 -0.00000000000E+00 -0.41456082812E+02  0.41456082812E+02  0.00000000000E+00 0. -1.
          5    1    1    2  502    0 -0.48759715177E+02  0.72368297263E+02  0.29459179676E+03  0.30728016043E+03  0.47000000000E+01 0.  1.
         -5    1    1    2    0  502 -0.93832620519E+02 -0.30743999024E+02  0.17749396197E+03  0.20316483625E+03  0.47000000000E+01 0.  1.
        -11    1    1    2    0    0  0.84853542076E+01 -0.31230515826E+02  0.29595340553E+02  0.43854652401E+02  0.00000000000E+00 0. -1.
         11    1    1    2    0    0  0.13410698149E+03 -0.10393782413E+02  0.28347573507E+03  0.31376935091E+03  0.00000000000E+00 0.  1.
<mgrwt>
<rscale>  0 0.18858460E+03</rscale>
<asrwt>0</asrwt>
<pdfrwt beam="2">  1        1 0.63778595E-02 0.19413689E+03</pdfrwt>
<pdfrwt beam="1">  1       -1 0.12717121E+00 0.19413689E+03</pdfrwt>
<totfact> 0.67975850E+02</totfact>
</mgrwt>
</event>
<event>
 6    1  0.5258538E-006  0.1423448E+03  0.7546771E-02  0.1220306E+00
          1   -1    0    0  501    0  0.00000000000E+00  0.00000000000E+00  0.42067409183E+03  0.42067409183E+03  0.00000000000E+00 0. -1.
         -1   -1    0    0    0  501 -0.00000000000E+00 -0.00000000000E+00 -0.43693432587E+02  0.43693432587E+02  0.00000000000E+00 0.  1.
          5    1    1    2  502    0  0.49871823626E+02  0.90426028960E+01  0.22865333880E+02  0.55802159029E+02  0.47000000000E+01 0.  1.
         -5    1    1    2    0  502  0.10556031065E+02  0.22329995341E+02  0.25657707597E+03  0.25780602087E+03  0.47000000000E+01 0.  1.
        -11    1    1    2    0    0 -0.70144358443E+02  0.10972164857E+02  0.53503034939E+02  0.88899910971E+02  0.00000000000E+00 0.  1.
         11    1    1    2    0    0  0.97165037522E+01 -0.42344763094E+02  0.44035214456E+02  0.61859433548E+02  0.00000000000E+00 0. -1.
<mgrwt>
<rscale>  0 0.13493921E+03</rscale>
<asrwt>0</asrwt>
<pdfrwt beam="1">  1        1 0.64719088E-01 0.14234476E+03</pdfrwt>
<pdfrwt beam="2">  1       -1 0.67220668E-02 0.14234476E+03</pdfrwt>
<totfact> 0.61300743E+03</totfact>
</mgrwt>
</event>
<event>
 6    1  0.5258538E-006  0.1702601E+03  0.7546771E-02  0.1184167E+00
          2   -1    0    0  501    0  0.00000000000E+00  0.00000000000E+00  0.13150001007E+04  0.13150001007E+04  0.00000000000E+00 0. -1.
         -2   -1    0    0    0  501 -0.00000000000E+00 -0.00000000000E+00 -0.19836448996E+02  0.19836448996E+02  0.00000000000E+00 0.  1.
          5    1    1    2  502    0  0.93004313057E+02 -0.48362071706E+01  0.64543992538E+03  0.65214107249E+03  0.47000000000E+01 0.  1.
         -5    1    1    2    0  502  0.76433042929E+01  0.61706199498E+02  0.17494957885E+03  0.18572969686E+03  0.47000000000E+01 0.  1.
        -11    1    1    2    0    0 -0.20048173418E+02 -0.55768342707E+02  0.27941159159E+03  0.28562716051E+03  0.00000000000E+00 0. -1.
         11    1    1    2    0    0 -0.80599443933E+02 -0.11016496210E+01  0.19536255590E+03  0.21133861985E+03  0.00000000000E+00 0.  1.
<mgrwt>
<rscale>  0 0.16407862E+03</rscale>
<asrwt>0</asrwt>
<pdfrwt beam="1">  1        2 0.20230764E+00 0.17026006E+03</pdfrwt>
<pdfrwt beam="2">  1       -2 0.30517624E-02 0.17026006E+03</pdfrwt>
<totfact> 0.70007490E+03</totfact>
</mgrwt>
</event>
<event>
 6    1  0.5258538E-006  0.1902003E+03  0.7546771E-02  0.1186317E+00
          1   -1    0    0  501    0  0.00000000000E+00  0.00000000000E+00  0.29261313870E+03  0.29261313870E+03  0.00000000000E+00 0. -1.
         -1   -1    0    0    0  501 -0.00000000000E+00 -0.00000000000E+00 -0.76051887593E+02  0.76051887593E+02  0.00000000000E+00 0.  1.
          5    1    1    2  502    0  0.30675402924E+02 -0.65567453230E+02  0.40457041320E+02  0.83059818564E+02  0.47000000000E+01 0. -1.
         -5    1    1    2    0  502 -0.38054795488E+02  0.10505760953E+03  0.13935253671E+03  0.17867984852E+03  0.47000000000E+01 0.  1.
        -11    1    1    2    0    0 -0.19511657526E+02  0.55036943089E+01 -0.20824338767E+02  0.29062837362E+02  0.00000000000E+00 0.  1.
         11    1    1    2    0    0  0.26891050090E+02 -0.44993850612E+02  0.57576011838E+02  0.77862521838E+02  0.00000000000E+00 0. -1.
<mgrwt>
<rscale>  0 0.16212637E+03</rscale>
<asrwt>0</asrwt>
<pdfrwt beam="1">  1        1 0.45017406E-01 0.19020034E+03</pdfrwt>
<pdfrwt beam="2">  1       -1 0.11700290E-01 0.19020034E+03</pdfrwt>
<totfact> 0.42196483E+03</totfact>
</mgrwt>
</event>
<event>
 6    1  0.5258538E-006  0.3687057E+03  0.7546771E-02  0.1055189E+00
         -2   -1    0    0    0  501 -0.00000000000E+00  0.00000000000E+00  0.19306293919E+02  0.19306293919E+02  0.00000000000E+00 0.  1.
          2   -1    0    0  501    0  0.00000000000E+00 -0.00000000000E+00 -0.17603569505E+04  0.17603569505E+04  0.00000000000E+00 0. -1.
          5    1    1    2  502    0 -0.19147299193E+02 -0.43025310592E+01 -0.62243880345E+03  0.62276583470E+03  0.47000000000E+01 0.  1.
         -5    1    1    2    0  502 -0.12434890851E+03  0.72083461226E+01 -0.47653514097E+03  0.49256719530E+03  0.47000000000E+01 0.  1.
        -11    1    1    2    0    0  0.93887694992E+02 -0.43449975935E+02 -0.33371827641E+03  0.34938615841E+03  0.00000000000E+00 0.  1.
         11    1    1    2    0    0  0.49608512711E+02  0.40544160872E+02 -0.30835843576E+03  0.31494405601E+03  0.00000000000E+00 0. -1.
<mgrwt>
<rscale>  0 0.36870567E+03</rscale>
<asrwt>0</asrwt>
<pdfrwt beam="2">  1        2 0.27082414E+00 0.36870567E+03</pdfrwt>
<pdfrwt beam="1">  1       -2 0.29701991E-02 0.36870567E+03</pdfrwt>
<totfact> 0.42683809E+03</totfact>
</mgrwt>
</event>
<event>
 6    1  0.5258538E-006  0.2841083E+03  0.7546771E-02  0.1095814E+00
         -2   -1    0    0    0  501 -0.00000000000E+00  0.00000000000E+00  0.59710116827E+02  0.59710116827E+02  0.00000000000E+00 0. -1.
          2   -1    0    0  501    0  0.00000000000E+00 -0.00000000000E+00 -0.13419703109E+04  0.13419703109E+04  0.00000000000E+00 0.  1.
          5    1    1    2  502    0  0.18106275108E+03 -0.99568121164E+02 -0.27088393179E+03  0.34073116247E+03  0.47000000000E+01 0.  1.
         -5    1    1    2    0  502  0.39172510757E+02 -0.29231519489E+02 -0.22939872729E+03  0.23459504133E+03  0.47000000000E+01 0.  1.
        -11    1    1    2    0    0 -0.42898061634E+02 -0.53449680228E+01 -0.97205492955E+02  0.10638477445E+03  0.00000000000E+00 0. -1.
         11    1    1    2    0    0 -0.17733720021E+03  0.13414460868E+03 -0.68477204202E+03  0.71996944946E+03  0.00000000000E+00 0.  1.
<mgrwt>
<rscale>  0 0.27977197E+03</rscale>
<asrwt>0</asrwt>
<pdfrwt beam="2">  1        2 0.20645698E+00 0.28410826E+03</pdfrwt>
<pdfrwt beam="1">  1       -2 0.91861716E-02 0.28410826E+03</pdfrwt>
<totfact> 0.12643120E+03</totfact>
</mgrwt>
</event>
<event>
 6    1  0.5258538E-006  0.1355348E+03  0.7546771E-02  0.1232447E+00
         -1   -1    0    0    0  501 -0.00000000000E+00  0.00000000000E+00  0.11052176832E+03  0.11052176832E+03  0.00000000000E+00 0.  1.
          1   -1    0    0  501    0  0.00000000000E+00 -0.00000000000E+00 -0.15413034448E+03  0.15413034448E+03  0.00000000000E+00 0. -1.
          5    1    1    2  502    0  0.42994369371E+02  0.46883757709E+02 -0.77070129948E+01  0.64250218551E+02  0.47000000000E+01 0. -1.
         -5    1    1    2    0  502 -0.59686509037E+02  0.27729024444E+01 -0.69340769618E+02  0.91653699762E+02  0.47000000000E+01 0. -1.
        -11    1    1    2    0    0  0.51113101049E+02 -0.42062135165E+02  0.11380408831E+02  0.67166107663E+02  0.00000000000E+00 0. -1.
         11    1    1    2    0    0 -0.34420961383E+02 -0.75945249884E+01  0.22058797613E+02  0.41582086822E+02  0.00000000000E+00 0.  1.
<mgrwt>
<rscale>  0 0.12669268E+03</rscale>
<asrwt>0</asrwt>
<pdfrwt beam="2">  1        1 0.23712361E-01 0.13553476E+03</pdfrwt>
<pdfrwt beam="1">  1       -1 0.17003349E-01 0.13553476E+03</pdfrwt>
<totfact> 0.51365018E+03</totfact>
</mgrwt>
</event>
<event>
 6    1  0.5258538E-006  0.2743477E+03  0.7546771E-02  0.1098817E+00
          1   -1    0    0  501    0  0.00000000000E+00  0.00000000000E+00  0.33336627982E+03  0.33336627982E+03  0.00000000000E+00 0. -1.
         -1   -1    0    0    0  501 -0.00000000000E+00 -0.00000000000E+00 -0.56444432280E+02  0.56444432280E+02  0.00000000000E+00 0.  1.
          5    1    1    2  502    0 -0.10361286011E+03  0.68747271915E+01  0.17543500810E+03  0.20391767633E+03  0.47000000000E+01 0. -1.
         -5    1    1    2    0  502  0.23936845863E+02  0.13554532130E+02  0.16972925786E+01  0.27958339243E+02  0.47000000000E+01 0. -1.
        -11    1    1    2    0    0  0.24293906702E+02 -0.44364764886E+02  0.79603822070E+02  0.94314340131E+02  0.00000000000E+00 0. -1.
         11    1    1    2    0    0  0.55382107540E+02  0.23935505564E+02  0.20185724790E+02  0.63620356393E+02  0.00000000000E+00 0.  1.
<mgrwt>
<rscale>  0 0.27434774E+03</rscale>
<asrwt>0</asrwt>
<pdfrwt beam="1">  1        1 0.51287119E-01 0.27434774E+03</pdfrwt>
<pdfrwt beam="2">  1       -1 0.86837590E-02 0.27434774E+03</pdfrwt>
<totfact> 0.57740449E+03</totfact>
</mgrwt>
</event>
<event>
 6    1  0.5258538E-006  0.2534355E+03  0.7546771E-02  0.1111153E+00
          1   -1    0    0  501    0  0.00000000000E+00  0.00000000000E+00  0.74510991570E+02  0.74510991570E+02  0.00000000000E+00 0. -1.
         -1   -1    0    0    0  501 -0.00000000000E+00 -0.00000000000E+00 -0.21550369915E+03  0.21550369915E+03  0.00000000000E+00 0.  1.
          5    1    1    2  502    0 -0.93344882975E+02 -0.16053527765E+02 -0.15498703354E+02  0.96089972093E+02  0.47000000000E+01 0. -1.
         -5    1    1    2    0  502  0.27905913591E+02  0.16178885781E+02 -0.17788291620E+02  0.37135019553E+02  0.47000000000E+01 0.  1.
        -11    1    1    2    0    0  0.65039470366E+02 -0.38489098711E+02 -0.71560313374E+02  0.10407892138E+03  0.00000000000E+00 0.  1.
         11    1    1    2    0    0  0.39949901703E+00  0.38363740695E+02 -0.36145399232E+02  0.52710777695E+02  0.00000000000E+00 0. -1.
<mgrwt>
<rscale>  0 0.25343555E+03</rscale>
<asrwt>0</asrwt>
<pdfrwt beam="1">  1        1 0.11463230E-01 0.25343555E+03</pdfrwt>
<pdfrwt beam="2">  1       -1 0.33154415E-01 0.25343555E+03</pdfrwt>
<totfact> 0.45417625E+03</totfact>
</mgrwt>
</event>
<event>
 6    1  0.5258538E-006  0.1417265E+03  0.7546771E-02  0.1224519E+00
          2   -1    0    0  501    0  0.00000000000E+00  0.00000000000E+00  0.18976059971E+03  0.18976059971E+03  0.00000000000E+00 0. -1.
         -2   -1    0    0    0  501 -0.00000000000E+00 -0.00000000000E+00 -0.81769816219E+02  0.81769816219E+02  0.00000000000E+00 0.  1.
          5    1    1    2  502    0  0.31331648139E+02 -0.31425353119E+02  0.89941945880E+01  0.45521539188E+02  0.47000000000E+01 0. -1.
         -5    1    1    2    0  502 -0.46900367086E+02  0.84020038226E+02  0.42069203747E+02  0.10512335212E+03  0.47000000000E+01 0.  1.
        -11    1    1    2    0    0 -0.29177408430E+02 -0.30057328997E+02  0.57057924812E+02  0.70783973984E+02  0.00000000000E+00 0.  1.
         11    1    1    2    0    0  0.44746127378E+02 -0.22537356111E+02 -0.13053965820E+00  0.50101550638E+02  0.00000000000E+00 0. -1.
<mgrwt>
<rscale>  0 0.13199904E+03</rscale>
<asrwt>0</asrwt>
<pdfrwt beam="1">  1        2 0.29193938E-01 0.14172654E+03</pdfrwt>
<pdfrwt beam="2">  1       -2 0.12579972E-01 0.14172654E+03</pdfrwt>
<totfact> 0.78614280E+03</totfact>
</mgrwt>
</event>
<event>
 6    1  0.5258538E-006  0.1253000E+03  0.7546771E-02  0.1248490E+00
          2   -1    0    0  501    0  0.00000000000E+00  0.00000000000E+00  0.19779417025E+03  0.19779417025E+03  0.00000000000E+00 0. -1.
         -2   -1    0    0    0  501 -0.00000000000E+00 -0.00000000000E+00 -0.62730249405E+02  0.62730249405E+02  0.00000000000E+00 0.  1.
          5    1    1    2  502    0 -0.57953016229E+02  0.18369218221E+02  0.62311065910E+02  0.87182218388E+02  0.47000000000E+01 0.  1.
         -5    1    1    2    0  502  0.56074197555E+02 -0.26823939171E+02  0.35194093233E+02  0.71585987055E+02  0.47000000000E+01 0.  1.
        -11    1    1    2    0    0 -0.39023255507E+02 -0.11686478573E+02  0.38646506183E+02  0.56151052456E+02  0.00000000000E+00 0.  1.
         11    1    1    2    0    0  0.40902074181E+02  0.20141199524E+02 -0.10877444823E+01  0.45605161754E+02  0.00000000000E+00 0. -1.
<mgrwt>
<rscale>  0 0.11678921E+03</rscale>
<asrwt>0</asrwt>
<pdfrwt beam="1">  1        2 0.30429872E-01 0.12529999E+03</pdfrwt>
<pdfrwt beam="2">  1       -2 0.96508077E-02 0.12529999E+03</pdfrwt>
<totfact> 0.11329542E+04</totfact>
</mgrwt>
</event>
<event>
 6    1  0.5258538E-006  0.1448969E+03  0.7546771E-02  0.1215355E+00
         -1   -1    0    0    0  501 -0.00000000000E+00  0.00000000000E+00  0.23042914912E+03  0.23042914912E+03  0.00000000000E+00 0.  1.
          1   -1    0    0  501    0  0.00000000000E+00 -0.00000000000E+00 -0.77514397671E+02  0.77514397671E+02  0.00000000000E+00 0. -1.
          5    1    1    2  502    0 -0.51762916866E+02 -0.47964244285E+02  0.18854060459E+02  0.73195176673E+02  0.47000000000E+01 0. -1.
         -5    1    1    2    0  502 -0.18446683675E+02  0.69146325955E+02  0.48591216324E+02  0.86629618697E+02  0.47000000000E+01 0. -1.
        -11    1    1    2    0    0  0.48759921819E+02 -0.83628982050E+01  0.10521833818E+03  0.11626851135E+03  0.00000000000E+00 0.  1.
         11    1    1    2    0    0  0.21449678723E+02 -0.12819183465E+02 -0.19748863519E+02  0.31850240067E+02  0.00000000000E+00 0. -1.
<mgrwt>
<rscale>  0 0.13850489E+03</rscale>
<asrwt>0</asrwt>
<pdfrwt beam="2">  1        1 0.11925292E-01 0.14489686E+03</pdfrwt>
<pdfrwt beam="1">  1       -1 0.35450638E-01 0.14489686E+03</pdfrwt>
<totfact> 0.37287794E+03</totfact>
</mgrwt>
</event>
<event>
 6    1  0.5258538E-006  0.1285451E+03  0.7546771E-02  0.1244395E+00
         -2   -1    0    0    0  501 -0.00000000000E+00  0.00000000000E+00  0.66256565050E+02  0.66256565050E+02  0.00000000000E+00 0.  1.
          2   -1    0    0  501    0  0.00000000000E+00 -0.00000000000E+00 -0.35730000153E+03  0.35730000153E+03  0.00000000000E+00 0. -1.
          5    1    1    2  502    0  0.61766769732E+01  0.41200750733E+02 -0.21921591135E+02  0.47310668535E+02  0.47000000000E+01 0.  1.
         -5    1    1    2    0  502 -0.16943860072E+02 -0.13147594226E+02 -0.27969978158E+03  0.28056017437E+03  0.47000000000E+01 0.  1.
        -11    1    1    2    0    0 -0.34123536041E+02 -0.24821618117E+02 -0.13933181033E+02  0.44437168807E+02  0.00000000000E+00 0. -1.
         11    1    1    2    0    0  0.44890719141E+02 -0.32315383895E+01  0.24511117273E+02  0.51248554860E+02  0.00000000000E+00 0.  1.
<mgrwt>
<rscale>  0 0.11921636E+03</rscale>
<asrwt>0</asrwt>
<pdfrwt beam="2">  1        2 0.54969230E-01 0.12854508E+03</pdfrwt>
<pdfrwt beam="1">  1       -2 0.10193318E-01 0.12854508E+03</pdfrwt>
<totfact> 0.55550463E+03</totfact>
</mgrwt>
</event>
<event>
 6    1  0.5258538E-006  0.1440422E+03  0.7546771E-02  0.1220706E+00
         -1   -1    0    0    0  501 -0.00000000000E+00  0.00000000000E+00  0.86837599689E+02  0.86837599689E+02  0.00000000000E+00 0.  1.
          1   -1    0    0  501    0  0.00000000000E+00 -0.00000000000E+00 -0.18846322521E+03  0.18846322521E+03  0.00000000000E+00 0. -1.
          5    1    1    2  502    0 -0.30533226736E+02 -0.37586783764E+02 -0.51681060583E+02  0.70979336934E+02  0.47000000000E+01 0. -1.
         -5    1    1    2    0  502  0.76031745323E+02 -0.17670841945E+02  0.10334773963E+02  0.78879544273E+02  0.47000000000E+01 0. -1.
        -11    1    1    2    0    0  0.11049533275E+02  0.45601653233E+02 -0.47300826842E+02  0.66625604561E+02  0.00000000000E+00 0. -1.
         11    1    1    2    0    0 -0.56548051862E+02  0.96559724759E+01 -0.12978512062E+02  0.58816339134E+02  0.00000000000E+00 0.  1.
<mgrwt>
<rscale>  0 0.13465576E+03</rscale>
<asrwt>0</asrwt>
<pdfrwt beam="2">  1        1 0.28994342E-01 0.14404225E+03</pdfrwt>
<pdfrwt beam="1">  1       -1 0.13359631E-01 0.14404225E+03</pdfrwt>
<totfact> 0.58506177E+03</totfact>
</mgrwt>
</event>
<event>
 6    1  0.5258538E-006  0.6001252E+03  0.7546771E-02  0.1034124E+00
         -2   -1    0    0    0  501 -0.00000000000E+00  0.00000000000E+00  0.17267801849E+03  0.17267801849E+03  0.00000000000E+00 0.  1.
          2   -1    0    0  501    0  0.00000000000E+00 -0.00000000000E+00 -0.84912072506E+03  0.84912072506E+03  0.00000000000E+00 0. -1.
          5    1    1    2  502    0 -0.20709355382E+03  0.17253164774E+03 -0.40520314553E+03  0.48668941704E+03  0.47000000000E+01 0. -1.
         -5    1    1    2    0  502  0.13459461274E+03 -0.27245075346E+03 -0.18931657891E+03  0.35806141916E+03  0.47000000000E+01 0.  1.
        -11    1    1    2    0    0 -0.14694349650E+02  0.57445463205E+02 -0.23229087126E+02  0.63682773519E+02  0.00000000000E+00 0.  1.
         11    1    1    2    0    0  0.87193290729E+02  0.42473642513E+02 -0.58693895006E+02  0.11336513383E+03  0.00000000000E+00 0. -1.
<mgrwt>
<rscale>  0 0.42916527E+03</rscale>
<asrwt>0</asrwt>
<pdfrwt beam="2">  1        2 0.13063396E+00 0.60012521E+03</pdfrwt>
<pdfrwt beam="1">  1       -2 0.26565849E-01 0.60012521E+03</pdfrwt>
<totfact> 0.41284095E+02</totfact>
</mgrwt>
</event>
<event>
 6    1  0.5258538E-006  0.2949958E+03  0.7546771E-02  0.1087769E+00
         -2   -1    0    0    0  501 -0.00000000000E+00  0.00000000000E+00  0.17576519477E+03  0.17576519477E+03  0.00000000000E+00 0.  1.
          2   -1    0    0  501    0  0.00000000000E+00 -0.00000000000E+00 -0.12377664123E+03  0.12377664123E+03  0.00000000000E+00 0. -1.
          5    1    1    2  502    0 -0.35754545640E+02  0.17240152327E+02  0.51013000171E+02  0.64807611996E+02  0.47000000000E+01 0. -1.
         -5    1    1    2    0  502 -0.24622924066E+02 -0.36523385677E-01 -0.72508023835E+02  0.76718923637E+02  0.47000000000E+01 0. -1.
        -11    1    1    2    0    0  0.27180698982E+02 -0.64463224274E+02  0.71784918657E+02  0.10023658128E+03  0.00000000000E+00 0.  1.
         11    1    1    2    0    0  0.33196770723E+02  0.47259595332E+02  0.16986585470E+01  0.57778719078E+02  0.00000000000E+00 0. -1.
<mgrwt>
<rscale>  0 0.29499577E+03</rscale>
<asrwt>0</asrwt>
<pdfrwt beam="2">  1        2 0.19042560E-01 0.29499577E+03</pdfrwt>
<pdfrwt beam="1">  1       -2 0.27040799E-01 0.29499577E+03</pdfrwt>
<totfact> 0.36224852E+03</totfact>
</mgrwt>
</event>
<event>
 6    1  0.5258538E-006  0.1353474E+03  0.7546771E-02  0.1236736E+00
          1   -1    0    0  501    0  0.00000000000E+00  0.00000000000E+00  0.31589615737E+03  0.31589615737E+03  0.00000000000E+00 0. -1.
         -1   -1    0    0    0  501 -0.00000000000E+00 -0.00000000000E+00 -0.43374705667E+02  0.43374705667E+02  0.00000000000E+00 0.  1.
          5    1    1    2  502    0 -0.54779098075E+02  0.29931201506E+02  0.11290687991E+03  0.12909949628E+03  0.47000000000E+01 0. -1.
         -5    1    1    2    0  502  0.69323679686E+02 -0.92153377681E+01  0.77277013936E+02  0.10432891209E+03  0.47000000000E+01 0.  1.
        -11    1    1    2    0    0  0.34690982096E+02 -0.17279373813E+01  0.97056363911E+01  0.36064516968E+02  0.00000000000E+00 0.  1.
         11    1    1    2    0    0 -0.49235563707E+02 -0.18987926356E+02  0.72631921468E+02  0.89777937696E+02  0.00000000000E+00 0. -1.
<mgrwt>
<rscale>  0 0.12393943E+03</rscale>
<asrwt>0</asrwt>
<pdfrwt beam="1">  1        1 0.48599407E-01 0.13534736E+03</pdfrwt>
<pdfrwt beam="2">  1       -1 0.66730318E-02 0.13534736E+03</pdfrwt>
<totfact> 0.88443276E+03</totfact>
</mgrwt>
</event>
<event>
 6    1  0.5258538E-006  0.1675435E+03  0.7546771E-02  0.1187182E+00
          1   -1    0    0  501    0  0.00000000000E+00  0.00000000000E+00  0.48334416526E+03  0.48334416526E+03  0.00000000000E+00 0. -1.
         -1   -1    0    0    0  501 -0.00000000000E+00 -0.00000000000E+00 -0.50262778930E+02  0.50262778930E+02  0.00000000000E+00 0.  1.
          5    1    1    2  502    0 -0.41654565834E+02 -0.14952280670E+02  0.27564842088E+02  0.52350588071E+02  0.47000000000E+01 0. -1.
         -5    1    1    2    0  502 -0.10469811243E+02  0.11358834201E+03  0.19916724224E+03  0.22956830959E+03  0.47000000000E+01 0. -1.
        -11    1    1    2    0    0  0.72247377817E+02 -0.42356283102E+02  0.10905645324E+03  0.13750290292E+03  0.00000000000E+00 0.  1.
         11    1    1    2    0    0 -0.20123000739E+02 -0.56279778244E+02  0.97292848764E+02  0.11418514360E+03  0.00000000000E+00 0. -1.
<mgrwt>
<rscale>  0 0.16134927E+03</rscale>
<asrwt>0</asrwt>
<pdfrwt beam="1">  1        1 0.74360638E-01 0.16754351E+03</pdfrwt>
<pdfrwt beam="2">  1       -1 0.77327356E-02 0.16754351E+03</pdfrwt>
<totfact> 0.41863006E+03</totfact>
</mgrwt>
</event>
<event>
 6    1  0.5258538E-006  0.1272351E+03  0.7546771E-02  0.1246635E+00
          1   -1    0    0  501    0  0.00000000000E+00  0.00000000000E+00  0.37940561788E+02  0.37940561788E+02  0.00000000000E+00 0. -1.
         -1   -1    0    0    0  501 -0.00000000000E+00 -0.00000000000E+00 -0.32893593524E+03  0.32893593524E+03  0.00000000000E+00 0.  1.
          5    1    1    2  502    0 -0.36848489207E+02 -0.48430604036E+02 -0.11948026078E+03  0.13416764618E+03  0.47000000000E+01 0.  1.
         -5    1    1    2    0  502  0.43963048429E+02  0.25734211496E+02 -0.20814523806E+02  0.55229825908E+02  0.47000000000E+01 0.  1.
        -11    1    1    2    0    0 -0.26476110071E+02  0.34609839593E+02 -0.14835836479E+03  0.15462545005E+03  0.00000000000E+00 0.  1.
         11    1    1    2    0    0  0.19361550848E+02 -0.11913447053E+02 -0.23422240813E+01  0.22853574897E+02  0.00000000000E+00 0. -1.
<mgrwt>
<rscale>  0 0.11788060E+03</rscale>
<asrwt>0</asrwt>
<pdfrwt beam="1">  1        1 0.58370096E-02 0.12723512E+03</pdfrwt>
<pdfrwt beam="2">  1       -1 0.50605528E-01 0.12723512E+03</pdfrwt>
<totfact> 0.51189585E+03</totfact>
</mgrwt>
</event>
<event>
 6    1  0.5258538E-006  0.1853112E+03  0.7546771E-02  0.1168417E+00
         -2   -1    0    0    0  501 -0.00000000000E+00  0.00000000000E+00  0.11071567866E+03  0.11071567866E+03  0.00000000000E+00 0. -1.
          2   -1    0    0  501    0  0.00000000000E+00 -0.00000000000E+00 -0.27862226754E+03  0.27862226754E+03  0.00000000000E+00 0.  1.
          5    1    1    2  502    0 -0.13431614323E+02 -0.26206008151E+02  0.37391672038E+02  0.47826668965E+02  0.47000000000E+01 0.  1.
         -5    1    1    2    0  502 -0.78492269229E+02 -0.75113283295E+02 -0.10011694023E+03  0.14781249398E+03  0.47000000000E+01 0.  1.
        -11    1    1    2    0    0 -0.10006775211E+02  0.90451364418E+01 -0.38686102982E+02  0.40970289324E+02  0.00000000000E+00 0.  1.
         11    1    1    2    0    0  0.10193065876E+03  0.92274155004E+02 -0.66495217710E+02  0.15272849392E+03  0.00000000000E+00 0. -1.
<mgrwt>
<rscale>  0 0.17936674E+03</rscale>
<asrwt>0</asrwt>
<pdfrwt beam="2">  1        2 0.42864964E-01 0.18531115E+03</pdfrwt>
<pdfrwt beam="1">  1       -2 0.17033182E-01 0.18531115E+03</pdfrwt>
<totfact> 0.32134559E+03</totfact>
</mgrwt>
</event>
<event>
 6    1  0.5258538E-006  0.1386285E+03  0.7546771E-02  0.1228188E+00
         -1   -1    0    0    0  501 -0.00000000000E+00  0.00000000000E+00  0.35855671855E+02  0.35855671855E+02  0.00000000000E+00 0.  1.
          1   -1    0    0  501    0  0.00000000000E+00 -0.00000000000E+00 -0.46446998096E+03  0.46446998096E+03  0.00000000000E+00 0. -1.
          5    1    1    2  502    0 -0.84335442268E+02 -0.17278162703E+02 -0.13041881963E+03  0.15633988692E+03  0.47000000000E+01 0. -1.
         -5    1    1    2    0  502  0.24509278749E+02  0.20957043863E+02 -0.19011089041E+03  0.19288375536E+03  0.47000000000E+01 0. -1.
        -11    1    1    2    0    0  0.52237841376E+02 -0.22071526484E+02 -0.11644541136E+03  0.12952018445E+03  0.00000000000E+00 0. -1.
         11    1    1    2    0    0  0.75883221442E+01  0.18392645324E+02  0.83608122874E+01  0.21581826083E+02  0.00000000000E+00 0.  1.
<mgrwt>
<rscale>  0 0.12950796E+03</rscale>
<asrwt>0</asrwt>
<pdfrwt beam="2">  1        1 0.71456917E-01 0.13862849E+03</pdfrwt>
<pdfrwt beam="1">  1       -1 0.55162574E-02 0.13862849E+03</pdfrwt>
<totfact> 0.72421780E+03</totfact>
</mgrwt>
</event>
<event>
 6    1  0.5258538E-006  0.1642585E+03  0.7546771E-02  0.1195501E+00
         -2   -1    0    0    0  501 -0.00000000000E+00  0.00000000000E+00  0.85035040698E+02  0.85035040698E+02  0.00000000000E+00 0.  1.
          2   -1    0    0  501    0  0.00000000000E+00 -0.00000000000E+00 -0.32294916745E+03  0.32294916745E+03  0.00000000000E+00 0. -1.
          5    1    1    2  502    0 -0.14220155078E+01  0.44420172013E+02 -0.18235244998E+03  0.18774898088E+03  0.47000000000E+01 0. -1.
         -5    1    1    2    0  502 -0.80717436631E+02 -0.41242116515E+01 -0.44669599937E+02  0.92465003416E+02  0.47000000000E+01 0.  1.
        -11    1    1    2    0    0  0.51151553333E+01 -0.47214551455E+02 -0.16392784564E+02  0.50240442563E+02  0.00000000000E+00 0.  1.
         11    1    1    2    0    0  0.77024296806E+02  0.69185910929E+01  0.55007077247E+01  0.77529781288E+02  0.00000000000E+00 0. -1.
<mgrwt>
<rscale>  0 0.15411944E+03</rscale>
<asrwt>0</asrwt>
<pdfrwt beam="2">  1        2 0.49684489E-01 0.16425853E+03</pdfrwt>
<pdfrwt beam="1">  1       -2 0.13082314E-01 0.16425853E+03</pdfrwt>
<totfact> 0.42113108E+03</totfact>
</mgrwt>
</event>
<event>
 6    1  0.5258538E-006  0.3237528E+03  0.7546771E-02  0.1073935E+00
          2   -1    0    0  501    0  0.00000000000E+00  0.00000000000E+00  0.94553966497E+03  0.94553966497E+03  0.00000000000E+00 0. -1.
         -2   -1    0    0    0  501 -0.00000000000E+00 -0.00000000000E+00 -0.27713236447E+02  0.27713236447E+02  0.00000000000E+00 0.  1.
          5    1    1    2  502    0  0.15776199217E+02 -0.10066039616E+03  0.23866363170E+03  0.25954541590E+03  0.47000000000E+01 0.  1.
         -5    1    1    2    0  502 -0.49009178883E+02 -0.10074226132E+02  0.33847858882E+03  0.34218888751E+03  0.47000000000E+01 0.  1.
        -11    1    1    2    0    0 -0.23713989946E+02  0.72557927697E+02  0.21798615081E+03  0.23096529639E+03  0.00000000000E+00 0. -1.
         11    1    1    2    0    0  0.56946969612E+02  0.38176694592E+02  0.12269805719E+03  0.14055330162E+03  0.00000000000E+00 0.  1.
<mgrwt>
<rscale>  0 0.32375277E+03</rscale>
<asrwt>0</asrwt>
<pdfrwt beam="1">  1        2 0.14546762E+00 0.32375277E+03</pdfrwt>
<pdfrwt beam="2">  1       -2 0.42635756E-02 0.32375277E+03</pdfrwt>
<totfact> 0.71067858E+03</totfact>
</mgrwt>
</event>
<event>
 6    1  0.5258538E-006  0.1261937E+03  0.7546771E-02  0.1248300E+00
         -2   -1    0    0    0  501 -0.00000000000E+00  0.00000000000E+00  0.57219384592E+02  0.57219384592E+02  0.00000000000E+00 0.  1.
          2   -1    0    0  501    0  0.00000000000E+00 -0.00000000000E+00 -0.23590455980E+03  0.23590455980E+03  0.00000000000E+00 0. -1.
          5    1    1    2  502    0 -0.30942119448E+02  0.55705397124E+02 -0.57348655388E+02  0.85857232075E+02  0.47000000000E+01 0. -1.
         -5    1    1    2    0  502  0.13748939519E+02 -0.57848458885E+02 -0.92324813474E+02  0.10991559815E+03  0.47000000000E+01 0. -1.
        -11    1    1    2    0    0 -0.36787627123E+02  0.89160808272E+01 -0.61954765368E+01  0.38356354574E+02  0.00000000000E+00 0.  1.
         11    1    1    2    0    0  0.53980807053E+02 -0.67730190664E+01 -0.22816229812E+02  0.58994759599E+02  0.00000000000E+00 0. -1.
<mgrwt>
<rscale>  0 0.11690003E+03</rscale>
<asrwt>0</asrwt>
<pdfrwt beam="2">  1        2 0.36293009E-01 0.12619372E+03</pdfrwt>
<pdfrwt beam="1">  1       -2 0.88029822E-02 0.12619372E+03</pdfrwt>
<totfact> 0.10829995E+04</totfact>
</mgrwt>
</event>
<event>
 6    1  0.5258538E-006  0.1315372E+03  0.7546771E-02  0.1239351E+00
         -1   -1    0    0    0  501 -0.00000000000E+00  0.00000000000E+00  0.11131571696E+02  0.11131571696E+02  0.00000000000E+00 0.  1.
          1   -1    0    0  501    0  0.00000000000E+00 -0.00000000000E+00 -0.12797382201E+04  0.12797382201E+04  0.00000000000E+00 0. -1.
          5    1    1    2  502    0 -0.22970627599E+02  0.49555994281E+02 -0.23027954502E+03  0.23671545188E+03  0.47000000000E+01 0. -1.
         -5    1    1    2    0  502  0.58296025002E+02 -0.28962036591E+02 -0.66168819155E+03  0.66489892385E+03  0.47000000000E+01 0. -1.
        -11    1    1    2    0    0 -0.17500931688E+02 -0.55146842383E+02 -0.19017475366E+03  0.19878101963E+03  0.00000000000E+00 0.  1.
         11    1    1    2    0    0 -0.17824465716E+02  0.34552884693E+02 -0.18646415821E+03  0.19047439648E+03  0.00000000000E+00 0. -1.
<mgrwt>
<rscale>  0 0.12229958E+03</rscale>
<asrwt>0</asrwt>
<pdfrwt beam="2">  1        1 0.19688259E+00 0.13153722E+03</pdfrwt>
<pdfrwt beam="1">  1       -1 0.17125513E-02 0.13153722E+03</pdfrwt>
<totfact> 0.84171905E+03</totfact>
</mgrwt>
</event>
<event>
 6    1  0.5258538E-006  0.1337526E+03  0.7546771E-02  0.1234959E+00
         -1   -1    0    0    0  501 -0.00000000000E+00  0.00000000000E+00  0.32157251145E+02  0.32157251145E+02  0.00000000000E+00 0.  1.
          1   -1    0    0  501    0  0.00000000000E+00 -0.00000000000E+00 -0.43609226381E+03  0.43609226381E+03  0.00000000000E+00 0. -1.
          5    1    1    2  502    0  0.61433571505E+02 -0.18983249871E+02 -0.13869437346E+03  0.15294661393E+03  0.47000000000E+01 0. -1.
         -5    1    1    2    0  502 -0.31351149189E+02  0.55856039672E+02 -0.70662542441E+02  0.95488620409E+02  0.47000000000E+01 0. -1.
        -11    1    1    2    0    0 -0.35984096209E+02 -0.20009171834E+02 -0.19746874602E+03  0.20171546246E+03  0.00000000000E+00 0. -1.
         11    1    1    2    0    0  0.59016738938E+01 -0.16863617967E+02  0.28906492592E+01  0.18098818161E+02  0.00000000000E+00 0.  1.
<mgrwt>
<rscale>  0 0.12507082E+03</rscale>
<asrwt>0</asrwt>
<pdfrwt beam="2">  1        1 0.67091114E-01 0.13375256E+03</pdfrwt>
<pdfrwt beam="1">  1       -1 0.49472697E-02 0.13375256E+03</pdfrwt>
<totfact> 0.92040690E+03</totfact>
</mgrwt>
</event>
<event>
 6    1  0.5258538E-006  0.2965483E+03  0.7546771E-02  0.1102438E+00
         -2   -1    0    0    0  501 -0.00000000000E+00  0.00000000000E+00  0.65683802243E+02  0.65683802243E+02  0.00000000000E+00 0.  1.
          2   -1    0    0  501    0  0.00000000000E+00 -0.00000000000E+00 -0.17704600444E+04  0.17704600444E+04  0.00000000000E+00 0. -1.
          5    1    1    2  502    0  0.14605973347E+03 -0.16099814941E+03 -0.10342279204E+04  0.10568364733E+04  0.47000000000E+01 0. -1.
         -5    1    1    2    0  502  0.63740797257E+01  0.74190637569E+02 -0.53350709377E+03  0.53869916344E+03  0.47000000000E+01 0.  1.
        -11    1    1    2    0    0 -0.12645547765E+03  0.50187761649E+02 -0.54332313566E+02  0.14649846260E+03  0.00000000000E+00 0.  1.
         11    1    1    2    0    0 -0.25978335554E+02  0.36619750188E+02 -0.82708914434E+02  0.94109747364E+02  0.00000000000E+00 0. -1.
<mgrwt>
<rscale>  0 0.26798491E+03</rscale>
<asrwt>0</asrwt>
<pdfrwt beam="2">  1        2 0.27237844E+00 0.29654830E+03</pdfrwt>
<pdfrwt beam="1">  1       -2 0.10105201E-01 0.29654830E+03</pdfrwt>
<totfact> 0.63917200E+02</totfact>
</mgrwt>
</event>
<event>
 6    1  0.5258538E-006  0.1495059E+03  0.7546771E-02  0.1210419E+00
          2   -1    0    0  501    0  0.00000000000E+00  0.00000000000E+00  0.52826820021E+03  0.52826820021E+03  0.00000000000E+00 0. -1.
         -2   -1    0    0    0  501 -0.00000000000E+00 -0.00000000000E+00 -0.34990765882E+02  0.34990765882E+02  0.00000000000E+00 0.  1.
          5    1    1    2  502    0 -0.11574648046E+02 -0.44330954876E+02  0.73939053678E+02  0.87110732383E+02  0.47000000000E+01 0. -1.
         -5    1    1    2    0  502  0.93568500971E+02  0.42500467087E+02  0.20524428633E+03  0.22958366917E+03  0.47000000000E+01 0. -1.
        -11    1    1    2    0    0 -0.49314131410E+02  0.70810922972E+00  0.20740523603E+03  0.21318845397E+03  0.00000000000E+00 0. -1.
         11    1    1    2    0    0 -0.32679721515E+02  0.11223785593E+01  0.66888582995E+01  0.33376110577E+02  0.00000000000E+00 0.  1.
<mgrwt>
<rscale>  0 0.14218447E+03</rscale>
<asrwt>0</asrwt>
<pdfrwt beam="1">  1        2 0.81272025E-01 0.14950587E+03</pdfrwt>
<pdfrwt beam="2">  1       -2 0.53831951E-02 0.14950587E+03</pdfrwt>
<totfact> 0.98124203E+03</totfact>
</mgrwt>
</event>
<event>
 6    1  0.5258538E-006  0.1347135E+03  0.7546771E-02  0.1231073E+00
          2   -1    0    0  501    0  0.00000000000E+00  0.00000000000E+00  0.18487855039E+03  0.18487855039E+03  0.00000000000E+00 0. -1.
         -2   -1    0    0    0  501 -0.00000000000E+00 -0.00000000000E+00 -0.80556251400E+02  0.80556251400E+02  0.00000000000E+00 0.  1.
          5    1    1    2  502    0 -0.67648369666E+02  0.17450788899E+02  0.96152292663E+02  0.11894614469E+03  0.47000000000E+01 0. -1.
         -5    1    1    2    0  502  0.12417562765E+02  0.13080269860E+02 -0.26743100636E+02  0.32597128037E+02  0.47000000000E+01 0.  1.
        -11    1    1    2    0    0  0.64228515602E+02 -0.52146554771E+02  0.36497121998E+02  0.90424583522E+02  0.00000000000E+00 0.  1.
         11    1    1    2    0    0 -0.89977087019E+01  0.21615496012E+02 -0.15840150303E+01  0.23466945548E+02  0.00000000000E+00 0. -1.
<mgrwt>
<rscale>  0 0.12759215E+03</rscale>
<asrwt>0</asrwt>
<pdfrwt beam="1">  1        2 0.28442854E-01 0.13471350E+03</pdfrwt>
<pdfrwt beam="2">  1       -2 0.12393269E-01 0.13471350E+03</pdfrwt>
<totfact> 0.82537278E+03</totfact>
</mgrwt>
</event>
<event>
 6    1  0.5258538E-006  0.1326355E+03  0.7546771E-02  0.1236326E+00
         -3   -1    0    0    0  501 -0.00000000000E+00  0.00000000000E+00  0.55017751332E+03  0.55017751332E+03  0.00000000000E+00 0.  1.
          3   -1    0    0  501    0  0.00000000000E+00 -0.00000000000E+00 -0.28581477539E+02  0.28581477539E+02  0.00000000000E+00 0. -1.
          5    1    1    2  502    0  0.50407670248E+02 -0.51110090370E+01  0.48071162361E+02  0.69999873457E+02  0.47000000000E+01 0. -1.
         -5    1    1    2    0  502 -0.69046818278E+02 -0.35144221793E+02  0.14104251556E+03  0.16098962897E+03  0.47000000000E+01 0. -1.
        -11    1    1    2    0    0  0.54393674682E+02  0.31241897940E+02  0.24350060275E+03  0.25145033620E+03  0.00000000000E+00 0.  1.
         11    1    1    2    0    0 -0.35754526652E+02  0.90133328899E+01  0.88981755111E+02  0.96319152241E+02  0.00000000000E+00 0. -1.
<mgrwt>
<rscale>  0 0.12419932E+03</rscale>
<asrwt>0</asrwt>
<pdfrwt beam="2">  1        3 0.43971508E-02 0.13263547E+03</pdfrwt>
<pdfrwt beam="1">  1       -3 0.84642687E-01 0.13263547E+03</pdfrwt>
<totfact> 0.84770129E+02</totfact>
</mgrwt>
</event>
<event>
 6    1  0.5258538E-006  0.1392227E+03  0.7546771E-02  0.1225736E+00
         -1   -1    0    0    0  501 -0.00000000000E+00  0.00000000000E+00  0.11593031396E+03  0.11593031396E+03  0.00000000000E+00 0.  1.
          1   -1    0    0  501    0  0.00000000000E+00 -0.00000000000E+00 -0.13910045930E+03  0.13910045930E+03  0.00000000000E+00 0. -1.
          5    1    1    2  502    0 -0.21126829271E+00  0.73580419018E+02  0.25759126467E+02  0.78100866150E+02  0.47000000000E+01 0.  1.
         -5    1    1    2    0  502 -0.10685874444E+02 -0.13258891855E+02 -0.63835427028E+02  0.66234718009E+02  0.47000000000E+01 0.  1.
        -11    1    1    2    0    0  0.62124546005E+01 -0.78131392157E+02 -0.10752282423E+02  0.79112076258E+02  0.00000000000E+00 0. -1.
         11    1    1    2    0    0  0.46846881360E+01  0.17809864994E+02  0.25658437643E+02  0.31583112835E+02  0.00000000000E+00 0.  1.
<mgrwt>
<rscale>  0 0.13116600E+03</rscale>
<asrwt>0</asrwt>
<pdfrwt beam="2">  1        1 0.21400071E-01 0.13922269E+03</pdfrwt>
<pdfrwt beam="1">  1       -1 0.17835433E-01 0.13922269E+03</pdfrwt>
<totfact> 0.54292739E+03</totfact>
</mgrwt>
</event>
<event>
 6    1  0.5258538E-006  0.1325962E+03  0.7546771E-02  0.1239818E+00
         -2   -1    0    0    0  501 -0.00000000000E+00  0.00000000000E+00  0.10544581941E+02  0.10544581941E+02  0.00000000000E+00 0.  1.
          2   -1    0    0  501    0  0.00000000000E+00 -0.00000000000E+00 -0.13515134666E+04  0.13515134666E+04  0.00000000000E+00 0. -1.
          5    1    1    2  502    0 -0.24218808744E+02 -0.26512284705E+02 -0.69367044093E+02  0.78251701218E+02  0.47000000000E+01 0. -1.
         -5    1    1    2    0  502  0.31940787376E+01 -0.12337986538E+02 -0.90435255510E+03  0.90445456601E+03  0.47000000000E+01 0. -1.
        -11    1    1    2    0    0 -0.24417135822E+02 -0.97900334122E+01 -0.14427568089E+03  0.14665440113E+03  0.00000000000E+00 0.  1.
         11    1    1    2    0    0  0.45441865828E+02  0.48640304655E+02 -0.22297360456E+03  0.23269738017E+03  0.00000000000E+00 0. -1.
<mgrwt>
<rscale>  0 0.12200952E+03</rscale>
<asrwt>0</asrwt>
<pdfrwt beam="2">  1        2 0.20792494E+00 0.13259619E+03</pdfrwt>
<pdfrwt beam="1">  1       -2 0.16222450E-02 0.13259619E+03</pdfrwt>
<totfact> 0.16642384E+04</totfact>
</mgrwt>
</event>
<event>
 6    1  0.5258538E-006  0.1433984E+03  0.7546771E-02  0.1221281E+00
         -1   -1    0    0    0  501 -0.00000000000E+00  0.00000000000E+00  0.10736170439E+03  0.10736170439E+03  0.00000000000E+00 0.  1.
          1   -1    0    0  501    0  0.00000000000E+00 -0.00000000000E+00 -0.23403290568E+03  0.23403290568E+03  0.00000000000E+00 0. -1.
          5    1    1    2  502    0 -0.55665060577E+02 -0.46067447566E+02 -0.92922113927E+02  0.11780245308E+03  0.47000000000E+01 0. -1.
         -5    1    1    2    0  502 -0.10474978867E+02  0.69796202458E+02 -0.77618792236E+02  0.10501429411E+03  0.47000000000E+01 0. -1.
        -11    1    1    2    0    0 -0.85674173369E+01 -0.31853401083E+02  0.32256766620E+01  0.33142793943E+02  0.00000000000E+00 0.  1.
         11    1    1    2    0    0  0.74707456781E+02  0.81246461913E+01  0.40644028209E+02  0.85435068932E+02  0.00000000000E+00 0. -1.
<mgrwt>
<rscale>  0 0.13425127E+03</rscale>
<asrwt>0</asrwt>
<pdfrwt beam="2">  1        1 0.36005063E-01 0.14339840E+03</pdfrwt>
<pdfrwt beam="1">  1       -1 0.16517185E-01 0.14339840E+03</pdfrwt>
<totfact> 0.32038024E+03</totfact>
</mgrwt>
</event>
<event>
 6    1  0.5258538E-006  0.1541553E+03  0.7546771E-02  0.1204138E+00
          1   -1    0    0  501    0  0.00000000000E+00  0.00000000000E+00  0.41045992398E+03  0.41045992398E+03  0.00000000000E+00 0. -1.
         -1   -1    0    0    0  501 -0.00000000000E+00 -0.00000000000E+00 -0.50513876894E+02  0.50513876894E+02  0.00000000000E+00 0.  1.
          5    1    1    2  502    0  0.64224742639E+02  0.78606638685E+02  0.10326741214E+03  0.14487950035E+03  0.47000000000E+01 0.  1.
         -5    1    1    2    0  502  0.10080862810E+02 -0.27438098529E+02  0.14016644131E+03  0.14325918580E+03  0.47000000000E+01 0.  1.
        -11    1    1    2    0    0 -0.73298615784E+02 -0.24986103883E+02  0.12345138703E+03  0.14573001552E+03  0.00000000000E+00 0. -1.
         11    1    1    2    0    0 -0.10069896660E+01 -0.26182436273E+02 -0.69391934048E+01  0.27105099197E+02  0.00000000000E+00 0.  1.
<mgrwt>
<rscale>  0 0.14705573E+03</rscale>
<asrwt>0</asrwt>
<pdfrwt beam="1">  1        1 0.63147678E-01 0.15415532E+03</pdfrwt>
<pdfrwt beam="2">  1       -1 0.77713659E-02 0.15415532E+03</pdfrwt>
<totfact> 0.51067871E+03</totfact>
</mgrwt>
</event>
<event>
 6    1  0.5258538E-006  0.1271131E+03  0.7546771E-02  0.1247592E+00
          4   -1    0    0  501    0  0.00000000000E+00  0.00000000000E+00  0.46293478824E+03  0.46293478824E+03  0.00000000000E+00 0. -1.
         -4   -1    0    0    0  501 -0.00000000000E+00 -0.00000000000E+00 -0.31998981907E+02  0.31998981907E+02  0.00000000000E+00 0.  1.
          5    1    1    2  502    0 -0.56570287457E+02  0.48500540074E+02  0.22283519631E+03  0.23501088172E+03  0.47000000000E+01 0. -1.
         -5    1    1    2    0  502  0.37357693498E+02 -0.35726594306E+02  0.12666939193E+03  0.13689124024E+03  0.47000000000E+01 0. -1.
        -11    1    1    2    0    0  0.36818232892E+02  0.20682664877E+02  0.11879487041E+02  0.43868862671E+02  0.00000000000E+00 0.  1.
         11    1    1    2    0    0 -0.17605638933E+02 -0.33456610645E+02  0.69551731050E+02  0.79162785513E+02  0.00000000000E+00 0. -1.
<mgrwt>
<rscale>  0 0.11731585E+03</rscale>
<asrwt>0</asrwt>
<pdfrwt beam="1">  1        4 0.71220732E-01 0.12711306E+03</pdfrwt>
<pdfrwt beam="2">  1       -4 0.49229206E-02 0.12711306E+03</pdfrwt>
<totfact> 0.73487676E+02</totfact>
</mgrwt>
</event>
<event>
 6    1  0.5258538E-006  0.1276451E+03  0.7546771E-02  0.1246844E+00
         -1   -1    0    0    0  501 -0.00000000000E+00  0.00000000000E+00  0.49039611646E+02  0.49039611646E+02  0.00000000000E+00 0.  1.
          1   -1    0    0  501    0  0.00000000000E+00 -0.00000000000E+00 -0.24953297085E+03  0.24953297085E+03  0.00000000000E+00 0. -1.
          5    1    1    2  502    0 -0.59577865598E+02 -0.20315424903E+02 -0.66168176842E+02  0.91447012990E+02  0.47000000000E+01 0.  1.
         -5    1    1    2    0  502  0.64132789657E+02 -0.51369424725E+01 -0.64894602526E+02  0.91503018115E+02  0.47000000000E+01 0.  1.
        -11    1    1    2    0    0  0.11765675439E+02 -0.19004569549E+02  0.89245059757E+01  0.24067646108E+02  0.00000000000E+00 0. -1.
         11    1    1    2    0    0 -0.16320599498E+02  0.44456936924E+02 -0.78355085811E+02  0.91554905281E+02  0.00000000000E+00 0.  1.
<mgrwt>
<rscale>  0 0.11775677E+03</rscale>
<asrwt>0</asrwt>
<pdfrwt beam="2">  1        1 0.38389689E-01 0.12764506E+03</pdfrwt>
<pdfrwt beam="1">  1       -1 0.75445555E-02 0.12764506E+03</pdfrwt>
<totfact> 0.98031862E+03</totfact>
</mgrwt>
</event>
<event>
 6    1  0.5258538E-006  0.1572588E+03  0.7546771E-02  0.1199814E+00
          1   -1    0    0  501    0  0.00000000000E+00  0.00000000000E+00  0.10877363354E+04  0.10877363354E+04  0.00000000000E+00 0. -1.
         -1   -1    0    0    0  501 -0.00000000000E+00 -0.00000000000E+00 -0.20901081446E+02  0.20901081446E+02  0.00000000000E+00 0.  1.
          5    1    1    2  502    0 -0.79054879403E+02 -0.66024861445E+02  0.55080657225E+03  0.56037391652E+03  0.47000000000E+01 0. -1.
         -5    1    1    2    0  502 -0.14823499876E+02  0.48937613893E+02  0.18126117541E+03  0.18839408141E+03  0.47000000000E+01 0. -1.
        -11    1    1    2    0    0  0.52292012760E+02 -0.61337651921E+01  0.55236701566E+02  0.76309703667E+02  0.00000000000E+00 0. -1.
         11    1    1    2    0    0  0.41586366519E+02  0.23221012745E+02  0.27953080475E+03  0.28355971526E+03  0.00000000000E+00 0.  1.
<mgrwt>
<rscale>  0 0.15053736E+03</rscale>
<asrwt>0</asrwt>
<pdfrwt beam="1">  1        1 0.16734401E+00 0.15725879E+03</pdfrwt>
<pdfrwt beam="2">  1       -1 0.32155518E-02 0.15725879E+03</pdfrwt>
<totfact> 0.46122912E+03</totfact>
</mgrwt>
</event>
<event>
 6    1  0.5258538E-006  0.1449144E+03  0.7546771E-02  0.1264038E+00
         -2   -1    0    0    0  501 -0.00000000000E+00  0.00000000000E+00  0.55351207859E+02  0.55351207859E+02  0.00000000000E+00 0.  1.
          2   -1    0    0  501    0  0.00000000000E+00 -0.00000000000E+00 -0.20178559411E+03  0.20178559411E+03  0.00000000000E+00 0. -1.
          5    1    1    2  502    0 -0.12407578335E+02  0.31779349135E+02 -0.14984090524E+03  0.15374739645E+03  0.47000000000E+01 0. -1.
         -5    1    1    2    0  502 -0.21398069500E+02 -0.53305256921E+02 -0.42613150911E+01  0.57789069901E+02  0.47000000000E+01 0.  1.
        -11    1    1    2    0    0  0.26054404371E+02  0.93217463409E+01  0.12489661825E+02  0.30359818749E+02  0.00000000000E+00 0.  1.
         11    1    1    2    0    0  0.77512434636E+01  0.12204161445E+02 -0.48218277513E+01  0.15240516877E+02  0.00000000000E+00 0. -1.
<mgrwt>
<rscale>  0 0.10814802E+03</rscale>
<asrwt>0</asrwt>
<pdfrwt beam="2">  1        2 0.31043937E-01 0.14491440E+03</pdfrwt>
<pdfrwt beam="1">  1       -2 0.85155706E-02 0.14491440E+03</pdfrwt>
<totfact> 0.13639471E+04</totfact>
</mgrwt>
</event>
<event>
 6    1  0.5258538E-006  0.1264756E+03  0.7546771E-02  0.1257251E+00
          2   -1    0    0  501    0  0.00000000000E+00  0.00000000000E+00  0.54362228323E+03  0.54362228323E+03  0.00000000000E+00 0. -1.
         -2   -1    0    0    0  501 -0.00000000000E+00 -0.00000000000E+00 -0.19401468088E+02  0.19401468088E+02  0.00000000000E+00 0.  1.
          5    1    1    2  502    0 -0.13311016048E+02 -0.37002646183E+02  0.30454019974E+03  0.30710454609E+03  0.47000000000E+01 0. -1.
         -5    1    1    2    0  502  0.32555414956E+02  0.36912480395E+02  0.54619812053E+02  0.73673605318E+02  0.47000000000E+01 0. -1.
        -11    1    1    2    0    0 -0.40442920674E+01  0.30363735610E+02  0.12973538068E+03  0.13330259464E+03  0.00000000000E+00 0. -1.
         11    1    1    2    0    0 -0.15200106842E+02 -0.30273569821E+02  0.35325422675E+02  0.48943005270E+02  0.00000000000E+00 0.  1.
<mgrwt>
<rscale>  0 0.11181171E+03</rscale>
<asrwt>0</asrwt>
<pdfrwt beam="1">  1        2 0.83634186E-01 0.12647564E+03</pdfrwt>
<pdfrwt beam="2">  1       -2 0.29848417E-02 0.12647564E+03</pdfrwt>
<totfact> 0.22555503E+04</totfact>
</mgrwt>
</event>
<event>
 6    1  0.5258538E-006  0.1554835E+03  0.7546771E-02  0.1202403E+00
          1   -1    0    0  501    0  0.00000000000E+00  0.00000000000E+00  0.71073592552E+03  0.71073592552E+03  0.00000000000E+00 0. -1.
         -1   -1    0    0    0  501 -0.00000000000E+00 -0.00000000000E+00 -0.29361805697E+02  0.29361805697E+02  0.00000000000E+00 0.  1.
          5    1    1    2  502    0  0.28606154441E+02  0.22791493352E+02  0.72873857883E+02  0.81672843736E+02  0.47000000000E+01 0. -1.
         -5    1    1    2    0  502 -0.17854676656E+02 -0.11463607045E+03  0.36150278124E+03  0.37969272968E+03  0.47000000000E+01 0. -1.
        -11    1    1    2    0    0  0.11003958316E+02  0.90255689844E+02  0.12370884299E+03  0.15352867641E+03  0.00000000000E+00 0.  1.
         11    1    1    2    0    0 -0.21755436101E+02  0.15888872583E+01  0.12328863771E+03  0.12520348139E+03  0.00000000000E+00 0. -1.
<mgrwt>
<rscale>  0 0.14843980E+03</rscale>
<asrwt>0</asrwt>
<pdfrwt beam="1">  1        1 0.10934398E+00 0.15548353E+03</pdfrwt>
<pdfrwt beam="2">  1       -1 0.45172014E-02 0.15548353E+03</pdfrwt>
<totfact> 0.55063151E+03</totfact>
</mgrwt>
</event>
<event>
 6    1  0.5258538E-006  0.2138032E+03  0.7546771E-02  0.1145853E+00
          2   -1    0    0  501    0  0.00000000000E+00  0.00000000000E+00  0.18314938030E+04  0.18314938030E+04  0.00000000000E+00 0. -1.
         -2   -1    0    0    0  501 -0.00000000000E+00 -0.00000000000E+00 -0.27328254534E+02  0.27328254534E+02  0.00000000000E+00 0.  1.
          5    1    1    2  502    0 -0.11902031218E+03  0.12302541820E+03  0.93594584510E+03  0.95148189852E+03  0.47000000000E+01 0. -1.
         -5    1    1    2    0  502 -0.17759972503E+02 -0.16361026332E+02  0.46842610399E+03  0.46907164133E+03  0.47000000000E+01 0. -1.
        -11    1    1    2    0    0  0.27526628883E+02 -0.33637220692E+02  0.61170585896E+02  0.75040112556E+02  0.00000000000E+00 0.  1.
         11    1    1    2    0    0  0.10925365580E+03 -0.73027171176E+02  0.33862301346E+03  0.36322840512E+03  0.00000000000E+00 0. -1.
<mgrwt>
<rscale>  0 0.20467619E+03</rscale>
<asrwt>0</asrwt>
<pdfrwt beam="1">  1        2 0.28176818E+00 0.21380315E+03</pdfrwt>
<pdfrwt beam="2">  1       -2 0.42043483E-02 0.21380315E+03</pdfrwt>
<totfact> 0.23262249E+03</totfact>
</mgrwt>
</event>
<event>
 6    1  0.5258538E-006  0.3885961E+03  0.7546771E-02  0.1048698E+00
          2   -1    0    0  501    0  0.00000000000E+00  0.00000000000E+00  0.34411801660E+03  0.34411801660E+03  0.00000000000E+00 0. -1.
         -2   -1    0    0    0  501 -0.00000000000E+00 -0.00000000000E+00 -0.42778048070E+03  0.42778048070E+03  0.00000000000E+00 0.  1.
          5    1    1    2  502    0 -0.34396284852E+02 -0.10949155742E+03 -0.71000977115E+02  0.13503604818E+03  0.47000000000E+01 0.  1.
         -5    1    1    2    0  502 -0.11736610533E+03 -0.22569513859E+03  0.27839557289E+02  0.25594966148E+03  0.47000000000E+01 0.  1.
        -11    1    1    2    0    0  0.12769742550E+03  0.26471088877E+03 -0.67755278710E+02  0.30161111536E+03  0.00000000000E+00 0.  1.
         11    1    1    2    0    0  0.24064964678E+02  0.70475807232E+02  0.27254234438E+02  0.79301672269E+02  0.00000000000E+00 0. -1.
<mgrwt>
<rscale>  0 0.38611172E+03</rscale>
<asrwt>0</asrwt>
<pdfrwt beam="1">  1        2 0.52941233E-01 0.38859608E+03</pdfrwt>
<pdfrwt beam="2">  1       -2 0.65812382E-01 0.38859608E+03</pdfrwt>
<totfact> 0.20506935E+02</totfact>
</mgrwt>
</event>
<event>
 6    1  0.5258538E-006  0.1426571E+03  0.7546771E-02  0.1220149E+00
          2   -1    0    0  501    0  0.00000000000E+00  0.00000000000E+00  0.18576681805E+04  0.18576681805E+04  0.00000000000E+00 0. -1.
         -2   -1    0    0    0  501 -0.00000000000E+00 -0.00000000000E+00 -0.14479668661E+02  0.14479668661E+02  0.00000000000E+00 0.  1.
          5    1    1    2  502    0 -0.34704485181E+02 -0.16018886566E+02  0.14056731218E+04  0.14062005623E+04  0.47000000000E+01 0.  1.
         -5    1    1    2    0  502  0.10301020029E+00 -0.43392304795E+02  0.15648613043E+03  0.16245892325E+03  0.47000000000E+01 0.  1.
        -11    1    1    2    0    0  0.14295698760E+02  0.60404578836E+02  0.27551890057E+03  0.28242475940E+03  0.00000000000E+00 0. -1.
         11    1    1    2    0    0  0.20305776221E+02 -0.99338747463E+00  0.55103590401E+01  0.21063604235E+02  0.00000000000E+00 0.  1.
<mgrwt>
<rscale>  0 0.13504976E+03</rscale>
<asrwt>0</asrwt>
<pdfrwt beam="1">  1        2 0.28579492E+00 0.14265711E+03</pdfrwt>
<pdfrwt beam="2">  1       -2 0.22276428E-02 0.14265711E+03</pdfrwt>
<totfact> 0.57623905E+03</totfact>
</mgrwt>
</event>
<event>
 6    1  0.5258538E-006  0.1391027E+03  0.7546771E-02  0.1226184E+00
         -1   -1    0    0    0  501 -0.00000000000E+00  0.00000000000E+00  0.25811663540E+02  0.25811663540E+02  0.00000000000E+00 0.  1.
          1   -1    0    0  501    0  0.00000000000E+00 -0.00000000000E+00 -0.60328289845E+03  0.60328289845E+03  0.00000000000E+00 0. -1.
          5    1    1    2  502    0  0.38008594259E+02 -0.87971147583E+01 -0.82026698685E+02  0.90953349376E+02  0.47000000000E+01 0. -1.
         -5    1    1    2    0  502 -0.98655145892E+02  0.22538085383E+01 -0.27579008783E+03  0.29295081500E+03  0.47000000000E+01 0. -1.
        -11    1    1    2    0    0  0.15040896114E+02  0.34885391652E+02 -0.30968014241E+02  0.49012620953E+02  0.00000000000E+00 0.  1.
         11    1    1    2    0    0  0.45605655519E+02 -0.28342085432E+02 -0.18868643415E+03  0.19617777666E+03  0.00000000000E+00 0. -1.
<mgrwt>
<rscale>  0 0.13086066E+03</rscale>
<asrwt>0</asrwt>
<pdfrwt beam="2">  1        1 0.92812746E-01 0.13910268E+03</pdfrwt>
<pdfrwt beam="1">  1       -1 0.39710255E-02 0.13910268E+03</pdfrwt>
<totfact> 0.83288675E+03</totfact>
</mgrwt>
</event>
<event>
 6    1  0.5258538E-006  0.1296973E+03  0.7546771E-02  0.1241600E+00
         -2   -1    0    0    0  501 -0.00000000000E+00  0.00000000000E+00  0.45524666394E+03  0.45524666394E+03  0.00000000000E+00 0.  1.
          2   -1    0    0  501    0  0.00000000000E+00 -0.00000000000E+00 -0.29539167586E+02  0.29539167586E+02  0.00000000000E+00 0. -1.
          5    1    1    2  502    0  0.22700563367E+02 -0.34702380929E+02  0.13036432706E+02  0.43721955549E+02  0.47000000000E+01 0.  1.
         -5    1    1    2    0  502  0.48412665612E+01  0.55623965418E+02  0.18258237071E+03  0.19098658457E+03  0.47000000000E+01 0.  1.
        -11    1    1    2    0    0 -0.68113363814E+01  0.35658044790E+02  0.10779971760E+03  0.11374827285E+03  0.00000000000E+00 0. -1.
         11    1    1    2    0    0 -0.20730493547E+02 -0.56579629279E+02  0.12228897534E+03  0.13632901856E+03  0.00000000000E+00 0.  1.
<mgrwt>
<rscale>  0 0.12091212E+03</rscale>
<asrwt>0</asrwt>
<pdfrwt beam="2">  1        2 0.45444876E-02 0.12969727E+03</pdfrwt>
<pdfrwt beam="1">  1       -2 0.70037943E-01 0.12969727E+03</pdfrwt>
<totfact> 0.32353611E+03</totfact>
</mgrwt>
</event>
<event>
 6    1  0.5258538E-006  0.1660173E+03  0.7546771E-02  0.1189036E+00
         -2   -1    0    0    0  501 -0.00000000000E+00  0.00000000000E+00  0.63202355197E+02  0.63202355197E+02  0.00000000000E+00 0.  1.
          2   -1    0    0  501    0  0.00000000000E+00 -0.00000000000E+00 -0.47696962651E+03  0.47696962651E+03  0.00000000000E+00 0. -1.
          5    1    1    2  502    0  0.84868935291E+02 -0.31654706765E+02 -0.98153132011E+02  0.13364461815E+03  0.47000000000E+01 0. -1.
         -5    1    1    2    0  502  0.24195102144E+02  0.25080820006E+02 -0.24553375093E+03  0.24803903593E+03  0.47000000000E+01 0. -1.
        -11    1    1    2    0    0 -0.76348205873E+02  0.22082286354E+02 -0.87587761476E+02  0.11827210944E+03  0.00000000000E+00 0. -1.
         11    1    1    2    0    0 -0.32715831563E+02 -0.15508399595E+02  0.17507373097E+02  0.40216218191E+02  0.00000000000E+00 0.  1.
<mgrwt>
<rscale>  0 0.15969947E+03</rscale>
<asrwt>0</asrwt>
<pdfrwt beam="2">  1        2 0.73379939E-01 0.16601728E+03</pdfrwt>
<pdfrwt beam="1">  1       -2 0.97234397E-02 0.16601728E+03</pdfrwt>
<totfact> 0.44435004E+03</totfact>
</mgrwt>
</event>
<event>
 6    1  0.5258538E-006  0.1302570E+03  0.7546771E-02  0.1243304E+00
         -2   -1    0    0    0  501 -0.00000000000E+00  0.00000000000E+00  0.19846875281E+02  0.19846875281E+02  0.00000000000E+00 0.  1.
          2   -1    0    0  501    0  0.00000000000E+00 -0.00000000000E+00 -0.86239070745E+03  0.86239070745E+03  0.00000000000E+00 0. -1.
          5    1    1    2  502    0 -0.50923618176E+02 -0.79956435584E+00 -0.25943372103E+03  0.26442730532E+03  0.47000000000E+01 0. -1.
         -5    1    1    2    0  502  0.72854523841E+02  0.30145169094E+02 -0.43908323387E+03  0.44613079823E+03  0.47000000000E+01 0. -1.
        -11    1    1    2    0    0  0.74472913667E+01 -0.17938905205E+02  0.44235682253E+01  0.19920703413E+02  0.00000000000E+00 0.  1.
         11    1    1    2    0    0 -0.29378197032E+02 -0.11406699533E+02 -0.14845044549E+03  0.15175877576E+03  0.00000000000E+00 0. -1.
<mgrwt>
<rscale>  0 0.11987488E+03</rscale>
<asrwt>0</asrwt>
<pdfrwt beam="2">  1        2 0.13267550E+00 0.13025699E+03</pdfrwt>
<pdfrwt beam="1">  1       -2 0.30533652E-02 0.13025699E+03</pdfrwt>
<totfact> 0.12670324E+04</totfact>
</mgrwt>
</event>
<event>
 6    1  0.5258538E-006  0.1320606E+03  0.7546771E-02  0.1235969E+00
         -2   -1    0    0    0  501 -0.00000000000E+00  0.00000000000E+00  0.94231306722E+02  0.94231306722E+02  0.00000000000E+00 0.  1.
          2   -1    0    0  501    0  0.00000000000E+00 -0.00000000000E+00 -0.17043205297E+03  0.17043205297E+03  0.00000000000E+00 0. -1.
          5    1    1    2  502    0  0.72482428562E+02 -0.31077077593E+02 -0.30335351738E+02  0.84627482339E+02  0.47000000000E+01 0. -1.
         -5    1    1    2    0  502 -0.30019263431E+02  0.34294961526E+02 -0.59476861144E+02  0.75079208670E+02  0.47000000000E+01 0. -1.
        -11    1    1    2    0    0 -0.55818782103E+02  0.13290351074E+02 -0.23655978333E+02  0.62064282627E+02  0.00000000000E+00 0. -1.
         11    1    1    2    0    0  0.13355616972E+02 -0.16508235006E+02  0.37267444964E+02  0.42892386059E+02  0.00000000000E+00 0.  1.
<mgrwt>
<rscale>  0 0.12442613E+03</rscale>
<asrwt>0</asrwt>
<pdfrwt beam="2">  1        2 0.26220316E-01 0.13206057E+03</pdfrwt>
<pdfrwt beam="1">  1       -2 0.14497124E-01 0.13206057E+03</pdfrwt>
<totfact> 0.69940373E+03</totfact>
</mgrwt>
</event>
<event>
 6    1  0.5258538E-006  0.1407125E+03  0.7546771E-02  0.1223105E+00
         -1   -1    0    0    0  501 -0.00000000000E+00  0.00000000000E+00  0.78996556235E+02  0.78996556235E+02  0.00000000000E+00 0.  1.
          1   -1    0    0  501    0  0.00000000000E+00 -0.00000000000E+00 -0.25664300338E+03  0.25664300338E+03  0.00000000000E+00 0. -1.
          5    1    1    2  502    0  0.24411240316E+02 -0.25989380152E+02 -0.23467044060E+02  0.42943552384E+02  0.47000000000E+01 0. -1.
         -5    1    1    2    0  502 -0.63681279132E+02  0.77294002613E+02 -0.14996229500E+03  0.18038971166E+03  0.47000000000E+01 0. -1.
        -11    1    1    2    0    0  0.26140753359E+02  0.58085419303E+01 -0.36601035888E+02  0.45351008518E+02  0.00000000000E+00 0. -1.
         11    1    1    2    0    0  0.13129285457E+02 -0.57113164391E+02  0.32383927807E+02  0.66955287047E+02  0.00000000000E+00 0.  1.
<mgrwt>
<rscale>  0 0.13297621E+03</rscale>
<asrwt>0</asrwt>
<pdfrwt beam="2">  1        1 0.39483539E-01 0.14071251E+03</pdfrwt>
<pdfrwt beam="1">  1       -1 0.12153316E-01 0.14071251E+03</pdfrwt>
<totfact> 0.46114132E+03</totfact>
</mgrwt>
</event>
<event>
 6    1  0.5258538E-006  0.1369089E+03  0.7546771E-02  0.1224959E+00
          2   -1    0    0  501    0  0.00000000000E+00  0.00000000000E+00  0.21909404577E+02  0.21909404577E+02  0.00000000000E+00 0. -1.
         -2   -1    0    0    0  501 -0.00000000000E+00 -0.00000000000E+00 -0.86193734672E+03  0.86193734672E+03  0.00000000000E+00 0.  1.
          5    1    1    2  502    0 -0.30290308870E+02 -0.55554540949E+02 -0.64831485938E+02  0.90713953725E+02  0.47000000000E+01 0. -1.
         -5    1    1    2    0  502  0.49964681631E+02  0.32912069232E+01 -0.21513413405E+03  0.22093457649E+03  0.47000000000E+01 0. -1.
        -11    1    1    2    0    0 -0.27385582515E+02  0.80898836904E+02 -0.45883501844E+03  0.46671636578E+03  0.00000000000E+00 0.  1.
         11    1    1    2    0    0  0.77112097528E+01 -0.28635502878E+02 -0.10122730372E+03  0.10548185531E+03  0.00000000000E+00 0. -1.
<mgrwt>
<rscale>  0 0.13169708E+03</rscale>
<asrwt>0</asrwt>
<pdfrwt beam="1">  1        2 0.33706774E-02 0.13690894E+03</pdfrwt>
<pdfrwt beam="2">  1       -2 0.13260575E+00 0.13690894E+03</pdfrwt>
<totfact> 0.11218775E+03</totfact>
</mgrwt>
</event>
<event>
 6    1  0.5258538E-006  0.1324855E+03  0.7546771E-02  0.1237151E+00
          3   -1    0    0  501    0  0.00000000000E+00  0.00000000000E+00  0.53489402200E+02  0.53489402200E+02  0.00000000000E+00 0. -1.
         -3   -1    0    0    0  501 -0.00000000000E+00 -0.00000000000E+00 -0.27440452033E+03  0.27440452033E+03  0.00000000000E+00 0.  1.
          5    1    1    2  502    0  0.40739132623E+02  0.34984955715E+02 -0.95405608854E+02  0.10958076589E+03  0.47000000000E+01 0. -1.
         -5    1    1    2    0  502 -0.41326303026E+02  0.89083204246E+01  0.15341503503E+02  0.45218063032E+02  0.47000000000E+01 0. -1.
        -11    1    1    2    0    0  0.44184895614E+01  0.23790358175E+02 -0.10930905365E+02  0.26551626772E+02  0.00000000000E+00 0. -1.
         11    1    1    2    0    0 -0.38313191580E+01 -0.67683634315E+02 -0.12992010742E+03  0.14654346684E+03  0.00000000000E+00 0.  1.
<mgrwt>
<rscale>  0 0.12367715E+03</rscale>
<asrwt>0</asrwt>
<pdfrwt beam="1">  1        3 0.82291389E-02 0.13248553E+03</pdfrwt>
<pdfrwt beam="2">  1       -3 0.42216080E-01 0.13248553E+03</pdfrwt>
<totfact> 0.13050452E+03</totfact>
</mgrwt>
</event>
<event>
 6    1  0.5258538E-006  0.3562319E+03  0.7546771E-02  0.1060086E+00
         -2   -1    0    0    0  501 -0.00000000000E+00  0.00000000000E+00  0.79648383464E+02  0.79648383464E+02  0.00000000000E+00 0.  1.
          2   -1    0    0  501    0  0.00000000000E+00 -0.00000000000E+00 -0.39831678925E+03  0.39831678925E+03  0.00000000000E+00 0. -1.
          5    1    1    2  502    0 -0.62048543553E+02  0.68875661202E+02 -0.28824750772E+03  0.30282436191E+03  0.47000000000E+01 0. -1.
         -5    1    1    2    0  502  0.35578545979E+02 -0.13945598659E+02 -0.51606098307E+02  0.64386272127E+02  0.47000000000E+01 0. -1.
        -11    1    1    2    0    0 -0.14676013536E+02 -0.41683428648E+02 -0.22249113804E+02  0.49476425318E+02  0.00000000000E+00 0. -1.
         11    1    1    2    0    0  0.41146011110E+02 -0.13246633894E+02  0.43434314044E+02  0.61278113354E+02  0.00000000000E+00 0.  1.
<mgrwt>
<rscale>  0 0.35623188E+03</rscale>
<asrwt>0</asrwt>
<pdfrwt beam="2">  1        2 0.61279505E-01 0.35623188E+03</pdfrwt>
<pdfrwt beam="1">  1       -2 0.12253598E-01 0.35623188E+03</pdfrwt>
<totfact> 0.38474370E+03</totfact>
</mgrwt>
</event>
<event>
 6    1  0.5258538E-006  0.3993243E+03  0.7546771E-02  0.1044014E+00
         -1   -1    0    0    0  501 -0.00000000000E+00  0.00000000000E+00  0.32682488774E+02  0.32682488774E+02  0.00000000000E+00 0.  1.
          1   -1    0    0  501    0  0.00000000000E+00 -0.00000000000E+00 -0.12197655395E+04  0.12197655395E+04  0.00000000000E+00 0. -1.
          5    1    1    2  502    0 -0.39883787815E+02  0.14298163396E+03 -0.33949831466E+03  0.37056127676E+03  0.47000000000E+01 0.  1.
         -5    1    1    2    0  502  0.25652596135E+02  0.23741821478E+02 -0.30270316674E+03  0.30475076198E+03  0.47000000000E+01 0.  1.
        -11    1    1    2    0    0 -0.17975497041E+02 -0.10083127497E+03 -0.42002330735E+03  0.43233047918E+03  0.00000000000E+00 0. -1.
         11    1    1    2    0    0  0.32206688721E+02 -0.65892180468E+02 -0.12485826202E+03  0.14480551039E+03  0.00000000000E+00 0.  1.
<mgrwt>
<rscale>  0 0.39932430E+03</rscale>
<asrwt>0</asrwt>
<pdfrwt beam="2">  1        1 0.18765622E+00 0.39932430E+03</pdfrwt>
<pdfrwt beam="1">  1       -1 0.50280756E-02 0.39932430E+03</pdfrwt>
<totfact> 0.19345328E+03</totfact>
</mgrwt>
</event>
<event>
 6    1  0.5258538E-006  0.2051774E+03  0.7546771E-02  0.1149426E+00
         -2   -1    0    0    0  501 -0.00000000000E+00  0.00000000000E+00  0.11850585229E+03  0.11850585229E+03  0.00000000000E+00 0.  1.
          2   -1    0    0  501    0  0.00000000000E+00 -0.00000000000E+00 -0.37606596114E+03  0.37606596114E+03  0.00000000000E+00 0. -1.
          5    1    1    2  502    0  0.58529519036E+02 -0.76116475217E+02 -0.90348272522E+02  0.13192544389E+03  0.47000000000E+01 0. -1.
         -5    1    1    2    0  502  0.10009903930E+03  0.39930477144E+02 -0.13575342664E+03  0.17339360864E+03  0.47000000000E+01 0. -1.
        -11    1    1    2    0    0 -0.94619420154E+02  0.43596007443E+02  0.20863909013E+02  0.10624852580E+03  0.00000000000E+00 0.  1.
         11    1    1    2    0    0 -0.64009138184E+02 -0.74100093703E+01 -0.52322318708E+02  0.83004235102E+02  0.00000000000E+00 0. -1.
<mgrwt>
<rscale>  0 0.20037177E+03</rscale>
<asrwt>0</asrwt>
<pdfrwt beam="2">  1        2 0.57856301E-01 0.20517735E+03</pdfrwt>
<pdfrwt beam="1">  1       -2 0.18231670E-01 0.20517735E+03</pdfrwt>
<totfact> 0.20849541E+03</totfact>
</mgrwt>
</event>
<event>
 6    1  0.5258538E-006  0.1456750E+03  0.7546771E-02  0.1215302E+00
         -2   -1    0    0    0  501 -0.00000000000E+00  0.00000000000E+00  0.21229325320E+03  0.21229325320E+03  0.00000000000E+00 0.  1.
          2   -1    0    0  501    0  0.00000000000E+00 -0.00000000000E+00 -0.90926095534E+02  0.90926095534E+02  0.00000000000E+00 0. -1.
          5    1    1    2  502    0 -0.23043754760E+02  0.26674819093E+02 -0.19005632531E+02  0.40322012289E+02  0.47000000000E+01 0. -1.
         -5    1    1    2    0  502  0.39911662085E+01 -0.99009120516E+02  0.39551046313E+02  0.10679471250E+03  0.47000000000E+01 0. -1.
        -11    1    1    2    0    0  0.54377928171E+00  0.29251807328E+02  0.10502560473E+03  0.10902449990E+03  0.00000000000E+00 0.  1.
         11    1    1    2    0    0  0.18508809270E+02  0.43082494095E+02 -0.42038608519E+01  0.47078124050E+02  0.00000000000E+00 0. -1.
<mgrwt>
<rscale>  0 0.13854357E+03</rscale>
<asrwt>0</asrwt>
<pdfrwt beam="2">  1        2 0.13988630E-01 0.14567504E+03</pdfrwt>
<pdfrwt beam="1">  1       -2 0.32660500E-01 0.14567504E+03</pdfrwt>
<totfact> 0.35668724E+03</totfact>
</mgrwt>
</event>
<event>
 6    1  0.5258538E-006  0.1688196E+03  0.7546771E-02  0.1194798E+00
         -2   -1    0    0    0  501 -0.00000000000E+00  0.00000000000E+00  0.16042790976E+03  0.16042790976E+03  0.00000000000E+00 0.  1.
          2   -1    0    0  501    0  0.00000000000E+00 -0.00000000000E+00 -0.13789978434E+03  0.13789978434E+03  0.00000000000E+00 0. -1.
          5    1    1    2  502    0 -0.42830194319E+02 -0.96169505045E+01 -0.27907912728E+02  0.52228850985E+02  0.47000000000E+01 0. -1.
         -5    1    1    2    0  502  0.10411857149E+03  0.55777118509E+02  0.39799941059E+01  0.11827803782E+03  0.47000000000E+01 0.  1.
        -11    1    1    2    0    0  0.32180428703E+01  0.22386489329E+02 -0.52197907902E+00  0.22622625103E+02  0.00000000000E+00 0. -1.
         11    1    1    2    0    0 -0.64506420043E+02 -0.68546657334E+02  0.46978023114E+02  0.10519818018E+03  0.00000000000E+00 0.  1.
<mgrwt>
<rscale>  0 0.15471294E+03</rscale>
<asrwt>0</asrwt>
<pdfrwt beam="2">  1        2 0.21215351E-01 0.16881959E+03</pdfrwt>
<pdfrwt beam="1">  1       -2 0.24681217E-01 0.16881959E+03</pdfrwt>
<totfact> 0.36661222E+03</totfact>
</mgrwt>
</event>
<event>
 6    1  0.5258538E-006  0.1622201E+03  0.7546771E-02  0.1193558E+00
          1   -1    0    0  501    0  0.00000000000E+00  0.00000000000E+00  0.14786962520E+03  0.14786962520E+03  0.00000000000E+00 0. -1.
         -1   -1    0    0    0  501 -0.00000000000E+00 -0.00000000000E+00 -0.15448751115E+03  0.15448751115E+03  0.00000000000E+00 0.  1.
          5    1    1    2  502    0 -0.24343127516E+02 -0.53512960454E+02  0.53007154288E+02  0.79297371959E+02  0.47000000000E+01 0. -1.
         -5    1    1    2    0  502  0.59674995158E+02 -0.43654667056E+02 -0.38639068012E+02  0.83557779888E+02  0.47000000000E+01 0. -1.
        -11    1    1    2    0    0  0.17220975063E+02  0.69657651120E+02  0.10215988792E+02  0.72478388287E+02  0.00000000000E+00 0. -1.
         11    1    1    2    0    0 -0.52552842705E+02  0.27509976390E+02 -0.31201961024E+02  0.67023596212E+02  0.00000000000E+00 0.  1.
<mgrwt>
<rscale>  0 0.15576896E+03</rscale>
<asrwt>0</asrwt>
<pdfrwt beam="1">  1        1 0.22749173E-01 0.16222009E+03</pdfrwt>
<pdfrwt beam="2">  1       -1 0.23767309E-01 0.16222009E+03</pdfrwt>
<totfact> 0.31873628E+03</totfact>
</mgrwt>
</event>
<event>
 6    1  0.5258538E-006  0.1847578E+03  0.7546771E-02  0.1168441E+00
          1   -1    0    0  501    0  0.00000000000E+00  0.00000000000E+00  0.46010161358E+03  0.46010161358E+03  0.00000000000E+00 0. -1.
         -1   -1    0    0    0  501 -0.00000000000E+00 -0.00000000000E+00 -0.67399555654E+02  0.67399555654E+02  0.00000000000E+00 0.  1.
          5    1    1    2  502    0 -0.73926763925E+02  0.31368043346E+01  0.96317486636E+02  0.12154897860E+03  0.47000000000E+01 0. -1.
         -5    1    1    2    0  502 -0.10242933589E+02 -0.11002718846E+03  0.14802971659E+03  0.18478578648E+03  0.47000000000E+01 0. -1.
        -11    1    1    2    0    0  0.39972075175E+02 -0.23108634516E+01  0.66816449691E+02  0.77894446740E+02  0.00000000000E+00 0. -1.
         11    1    1    2    0    0  0.44197622339E+02  0.10920124758E+03  0.81538405009E+02  0.14327195742E+03  0.00000000000E+00 0.  1.
<mgrwt>
<rscale>  0 0.17934199E+03</rscale>
<asrwt>0</asrwt>
<pdfrwt beam="1">  1        1 0.70784862E-01 0.18475777E+03</pdfrwt>
<pdfrwt beam="2">  1       -1 0.10369163E-01 0.18475777E+03</pdfrwt>
<totfact> 0.28624571E+03</totfact>
</mgrwt>
</event>
<event>
 6    1  0.5258538E-006  0.1640031E+03  0.7546771E-02  0.1189306E+00
          3   -1    0    0  501    0  0.00000000000E+00  0.00000000000E+00  0.41974343769E+02  0.41974343769E+02  0.00000000000E+00 0. -1.
         -3   -1    0    0    0  501 -0.00000000000E+00 -0.00000000000E+00 -0.59968260456E+03  0.59968260456E+03  0.00000000000E+00 0.  1.
          5    1    1    2  502    0  0.10585635380E+03 -0.30586131376E+02 -0.23492347845E+03  0.25952304291E+03  0.47000000000E+01 0.  1.
         -5    1    1    2    0  502 -0.24278527505E+00  0.19890134616E+02  0.67058931662E+01  0.21511285477E+02  0.47000000000E+01 0.  1.
        -11    1    1    2    0    0 -0.11995981854E+03 -0.10146726980E+02 -0.28602949319E+03  0.31033237844E+03  0.00000000000E+00 0.  1.
         11    1    1    2    0    0  0.14346250019E+02  0.20842723740E+02 -0.43461182312E+02  0.50290241504E+02  0.00000000000E+00 0. -1.
<mgrwt>
<rscale>  0 0.15946117E+03</rscale>
<asrwt>0</asrwt>
<pdfrwt beam="1">  1        3 0.64575916E-02 0.16400313E+03</pdfrwt>
<pdfrwt beam="2">  1       -3 0.92258858E-01 0.16400313E+03</pdfrwt>
<totfact> 0.39166469E+02</totfact>
</mgrwt>
</event>
<event>
 6    1  0.5258538E-006  0.2097680E+03  0.7546771E-02  0.1145577E+00
         -1   -1    0    0    0  501 -0.00000000000E+00  0.00000000000E+00  0.11773613956E+03  0.11773613956E+03  0.00000000000E+00 0.  1.
          1   -1    0    0  501    0  0.00000000000E+00 -0.00000000000E+00 -0.52728346615E+03  0.52728346615E+03  0.00000000000E+00 0. -1.
          5    1    1    2  502    0  0.10396176911E+03 -0.14001808277E+03 -0.31936320531E+03  0.36390666365E+03  0.47000000000E+01 0. -1.
         -5    1    1    2    0  502 -0.31859793388E+02 -0.12233194260E+02 -0.82689820605E+02  0.89578981397E+02  0.47000000000E+01 0. -1.
        -11    1    1    2    0    0 -0.13075648552E+02  0.51829259176E+01  0.26000738904E+02  0.29561355342E+02  0.00000000000E+00 0.  1.
         11    1    1    2    0    0 -0.59026327173E+02  0.14706835112E+03 -0.33495039575E+02  0.16197260532E+03  0.00000000000E+00 0. -1.
<mgrwt>
<rscale>  0 0.20501358E+03</rscale>
<asrwt>0</asrwt>
<pdfrwt beam="2">  1        1 0.81120533E-01 0.20976795E+03</pdfrwt>
<pdfrwt beam="1">  1       -1 0.18113252E-01 0.20976795E+03</pdfrwt>
<totfact> 0.99745468E+02</totfact>
</mgrwt>
</event>
<event>
 6    1  0.5258538E-006  0.1536717E+03  0.7546771E-02  0.1205059E+00
         -1   -1    0    0    0  501 -0.00000000000E+00  0.00000000000E+00  0.20892776721E+03  0.20892776721E+03  0.00000000000E+00 0.  1.
          1   -1    0    0  501    0  0.00000000000E+00 -0.00000000000E+00 -0.10744092965E+03  0.10744092965E+03  0.00000000000E+00 0. -1.
          5    1    1    2  502    0  0.37762581029E+02 -0.62029514330E+02  0.42507320352E+02  0.84277134844E+02  0.47000000000E+01 0.  1.
         -5    1    1    2    0  502  0.45320630507E+02  0.29070323138E+02 -0.43531034631E+02  0.69398013033E+02  0.47000000000E+01 0.  1.
        -11    1    1    2    0    0 -0.70302835636E+01  0.23808811804E+02 -0.98483119702E+01  0.26707183587E+02  0.00000000000E+00 0. -1.
         11    1    1    2    0    0 -0.76052927972E+02  0.91503793881E+01  0.11235886381E+03  0.13598636539E+03  0.00000000000E+00 0.  1.
<mgrwt>
<rscale>  0 0.14632794E+03</rscale>
<asrwt>0</asrwt>
<pdfrwt beam="2">  1        1 0.16529374E-01 0.15367174E+03</pdfrwt>
<pdfrwt beam="1">  1       -1 0.32142733E-01 0.15367174E+03</pdfrwt>
<totfact> 0.28900844E+03</totfact>
</mgrwt>
</event>
<event>
 6    1  0.5258538E-006  0.1292075E+03  0.7546771E-02  0.1242917E+00
          2   -1    0    0  501    0  0.00000000000E+00  0.00000000000E+00  0.13178313574E+04  0.13178313574E+04  0.00000000000E+00 0. -1.
         -2   -1    0    0    0  501 -0.00000000000E+00 -0.00000000000E+00 -0.10390188929E+02  0.10390188929E+02  0.00000000000E+00 0.  1.
          5    1    1    2  502    0  0.10245193144E+02  0.53902858694E+02  0.28891936371E+03  0.29412067401E+03  0.47000000000E+01 0.  1.
         -5    1    1    2    0  502  0.19846652128E+02 -0.66699484274E+02  0.62696110105E+03  0.63082883815E+03  0.47000000000E+01 0.  1.
        -11    1    1    2    0    0 -0.62052342601E+02  0.91167976282E+01  0.29133211150E+03  0.29800672545E+03  0.00000000000E+00 0. -1.
         11    1    1    2    0    0  0.31960497328E+02  0.36798279510E+01  0.10022859221E+03  0.10526530872E+03  0.00000000000E+00 0.  1.
<mgrwt>
<rscale>  0 0.12010913E+03</rscale>
<asrwt>0</asrwt>
<pdfrwt beam="1">  1        2 0.20274315E+00 0.12920749E+03</pdfrwt>
<pdfrwt beam="2">  1       -2 0.15984917E-02 0.12920749E+03</pdfrwt>
<totfact> 0.17691311E+04</totfact>
</mgrwt>
</event>
<event>
 6    1  0.5258538E-006  0.1344910E+03  0.7546771E-02  0.1225697E+00
         -3   -1    0    0    0  501 -0.00000000000E+00  0.00000000000E+00  0.42311875897E+02  0.42311875897E+02  0.00000000000E+00 0.  1.
          3   -1    0    0  501    0  0.00000000000E+00 -0.00000000000E+00 -0.43319760316E+03  0.43319760316E+03  0.00000000000E+00 0. -1.
          5    1    1    2  502    0  0.57566235798E+02 -0.30769011089E+02 -0.67974926481E+02  0.94357215821E+02  0.47000000000E+01 0.  1.
         -5    1    1    2    0  502 -0.90185887760E+01  0.41053646634E+02 -0.21285108386E+03  0.21701246680E+03  0.47000000000E+01 0.  1.
        -11    1    1    2    0    0 -0.75567292594E+01  0.41254490190E+02 -0.82901734739E+02  0.92907129654E+02  0.00000000000E+00 0. -1.
         11    1    1    2    0    0 -0.40990917763E+02 -0.51539125736E+02 -0.27157982181E+02  0.71232666781E+02  0.00000000000E+00 0.  1.
<mgrwt>
<rscale>  0 0.13119218E+03</rscale>
<asrwt>0</asrwt>
<pdfrwt beam="2">  1        3 0.66645783E-01 0.13449101E+03</pdfrwt>
<pdfrwt beam="1">  1       -3 0.65095196E-02 0.13449101E+03</pdfrwt>
<totfact> 0.76171477E+02</totfact>
</mgrwt>
</event>
<event>
 6    1  0.5258538E-006  0.1455434E+03  0.7546771E-02  0.1215574E+00
         -2   -1    0    0    0  501 -0.00000000000E+00  0.00000000000E+00  0.30089839333E+02  0.30089839333E+02  0.00000000000E+00 0.  1.
          2   -1    0    0  501    0  0.00000000000E+00 -0.00000000000E+00 -0.64345164905E+03  0.64345164905E+03  0.00000000000E+00 0. -1.
          5    1    1    2  502    0 -0.41138035334E+02  0.28655681312E+02 -0.88670552006E+02  0.10197079393E+03  0.47000000000E+01 0. -1.
         -5    1    1    2    0  502 -0.81702120629E+01 -0.84578240494E+02 -0.35072401713E+03  0.36090117390E+03  0.47000000000E+01 0. -1.
        -11    1    1    2    0    0  0.43481365287E+02  0.78697901513E+02 -0.15941169644E+03  0.18301933721E+03  0.00000000000E+00 0.  1.
         11    1    1    2    0    0  0.58268821099E+01 -0.22775342330E+02 -0.14555544132E+02  0.27650183334E+02  0.00000000000E+00 0. -1.
<mgrwt>
<rscale>  0 0.13834462E+03</rscale>
<asrwt>0</asrwt>
<pdfrwt beam="2">  1        2 0.98992567E-01 0.14554337E+03</pdfrwt>
<pdfrwt beam="1">  1       -2 0.46292058E-02 0.14554337E+03</pdfrwt>
<totfact> 0.98265880E+03</totfact>
</mgrwt>
</event>
<event>
 6    1  0.5258538E-006  0.1618692E+03  0.7546771E-02  0.1193618E+00
          1   -1    0    0  501    0  0.00000000000E+00  0.00000000000E+00  0.57728660218E+03  0.57728660218E+03  0.00000000000E+00 0. -1.
         -1   -1    0    0    0  501 -0.00000000000E+00 -0.00000000000E+00 -0.42727472760E+02  0.42727472760E+02  0.00000000000E+00 0.  1.
          5    1    1    2  502    0  0.57957231832E+02  0.95084741569E+02  0.19876792355E+03  0.22788358044E+03  0.47000000000E+01 0. -1.
         -5    1    1    2    0  502 -0.38244097558E+02  0.58569697629E+01  0.17743968963E+03  0.18166961372E+03  0.47000000000E+01 0. -1.
        -11    1    1    2    0    0  0.26181418983E+02 -0.24910868773E+02  0.94231735367E+02  0.10092392201E+03  0.00000000000E+00 0. -1.
         11    1    1    2    0    0 -0.45894553257E+02 -0.76030842559E+02  0.64119780875E+02  0.10953695878E+03  0.00000000000E+00 0.  1.
<mgrwt>
<rscale>  0 0.15571785E+03</rscale>
<asrwt>0</asrwt>
<pdfrwt beam="1">  1        1 0.88813318E-01 0.16186924E+03</pdfrwt>
<pdfrwt beam="2">  1       -1 0.65734578E-02 0.16186924E+03</pdfrwt>
<totfact> 0.42175436E+03</totfact>
</mgrwt>
</event>
<event>
 6    1  0.5258538E-006  0.2149801E+03  0.7546771E-02  0.1141287E+00
          1   -1    0    0  501    0  0.00000000000E+00  0.00000000000E+00  0.41530747733E+03  0.41530747733E+03  0.00000000000E+00 0. -1.
         -1   -1    0    0    0  501 -0.00000000000E+00 -0.00000000000E+00 -0.19122490020E+03  0.19122490020E+03  0.00000000000E+00 0.  1.
          5    1    1    2  502    0  0.34301151343E+01  0.63685733370E+02  0.21961037885E+03  0.22873226013E+03  0.47000000000E+01 0.  1.
         -5    1    1    2    0  502 -0.70861045211E+02  0.97693334528E+02  0.10185527356E+03  0.15799323432E+03  0.47000000000E+01 0.  1.
        -11    1    1    2    0    0  0.24807336735E+02 -0.52362844492E+02  0.12482251523E+02  0.59271224403E+02  0.00000000000E+00 0. -1.
         11    1    1    2    0    0  0.42623593342E+02 -0.10901622341E+03 -0.10986532680E+03  0.16053565868E+03  0.00000000000E+00 0.  1.
<mgrwt>
<rscale>  0 0.21035210E+03</rscale>
<asrwt>0</asrwt>
<pdfrwt beam="1">  1        1 0.63893458E-01 0.21498010E+03</pdfrwt>
<pdfrwt beam="2">  1       -1 0.29419215E-01 0.21498010E+03</pdfrwt>
<totfact> 0.61307056E+02</totfact>
</mgrwt>
</event>
<event>
 6    1  0.5258538E-006  0.2438969E+03  0.7546771E-02  0.1117224E+00
          2   -1    0    0  501    0  0.00000000000E+00  0.00000000000E+00  0.10689452567E+04  0.10689452567E+04  0.00000000000E+00 0. -1.
         -2   -1    0    0    0  501 -0.00000000000E+00 -0.00000000000E+00 -0.13912240239E+02  0.13912240239E+02  0.00000000000E+00 0.  1.
          5    1    1    2  502    0 -0.25163678199E+02 -0.46089480911E+01  0.39838301467E+03  0.39923122308E+03  0.47000000000E+01 0. -1.
         -5    1    1    2    0  502  0.75474880571E+02  0.22414632756E+02  0.19584045269E+03  0.21112661194E+03  0.47000000000E+01 0.  1.
        -11    1    1    2    0    0 -0.73053707277E+01 -0.49992984994E+02  0.20832789340E+03  0.21436692412E+03  0.00000000000E+00 0.  1.
         11    1    1    2    0    0 -0.43005831644E+02  0.32187300328E+02  0.25248165574E+03  0.25813273784E+03  0.00000000000E+00 0. -1.
<mgrwt>
<rscale>  0 0.24389689E+03</rscale>
<asrwt>0</asrwt>
<pdfrwt beam="1">  1        2 0.16445305E+00 0.24389689E+03</pdfrwt>
<pdfrwt beam="2">  1       -2 0.21403455E-02 0.24389689E+03</pdfrwt>
<totfact> 0.16543086E+04</totfact>
</mgrwt>
</event>
<event>
 6    1  0.5258538E-006  0.1711703E+03  0.7546771E-02  0.1183005E+00
         -1   -1    0    0    0  501 -0.00000000000E+00  0.00000000000E+00  0.77897060681E+02  0.77897060681E+02  0.00000000000E+00 0.  1.
          1   -1    0    0  501    0  0.00000000000E+00 -0.00000000000E+00 -0.34023879607E+03  0.34023879607E+03  0.00000000000E+00 0. -1.
          5    1    1    2  502    0  0.32013366968E+02 -0.13376846139E+01  0.12235339456E+02  0.34618471896E+02  0.47000000000E+01 0. -1.
         -5    1    1    2    0  502  0.64592079673E+02  0.67232194467E+02 -0.19264893993E+03  0.21407477382E+03  0.47000000000E+01 0. -1.
        -11    1    1    2    0    0 -0.23646810422E+02 -0.18901303163E+02  0.19458000021E+02  0.35986729071E+02  0.00000000000E+00 0.  1.
         11    1    1    2    0    0 -0.72958636220E+02 -0.46993206690E+02 -0.10138613493E+03  0.13345588196E+03  0.00000000000E+00 0. -1.
<mgrwt>
<rscale>  0 0.16514696E+03</rscale>
<asrwt>0</asrwt>
<pdfrwt beam="2">  1        1 0.52344429E-01 0.17117028E+03</pdfrwt>
<pdfrwt beam="1">  1       -1 0.11984163E-01 0.17117028E+03</pdfrwt>
<totfact> 0.33505229E+03</totfact>
</mgrwt>
</event>
<event>
 6    1  0.5258538E-006  0.1326689E+03  0.7546771E-02  0.1236271E+00
          2   -1    0    0  501    0  0.00000000000E+00  0.00000000000E+00  0.13023564037E+03  0.13023564037E+03  0.00000000000E+00 0. -1.
         -2   -1    0    0    0  501 -0.00000000000E+00 -0.00000000000E+00 -0.10649088247E+03  0.10649088247E+03  0.00000000000E+00 0.  1.
          5    1    1    2  502    0 -0.67333574146E+01 -0.16571207947E+02  0.72621205733E+02  0.74939125675E+02  0.47000000000E+01 0. -1.
         -5    1    1    2    0  502  0.22487479746E+02 -0.24889588923E+02 -0.49249489890E+02  0.59772741584E+02  0.47000000000E+01 0. -1.
        -11    1    1    2    0    0 -0.38985188966E+02  0.60487234501E+02 -0.73929687100E+00  0.71965943725E+02  0.00000000000E+00 0.  1.
         11    1    1    2    0    0  0.23231066635E+02 -0.19026437632E+02  0.11123389300E+01  0.30048711850E+02  0.00000000000E+00 0. -1.
<mgrwt>
<rscale>  0 0.12423440E+03</rscale>
<asrwt>0</asrwt>
<pdfrwt beam="1">  1        2 0.20036252E-01 0.13266895E+03</pdfrwt>
<pdfrwt beam="2">  1       -2 0.16383213E-01 0.13266895E+03</pdfrwt>
<totfact> 0.77244577E+03</totfact>
</mgrwt>
</event>
<event>
 6    1  0.5258538E-006  0.1582939E+03  0.7546771E-02  0.1198768E+00
         -1   -1    0    0    0  501 -0.00000000000E+00  0.00000000000E+00  0.23194508686E+02  0.23194508686E+02  0.00000000000E+00 0.  1.
          1   -1    0    0  501    0  0.00000000000E+00 -0.00000000000E+00 -0.91115720226E+03  0.91115720226E+03  0.00000000000E+00 0. -1.
          5    1    1    2  502    0 -0.71818803807E+02  0.35771891917E+02 -0.27005527972E+03  0.28176144686E+03  0.47000000000E+01 0. -1.
         -5    1    1    2    0  502 -0.16901351414E+02 -0.75279567377E+02 -0.21533330883E+03  0.22878634757E+03  0.47000000000E+01 0. -1.
        -11    1    1    2    0    0 -0.17810108328E+02  0.33684737414E+01 -0.35205013023E+02  0.39597216013E+02  0.00000000000E+00 0.  1.
         11    1    1    2    0    0  0.10653026355E+03  0.36139201718E+02 -0.36736909201E+03  0.38420670051E+03  0.00000000000E+00 0. -1.
<mgrwt>
<rscale>  0 0.15139579E+03</rscale>
<asrwt>0</asrwt>
<pdfrwt beam="2">  1        1 0.14017804E+00 0.15829393E+03</pdfrwt>
<pdfrwt beam="1">  1       -1 0.35683858E-02 0.15829393E+03</pdfrwt>
<totfact> 0.53448569E+03</totfact>
</mgrwt>
</event>
<event>
 6    1  0.5258538E-006  0.1351928E+03  0.7546771E-02  0.1230554E+00
          2   -1    0    0  501    0  0.00000000000E+00  0.00000000000E+00  0.43247943370E+03  0.43247943370E+03  0.00000000000E+00 0. -1.
         -2   -1    0    0    0  501 -0.00000000000E+00 -0.00000000000E+00 -0.36997934340E+02  0.36997934340E+02  0.00000000000E+00 0.  1.
          5    1    1    2  502    0  0.34985398693E+02  0.42522773561E+02  0.26604296655E+03  0.27172249529E+03  0.47000000000E+01 0.  1.
         -5    1    1    2    0  502  0.15706268977E+02 -0.33329939385E+02  0.14833034524E+02  0.39996008024E+02  0.47000000000E+01 0.  1.
        -11    1    1    2    0    0 -0.66729401420E+02 -0.25465595784E+02  0.11445352855E+03  0.13491078452E+03  0.00000000000E+00 0. -1.
         11    1    1    2    0    0  0.16037733749E+02  0.16272761608E+02  0.15196972699E+00  0.22848080203E+02  0.00000000000E+00 0.  1.
<mgrwt>
<rscale>  0 0.12793396E+03</rscale>
<asrwt>0</asrwt>
<pdfrwt beam="1">  1        2 0.66535294E-01 0.13519282E+03</pdfrwt>
<pdfrwt beam="2">  1       -2 0.56919902E-02 0.13519282E+03</pdfrwt>
<totfact> 0.11146482E+04</totfact>
</mgrwt>
</event>
<event>
 6    1  0.5258538E-006  0.1925034E+03  0.7546771E-02  0.1160981E+00
         -1   -1    0    0    0  501 -0.00000000000E+00  0.00000000000E+00  0.50144480970E+03  0.50144480970E+03  0.00000000000E+00 0.  1.
          1   -1    0    0  501    0  0.00000000000E+00 -0.00000000000E+00 -0.66417825801E+02  0.66417825801E+02  0.00000000000E+00 0. -1.
          5    1    1    2  502    0  0.18675753115E+02 -0.12276641514E+02 -0.52019286329E+01  0.23423273528E+02  0.47000000000E+01 0. -1.
         -5    1    1    2    0  502 -0.74178123199E+02 -0.12318125698E+03  0.24458553682E+03  0.28376079865E+03  0.47000000000E+01 0. -1.
        -11    1    1    2    0    0  0.27405385792E+02 -0.21056106347E+01  0.57389716320E+02  0.63632289806E+02  0.00000000000E+00 0.  1.
         11    1    1    2    0    0  0.28096984292E+02  0.13756350913E+03  0.13825365939E+03  0.19704627351E+03  0.00000000000E+00 0. -1.
<mgrwt>
<rscale>  0 0.18723248E+03</rscale>
<asrwt>0</asrwt>
<pdfrwt beam="2">  1        1 0.10218127E-01 0.19250336E+03</pdfrwt>
<pdfrwt beam="1">  1       -1 0.77145353E-01 0.19250336E+03</pdfrwt>
<totfact> 0.10879394E+03</totfact>
</mgrwt>
</event>
<event>
 6    1  0.5258538E-006  0.2079625E+03  0.7546771E-02  0.1146949E+00
          2   -1    0    0  501    0  0.00000000000E+00  0.00000000000E+00  0.14476210500E+04  0.14476210500E+04  0.00000000000E+00 0. -1.
         -2   -1    0    0    0  501 -0.00000000000E+00 -0.00000000000E+00 -0.29083124411E+02  0.29083124411E+02  0.00000000000E+00 0.  1.
          5    1    1    2  502    0 -0.12187382945E+03  0.36384869317E+02  0.43940075847E+03  0.45746279146E+03  0.47000000000E+01 0. -1.
         -5    1    1    2    0  502 -0.43197863441E+02 -0.55739694418E+02  0.47922602214E+03  0.48440957797E+03  0.47000000000E+01 0. -1.
        -11    1    1    2    0    0  0.11715138379E+03  0.71358904597E+01  0.44806517708E+03  0.46318222177E+03  0.00000000000E+00 0. -1.
         11    1    1    2    0    0  0.47920309101E+02  0.12218934641E+02  0.51845967942E+02  0.71649583250E+02  0.00000000000E+00 0.  1.
<mgrwt>
<rscale>  0 0.20334248E+03</rscale>
<asrwt>0</asrwt>
<pdfrwt beam="1">  1        2 0.22271087E+00 0.20796249E+03</pdfrwt>
<pdfrwt beam="2">  1       -2 0.44743280E-02 0.20796249E+03</pdfrwt>
<totfact> 0.33686614E+03</totfact>
</mgrwt>
</event>
<event>
 6    1  0.5258538E-006  0.1356235E+03  0.7546771E-02  0.1232668E+00
         -2   -1    0    0    0  501 -0.00000000000E+00  0.00000000000E+00  0.36639720108E+02  0.36639720108E+02  0.00000000000E+00 0.  1.
          2   -1    0    0  501    0  0.00000000000E+00 -0.00000000000E+00 -0.52045008283E+03  0.52045008283E+03  0.00000000000E+00 0. -1.
          5    1    1    2  502    0  0.28630856310E+02  0.46719238149E+02 -0.22113131083E+03  0.22786741710E+03  0.47000000000E+01 0. -1.
         -5    1    1    2    0  502  0.15711452388E+02 -0.75046579818E+02 -0.18516132397E+03  0.20046357468E+03  0.47000000000E+01 0. -1.
        -11    1    1    2    0    0 -0.62385927627E+02  0.53684591950E+01 -0.22617893178E+02  0.66576222571E+02  0.00000000000E+00 0.  1.
         11    1    1    2    0    0  0.18043618930E+02  0.22958882474E+02 -0.54899834747E+02  0.62182588591E+02  0.00000000000E+00 0. -1.
<mgrwt>
<rscale>  0 0.12654929E+03</rscale>
<asrwt>0</asrwt>
<pdfrwt beam="2">  1        2 0.80069242E-01 0.13562350E+03</pdfrwt>
<pdfrwt beam="1">  1       -2 0.56368801E-02 0.13562350E+03</pdfrwt>
<totfact> 0.92465071E+03</totfact>
</mgrwt>
</event>
<event>
 6    1  0.5258538E-006  0.1457700E+03  0.7546771E-02  0.1215510E+00
          2   -1    0    0  501    0  0.00000000000E+00  0.00000000000E+00  0.66936723695E+03  0.66936723695E+03  0.00000000000E+00 0. -1.
         -2   -1    0    0    0  501 -0.00000000000E+00 -0.00000000000E+00 -0.26444950947E+02  0.26444950947E+02  0.00000000000E+00 0.  1.
          5    1    1    2  502    0 -0.32205659675E+02 -0.13680641610E+02  0.47723787837E+02  0.59363409567E+02  0.47000000000E+01 0.  1.
         -5    1    1    2    0  502  0.53283873974E+02  0.85663015935E+02  0.34784736979E+03  0.36221154895E+03  0.47000000000E+01 0.  1.
        -11    1    1    2    0    0  0.74312803109E+01  0.16774905232E+02  0.14394417706E+02  0.23319962128E+02  0.00000000000E+00 0.  1.
         11    1    1    2    0    0 -0.28509494609E+02 -0.88757279557E+02  0.23295671067E+03  0.25091726725E+03  0.00000000000E+00 0. -1.
<mgrwt>
<rscale>  0 0.13839110E+03</rscale>
<asrwt>0</asrwt>
<pdfrwt beam="1">  1        2 0.10297956E+00 0.14577004E+03</pdfrwt>
<pdfrwt beam="2">  1       -2 0.40684545E-02 0.14577004E+03</pdfrwt>
<totfact> 0.11381489E+04</totfact>
</mgrwt>
</event>
<event>
 6    1  0.5258538E-006  0.3414680E+03  0.7546771E-02  0.1066172E+00
         -1   -1    0    0    0  501 -0.00000000000E+00  0.00000000000E+00  0.39881215477E+03  0.39881215477E+03  0.00000000000E+00 0.  1.
          1   -1    0    0  501    0  0.00000000000E+00 -0.00000000000E+00 -0.73092284110E+02  0.73092284110E+02  0.00000000000E+00 0. -1.
          5    1    1    2  502    0 -0.25010349035E+02  0.75896610624E+02  0.59142961314E+02  0.99527850053E+02  0.47000000000E+01 0.  1.
         -5    1    1    2    0  502 -0.26983062659E+00 -0.14015815169E+02 -0.40808680075E+02  0.43404541846E+02  0.47000000000E+01 0.  1.
        -11    1    1    2    0    0  0.52383354163E+01 -0.67707049855E+02  0.29877271410E+03  0.30639324315E+03  0.00000000000E+00 0.  1.
         11    1    1    2    0    0  0.20041844246E+02  0.58262544003E+01  0.86128753185E+01  0.22578803829E+02  0.00000000000E+00 0. -1.
<mgrwt>
<rscale>  0 0.34146796E+03</rscale>
<asrwt>0</asrwt>
<pdfrwt beam="2">  1        1 0.11244967E-01 0.34146796E+03</pdfrwt>
<pdfrwt beam="1">  1       -1 0.61355715E-01 0.34146796E+03</pdfrwt>
<totfact> 0.15285075E+03</totfact>
</mgrwt>
</event>
<event>
 6    1  0.5258538E-006  0.1253062E+03  0.7546771E-02  0.1251178E+00
          2   -1    0    0  501    0  0.00000000000E+00  0.00000000000E+00  0.54904114142E+03  0.54904114142E+03  0.00000000000E+00 0. -1.
         -2   -1    0    0    0  501 -0.00000000000E+00 -0.00000000000E+00 -0.21158529038E+02  0.21158529038E+02  0.00000000000E+00 0.  1.
          5    1    1    2  502    0  0.44467781156E+02  0.29594491834E+02  0.75826288437E+02  0.92870520220E+02  0.47000000000E+01 0. -1.
         -5    1    1    2    0  502 -0.40751297452E+02 -0.37292112812E+02  0.25345376745E+03  0.25944608719E+03  0.47000000000E+01 0. -1.
        -11    1    1    2    0    0 -0.27684799724E+02  0.36864231933E+02  0.69710138825E+02  0.83575852893E+02  0.00000000000E+00 0. -1.
         11    1    1    2    0    0  0.23968316019E+02 -0.29166610955E+02  0.12889241767E+03  0.13430721016E+03  0.00000000000E+00 0.  1.
<mgrwt>
<rscale>  0 0.11523095E+03</rscale>
<asrwt>0</asrwt>
<pdfrwt beam="1">  1        2 0.84467857E-01 0.12530617E+03</pdfrwt>
<pdfrwt beam="2">  1       -2 0.32551587E-02 0.12530617E+03</pdfrwt>
<totfact> 0.19624492E+04</totfact>
</mgrwt>
</event>
<event>
 6    1  0.5258538E-006  0.1325192E+03  0.7546771E-02  0.1237131E+00
          2   -1    0    0  501    0  0.00000000000E+00  0.00000000000E+00  0.14378161819E+03  0.14378161819E+03  0.00000000000E+00 0. -1.
         -2   -1    0    0    0  501 -0.00000000000E+00 -0.00000000000E+00 -0.94834538452E+02  0.94834538452E+02  0.00000000000E+00 0.  1.
          5    1    1    2  502    0 -0.41996044583E+01 -0.22501095511E+02  0.71431367338E+02  0.75156278623E+02  0.47000000000E+01 0.  1.
         -5    1    1    2    0  502  0.24088323271E+02 -0.16757090848E+02 -0.50903665384E+02  0.58943367406E+02  0.47000000000E+01 0.  1.
        -11    1    1    2    0    0 -0.55331781996E+02  0.18764624560E+02  0.86913624116E+01  0.59069933251E+02  0.00000000000E+00 0.  1.
         11    1    1    2    0    0  0.35443063183E+02  0.20493561799E+02  0.19728015368E+02  0.45446577356E+02  0.00000000000E+00 0. -1.
<mgrwt>
<rscale>  0 0.12369021E+03</rscale>
<asrwt>0</asrwt>
<pdfrwt beam="1">  1        2 0.22120249E-01 0.13251916E+03</pdfrwt>
<pdfrwt beam="2">  1       -2 0.14589929E-01 0.13251916E+03</pdfrwt>
<totfact> 0.83571678E+03</totfact>
</mgrwt>
</event>
<event>
 6    1  0.5258538E-006  0.1261444E+03  0.7546771E-02  0.1246754E+00
          1   -1    0    0  501    0  0.00000000000E+00  0.00000000000E+00  0.13065264625E+03  0.13065264625E+03  0.00000000000E+00 0. -1.
         -1   -1    0    0    0  501 -0.00000000000E+00 -0.00000000000E+00 -0.15836141420E+03  0.15836141420E+03  0.00000000000E+00 0.  1.
          5    1    1    2  502    0 -0.37976769534E+02 -0.31055619177E+02  0.89366170955E+02  0.10205434345E+03  0.47000000000E+01 0. -1.
         -5    1    1    2    0  502  0.13459244825E+02  0.41092723139E+02 -0.13010219468E+02  0.45399548201E+02  0.47000000000E+01 0.  1.
        -11    1    1    2    0    0  0.35916772067E+02 -0.51082422032E+01 -0.11767208745E+03  0.12313743874E+03  0.00000000000E+00 0.  1.
         11    1    1    2    0    0 -0.11399247358E+02 -0.49288617596E+01  0.13607368009E+02  0.18422730056E+02  0.00000000000E+00 0. -1.
<mgrwt>
<rscale>  0 0.11781008E+03</rscale>
<asrwt>0</asrwt>
<pdfrwt beam="1">  1        1 0.20100407E-01 0.12614444E+03</pdfrwt>
<pdfrwt beam="2">  1       -1 0.24363294E-01 0.12614444E+03</pdfrwt>
<totfact> 0.35351001E+03</totfact>
</mgrwt>
</event>
<event>
 6    1  0.5258538E-006  0.1373480E+03  0.7546771E-02  0.1222254E+00
         -1   -1    0    0    0  501 -0.00000000000E+00  0.00000000000E+00  0.17198416584E+02  0.17198416584E+02  0.00000000000E+00 0.  1.
          1   -1    0    0  501    0  0.00000000000E+00 -0.00000000000E+00 -0.11417926944E+04  0.11417926944E+04  0.00000000000E+00 0. -1.
          5    1    1    2  502    0 -0.14492137091E+02 -0.45943003704E+02 -0.70793698479E+03  0.70958977308E+03  0.47000000000E+01 0. -1.
         -5    1    1    2    0  502 -0.37931970412E+02  0.23783804685E+02 -0.96446621440E+02  0.10643563563E+03  0.47000000000E+01 0. -1.
        -11    1    1    2    0    0  0.10161458274E+02 -0.17152913608E+02 -0.25448241856E+01  0.20098602181E+02  0.00000000000E+00 0.  1.
         11    1    1    2    0    0  0.42262649228E+02  0.39312112628E+02 -0.31766584745E+03  0.32286710015E+03  0.00000000000E+00 0. -1.
<mgrwt>
<rscale>  0 0.13356883E+03</rscale>
<asrwt>0</asrwt>
<pdfrwt beam="2">  1        1 0.17566043E+00 0.13734803E+03</pdfrwt>
<pdfrwt beam="1">  1       -1 0.26459100E-02 0.13734803E+03</pdfrwt>
<totfact> 0.55878784E+03</totfact>
</mgrwt>
</event>
<event>
 6    1  0.5258538E-006  0.1440087E+03  0.7546771E-02  0.1217451E+00
          4   -1    0    0  501    0  0.00000000000E+00  0.00000000000E+00  0.36698837430E+02  0.36698837430E+02  0.00000000000E+00 0. -1.
         -4   -1    0    0    0  501 -0.00000000000E+00 -0.00000000000E+00 -0.46727789171E+03  0.46727789171E+03  0.00000000000E+00 0.  1.
          5    1    1    2  502    0 -0.20022873953E+02  0.32082572342E+02 -0.46200871951E+02  0.59890045070E+02  0.47000000000E+01 0.  1.
         -5    1    1    2    0  502  0.87005034272E+02 -0.57107662788E+02 -0.19269629436E+03  0.21905504559E+03  0.47000000000E+01 0.  1.
        -11    1    1    2    0    0 -0.50714626181E+02  0.94712398743E+01 -0.19550926026E+03  0.20220175208E+03  0.00000000000E+00 0.  1.
         11    1    1    2    0    0 -0.16267534138E+02  0.15553850572E+02  0.38273722971E+01  0.22829886405E+02  0.00000000000E+00 0. -1.
<mgrwt>
<rscale>  0 0.13698021E+03</rscale>
<asrwt>0</asrwt>
<pdfrwt beam="1">  1        4 0.56459750E-02 0.14400871E+03</pdfrwt>
<pdfrwt beam="2">  1       -4 0.71888906E-01 0.14400871E+03</pdfrwt>
<totfact> 0.59198274E+02</totfact>
</mgrwt>
</event>
<event>
 6    1  0.5258538E-006  0.1417280E+03  0.7546771E-02  0.1220925E+00
          2   -1    0    0  501    0  0.00000000000E+00  0.00000000000E+00  0.12721173464E+03  0.12721173464E+03  0.00000000000E+00 0. -1.
         -2   -1    0    0    0  501 -0.00000000000E+00 -0.00000000000E+00 -0.14857975316E+03  0.14857975316E+03  0.00000000000E+00 0.  1.
          5    1    1    2  502    0  0.58929827044E+02  0.10297150344E+01 -0.20837688085E+02  0.62690382621E+02  0.47000000000E+01 0.  1.
         -5    1    1    2    0  502 -0.21292813817E+02 -0.56211319434E+02  0.58381399764E+02  0.83926004261E+02  0.47000000000E+01 0.  1.
        -11    1    1    2    0    0 -0.65553362217E+02  0.57129825515E+02 -0.43513908518E+02  0.97234358618E+02  0.00000000000E+00 0.  1.
         11    1    1    2    0    0  0.27916348991E+02 -0.19482211156E+01 -0.15397821684E+02  0.31940742306E+02  0.00000000000E+00 0. -1.
<mgrwt>
<rscale>  0 0.13450169E+03</rscale>
<asrwt>0</asrwt>
<pdfrwt beam="1">  1        2 0.19571036E-01 0.14172803E+03</pdfrwt>
<pdfrwt beam="2">  1       -2 0.22858423E-01 0.14172803E+03</pdfrwt>
<totfact> 0.45445199E+03</totfact>
</mgrwt>
</event>
<event>
 6    1  0.5258538E-006  0.1263451E+03  0.7546771E-02  0.1248335E+00
         -2   -1    0    0    0  501 -0.00000000000E+00  0.00000000000E+00  0.40015160256E+02  0.40015160256E+02  0.00000000000E+00 0.  1.
          2   -1    0    0  501    0  0.00000000000E+00 -0.00000000000E+00 -0.32316995838E+03  0.32316995838E+03  0.00000000000E+00 0. -1.
          5    1    1    2  502    0  0.15187393230E+02  0.50969723070E+02 -0.67089507023E+02  0.85741830722E+02  0.47000000000E+01 0.  1.
         -5    1    1    2    0  502 -0.11382173898E+02 -0.69316088080E+02 -0.14354612943E+03  0.15988075314E+03  0.47000000000E+01 0.  1.
        -11    1    1    2    0    0 -0.24983526699E+02 -0.13870475570E+02  0.67965823552E+01  0.29372780437E+02  0.00000000000E+00 0.  1.
         11    1    1    2    0    0  0.21178307367E+02  0.32216840581E+02 -0.79315744026E+02  0.88189754339E+02  0.00000000000E+00 0. -1.
<mgrwt>
<rscale>  0 0.11687999E+03</rscale>
<asrwt>0</asrwt>
<pdfrwt beam="2">  1        2 0.49718455E-01 0.12634509E+03</pdfrwt>
<pdfrwt beam="1">  1       -2 0.61561785E-02 0.12634509E+03</pdfrwt>
<totfact> 0.13427337E+04</totfact>
</mgrwt>
</event>
<event>
 6    1  0.5258538E-006  0.3624531E+03  0.7546771E-02  0.1057617E+00
          2   -1    0    0  501    0  0.00000000000E+00  0.00000000000E+00  0.24977909390E+03  0.24977909390E+03  0.00000000000E+00 0. -1.
         -2   -1    0    0    0  501 -0.00000000000E+00 -0.00000000000E+00 -0.13148843838E+03  0.13148843838E+03  0.00000000000E+00 0.  1.
          5    1    1    2  502    0  0.20808124729E+01  0.18120965947E+02 -0.80476510255E+01  0.20483014291E+02  0.47000000000E+01 0.  1.
         -5    1    1    2    0  502 -0.98589564644E+01 -0.15068057017E+03  0.12581343601E+03  0.19660351962E+03  0.47000000000E+01 0.  1.
        -11    1    1    2    0    0  0.45360936001E+02  0.63141393289E+02  0.24780182449E+02  0.81599678330E+02  0.00000000000E+00 0.  1.
         11    1    1    2    0    0 -0.37582792009E+02  0.69418210932E+02 -0.24255311912E+02  0.82581320043E+02  0.00000000000E+00 0. -1.
<mgrwt>
<rscale>  0 0.36245310E+03</rscale>
<asrwt>0</asrwt>
<pdfrwt beam="1">  1        2 0.38427553E-01 0.36245310E+03</pdfrwt>
<pdfrwt beam="2">  1       -2 0.20228990E-01 0.36245310E+03</pdfrwt>
<totfact> 0.27644919E+03</totfact>
</mgrwt>
</event>
<event>
 6    1  0.5258538E-006  0.1394597E+03  0.7546771E-02  0.1224280E+00
         -1   -1    0    0    0  501 -0.00000000000E+00  0.00000000000E+00  0.12747733162E+03  0.12747733162E+03  0.00000000000E+00 0.  1.
          1   -1    0    0  501    0  0.00000000000E+00 -0.00000000000E+00 -0.13126435135E+03  0.13126435135E+03  0.00000000000E+00 0. -1.
          5    1    1    2  502    0  0.81585982473E+02  0.16278046849E+01 -0.16921841931E+02  0.83470719528E+02  0.47000000000E+01 0. -1.
         -5    1    1    2    0  502 -0.38484130616E+02  0.42724446229E+02 -0.14398108050E+02  0.59462611197E+02  0.47000000000E+01 0. -1.
        -11    1    1    2    0    0 -0.49837014067E+02  0.62030863045E+01  0.38936192995E+02  0.63547095731E+02  0.00000000000E+00 0.  1.
         11    1    1    2    0    0  0.67351622108E+01 -0.50555337219E+02 -0.11403262738E+02  0.52261256514E+02  0.00000000000E+00 0. -1.
<mgrwt>
<rscale>  0 0.13216390E+03</rscale>
<asrwt>0</asrwt>
<pdfrwt beam="2">  1        1 0.20194515E-01 0.13945966E+03</pdfrwt>
<pdfrwt beam="1">  1       -1 0.19611897E-01 0.13945966E+03</pdfrwt>
<totfact> 0.50222828E+03</totfact>
</mgrwt>
</event>
<event>
 6    1  0.5258538E-006  0.1920777E+03  0.7546771E-02  0.1161457E+00
          1   -1    0    0  501    0  0.00000000000E+00  0.00000000000E+00  0.69671404454E+03  0.69671404454E+03  0.00000000000E+00 0.  1.
         -1   -1    0    0    0  501 -0.00000000000E+00 -0.00000000000E+00 -0.48158875404E+02  0.48158875404E+02  0.00000000000E+00 0. -1.
          5    1    1    2  502    0 -0.77404688705E+01  0.12661570162E+03  0.25585804575E+03  0.28561666676E+03  0.47000000000E+01 0. -1.
         -5    1    1    2    0  502 -0.64968021107E+02 -0.18587368880E+00  0.13203544264E+03  0.14722882336E+03  0.47000000000E+01 0. -1.
        -11    1    1    2    0    0 -0.62236258978E+01 -0.34913402197E+02  0.15513232268E+02  0.38708391179E+02  0.00000000000E+00 0. -1.
         11    1    1    2    0    0  0.78932115875E+02 -0.91516425732E+02  0.24514844848E+03  0.27331903865E+03  0.00000000000E+00 0.  1.
<mgrwt>
<rscale>  0 0.18671614E+03</rscale>
<asrwt>0</asrwt>
<pdfrwt beam="1">  1        1 0.10718677E+00 0.19207774E+03</pdfrwt>
<pdfrwt beam="2">  1       -1 0.74090583E-02 0.19207774E+03</pdfrwt>
<totfact> 0.27224367E+03</totfact>
</mgrwt>
</event>
<event>
 6    1  0.5258538E-006  0.1347572E+03  0.7546771E-02  0.1232349E+00
         -2   -1    0    0    0  501 -0.00000000000E+00  0.00000000000E+00  0.99310563773E+02  0.99310563773E+02  0.00000000000E+00 0. -1.
          2   -1    0    0  501    0  0.00000000000E+00 -0.00000000000E+00 -0.17802433004E+03  0.17802433004E+03  0.00000000000E+00 0.  1.
          5    1    1    2  502    0 -0.31973810768E+02 -0.50308348626E+02 -0.57809367552E+02  0.83170111779E+02  0.47000000000E+01 0. -1.
         -5    1    1    2    0  502  0.71078735992E+02  0.18610465092E+02 -0.44547596197E+02  0.86052974662E+02  0.47000000000E+01 0. -1.
        -11    1    1    2    0    0 -0.11158248841E+02 -0.31836962187E+02  0.18589627096E+02  0.38518474970E+02  0.00000000000E+00 0. -1.
         11    1    1    2    0    0 -0.27946676383E+02  0.63534845721E+02  0.50535703837E+01  0.69593332406E+02  0.00000000000E+00 0.  1.
<mgrwt>
<rscale>  0 0.12675696E+03</rscale>
<asrwt>0</asrwt>
<pdfrwt beam="2">  1        2 0.27388358E-01 0.13475721E+03</pdfrwt>
<pdfrwt beam="1">  1       -2 0.15278548E-01 0.13475721E+03</pdfrwt>
<totfact> 0.61290855E+03</totfact>
</mgrwt>
</event>
<event>
 6    1  0.5258538E-006  0.1706474E+03  0.7546771E-02  0.1184356E+00
          1   -1    0    0  501    0  0.00000000000E+00  0.00000000000E+00  0.22916689586E+02  0.22916689586E+02  0.00000000000E+00 0. -1.
         -1   -1    0    0    0  501 -0.00000000000E+00 -0.00000000000E+00 -0.11259558210E+04  0.11259558210E+04  0.00000000000E+00 0.  1.
          5    1    1    2  502    0  0.48814115908E+02  0.57801461522E+02 -0.22384004581E+03  0.23632664465E+03  0.47000000000E+01 0.  1.
         -5    1    1    2    0  502 -0.77172508172E+02  0.54854225595E+02 -0.26620356696E+03  0.28257921216E+03  0.47000000000E+01 0.  1.
        -11    1    1    2    0    0  0.31505603368E+02 -0.12660441395E+03 -0.53557368409E+03  0.55123538689E+03  0.00000000000E+00 0.  1.
         11    1    1    2    0    0 -0.31472111037E+01  0.13948726833E+02 -0.77421834532E+02  0.78731266853E+02  0.00000000000E+00 0. -1.
<mgrwt>
<rscale>  0 0.16390640E+03</rscale>
<asrwt>0</asrwt>
<pdfrwt beam="1">  1        1 0.35256446E-02 0.17064743E+03</pdfrwt>
<pdfrwt beam="2">  1       -1 0.17322397E+00 0.17064743E+03</pdfrwt>
<totfact> 0.68808220E+02</totfact>
</mgrwt>
</event>
<event>
 6    1  0.5258538E-006  0.2826982E+03  0.7546771E-02  0.1094224E+00
         -2   -1    0    0    0  501 -0.00000000000E+00  0.00000000000E+00  0.17292030662E+02  0.17292030662E+02  0.00000000000E+00 0.  1.
          2   -1    0    0  501    0  0.00000000000E+00 -0.00000000000E+00 -0.11554206699E+04  0.11554206699E+04  0.00000000000E+00 0. -1.
          5    1    1    2  502    0 -0.24017833589E+02 -0.24997710083E+02 -0.21084707373E+03  0.21372954952E+03  0.47000000000E+01 0.  1.
         -5    1    1    2    0  502  0.85399541791E+02  0.72072988311E+02 -0.60179988003E+03  0.61210520581E+03  0.47000000000E+01 0.  1.
        -11    1    1    2    0    0 -0.63788083954E+02 -0.14311873479E+01 -0.11522959128E+03  0.13171494471E+03  0.00000000000E+00 0.  1.
         11    1    1    2    0    0  0.24063757526E+01 -0.45644090880E+02 -0.21025209416E+03  0.21516300048E+03  0.00000000000E+00 0. -1.
<mgrwt>
<rscale>  0 0.28269821E+03</rscale>
<asrwt>0</asrwt>
<pdfrwt beam="2">  1        2 0.17775704E+00 0.28269821E+03</pdfrwt>
<pdfrwt beam="1">  1       -2 0.26603122E-02 0.28269821E+03</pdfrwt>
<totfact> 0.10735256E+04</totfact>
</mgrwt>
</event>
<event>
 6    1  0.5258538E-006  0.1711959E+03  0.7546771E-02  0.1182908E+00
         -2   -1    0    0    0  501 -0.00000000000E+00  0.00000000000E+00  0.34675385380E+02  0.34675385380E+02  0.00000000000E+00 0. -1.
          2   -1    0    0  501    0  0.00000000000E+00 -0.00000000000E+00 -0.73818407227E+03  0.73818407227E+03  0.00000000000E+00 0.  1.
          5    1    1    2  502    0 -0.16787416996E+02  0.13877760056E+03 -0.28384167286E+03  0.31643202278E+03  0.47000000000E+01 0.  1.
         -5    1    1    2    0  502 -0.90050245118E+01 -0.24684476937E+02 -0.10662798612E+03  0.10991829371E+03  0.47000000000E+01 0.  1.
        -11    1    1    2    0    0  0.28725364711E+02 -0.10459600699E+02 -0.15156726859E+03  0.15461949014E+03  0.00000000000E+00 0.  1.
         11    1    1    2    0    0 -0.29329232030E+01 -0.10363352292E+03 -0.16147175932E+03  0.19188965102E+03  0.00000000000E+00 0. -1.
<mgrwt>
<rscale>  0 0.16523726E+03</rscale>
<asrwt>0</asrwt>
<pdfrwt beam="2">  1        2 0.11356678E+00 0.17119590E+03</pdfrwt>
<pdfrwt beam="1">  1       -2 0.53346748E-02 0.17119590E+03</pdfrwt>
<totfact> 0.68001577E+03</totfact>
</mgrwt>
</event>
<event>
 6    1  0.5258538E-006  0.1287530E+03  0.7546771E-02  0.1245111E+00
         -1   -1    0    0    0  501 -0.00000000000E+00  0.00000000000E+00  0.13888840389E+02  0.13888840389E+02  0.00000000000E+00 0.  1.
          1   -1    0    0  501    0  0.00000000000E+00 -0.00000000000E+00 -0.20325073023E+04  0.20325073023E+04  0.00000000000E+00 0. -1.
          5    1    1    2  502    0  0.17187069130E+02  0.66714054341E+02 -0.61261507431E+03  0.61649450903E+03  0.47000000000E+01 0. -1.
         -5    1    1    2    0  502 -0.55776254451E+01 -0.38109473330E+02 -0.12308042138E+04  0.12314156669E+04  0.47000000000E+01 0. -1.
        -11    1    1    2    0    0 -0.93938563900E+01 -0.50956022469E+02 -0.16653896173E+03  0.17441326365E+03  0.00000000000E+00 0. -1.
         11    1    1    2    0    0 -0.22155872949E+01  0.22351441458E+02 -0.86602120160E+01  0.24072703099E+02  0.00000000000E+00 0.  1.
<mgrwt>
<rscale>  0 0.11878732E+03</rscale>
<asrwt>0</asrwt>
<pdfrwt beam="2">  1        1 0.31269336E+00 0.12875304E+03</pdfrwt>
<pdfrwt beam="1">  1       -1 0.21367452E-02 0.12875304E+03</pdfrwt>
<totfact> 0.20060224E+03</totfact>
</mgrwt>
</event>
<event>
 6    1  0.5258538E-006  0.1367552E+03  0.7546771E-02  0.1229717E+00
         -4   -1    0    0    0  501 -0.00000000000E+00  0.00000000000E+00  0.41665123723E+03  0.41665123723E+03  0.00000000000E+00 0. -1.
          4   -1    0    0  501    0  0.00000000000E+00 -0.00000000000E+00 -0.39704538557E+02  0.39704538557E+02  0.00000000000E+00 0.  1.
          5    1    1    2  502    0 -0.43457853498E+02  0.42079747816E+02  0.16271513124E+02  0.62818328108E+02  0.47000000000E+01 0.  1.
         -5    1    1    2    0  502 -0.11535425633E+02 -0.49296360445E+02  0.11959761459E+03  0.12995721070E+03  0.47000000000E+01 0.  1.
        -11    1    1    2    0    0  0.76332077936E+02 -0.76056319673E+01  0.14486891019E+03  0.16392508319E+03  0.00000000000E+00 0.  1.
         11    1    1    2    0    0 -0.21338798805E+02  0.14822244596E+02  0.96208660765E+02  0.99655153783E+02  0.00000000000E+00 0. -1.
<mgrwt>
<rscale>  0 0.12848777E+03</rscale>
<asrwt>0</asrwt>
<pdfrwt beam="2">  1        4 0.61083908E-02 0.13675521E+03</pdfrwt>
<pdfrwt beam="1">  1       -4 0.64100187E-01 0.13675521E+03</pdfrwt>
<totfact> 0.65972530E+02</totfact>
</mgrwt>
</event>
<event>
 6    1  0.5258538E-006  0.1353938E+03  0.7546771E-02  0.1232074E+00
         -2   -1    0    0    0  501 -0.00000000000E+00  0.00000000000E+00  0.59291337467E+02  0.59291337467E+02  0.00000000000E+00 0.  1.
          2   -1    0    0  501    0  0.00000000000E+00 -0.00000000000E+00 -0.24391146867E+03  0.24391146867E+03  0.00000000000E+00 0. -1.
          5    1    1    2  502    0  0.21300659200E+00  0.34598834817E+02  0.27015140144E+01  0.35021606481E+02  0.47000000000E+01 0.  1.
         -5    1    1    2    0  502  0.71865806650E+01 -0.86099609135E+02 -0.96944035013E+02  0.12994239323E+03  0.47000000000E+01 0.  1.
        -11    1    1    2    0    0 -0.92187193728E+01  0.72648075536E+02 -0.39708526635E+02  0.83303629894E+02  0.00000000000E+00 0.  1.
         11    1    1    2    0    0  0.18191321158E+01 -0.21147301218E+02 -0.50669083575E+02  0.54935176533E+02  0.00000000000E+00 0. -1.
<mgrwt>
<rscale>  0 0.12693616E+03</rscale>
<asrwt>0</asrwt>
<pdfrwt beam="2">  1        2 0.37524842E-01 0.13539375E+03</pdfrwt>
<pdfrwt beam="1">  1       -2 0.91217441E-02 0.13539375E+03</pdfrwt>
<totfact> 0.99434617E+03</totfact>
</mgrwt>
</event>
<event>
 6    1  0.5258538E-006  0.1459066E+03  0.7546771E-02  0.1216150E+00
          2   -1    0    0  501    0  0.00000000000E+00  0.00000000000E+00  0.71174757570E+03  0.71174757570E+03  0.00000000000E+00 0. -1.
         -2   -1    0    0    0  501 -0.00000000000E+00 -0.00000000000E+00 -0.41633899817E+02  0.41633899817E+02  0.00000000000E+00 0.  1.
          5    1    1    2  502    0  0.10427850186E+03 -0.68268663617E+01  0.39194690936E+03  0.40566621970E+03  0.47000000000E+01 0. -1.
         -5    1    1    2    0  502 -0.33987613880E+02 -0.20123797774E+02  0.20788134879E+03  0.21165271156E+03  0.47000000000E+01 0. -1.
        -11    1    1    2    0    0 -0.89815979268E+02  0.23140129150E+02  0.69944286216E+02  0.11616616927E+03  0.00000000000E+00 0. -1.
         11    1    1    2    0    0  0.19525091290E+02  0.38105349856E+01  0.34113151689E+00  0.19896374983E+02  0.00000000000E+00 0.  1.
<mgrwt>
<rscale>  0 0.13792421E+03</rscale>
<asrwt>0</asrwt>
<pdfrwt beam="1">  1        2 0.10949962E+00 0.14590656E+03</pdfrwt>
<pdfrwt beam="2">  1       -2 0.64052159E-02 0.14590656E+03</pdfrwt>
<totfact> 0.53421872E+03</totfact>
</mgrwt>
</event>
<event>
 6    1  0.5258538E-006  0.1691189E+03  0.7546771E-02  0.1185387E+00
         -1   -1    0    0    0  501 -0.00000000000E+00  0.00000000000E+00  0.27729635890E+02  0.27729635890E+02  0.00000000000E+00 0.  1.
          1   -1    0    0  501    0  0.00000000000E+00 -0.00000000000E+00 -0.90794713679E+03  0.90794713679E+03  0.00000000000E+00 0. -1.
          5    1    1    2  502    0  0.25294623656E+02 -0.35715487502E+02 -0.24811110985E+03  0.25198537034E+03  0.47000000000E+01 0. -1.
         -5    1    1    2    0  502  0.77810250882E+02  0.84132758718E+02 -0.28136533812E+03  0.30384420305E+03  0.47000000000E+01 0. -1.
        -11    1    1    2    0    0 -0.11799131938E+03 -0.29437544148E+02 -0.28744837348E+03  0.31211390208E+03  0.00000000000E+00 0.  1.
         11    1    1    2    0    0  0.14886444839E+02 -0.18979727068E+02 -0.63292679447E+02  0.67733297211E+02  0.00000000000E+00 0. -1.
<mgrwt>
<rscale>  0 0.16296761E+03</rscale>
<asrwt>0</asrwt>
<pdfrwt beam="2">  1        1 0.13968417E+00 0.16911891E+03</pdfrwt>
<pdfrwt beam="1">  1       -1 0.42660981E-02 0.16911891E+03</pdfrwt>
<totfact> 0.41411332E+03</totfact>
</mgrwt>
</event>
<event>
 6    1  0.5258538E-006  0.2671304E+03  0.7546771E-02  0.1102933E+00
          3   -1    0    0  501    0  0.00000000000E+00  0.00000000000E+00  0.52047319238E+02  0.52047319238E+02  0.00000000000E+00 0. -1.
         -3   -1    0    0    0  501 -0.00000000000E+00 -0.00000000000E+00 -0.34275862744E+03  0.34275862744E+03  0.00000000000E+00 0.  1.
          5    1    1    2  502    0 -0.64879088588E+01  0.97748241599E+01 -0.12425405349E+03  0.12489515586E+03  0.47000000000E+01 0.  1.
         -5    1    1    2    0  502 -0.29119647915E+02  0.53345035827E+02  0.67669442708E+01  0.61331299324E+02  0.47000000000E+01 0.  1.
        -11    1    1    2    0    0  0.36379511480E+02 -0.35885614207E+02 -0.23233066591E+02  0.56133960716E+02  0.00000000000E+00 0. -1.
         11    1    1    2    0    0 -0.77195470639E+00 -0.27234245780E+02 -0.14999113239E+03  0.15244553077E+03  0.00000000000E+00 0.  1.
<mgrwt>
<rscale>  0 0.26713044E+03</rscale>
<asrwt>0</asrwt>
<pdfrwt beam="1">  1        3 0.80072796E-02 0.26713044E+03</pdfrwt>
<pdfrwt beam="2">  1       -3 0.52732099E-01 0.26713044E+03</pdfrwt>
<totfact> 0.96862592E+02</totfact>
</mgrwt>
</event>
<event>
 6    1  0.5258538E-006  0.1464858E+03  0.7546771E-02  0.1214381E+00
         -1   -1    0    0    0  501 -0.00000000000E+00  0.00000000000E+00  0.58564196292E+03  0.58564196292E+03  0.00000000000E+00 0.  1.
          1   -1    0    0  501    0  0.00000000000E+00 -0.00000000000E+00 -0.30235250075E+02  0.30235250075E+02  0.00000000000E+00 0. -1.
          5    1    1    2  502    0  0.71150787336E+02  0.50950468334E+02  0.23596731349E+03  0.25171620488E+03  0.47000000000E+01 0.  1.
         -5    1    1    2    0  502  0.52079847277E+01 -0.50198897892E+02  0.60195124133E+02  0.78693045588E+02  0.47000000000E+01 0.  1.
        -11    1    1    2    0    0 -0.47035194371E+02 -0.41459164361E+02  0.95771067212E+02  0.11446951181E+03  0.00000000000E+00 0.  1.
         11    1    1    2    0    0 -0.29323577692E+02  0.40707593919E+02  0.16347320800E+03  0.17099845071E+03  0.00000000000E+00 0. -1.
<mgrwt>
<rscale>  0 0.13922083E+03</rscale>
<asrwt>0</asrwt>
<pdfrwt beam="2">  1        1 0.46515774E-02 0.14648578E+03</pdfrwt>
<pdfrwt beam="1">  1       -1 0.90098755E-01 0.14648578E+03</pdfrwt>
<totfact> 0.22692620E+03</totfact>
</mgrwt>
</event>
<event>
 6    1  0.5258538E-006  0.1277790E+03  0.7546771E-02  0.1245079E+00
          1   -1    0    0  501    0  0.00000000000E+00  0.00000000000E+00  0.15753299280E+03  0.15753299280E+03  0.00000000000E+00 0. -1.
         -1   -1    0    0    0  501 -0.00000000000E+00 -0.00000000000E+00 -0.97019405628E+02  0.97019405628E+02  0.00000000000E+00 0.  1.
          5    1    1    2  502    0  0.65949973797E+00  0.74724966895E+02  0.59343234429E+02  0.95540384602E+02  0.47000000000E+01 0.  1.
         -5    1    1    2    0  502 -0.11841540843E+02 -0.50696466626E+02  0.28692873976E+02  0.59629898833E+02  0.47000000000E+01 0.  1.
        -11    1    1    2    0    0  0.44593789693E+01 -0.59289748219E+02 -0.14530793905E+02  0.61207060672E+02  0.00000000000E+00 0.  1.
         11    1    1    2    0    0  0.67226621359E+01  0.35261247949E+02 -0.12991727331E+02  0.38175054318E+02  0.00000000000E+00 0. -1.
<mgrwt>
<rscale>  0 0.11880638E+03</rscale>
<asrwt>0</asrwt>
<pdfrwt beam="1">  1        1 0.24235845E-01 0.12777895E+03</pdfrwt>
<pdfrwt beam="2">  1       -1 0.14926062E-01 0.12777895E+03</pdfrwt>
<totfact> 0.61106603E+03</totfact>
</mgrwt>
</event>
<event>
 6    1  0.5258538E-006  0.1434494E+03  0.7546771E-02  0.1219160E+00
         -1   -1    0    0    0  501 -0.00000000000E+00  0.00000000000E+00  0.14705962537E+02  0.14705962537E+02  0.00000000000E+00 0.  1.
          1   -1    0    0  501    0  0.00000000000E+00 -0.00000000000E+00 -0.11477710157E+04  0.11477710157E+04  0.00000000000E+00 0. -1.
          5    1    1    2  502    0  0.39345124923E+00 -0.53017163846E+02 -0.15641643615E+03  0.16522459249E+03  0.47000000000E+01 0.  1.
         -5    1    1    2    0  502 -0.70693943682E+02  0.49792120876E+02 -0.41322413556E+03  0.42220038510E+03  0.47000000000E+01 0.  1.
        -11    1    1    2    0    0  0.91561441381E+02  0.11250859818E+02 -0.44330694665E+03  0.45280363110E+03  0.00000000000E+00 0. -1.
         11    1    1    2    0    0 -0.21260948948E+02 -0.80258168479E+01 -0.12011753476E+03  0.12224836949E+03  0.00000000000E+00 0.  1.
<mgrwt>
<rscale>  0 0.13575330E+03</rscale>
<asrwt>0</asrwt>
<pdfrwt beam="2">  1        1 0.17658018E+00 0.14344938E+03</pdfrwt>
<pdfrwt beam="1">  1       -1 0.22624555E-02 0.14344938E+03</pdfrwt>
<totfact> 0.69578033E+03</totfact>
</mgrwt>
</event>
<event>
 6    1  0.5258538E-006  0.2015143E+03  0.7546771E-02  0.1152358E+00
         -1   -1    0    0    0  501 -0.00000000000E+00  0.00000000000E+00  0.29699024655E+03  0.29699024655E+03  0.00000000000E+00 0.  1.
          1   -1    0    0  501    0  0.00000000000E+00 -0.00000000000E+00 -0.15832416381E+03  0.15832416381E+03  0.00000000000E+00 0. -1.
          5    1    1    2  502    0  0.52967533641E+02 -0.46583783121E+02 -0.70839759850E+02  0.10007981837E+03  0.47000000000E+01 0. -1.
         -5    1    1    2    0  502  0.96518524562E+02 -0.47659296525E+01  0.38279934921E+02  0.10404798454E+03  0.47000000000E+01 0. -1.
        -11    1    1    2    0    0 -0.23346523341E+02 -0.26420117423E+02  0.27084608821E+02  0.44459631035E+02  0.00000000000E+00 0. -1.
         11    1    1    2    0    0 -0.12613953486E+03  0.77769830196E+02  0.14414129885E+03  0.20672697641E+03  0.00000000000E+00 0.  1.
<mgrwt>
<rscale>  0 0.19692737E+03</rscale>
<asrwt>0</asrwt>
<pdfrwt beam="2">  1        1 0.24357564E-01 0.20151431E+03</pdfrwt>
<pdfrwt beam="1">  1       -1 0.45690807E-01 0.20151431E+03</pdfrwt>
<totfact> 0.95730767E+02</totfact>
</mgrwt>
</event>
<event>
 6    1  0.5258538E-006  0.1351474E+03  0.7546771E-02  0.1228565E+00
         -2   -1    0    0    0  501 -0.00000000000E+00  0.00000000000E+00  0.17540957795E+02  0.17540957795E+02  0.00000000000E+00 0.  1.
          2   -1    0    0  501    0  0.00000000000E+00 -0.00000000000E+00 -0.10142849621E+04  0.10142849621E+04  0.00000000000E+00 0. -1.
          5    1    1    2  502    0 -0.34869837630E+02 -0.20598410779E+02 -0.66825804836E+03  0.66950064175E+03  0.47000000000E+01 0. -1.
         -5    1    1    2    0  502 -0.24668525898E+02  0.27820611753E+02 -0.56834276697E+02  0.68078980721E+02  0.47000000000E+01 0.  1.
        -11    1    1    2    0    0  0.66088862538E+01  0.35767802521E+02 -0.46741041099E+02  0.59226159742E+02  0.00000000000E+00 0.  1.
         11    1    1    2    0    0  0.52929477274E+02 -0.42990003495E+02 -0.22491063815E+03  0.23502013768E+03  0.00000000000E+00 0. -1.
<mgrwt>
<rscale>  0 0.12925539E+03</rscale>
<asrwt>0</asrwt>
<pdfrwt beam="2">  1        2 0.15604386E+00 0.13514740E+03</pdfrwt>
<pdfrwt beam="1">  1       -2 0.26986085E-02 0.13514740E+03</pdfrwt>
<totfact> 0.12267249E+04</totfact>
</mgrwt>
</event>
<event>
 6    1  0.5258538E-006  0.1393265E+03  0.7546771E-02  0.1226092E+00
         -2   -1    0    0    0  501 -0.00000000000E+00  0.00000000000E+00  0.25369421615E+02  0.25369421615E+02  0.00000000000E+00 0.  1.
          2   -1    0    0  501    0  0.00000000000E+00 -0.00000000000E+00 -0.60837068481E+03  0.60837068481E+03  0.00000000000E+00 0. -1.
          5    1    1    2  502    0  0.37006246663E+02  0.14283442943E+02 -0.10170120626E+03  0.10926437841E+03  0.47000000000E+01 0.  1.
         -5    1    1    2    0  502 -0.79079702226E+02 -0.59193598333E+02 -0.20565367379E+03  0.22819510277E+03  0.47000000000E+01 0.  1.
        -11    1    1    2    0    0  0.56510256834E+01 -0.23017662171E+02 -0.26829032846E+02  0.35798657328E+02  0.00000000000E+00 0.  1.
         11    1    1    2    0    0  0.36422429879E+02  0.67927817561E+02 -0.24881735031E+03  0.26048196792E+03  0.00000000000E+00 0. -1.
<mgrwt>
<rscale>  0 0.13092316E+03</rscale>
<asrwt>0</asrwt>
<pdfrwt beam="2">  1        2 0.93595487E-01 0.13932652E+03</pdfrwt>
<pdfrwt beam="1">  1       -2 0.39029881E-02 0.13932652E+03</pdfrwt>
<totfact> 0.13481534E+04</totfact>
</mgrwt>
</event>
<event>
 6    1  0.5258538E-006  0.2703070E+03  0.7546771E-02  0.1103149E+00
         -1   -1    0    0    0  501 -0.00000000000E+00  0.00000000000E+00  0.17245740889E+03  0.17245740889E+03  0.00000000000E+00 0.  1.
          1   -1    0    0  501    0  0.00000000000E+00 -0.00000000000E+00 -0.49177799164E+03  0.49177799164E+03  0.00000000000E+00 0. -1.
          5    1    1    2  502    0 -0.11358117383E+03  0.45997315652E+02 -0.62458904646E+02  0.13762136777E+03  0.47000000000E+01 0. -1.
         -5    1    1    2    0  502 -0.11654203092E+03  0.20946927263E+02 -0.24239695933E+03  0.26981325880E+03  0.47000000000E+01 0. -1.
        -11    1    1    2    0    0  0.12393857813E+03 -0.32870522584E+02  0.37749274581E+02  0.13366469293E+03  0.00000000000E+00 0. -1.
         11    1    1    2    0    0  0.10618462662E+03 -0.34073720331E+02 -0.52213993359E+02  0.12313608103E+03  0.00000000000E+00 0.  1.
<mgrwt>
<rscale>  0 0.26675929E+03</rscale>
<asrwt>0</asrwt>
<pdfrwt beam="2">  1        1 0.75658153E-01 0.27030701E+03</pdfrwt>
<pdfrwt beam="1">  1       -1 0.26531909E-01 0.27030701E+03</pdfrwt>
<totfact> 0.58430001E+02</totfact>
</mgrwt>
</event>
<event>
 6    1  0.5258538E-006  0.1865565E+03  0.7546771E-02  0.1164128E+00
         -2   -1    0    0    0  501 -0.00000000000E+00  0.00000000000E+00  0.11541567845E+03  0.11541567845E+03  0.00000000000E+00 0.  1.
          2   -1    0    0  501    0  0.00000000000E+00 -0.00000000000E+00 -0.67388962957E+03  0.67388962957E+03  0.00000000000E+00 0. -1.
          5    1    1    2  502    0 -0.24958705768E+02 -0.19717464235E+01 -0.11578993879E+03  0.11855895033E+03  0.47000000000E+01 0. -1.
         -5    1    1    2    0  502  0.14089273838E+03 -0.73776868783E+02 -0.46676839379E+03  0.49314157555E+03  0.47000000000E+01 0. -1.
        -11    1    1    2    0    0 -0.18569437347E+00 -0.21392836613E+02 -0.85025409569E+01  0.23021319325E+02  0.00000000000E+00 0.  1.
         11    1    1    2    0    0 -0.11574833824E+03  0.97141451819E+02  0.32586922415E+02  0.15458346283E+03  0.00000000000E+00 0. -1.
<mgrwt>
<rscale>  0 0.18385009E+03</rscale>
<asrwt>0</asrwt>
<pdfrwt beam="2">  1        2 0.10367533E+00 0.18655649E+03</pdfrwt>
<pdfrwt beam="1">  1       -2 0.17756259E-01 0.18655649E+03</pdfrwt>
<totfact> 0.11319748E+03</totfact>
</mgrwt>
</event>
<event>
 6    1  0.5258538E-006  0.1576335E+03  0.7546771E-02  0.1199176E+00
         -4   -1    0    0    0  501 -0.00000000000E+00  0.00000000000E+00  0.19464712006E+03  0.19464712006E+03  0.00000000000E+00 0.  1.
          4   -1    0    0  501    0  0.00000000000E+00 -0.00000000000E+00 -0.10972717835E+03  0.10972717835E+03  0.00000000000E+00 0. -1.
          5    1    1    2  502    0  0.10627382533E+02 -0.20607672648E+02 -0.23977070301E+02  0.33683932842E+02  0.47000000000E+01 0. -1.
         -5    1    1    2    0  502 -0.99291972016E+02  0.57456297247E+02  0.53599463249E+02  0.12670877736E+03  0.47000000000E+01 0. -1.
        -11    1    1    2    0    0 -0.34174416073E+01  0.21229810466E+02  0.20444466823E+02  0.29670860844E+02  0.00000000000E+00 0.  1.
         11    1    1    2    0    0  0.92082031091E+02 -0.58078435065E+02  0.34853081932E+02  0.11431072736E+03  0.00000000000E+00 0. -1.
<mgrwt>
<rscale>  0 0.15106015E+03</rscale>
<asrwt>0</asrwt>
<pdfrwt beam="2">  1        4 0.16881104E-01 0.15763355E+03</pdfrwt>
<pdfrwt beam="1">  1       -4 0.29945711E-01 0.15763355E+03</pdfrwt>
<totfact> 0.55672516E+02</totfact>
</mgrwt>
</event>
<event>
 6    1  0.5258538E-006  0.1258495E+03  0.7546771E-02  0.1250093E+00
         -1   -1    0    0    0  501 -0.00000000000E+00  0.00000000000E+00  0.28935397761E+02  0.28935397761E+02  0.00000000000E+00 0.  1.
          1   -1    0    0  501    0  0.00000000000E+00 -0.00000000000E+00 -0.40569022020E+03  0.40569022020E+03  0.00000000000E+00 0. -1.
          5    1    1    2  502    0 -0.20578989701E+02  0.43349471062E+02 -0.26283071342E+02  0.54914126576E+02  0.47000000000E+01 0.  1.
         -5    1    1    2    0  502  0.21797131737E+02 -0.28832401544E+02 -0.20667294565E+03  0.20986238061E+03  0.47000000000E+01 0.  1.
        -11    1    1    2    0    0  0.14867553395E+02  0.28297715327E+02 -0.19599137127E+02  0.37495746597E+02  0.00000000000E+00 0.  1.
         11    1    1    2    0    0 -0.16085695432E+02 -0.42814784845E+02 -0.12419966831E+03  0.13235336417E+03  0.00000000000E+00 0. -1.
<mgrwt>
<rscale>  0 0.11585652E+03</rscale>
<asrwt>0</asrwt>
<pdfrwt beam="2">  1        1 0.62413883E-01 0.12584949E+03</pdfrwt>
<pdfrwt beam="1">  1       -1 0.44515994E-02 0.12584949E+03</pdfrwt>
<totfact> 0.11731015E+04</totfact>
</mgrwt>
</event>
<event>
 6    1  0.5258538E-006  0.1433232E+03  0.7546771E-02  0.1218912E+00
          2   -1    0    0  501    0  0.00000000000E+00  0.00000000000E+00  0.23015044969E+03  0.23015044969E+03  0.00000000000E+00 0. -1.
         -2   -1    0    0    0  501 -0.00000000000E+00 -0.00000000000E+00 -0.73853105188E+02  0.73853105188E+02  0.00000000000E+00 0.  1.
          5    1    1    2  502    0 -0.13751141521E+02 -0.21647936623E+02  0.10747279884E+03  0.11059032301E+03  0.47000000000E+01 0. -1.
         -5    1    1    2    0  502  0.54789245896E+02 -0.35183938794E+02 -0.51875094204E+01  0.65488711004E+02  0.47000000000E+01 0. -1.
        -11    1    1    2    0    0  0.18452031944E+02 -0.10115553776E+02 -0.37201545690E+01  0.21369170809E+02  0.00000000000E+00 0.  1.
         11    1    1    2    0    0 -0.59490136318E+02  0.66947429194E+02  0.57732209660E+02  0.10655535006E+03  0.00000000000E+00 0. -1.
<mgrwt>
<rscale>  0 0.13593057E+03</rscale>
<asrwt>0</asrwt>
<pdfrwt beam="1">  1        2 0.35407761E-01 0.14332322E+03</pdfrwt>
<pdfrwt beam="2">  1       -2 0.11362016E-01 0.14332322E+03</pdfrwt>
<totfact> 0.75175678E+03</totfact>
</mgrwt>
</event>
<event>
 6    1  0.5258538E-006  0.5545673E+03  0.7546771E-02  0.1000442E+00
          2   -1    0    0  501    0  0.00000000000E+00  0.00000000000E+00  0.40800120489E+04  0.40800120489E+04  0.00000000000E+00 0.  1.
         -2   -1    0    0    0  501 -0.00000000000E+00 -0.00000000000E+00 -0.18844606344E+02  0.18844606344E+02  0.00000000000E+00 0. -1.
          5    1    1    2  502    0  0.67755195630E+00  0.23684644254E+02  0.36502697031E+03  0.36582536886E+03  0.47000000000E+01 0. -1.
         -5    1    1    2    0  502  0.52225701331E+02 -0.15603948194E+03  0.32857720554E+04  0.32898929974E+04  0.47000000000E+01 0. -1.
        -11    1    1    2    0    0 -0.61225237360E+02  0.97458445343E+02  0.20896363776E+03  0.23856336719E+03  0.00000000000E+00 0. -1.
         11    1    1    2    0    0  0.83219840728E+01  0.34896392348E+02  0.20140477903E+03  0.20457492182E+03  0.00000000000E+00 0.  1.
<mgrwt>
<rscale>  0 0.55456729E+03</rscale>
<asrwt>0</asrwt>
<pdfrwt beam="1">  1        2 0.62769346E+00 0.55456729E+03</pdfrwt>
<pdfrwt beam="2">  1       -2 0.28991735E-02 0.55456729E+03</pdfrwt>
<totfact> 0.16039894E+02</totfact>
</mgrwt>
</event>
<event>
 6    1  0.5258538E-006  0.1273969E+03  0.7546771E-02  0.1246203E+00
          1   -1    0    0  501    0  0.00000000000E+00  0.00000000000E+00  0.23797156969E+03  0.23797156969E+03  0.00000000000E+00 0. -1.
         -1   -1    0    0    0  501 -0.00000000000E+00 -0.00000000000E+00 -0.56966602728E+02  0.56966602728E+02  0.00000000000E+00 0.  1.
          5    1    1    2  502    0  0.36062180669E+01  0.16176412473E+02  0.15243780318E+03  0.15340813201E+03  0.47000000000E+01 0.  1.
         -5    1    1    2    0  502 -0.84309551772E+01 -0.40167341610E+02 -0.48090886214E+01  0.41589826527E+02  0.47000000000E+01 0.  1.
        -11    1    1    2    0    0  0.21573680478E+02  0.20580494682E+02 -0.25126704197E+02  0.38991431296E+02  0.00000000000E+00 0.  1.
         11    1    1    2    0    0 -0.16748943368E+02  0.34104344549E+01  0.58502956602E+02  0.60948782582E+02  0.00000000000E+00 0. -1.
<mgrwt>
<rscale>  0 0.11813660E+03</rscale>
<asrwt>0</asrwt>
<pdfrwt beam="1">  1        1 0.36611010E-01 0.12739689E+03</pdfrwt>
<pdfrwt beam="2">  1       -1 0.87640928E-02 0.12739689E+03</pdfrwt>
<totfact> 0.82919645E+03</totfact>
</mgrwt>
</event>
<event>
 6    1  0.5258538E-006  0.1278052E+03  0.7546771E-02  0.1245286E+00
          1   -1    0    0  501    0  0.00000000000E+00  0.00000000000E+00  0.43529687109E+03  0.43529687109E+03  0.00000000000E+00 0. -1.
         -1   -1    0    0    0  501 -0.00000000000E+00 -0.00000000000E+00 -0.37566879252E+02  0.37566879252E+02  0.00000000000E+00 0.  1.
          5    1    1    2  502    0  0.23227741747E+02  0.18874279903E+02  0.28219081754E+03  0.28381246261E+03  0.47000000000E+01 0.  1.
         -5    1    1    2    0  502 -0.27783117784E+02 -0.45182691201E+02  0.53939623540E+02  0.75795449768E+02  0.47000000000E+01 0.  1.
        -11    1    1    2    0    0  0.28384529281E+02  0.19271297838E+02  0.76809510636E+02  0.84123512450E+02  0.00000000000E+00 0. -1.
         11    1    1    2    0    0 -0.23829153243E+02  0.70371134600E+01 -0.15209959881E+02  0.29132325512E+02  0.00000000000E+00 0.  1.
<mgrwt>
<rscale>  0 0.11868252E+03</rscale>
<asrwt>0</asrwt>
<pdfrwt beam="1">  1        1 0.66968746E-01 0.12780523E+03</pdfrwt>
<pdfrwt beam="2">  1       -1 0.57795202E-02 0.12780523E+03</pdfrwt>
<totfact> 0.73046823E+03</totfact>
</mgrwt>
</event>
<event>
 6    1  0.5258538E-006  0.1496678E+03  0.7546771E-02  0.1208026E+00
          1   -1    0    0  501    0  0.00000000000E+00  0.00000000000E+00  0.76875944261E+02  0.76875944261E+02  0.00000000000E+00 0. -1.
         -1   -1    0    0    0  501 -0.00000000000E+00 -0.00000000000E+00 -0.30271478214E+03  0.30271478214E+03  0.00000000000E+00 0.  1.
          5    1    1    2  502    0 -0.98710860702E+02 -0.15938706045E+02 -0.56443081455E+02  0.11491643840E+03  0.47000000000E+01 0. -1.
         -5    1    1    2    0  502  0.27630083750E+02 -0.25552556668E+02  0.14361480323E+02  0.40554861575E+02  0.47000000000E+01 0. -1.
        -11    1    1    2    0    0 -0.13486072631E+02  0.38759667822E+02 -0.82664851785E+02  0.92291189858E+02  0.00000000000E+00 0.  1.
         11    1    1    2    0    0  0.84566849583E+02  0.27315948902E+01 -0.10109238496E+03  0.13182823656E+03  0.00000000000E+00 0. -1.
<mgrwt>
<rscale>  0 0.14401553E+03</rscale>
<asrwt>0</asrwt>
<pdfrwt beam="1">  1        1 0.11827068E-01 0.14966785E+03</pdfrwt>
<pdfrwt beam="2">  1       -1 0.46571505E-01 0.14966785E+03</pdfrwt>
<totfact> 0.23346948E+03</totfact>
</mgrwt>
</event>
<event>
 6    1  0.5258538E-006  0.1583652E+03  0.7546771E-02  0.1198204E+00
         -1   -1    0    0    0  501 -0.00000000000E+00  0.00000000000E+00  0.12936509349E+03  0.12936509349E+03  0.00000000000E+00 0.  1.
          1   -1    0    0  501    0  0.00000000000E+00 -0.00000000000E+00 -0.19397348329E+03  0.19397348329E+03  0.00000000000E+00 0. -1.
          5    1    1    2  502    0 -0.95861425815E+01  0.71923959244E+02 -0.10849810040E+03  0.13060963913E+03  0.47000000000E+01 0. -1.
         -5    1    1    2    0  502 -0.53498465736E+02  0.20759010806E+01  0.11689691973E+02  0.55001219076E+02  0.47000000000E+01 0. -1.
        -11    1    1    2    0    0  0.53677725115E+02 -0.64847793186E+02 -0.17792358570E+02  0.86041283569E+02  0.00000000000E+00 0. -1.
         11    1    1    2    0    0  0.94068832028E+01 -0.91520671385E+01  0.49992377204E+02  0.51686435000E+02  0.00000000000E+00 0.  1.
<mgrwt>
<rscale>  0 0.15186181E+03</rscale>
<asrwt>0</asrwt>
<pdfrwt beam="2">  1        1 0.29842074E-01 0.15836516E+03</pdfrwt>
<pdfrwt beam="1">  1       -1 0.19902322E-01 0.15836516E+03</pdfrwt>
<totfact> 0.30193842E+03</totfact>
</mgrwt>
</event>
<event>
 6    1  0.5258538E-006  0.1264747E+03  0.7546771E-02  0.1248094E+00
         -2   -1    0    0    0  501 -0.00000000000E+00  0.00000000000E+00  0.12448256381E+03  0.12448256381E+03  0.00000000000E+00 0.  1.
          2   -1    0    0  501    0  0.00000000000E+00 -0.00000000000E+00 -0.10582860128E+03  0.10582860128E+03  0.00000000000E+00 0. -1.
          5    1    1    2  502    0 -0.58383468664E+02  0.42103791880E+02 -0.42191841700E+01  0.72258219041E+02  0.47000000000E+01 0.  1.
         -5    1    1    2    0  502  0.42021409341E+02 -0.31998167661E+02 -0.19018242866E+02  0.56333517007E+02  0.47000000000E+01 0.  1.
        -11    1    1    2    0    0 -0.29076691119E+02 -0.18748604930E+02  0.43324912537E+02  0.55443775121E+02  0.00000000000E+00 0. -1.
         11    1    1    2    0    0  0.45438750442E+02  0.86429807108E+01 -0.14335229677E+01  0.46275653917E+02  0.00000000000E+00 0.  1.
<mgrwt>
<rscale>  0 0.11702113E+03</rscale>
<asrwt>0</asrwt>
<pdfrwt beam="2">  1        2 0.16281323E-01 0.12647473E+03</pdfrwt>
<pdfrwt beam="1">  1       -2 0.19151164E-01 0.12647473E+03</pdfrwt>
<totfact> 0.75245331E+03</totfact>
</mgrwt>
</event>
<event>
 6    1  0.5258538E-006  0.1532788E+03  0.7546771E-02  0.1205804E+00
          2   -1    0    0  501    0  0.00000000000E+00  0.00000000000E+00  0.73908363343E+03  0.73908363343E+03  0.00000000000E+00 0. -1.
         -2   -1    0    0    0  501 -0.00000000000E+00 -0.00000000000E+00 -0.26503365399E+02  0.26503365399E+02  0.00000000000E+00 0.  1.
          5    1    1    2  502    0 -0.26870107797E+02 -0.12288094137E+02  0.18657550855E+02  0.35258958499E+02  0.47000000000E+01 0. -1.
         -5    1    1    2    0  502  0.16680193970E+02  0.10042692133E+03  0.33571441774E+03  0.35084192406E+03  0.47000000000E+01 0. -1.
        -11    1    1    2    0    0  0.40680910935E+02 -0.62630996185E+02  0.15054186658E+03  0.16804889702E+03  0.00000000000E+00 0.  1.
         11    1    1    2    0    0 -0.30490997108E+02 -0.25507831010E+02  0.20766643286E+03  0.21143721925E+03  0.00000000000E+00 0. -1.
<mgrwt>
<rscale>  0 0.14574279E+03</rscale>
<asrwt>0</asrwt>
<pdfrwt beam="1">  1        2 0.11370516E+00 0.15327883E+03</pdfrwt>
<pdfrwt beam="2">  1       -2 0.40774414E-02 0.15327883E+03</pdfrwt>
<totfact> 0.10110343E+04</totfact>
</mgrwt>
</event>
<event>
 6    1  0.5258538E-006  0.1281120E+03  0.7546771E-02  0.1239449E+00
         -1   -1    0    0    0  501 -0.00000000000E+00  0.00000000000E+00  0.17670763928E+02  0.17670763928E+02  0.00000000000E+00 0.  1.
          1   -1    0    0  501    0  0.00000000000E+00 -0.00000000000E+00 -0.85387926916E+03  0.85387926916E+03  0.00000000000E+00 0. -1.
          5    1    1    2  502    0 -0.32694061386E+02  0.40422702636E+01 -0.47876388426E+02  0.58305061251E+02  0.47000000000E+01 0.  1.
         -5    1    1    2    0  502  0.59635357183E+02 -0.11719678489E+02 -0.53635338098E+03  0.53980623003E+03  0.47000000000E+01 0.  1.
        -11    1    1    2    0    0  0.34570826067E+02  0.10803397812E+02 -0.14993725519E+03  0.15424991382E+03  0.00000000000E+00 0.  1.
         11    1    1    2    0    0 -0.61512121863E+02 -0.31259895865E+01 -0.10204148064E+03  0.11918882799E+03  0.00000000000E+00 0. -1.
<mgrwt>
<rscale>  0 0.12223885E+03</rscale>
<asrwt>0</asrwt>
<pdfrwt beam="2">  1        1 0.13136608E+00 0.12811203E+03</pdfrwt>
<pdfrwt beam="1">  1       -1 0.27185783E-02 0.12811203E+03</pdfrwt>
<totfact> 0.87163493E+03</totfact>
</mgrwt>
</event>
<event>
 6    1  0.5258538E-006  0.1761212E+03  0.7546771E-02  0.1177491E+00
          3   -1    0    0  501    0  0.00000000000E+00  0.00000000000E+00  0.39254412858E+02  0.39254412858E+02  0.00000000000E+00 0. -1.
         -3   -1    0    0    0  501 -0.00000000000E+00 -0.00000000000E+00 -0.71651082775E+03  0.71651082775E+03  0.00000000000E+00 0.  1.
          5    1    1    2  502    0  0.44734316667E+02  0.45228813177E+02 -0.72486933009E+02  0.96556978443E+02  0.47000000000E+01 0.  1.
         -5    1    1    2    0  502 -0.77043774884E+02  0.74552078413E+02 -0.22202882610E+03  0.24660220045E+03  0.47000000000E+01 0.  1.
        -11    1    1    2    0    0  0.32100819760E+02 -0.28024236434E+02 -0.23393877016E+03  0.23778807506E+03  0.00000000000E+00 0.  1.
         11    1    1    2    0    0  0.20863845717E+00 -0.91756655156E+02 -0.14880188563E+03  0.17481798667E+03  0.00000000000E+00 0. -1.
<mgrwt>
<rscale>  0 0.17034305E+03</rscale>
<asrwt>0</asrwt>
<pdfrwt beam="1">  1        3 0.60391407E-02 0.17612124E+03</pdfrwt>
<pdfrwt beam="2">  1       -3 0.11023243E+00 0.17612124E+03</pdfrwt>
<totfact> 0.29289366E+02</totfact>
</mgrwt>
</event>
<event>
 6    1  0.5258538E-006  0.1316023E+03  0.7546771E-02  0.1237987E+00
          1   -1    0    0  501    0  0.00000000000E+00  0.00000000000E+00  0.77911824054E+03  0.77911824054E+03  0.00000000000E+00 0. -1.
         -1   -1    0    0    0  501 -0.00000000000E+00 -0.00000000000E+00 -0.18190081833E+02  0.18190081833E+02  0.00000000000E+00 0.  1.
          5    1    1    2  502    0 -0.59517403827E+02 -0.60262615558E+02  0.38175957000E+03  0.39107079088E+03  0.47000000000E+01 0.  1.
         -5    1    1    2    0  502  0.27248536046E+02  0.34743843492E+02  0.13162637070E+03  0.13891439393E+03  0.47000000000E+01 0.  1.
        -11    1    1    2    0    0 -0.15139569773E+01 -0.17899795339E+02  0.50374283539E+01  0.18656645554E+02  0.00000000000E+00 0.  1.
         11    1    1    2    0    0  0.33782824758E+02  0.43418567405E+02  0.24250478965E+03  0.24866649200E+03  0.00000000000E+00 0. -1.
<mgrwt>
<rscale>  0 0.12315164E+03</rscale>
<asrwt>0</asrwt>
<pdfrwt beam="1">  1        1 0.11986432E+00 0.13160233E+03</pdfrwt>
<pdfrwt beam="2">  1       -1 0.27984747E-02 0.13160233E+03</pdfrwt>
<totfact> 0.96201454E+03</totfact>
</mgrwt>
</event>
<event>
 6    1  0.5258538E-006  0.1770251E+03  0.7546771E-02  0.1176841E+00
          2   -1    0    0  501    0  0.00000000000E+00  0.00000000000E+00  0.16112893285E+04  0.16112893285E+04  0.00000000000E+00 0. -1.
         -2   -1    0    0    0  501 -0.00000000000E+00 -0.00000000000E+00 -0.17891392708E+02  0.17891392708E+02  0.00000000000E+00 0.  1.
          5    1    1    2  502    0  0.12670778816E+03  0.26015143431E+02  0.83622277968E+03  0.84618099632E+03  0.47000000000E+01 0.  1.
         -5    1    1    2    0  502 -0.20111632389E+02  0.39938482735E+02  0.19416441748E+03  0.19930246154E+03  0.47000000000E+01 0.  1.
        -11    1    1    2    0    0  0.31706803149E+01 -0.35028976263E+02  0.20398346807E+03  0.20699356907E+03  0.00000000000E+00 0. -1.
         11    1    1    2    0    0 -0.10976683609E+03 -0.30924649903E+02  0.35902727056E+03  0.37670369427E+03  0.00000000000E+00 0.  1.
<mgrwt>
<rscale>  0 0.17096951E+03</rscale>
<asrwt>0</asrwt>
<pdfrwt beam="1">  1        2 0.24789055E+00 0.17702510E+03</pdfrwt>
<pdfrwt beam="2">  1       -2 0.27525232E-02 0.17702510E+03</pdfrwt>
<totfact> 0.56853553E+03</totfact>
</mgrwt>
</event>
<event>
 6    1  0.5258538E-006  0.1480066E+03  0.7546771E-02  0.1212049E+00
          2   -1    0    0  501    0  0.00000000000E+00  0.00000000000E+00  0.22923880022E+03  0.22923880022E+03  0.00000000000E+00 0. -1.
         -2   -1    0    0    0  501 -0.00000000000E+00 -0.00000000000E+00 -0.80823430601E+02  0.80823430601E+02  0.00000000000E+00 0.  1.
          5    1    1    2  502    0 -0.35069968620E+02 -0.97957824709E+02  0.10622439784E+03  0.14876609432E+03  0.47000000000E+01 0.  1.
         -5    1    1    2    0  502 -0.55427070486E+01  0.29855471231E+02 -0.41779480530E+01  0.31009934115E+02  0.47000000000E+01 0.  1.
        -11    1    1    2    0    0 -0.28333401179E+01  0.10468619434E+02 -0.25942967933E+02  0.28118630732E+02  0.00000000000E+00 0.  1.
         11    1    1    2    0    0  0.43446015786E+02  0.57633734043E+02  0.72311887764E+02  0.10216757166E+03  0.00000000000E+00 0. -1.
<mgrwt>
<rscale>  0 0.14095579E+03</rscale>
<asrwt>0</asrwt>
<pdfrwt beam="1">  1        2 0.35267507E-01 0.14800656E+03</pdfrwt>
<pdfrwt beam="2">  1       -2 0.12434374E-01 0.14800656E+03</pdfrwt>
<totfact> 0.65503346E+03</totfact>
</mgrwt>
</event>
<event>
 6    1  0.5258538E-006  0.1297467E+03  0.7546771E-02  0.1242063E+00
         -2   -1    0    0    0  501 -0.00000000000E+00  0.00000000000E+00  0.17876824736E+02  0.17876824736E+02  0.00000000000E+00 0.  1.
          2   -1    0    0  501    0  0.00000000000E+00 -0.00000000000E+00 -0.72047100343E+03  0.72047100343E+03  0.00000000000E+00 0. -1.
          5    1    1    2  502    0 -0.47767121320E+02  0.60048650940E+02 -0.17801704036E+03  0.19390640788E+03  0.47000000000E+01 0. -1.
         -5    1    1    2    0  502  0.28072144423E+02 -0.31399975984E+02 -0.24237499836E+03  0.24605229854E+03  0.47000000000E+01 0. -1.
        -11    1    1    2    0    0 -0.35375157009E+02 -0.18736261225E+02 -0.13878668702E+03  0.14444443122E+03  0.00000000000E+00 0. -1.
         11    1    1    2    0    0  0.55070133906E+02 -0.99124137311E+01 -0.14341545296E+03  0.15394469053E+03  0.00000000000E+00 0.  1.
<mgrwt>
<rscale>  0 0.12062899E+03</rscale>
<asrwt>0</asrwt>
<pdfrwt beam="2">  1        2 0.11084168E+00 0.12974667E+03</pdfrwt>
<pdfrwt beam="1">  1       -2 0.27502811E-02 0.12974667E+03</pdfrwt>
<totfact> 0.18438175E+04</totfact>
</mgrwt>
</event>
<event>
 6    1  0.5258538E-006  0.1330221E+03  0.7546771E-02  0.1235277E+00
         -1   -1    0    0    0  501 -0.00000000000E+00  0.00000000000E+00  0.47591145142E+02  0.47591145142E+02  0.00000000000E+00 0. -1.
          1   -1    0    0  501    0  0.00000000000E+00 -0.00000000000E+00 -0.29333702037E+03  0.29333702037E+03  0.00000000000E+00 0.  1.
          5    1    1    2  502    0 -0.33156737493E+02  0.14956757820E+02 -0.10780795710E+03  0.11387589499E+03  0.47000000000E+01 0. -1.
         -5    1    1    2    0  502  0.38299138987E+02 -0.60172800387E+02 -0.29588142674E+02  0.77363674553E+02  0.47000000000E+01 0. -1.
        -11    1    1    2    0    0  0.42542748609E+02  0.15128404265E+02 -0.62000920320E+02  0.76699857858E+02  0.00000000000E+00 0.  1.
         11    1    1    2    0    0 -0.47685150102E+02  0.30087638302E+02 -0.46348855133E+02  0.72988738111E+02  0.00000000000E+00 0. -1.
<mgrwt>
<rscale>  0 0.12486715E+03</rscale>
<asrwt>0</asrwt>
<pdfrwt beam="2">  1        1 0.45128772E-01 0.13302212E+03</pdfrwt>
<pdfrwt beam="1">  1       -1 0.73217146E-02 0.13302212E+03</pdfrwt>
<totfact> 0.84253560E+03</totfact>
</mgrwt>
</event>
<event>
 6    1  0.5258538E-006  0.2984394E+03  0.7546771E-02  0.1086023E+00
          3   -1    0    0  501    0  0.00000000000E+00  0.00000000000E+00  0.54206434810E+03  0.54206434810E+03  0.00000000000E+00 0. -1.
         -3   -1    0    0    0  501 -0.00000000000E+00 -0.00000000000E+00 -0.41077261854E+02  0.41077261854E+02  0.00000000000E+00 0.  1.
          5    1    1    2  502    0 -0.25852545027E+02 -0.23139138337E+02  0.34663866982E+02  0.49269133151E+02  0.47000000000E+01 0.  1.
         -5    1    1    2    0  502 -0.10994602704E+02  0.10876331974E+03  0.31878794576E+03  0.33704329896E+03  0.47000000000E+01 0.  1.
        -11    1    1    2    0    0 -0.61686334963E+01 -0.59074687400E+02  0.13067814994E+03  0.14354319768E+03  0.00000000000E+00 0. -1.
         11    1    1    2    0    0  0.43015781228E+02 -0.26549494006E+02  0.16857123564E+02  0.53285980158E+02  0.00000000000E+00 0.  1.
<mgrwt>
<rscale>  0 0.29843940E+03</rscale>
<asrwt>0</asrwt>
<pdfrwt beam="1">  1        3 0.83394510E-01 0.29843940E+03</pdfrwt>
<pdfrwt beam="2">  1       -3 0.63195791E-02 0.29843940E+03</pdfrwt>
<totfact> 0.54557960E+02</totfact>
</mgrwt>
</event>
<event>
 6    1  0.5258538E-006  0.1465140E+03  0.7546771E-02  0.1215764E+00
          2   -1    0    0  501    0  0.00000000000E+00  0.00000000000E+00  0.11583417090E+04  0.11583417090E+04  0.00000000000E+00 0. -1.
         -2   -1    0    0    0  501 -0.00000000000E+00 -0.00000000000E+00 -0.14972629010E+02  0.14972629010E+02  0.00000000000E+00 0.  1.
          5    1    1    2  502    0  0.31084927399E+02 -0.27854906065E+02  0.10586439064E+03  0.11389261481E+03  0.47000000000E+01 0.  1.
         -5    1    1    2    0  502 -0.97781148343E+02 -0.94629642258E+01  0.48442179383E+03  0.49430483004E+03  0.47000000000E+01 0.  1.
        -11    1    1    2    0    0  0.32462331940E+02 -0.27023981235E+02  0.23756397824E+03  0.24128974764E+03  0.00000000000E+00 0. -1.
         11    1    1    2    0    0  0.34233889004E+02  0.64341851526E+02  0.31551891724E+03  0.32382714548E+03  0.00000000000E+00 0.  1.
<mgrwt>
<rscale>  0 0.13820556E+03</rscale>
<asrwt>0</asrwt>
<pdfrwt beam="1">  1        2 0.17820635E+00 0.14651400E+03</pdfrwt>
<pdfrwt beam="2">  1       -2 0.23034823E-02 0.14651400E+03</pdfrwt>
<totfact> 0.12829359E+04</totfact>
</mgrwt>
</event>
<event>
 6    1  0.5258538E-006  0.1381378E+03  0.7546771E-02  0.1228241E+00
          2   -1    0    0  501    0  0.00000000000E+00  0.00000000000E+00  0.15921498773E+03  0.15921498773E+03  0.00000000000E+00 0. -1.
         -2   -1    0    0    0  501 -0.00000000000E+00 -0.00000000000E+00 -0.94272330496E+02  0.94272330496E+02  0.00000000000E+00 0.  1.
          5    1    1    2  502    0 -0.12120704956E+02 -0.35189030008E+02 -0.11764064594E+02  0.39314914947E+02  0.47000000000E+01 0.  1.
         -5    1    1    2    0  502 -0.10848968635E+02  0.89303008151E+02  0.54485625279E+02  0.10527820642E+03  0.47000000000E+01 0.  1.
        -11    1    1    2    0    0  0.31101463451E+02 -0.40720590597E+02 -0.26520669906E+02  0.57695870386E+02  0.00000000000E+00 0.  1.
         11    1    1    2    0    0 -0.81317898592E+01 -0.13393387546E+02  0.48741766453E+02  0.51198326469E+02  0.00000000000E+00 0. -1.
<mgrwt>
<rscale>  0 0.12947219E+03</rscale>
<asrwt>0</asrwt>
<pdfrwt beam="1">  1        2 0.24494613E-01 0.13813775E+03</pdfrwt>
<pdfrwt beam="2">  1       -2 0.14503435E-01 0.13813775E+03</pdfrwt>
<totfact> 0.75571650E+03</totfact>
</mgrwt>
</event>
<event>
 6    1  0.5258538E-006  0.1776239E+03  0.7546771E-02  0.1175874E+00
         -1   -1    0    0    0  501 -0.00000000000E+00  0.00000000000E+00  0.39613769279E+02  0.39613769279E+02  0.00000000000E+00 0.  1.
          1   -1    0    0  501    0  0.00000000000E+00 -0.00000000000E+00 -0.70725431649E+03  0.70725431649E+03  0.00000000000E+00 0. -1.
          5    1    1    2  502    0 -0.85450036033E+02 -0.40500475201E+02 -0.36212553832E+03  0.37429799980E+03  0.47000000000E+01 0. -1.
         -5    1    1    2    0  502 -0.39480195712E+02  0.22663974901E+02 -0.26226499487E+02  0.52747141032E+02  0.47000000000E+01 0. -1.
        -11    1    1    2    0    0  0.16334488649E+02  0.60787866815E-01  0.32117912604E+01  0.16647366689E+02  0.00000000000E+00 0.  1.
         11    1    1    2    0    0  0.10859574310E+03  0.17775712433E+02 -0.28250030066E+03  0.30317557825E+03  0.00000000000E+00 0. -1.
<mgrwt>
<rscale>  0 0.17190658E+03</rscale>
<asrwt>0</asrwt>
<pdfrwt beam="2">  1        1 0.10880836E+00 0.17762389E+03</pdfrwt>
<pdfrwt beam="1">  1       -1 0.60944258E-02 0.17762389E+03</pdfrwt>
<totfact> 0.35683677E+03</totfact>
</mgrwt>
</event>
<event>
 6    1  0.5258538E-006  0.1483585E+03  0.7546771E-02  0.1211764E+00
         -2   -1    0    0    0  501 -0.00000000000E+00  0.00000000000E+00  0.33319378781E+02  0.33319378781E+02  0.00000000000E+00 0.  1.
          2   -1    0    0  501    0  0.00000000000E+00 -0.00000000000E+00 -0.64504409190E+03  0.64504409190E+03  0.00000000000E+00 0. -1.
          5    1    1    2  502    0  0.35117063055E+02 -0.62029549292E+02 -0.43160647015E+03  0.43747812309E+03  0.47000000000E+01 0. -1.
         -5    1    1    2    0  502 -0.32477981487E+02 -0.17855418060E+02 -0.31679864743E+02  0.48983048759E+02  0.47000000000E+01 0. -1.
        -11    1    1    2    0    0 -0.47121478532E+02  0.42048230940E+02 -0.73814247172E+02  0.97144379919E+02  0.00000000000E+00 0.  1.
         11    1    1    2    0    0  0.44482396964E+02  0.37836736412E+02 -0.74624131050E+02  0.94757918914E+02  0.00000000000E+00 0. -1.
<mgrwt>
<rscale>  0 0.14116911E+03</rscale>
<asrwt>0</asrwt>
<pdfrwt beam="2">  1        2 0.99237552E-01 0.14835850E+03</pdfrwt>
<pdfrwt beam="1">  1       -2 0.51260583E-02 0.14835850E+03</pdfrwt>
<totfact> 0.84164500E+03</totfact>
</mgrwt>
</event>
<event>
 6    1  0.5258538E-006  0.1488250E+03  0.7546771E-02  0.1210490E+00
         -3   -1    0    0    0  501 -0.00000000000E+00  0.00000000000E+00  0.73377368101E+02  0.73377368101E+02  0.00000000000E+00 0.  1.
          3   -1    0    0  501    0  0.00000000000E+00 -0.00000000000E+00 -0.39734888589E+03  0.39734888589E+03  0.00000000000E+00 0. -1.
          5    1    1    2  502    0  0.53166172767E+02 -0.58822936012E+02 -0.14506321864E+03  0.16538502692E+03  0.47000000000E+01 0. -1.
         -5    1    1    2    0  502 -0.64507221470E+02 -0.21146190282E+02 -0.16776496608E+03  0.18104009730E+03  0.47000000000E+01 0. -1.
        -11    1    1    2    0    0 -0.71656821080E+01  0.47953712262E+02  0.38840654240E+02  0.62124889872E+02  0.00000000000E+00 0.  1.
         11    1    1    2    0    0  0.18506730811E+02  0.32015414032E+02 -0.49983987311E+02  0.62176239903E+02  0.00000000000E+00 0. -1.
<mgrwt>
<rscale>  0 0.14213065E+03</rscale>
<asrwt>0</asrwt>
<pdfrwt beam="2">  1        3 0.61130598E-01 0.14882504E+03</pdfrwt>
<pdfrwt beam="1">  1       -3 0.11288826E-01 0.14882504E+03</pdfrwt>
<totfact> 0.37566013E+02</totfact>
</mgrwt>
</event>
<event>
 6    1  0.5258538E-006  0.1588460E+03  0.7546771E-02  0.1197872E+00
          2   -1    0    0  501    0  0.00000000000E+00  0.00000000000E+00  0.43202645560E+02  0.43202645560E+02  0.00000000000E+00 0. -1.
         -2   -1    0    0    0  501 -0.00000000000E+00 -0.00000000000E+00 -0.49589231465E+03  0.49589231465E+03  0.00000000000E+00 0.  1.
          5    1    1    2  502    0  0.69080146507E+02  0.45371949735E+02 -0.54776076779E+02  0.99263231115E+02  0.47000000000E+01 0. -1.
         -5    1    1    2    0  502  0.10396332257E+02  0.12613701770E+02 -0.20172021433E+03  0.20243597523E+03  0.47000000000E+01 0. -1.
        -11    1    1    2    0    0  0.31656273520E+01 -0.20227418105E+02 -0.11090287557E+03  0.11277684802E+03  0.00000000000E+00 0.  1.
         11    1    1    2    0    0 -0.82642106116E+02 -0.37758233399E+02 -0.85290502407E+02  0.12461890584E+03  0.00000000000E+00 0. -1.
<mgrwt>
<rscale>  0 0.15213613E+03</rscale>
<asrwt>0</asrwt>
<pdfrwt beam="1">  1        2 0.66465607E-02 0.15884604E+03</pdfrwt>
<pdfrwt beam="2">  1       -2 0.76291127E-01 0.15884604E+03</pdfrwt>
<totfact> 0.16645023E+03</totfact>
</mgrwt>
</event>
<event>
 6    1  0.5258538E-006  0.1654865E+03  0.7546771E-02  0.1189512E+00
         -1   -1    0    0    0  501 -0.00000000000E+00  0.00000000000E+00  0.18978208994E+03  0.18978208994E+03  0.00000000000E+00 0.  1.
          1   -1    0    0  501    0  0.00000000000E+00 -0.00000000000E+00 -0.12913367986E+03  0.12913367986E+03  0.00000000000E+00 0. -1.
          5    1    1    2  502    0  0.86916543614E+02  0.15928979746E+02  0.34581507070E+02  0.95006255482E+02  0.47000000000E+01 0. -1.
         -5    1    1    2    0  502 -0.11224174181E+02  0.61669570032E+02 -0.31925856390E+02  0.70501547928E+02  0.47000000000E+01 0. -1.
        -11    1    1    2    0    0  0.69087863311E+01 -0.21127068344E+02 -0.17314272058E+02  0.28175669687E+02  0.00000000000E+00 0. -1.
         11    1    1    2    0    0 -0.82601155764E+02 -0.56471481434E+02  0.75307031459E+02  0.12523229670E+03  0.00000000000E+00 0.  1.
<mgrwt>
<rscale>  0 0.15928043E+03</rscale>
<asrwt>0</asrwt>
<pdfrwt beam="2">  1        1 0.19866720E-01 0.16548650E+03</pdfrwt>
<pdfrwt beam="1">  1       -1 0.29197245E-01 0.16548650E+03</pdfrwt>
<totfact> 0.26934908E+03</totfact>
</mgrwt>
</event>
<event>
 6    1  0.5258538E-006  0.1275518E+03  0.7546771E-02  0.1246915E+00
          1   -1    0    0  501    0  0.00000000000E+00  0.00000000000E+00  0.16579807227E+03  0.16579807227E+03  0.00000000000E+00 0. -1.
         -1   -1    0    0    0  501 -0.00000000000E+00 -0.00000000000E+00 -0.75133933476E+02  0.75133933476E+02  0.00000000000E+00 0.  1.
          5    1    1    2  502    0  0.37517346224E+02  0.54770582038E+01 -0.19212280817E+02  0.42763900295E+02  0.47000000000E+01 0. -1.
         -5    1    1    2    0  502 -0.45205514647E+02  0.18715357447E+02  0.91453051996E+02  0.10382463040E+03  0.47000000000E+01 0. -1.
        -11    1    1    2    0    0  0.30864163569E+02  0.53783850498E+00  0.42674084689E+02  0.52668428562E+02  0.00000000000E+00 0. -1.
         11    1    1    2    0    0 -0.23175995146E+02 -0.24730254156E+02 -0.24250717070E+02  0.41675046491E+02  0.00000000000E+00 0.  1.
<mgrwt>
<rscale>  0 0.11771513E+03</rscale>
<asrwt>0</asrwt>
<pdfrwt beam="1">  1        1 0.25507396E-01 0.12755183E+03</pdfrwt>
<pdfrwt beam="2">  1       -1 0.11559067E-01 0.12755183E+03</pdfrwt>
<totfact> 0.85168074E+03</totfact>
</mgrwt>
</event>
<event>
 6    1  0.5258538E-006  0.1760166E+03  0.7546771E-02  0.1188280E+00
         -1   -1    0    0    0  501 -0.00000000000E+00  0.00000000000E+00  0.29777365069E+02  0.29777365069E+02  0.00000000000E+00 0.  1.
          1   -1    0    0  501    0  0.00000000000E+00 -0.00000000000E+00 -0.19346504005E+04  0.19346504005E+04  0.00000000000E+00 0. -1.
          5    1    1    2  502    0  0.22395399264E+02 -0.12637107480E+00 -0.15017577198E+04  0.15019320587E+04  0.47000000000E+01 0. -1.
         -5    1    1    2    0  502  0.11760584386E+02  0.68764642327E+02 -0.28405507829E+03  0.29253421148E+03  0.47000000000E+01 0.  1.
        -11    1    1    2    0    0  0.29680966533E+02 -0.38491371229E+02 -0.33482931992E+02  0.59022471722E+02  0.00000000000E+00 0. -1.
         11    1    1    2    0    0 -0.63836950184E+02 -0.30146900023E+02 -0.85577305343E+02  0.11093902370E+03  0.00000000000E+00 0.  1.
<mgrwt>
<rscale>  0 0.16036981E+03</rscale>
<asrwt>0</asrwt>
<pdfrwt beam="2">  1        1 0.29763859E+00 0.17601660E+03</pdfrwt>
<pdfrwt beam="1">  1       -1 0.45811320E-02 0.17601660E+03</pdfrwt>
<totfact> 0.75596605E+02</totfact>
</mgrwt>
</event>
<event>
 6    1  0.5258538E-006  0.1681088E+03  0.7546771E-02  0.1206230E+00
          2   -1    0    0  501    0  0.00000000000E+00  0.00000000000E+00  0.46384033149E+03  0.46384033149E+03  0.00000000000E+00 0. -1.
         -2   -1    0    0    0  501 -0.00000000000E+00 -0.00000000000E+00 -0.37648614689E+02  0.37648614689E+02  0.00000000000E+00 0.  1.
          5    1    1    2  502    0 -0.83072491573E+02 -0.10310959392E+02  0.22072358023E+03  0.23611087144E+03  0.47000000000E+01 0. -1.
         -5    1    1    2    0  502  0.72960380513E+02 -0.76314241801E+01  0.81747358428E+02  0.10993714736E+03  0.47000000000E+01 0.  1.
        -11    1    1    2    0    0  0.28912028417E+01  0.55379127074E+02  0.65168956010E+02  0.85569852149E+02  0.00000000000E+00 0.  1.
         11    1    1    2    0    0  0.72209082186E+01 -0.37436743502E+02  0.58551822133E+02  0.69871075236E+02  0.00000000000E+00 0. -1.
<mgrwt>
<rscale>  0 0.14540913E+03</rscale>
<asrwt>0</asrwt>
<pdfrwt beam="1">  1        2 0.71360047E-01 0.16810878E+03</pdfrwt>
<pdfrwt beam="2">  1       -2 0.57920949E-02 0.16810878E+03</pdfrwt>
<totfact> 0.10214183E+04</totfact>
</mgrwt>
</event>
<event>
 6    1  0.5258538E-006  0.1433186E+03  0.7546771E-02  0.1218516E+00
          1   -1    0    0  501    0  0.00000000000E+00  0.00000000000E+00  0.12136423719E+03  0.12136423719E+03  0.00000000000E+00 0. -1.
         -1   -1    0    0    0  501 -0.00000000000E+00 -0.00000000000E+00 -0.14657387958E+03  0.14657387958E+03  0.00000000000E+00 0.  1.
          5    1    1    2  502    0 -0.69279230099E+02 -0.13655367574E+02 -0.11230631185E+02  0.71654014985E+02  0.47000000000E+01 0.  1.
         -5    1    1    2    0  502  0.20527552233E+02  0.64046997211E+02  0.26632230167E+02  0.72489750559E+02  0.47000000000E+01 0.  1.
        -11    1    1    2    0    0 -0.83416228901E+00 -0.11907370294E+02  0.28220251278E+02  0.30640885696E+02  0.00000000000E+00 0. -1.
         11    1    1    2    0    0  0.49585840155E+02 -0.38484259344E+02 -0.68831492642E+02  0.93153465531E+02  0.00000000000E+00 0.  1.
<mgrwt>
<rscale>  0 0.13621372E+03</rscale>
<asrwt>0</asrwt>
<pdfrwt beam="1">  1        1 0.18671421E-01 0.14331858E+03</pdfrwt>
<pdfrwt beam="2">  1       -1 0.22549828E-01 0.14331858E+03</pdfrwt>
<totfact> 0.44372002E+03</totfact>
</mgrwt>
</event>
<event>
 6    1  0.5258538E-006  0.1938512E+03  0.7546771E-02  0.1161862E+00
         -2   -1    0    0    0  501 -0.00000000000E+00  0.00000000000E+00  0.33740922565E+02  0.33740922565E+02  0.00000000000E+00 0.  1.
          2   -1    0    0  501    0  0.00000000000E+00 -0.00000000000E+00 -0.10133712910E+04  0.10133712910E+04  0.00000000000E+00 0. -1.
          5    1    1    2  502    0 -0.34124830593E+02  0.23618522276E+02 -0.21939021280E+03  0.22333045948E+03  0.47000000000E+01 0. -1.
         -5    1    1    2    0  502 -0.69949354404E+02 -0.12907715363E+03 -0.43171644180E+03  0.45602083274E+03  0.47000000000E+01 0. -1.
        -11    1    1    2    0    0  0.41273749946E+02  0.91383730264E+02 -0.21580896405E+03  0.23796642107E+03  0.00000000000E+00 0.  1.
         11    1    1    2    0    0  0.62800435052E+02  0.14074901090E+02 -0.11271474974E+03  0.12979450024E+03  0.00000000000E+00 0. -1.
<mgrwt>
<rscale>  0 0.18627821E+03</rscale>
<asrwt>0</asrwt>
<pdfrwt beam="2">  1        2 0.15590326E+00 0.19385124E+03</pdfrwt>
<pdfrwt beam="1">  1       -2 0.51909116E-02 0.19385124E+03</pdfrwt>
<totfact> 0.47110760E+03</totfact>
</mgrwt>
</event>
<event>
 6    1  0.5258538E-006  0.1398517E+03  0.7546771E-02  0.1225102E+00
          2   -1    0    0  501    0  0.00000000000E+00  0.00000000000E+00  0.34685639245E+03  0.34685639245E+03  0.00000000000E+00 0. -1.
         -2   -1    0    0    0  501 -0.00000000000E+00 -0.00000000000E+00 -0.44868432181E+02  0.44868432181E+02  0.00000000000E+00 0.  1.
          5    1    1    2  502    0 -0.72553009706E+02  0.27405901798E+01  0.53072987276E+02  0.90057104275E+02  0.47000000000E+01 0. -1.
         -5    1    1    2    0  502  0.29555292768E+02 -0.48743708952E+02  0.11620313595E+03  0.12951727027E+03  0.47000000000E+01 0. -1.
        -11    1    1    2    0    0  0.32698769139E+02 -0.15157321003E+02  0.14878583521E+02  0.38991359694E+02  0.00000000000E+00 0. -1.
         11    1    1    2    0    0  0.10298947800E+02  0.61160439776E+02  0.11783325352E+03  0.13315909040E+03  0.00000000000E+00 0.  1.
<mgrwt>
<rscale>  0 0.13159943E+03</rscale>
<asrwt>0</asrwt>
<pdfrwt beam="1">  1        2 0.53362520E-01 0.13985171E+03</pdfrwt>
<pdfrwt beam="2">  1       -2 0.69028359E-02 0.13985171E+03</pdfrwt>
<totfact> 0.10547817E+04</totfact>
</mgrwt>
</event>
<event>
 6    1  0.5258538E-006  0.2933570E+03  0.7546771E-02  0.1093682E+00
          1   -1    0    0  501    0  0.00000000000E+00  0.00000000000E+00  0.41603833768E+03  0.41603833768E+03  0.00000000000E+00 0. -1.
         -1   -1    0    0    0  501 -0.00000000000E+00 -0.00000000000E+00 -0.19595217332E+03  0.19595217332E+03  0.00000000000E+00 0.  1.
          5    1    1    2  502    0  0.40550452522E+02 -0.61809862727E+02  0.95944709391E+02  0.12121169742E+03  0.47000000000E+01 0. -1.
         -5    1    1    2    0  502 -0.13733739800E+03 -0.15784597963E+03  0.10311158032E+03  0.23330452668E+03  0.47000000000E+01 0.  1.
        -11    1    1    2    0    0  0.43640209720E+02  0.95688820215E+02  0.54573457004E+02  0.11848662552E+03  0.00000000000E+00 0. -1.
         11    1    1    2    0    0  0.53146735759E+02  0.12396702214E+03 -0.33543582353E+02  0.13898766138E+03  0.00000000000E+00 0.  1.
<mgrwt>
<rscale>  0 0.28370531E+03</rscale>
<asrwt>0</asrwt>
<pdfrwt beam="1">  1        1 0.64005898E-01 0.29335703E+03</pdfrwt>
<pdfrwt beam="2">  1       -1 0.30146488E-01 0.29335703E+03</pdfrwt>
<totfact> 0.58559267E+02</totfact>
</mgrwt>
</event>
<event>
 6    1  0.5258538E-006  0.2384253E+03  0.7546771E-02  0.1123517E+00
          2   -1    0    0  501    0  0.00000000000E+00  0.00000000000E+00  0.10569472741E+04  0.10569472741E+04  0.00000000000E+00 0. -1.
         -2   -1    0    0    0  501 -0.00000000000E+00 -0.00000000000E+00 -0.51992825957E+02  0.51992825957E+02  0.00000000000E+00 0.  1.
          5    1    1    2  502    0 -0.35504279290E+02 -0.47998038703E+01  0.37771913795E+02  0.52272358248E+02  0.47000000000E+01 0.  1.
         -5    1    1    2    0  502 -0.83889936415E+02  0.16901218115E+03  0.57856758862E+03  0.60857635792E+03  0.47000000000E+01 0.  1.
        -11    1    1    2    0    0  0.10654931330E+03 -0.88469172692E+02  0.18983853252E+03  0.23498557213E+03  0.00000000000E+00 0.  1.
         11    1    1    2    0    0  0.12844902407E+02 -0.75743204585E+02  0.19877641316E+03  0.21310581172E+03  0.00000000000E+00 0. -1.
<mgrwt>
<rscale>  0 0.23449256E+03</rscale>
<asrwt>0</asrwt>
<pdfrwt beam="1">  1        2 0.16260726E+00 0.23842534E+03</pdfrwt>
<pdfrwt beam="2">  1       -2 0.79988971E-02 0.23842534E+03</pdfrwt>
<totfact> 0.22879930E+03</totfact>
</mgrwt>
</event>
<event>
 6    1  0.5258538E-006  0.1495490E+03  0.7546771E-02  0.1210113E+00
          1   -1    0    0  501    0  0.00000000000E+00  0.00000000000E+00  0.73453504180E+03  0.73453504180E+03  0.00000000000E+00 0. -1.
         -1   -1    0    0    0  501 -0.00000000000E+00 -0.00000000000E+00 -0.26047787595E+02  0.26047787595E+02  0.00000000000E+00 0.  1.
          5    1    1    2  502    0  0.30821140143E+02  0.14947122379E+02  0.11399581032E+03  0.11912385956E+03  0.47000000000E+01 0. -1.
         -5    1    1    2    0  502 -0.11263463093E+03 -0.21814843533E+02  0.33864305538E+03  0.35758027972E+03  0.47000000000E+01 0. -1.
        -11    1    1    2    0    0  0.77606644285E+02 -0.31353581168E+02  0.15920930330E+03  0.17987062169E+03  0.00000000000E+00 0.  1.
         11    1    1    2    0    0  0.42068465067E+01  0.38221302322E+02  0.96639085198E+02  0.10400806842E+03  0.00000000000E+00 0. -1.
<mgrwt>
<rscale>  0 0.14241732E+03</rscale>
<asrwt>0</asrwt>
<pdfrwt beam="1">  1        1 0.11300538E+00 0.14954897E+03</pdfrwt>
<pdfrwt beam="2">  1       -1 0.40073525E-02 0.14954897E+03</pdfrwt>
<totfact> 0.62520463E+03</totfact>
</mgrwt>
</event>
<event>
 6    1  0.5258538E-006  0.1758450E+03  0.7546771E-02  0.1188276E+00
         -3   -1    0    0    0  501 -0.00000000000E+00  0.00000000000E+00  0.86370852163E+02  0.86370852163E+02  0.00000000000E+00 0.  1.
          3   -1    0    0  501    0  0.00000000000E+00 -0.00000000000E+00 -0.25840174204E+03  0.25840174204E+03  0.00000000000E+00 0. -1.
          5    1    1    2  502    0  0.62582173059E+02 -0.91649956513E+02 -0.29917684373E+02  0.11503651921E+03  0.47000000000E+01 0. -1.
         -5    1    1    2    0  502 -0.38027612520E+02  0.13472280132E+02 -0.87328764407E+02  0.96312017623E+02  0.47000000000E+01 0.  1.
        -11    1    1    2    0    0 -0.57318831256E+02  0.53645667472E+02 -0.23630888768E+02  0.81986126625E+02  0.00000000000E+00 0. -1.
         11    1    1    2    0    0  0.32764270716E+02  0.24532008909E+02 -0.31153552334E+02  0.51437930749E+02  0.00000000000E+00 0.  1.
<mgrwt>
<rscale>  0 0.16037352E+03</rscale>
<asrwt>0</asrwt>
<pdfrwt beam="2">  1        3 0.39754114E-01 0.17584503E+03</pdfrwt>
<pdfrwt beam="1">  1       -3 0.13287824E-01 0.17584503E+03</pdfrwt>
<totfact> 0.68961018E+02</totfact>
</mgrwt>
</event>
<event>
 6    1  0.5258538E-006  0.2495623E+03  0.7546771E-02  0.1153365E+00
          2   -1    0    0  501    0  0.00000000000E+00  0.00000000000E+00  0.59663378648E+03  0.59663378648E+03  0.00000000000E+00 0. -1.
         -2   -1    0    0    0  501 -0.00000000000E+00 -0.00000000000E+00 -0.49647079776E+02  0.49647079776E+02  0.00000000000E+00 0.  1.
          5    1    1    2  502    0  0.22745441580E+02 -0.10941962485E+03  0.25136457766E+03  0.27512951553E+03  0.47000000000E+01 0. -1.
         -5    1    1    2    0  502  0.52658004968E+01  0.12885086434E+03  0.15424998894E+03  0.20111047457E+03  0.47000000000E+01 0.  1.
        -11    1    1    2    0    0 -0.53409303358E+02 -0.33357634110E+02  0.11374623516E+03  0.13001342797E+03  0.00000000000E+00 0. -1.
         11    1    1    2    0    0  0.25398061282E+02  0.13926394625E+02  0.27625904944E+02  0.40027448183E+02  0.00000000000E+00 0.  1.
<mgrwt>
<rscale>  0 0.19576156E+03</rscale>
<asrwt>0</asrwt>
<pdfrwt beam="1">  1        2 0.91789808E-01 0.24956232E+03</pdfrwt>
<pdfrwt beam="2">  1       -2 0.76380127E-02 0.24956232E+03</pdfrwt>
<totfact> 0.51254175E+03</totfact>
</mgrwt>
</event>
<event>
 6    1  0.5258538E-006  0.3331181E+03  0.7546771E-02  0.1070901E+00
          2   -1    0    0  501    0  0.00000000000E+00  0.00000000000E+00  0.49302185936E+03  0.49302185936E+03  0.00000000000E+00 0. -1.
         -2   -1    0    0    0  501 -0.00000000000E+00 -0.00000000000E+00 -0.32556011319E+03  0.32556011319E+03  0.00000000000E+00 0.  1.
          5    1    1    2  502    0 -0.15756145298E+02  0.19804163258E+00  0.29629559044E+02  0.33886518032E+02  0.47000000000E+01 0.  1.
         -5    1    1    2    0  502  0.12343083250E+03  0.28919412967E+03  0.28996987327E+03  0.42775347158E+03  0.47000000000E+01 0.  1.
        -11    1    1    2    0    0 -0.11194571938E+03 -0.19954372139E+03 -0.82622978847E+02  0.24326137685E+03  0.00000000000E+00 0. -1.
         11    1    1    2    0    0  0.42710321812E+01 -0.89848449917E+02 -0.69514707298E+02  0.11368060608E+03  0.00000000000E+00 0.  1.
<mgrwt>
<rscale>  0 0.33053260E+03</rscale>
<asrwt>0</asrwt>
<pdfrwt beam="1">  1        2 0.75849517E-01 0.33311812E+03</pdfrwt>
<pdfrwt beam="2">  1       -2 0.50086171E-01 0.33311812E+03</pdfrwt>
<totfact> 0.24303435E+02</totfact>
</mgrwt>
</event>
<event>
 6    1  0.5258538E-006  0.3879722E+03  0.7546771E-02  0.1048026E+00
          3   -1    0    0  501    0  0.00000000000E+00  0.00000000000E+00  0.21068227535E+03  0.21068227535E+03  0.00000000000E+00 0. -1.
         -3   -1    0    0    0  501 -0.00000000000E+00 -0.00000000000E+00 -0.17861302020E+03  0.17861302020E+03  0.00000000000E+00 0.  1.
          5    1    1    2  502    0 -0.13728902903E+03  0.37168877857E+02  0.32303434044E+02  0.14592945153E+03  0.47000000000E+01 0. -1.
         -5    1    1    2    0  502  0.10014389583E+02  0.36491555785E+02  0.52488996084E+02  0.64877625975E+02  0.47000000000E+01 0. -1.
        -11    1    1    2    0    0  0.49877694343E+02 -0.78437517441E+02 -0.30312395492E+02  0.97770495834E+02  0.00000000000E+00 0.  1.
         11    1    1    2    0    0  0.77396945106E+02  0.47770837980E+01 -0.22410779485E+02  0.80717722208E+02  0.00000000000E+00 0. -1.
<mgrwt>
<rscale>  0 0.38797215E+03</rscale>
<asrwt>0</asrwt>
<pdfrwt beam="1">  1        3 0.32412658E-01 0.38797215E+03</pdfrwt>
<pdfrwt beam="2">  1       -3 0.27478926E-01 0.38797215E+03</pdfrwt>
<totfact> 0.30551285E+02</totfact>
</mgrwt>
</event>
<event>
 6    1  0.5258538E-006  0.1479147E+03  0.7546771E-02  0.1210582E+00
          4   -1    0    0  501    0  0.00000000000E+00  0.00000000000E+00  0.25071471677E+03  0.25071471677E+03  0.00000000000E+00 0. -1.
         -4   -1    0    0    0  501 -0.00000000000E+00 -0.00000000000E+00 -0.96357102956E+02  0.96357102956E+02  0.00000000000E+00 0.  1.
          5    1    1    2  502    0  0.52287199986E+01  0.47707122314E+02  0.18176691576E+02  0.51534368619E+02  0.47000000000E+01 0.  1.
         -5    1    1    2    0  502  0.73774675986E+02 -0.44030555539E+02  0.14582048774E+03  0.16931360631E+03  0.47000000000E+01 0.  1.
        -11    1    1    2    0    0 -0.29642461752E+02  0.31592588923E+01  0.43911131296E+02  0.53073947537E+02  0.00000000000E+00 0. -1.
         11    1    1    2    0    0 -0.49360934233E+02 -0.68358256677E+01 -0.53550696799E+02  0.73149897257E+02  0.00000000000E+00 0.  1.
<mgrwt>
<rscale>  0 0.14206146E+03</rscale>
<asrwt>0</asrwt>
<pdfrwt beam="1">  1        4 0.38571495E-01 0.14791468E+03</pdfrwt>
<pdfrwt beam="2">  1       -4 0.14824170E-01 0.14791468E+03</pdfrwt>
<totfact> 0.42450499E+02</totfact>
</mgrwt>
</event>
<event>
 6    1  0.5258538E-006  0.1619747E+03  0.7546771E-02  0.1193420E+00
         -2   -1    0    0    0  501 -0.00000000000E+00  0.00000000000E+00  0.54283953628E+02  0.54283953628E+02  0.00000000000E+00 0.  1.
          2   -1    0    0  501    0  0.00000000000E+00 -0.00000000000E+00 -0.44288975357E+03  0.44288975357E+03  0.00000000000E+00 0. -1.
          5    1    1    2  502    0 -0.89522890558E+02  0.84617354930E+02 -0.21266600987E+03  0.24581164830E+03  0.47000000000E+01 0. -1.
         -5    1    1    2    0  502 -0.23310855087E+01 -0.38013646547E+02 -0.55471348934E+02  0.67450958748E+02  0.47000000000E+01 0. -1.
        -11    1    1    2    0    0  0.31963902627E+02 -0.31770975415E+01  0.10244938102E+02  0.33715631044E+02  0.00000000000E+00 0.  1.
         11    1    1    2    0    0  0.59890073439E+02 -0.43426610842E+02 -0.13071337924E+03  0.15019546910E+03  0.00000000000E+00 0. -1.
<mgrwt>
<rscale>  0 0.15588707E+03</rscale>
<asrwt>0</asrwt>
<pdfrwt beam="2">  1        2 0.68136881E-01 0.16197474E+03</pdfrwt>
<pdfrwt beam="1">  1       -2 0.83513779E-02 0.16197474E+03</pdfrwt>
<totfact> 0.61063027E+03</totfact>
</mgrwt>
</event>
<event>
 6    1  0.5258538E-006  0.3835859E+03  0.7546771E-02  0.1049616E+00
          2   -1    0    0  501    0  0.00000000000E+00  0.00000000000E+00  0.28866480539E+03  0.28866480539E+03  0.00000000000E+00 0. -1.
         -2   -1    0    0    0  501 -0.00000000000E+00 -0.00000000000E+00 -0.12742994882E+03  0.12742994882E+03  0.00000000000E+00 0.  1.
          5    1    1    2  502    0  0.86854271418E+02 -0.14610770261E+03  0.10130636140E+03  0.19792977059E+03  0.47000000000E+01 0.  1.
         -5    1    1    2    0  502 -0.27876975621E+02  0.21457863329E+01  0.72926635621E+01  0.29274615465E+02  0.47000000000E+01 0.  1.
        -11    1    1    2    0    0 -0.14619354819E+02  0.10273476310E+03 -0.68596539775E+01  0.10399621117E+03  0.00000000000E+00 0. -1.
         11    1    1    2    0    0 -0.44357940978E+02  0.41227153177E+02  0.59495485583E+02  0.84894156994E+02  0.00000000000E+00 0.  1.
<mgrwt>
<rscale>  0 0.38358593E+03</rscale>
<asrwt>0</asrwt>
<pdfrwt beam="1">  1        2 0.44409970E-01 0.38358593E+03</pdfrwt>
<pdfrwt beam="2">  1       -2 0.19604608E-01 0.38358593E+03</pdfrwt>
<totfact> 0.24949222E+03</totfact>
</mgrwt>
</event>
<event>
 6    1  0.5258538E-006  0.1388654E+03  0.7546771E-02  0.1228337E+00
         -2   -1    0    0    0  501 -0.00000000000E+00  0.00000000000E+00  0.21852311717E+02  0.21852311717E+02  0.00000000000E+00 0.  1.
          2   -1    0    0  501    0  0.00000000000E+00 -0.00000000000E+00 -0.73151293983E+03  0.73151293983E+03  0.00000000000E+00 0. -1.
          5    1    1    2  502    0 -0.42237406620E+02 -0.23283017950E+02 -0.22290215014E+03  0.22810864951E+03  0.47000000000E+01 0. -1.
         -5    1    1    2    0  502  0.86287911006E+02 -0.18179017241E+02 -0.27822599623E+03  0.29190388012E+03  0.47000000000E+01 0. -1.
        -11    1    1    2    0    0  0.14155700067E+01 -0.20075829819E+02 -0.14573468601E+02  0.24848113981E+02  0.00000000000E+00 0.  1.
         11    1    1    2    0    0 -0.45466074392E+02  0.61537865010E+02 -0.19395901314E+03  0.20850460793E+03  0.00000000000E+00 0. -1.
<mgrwt>
<rscale>  0 0.12940769E+03</rscale>
<asrwt>0</asrwt>
<pdfrwt beam="2">  1        2 0.11254047E+00 0.13886545E+03</pdfrwt>
<pdfrwt beam="1">  1       -2 0.33618937E-02 0.13886545E+03</pdfrwt>
<totfact> 0.13544959E+04</totfact>
</mgrwt>
</event>
<event>
 6    1  0.5258538E-006  0.2619717E+03  0.7546771E-02  0.1105964E+00
          3   -1    0    0  501    0  0.00000000000E+00  0.00000000000E+00  0.34129200333E+03  0.34129200333E+03  0.00000000000E+00 0. -1.
         -3   -1    0    0    0  501 -0.00000000000E+00 -0.00000000000E+00 -0.50271589365E+02  0.50271589365E+02  0.00000000000E+00 0.  1.
          5    1    1    2  502    0 -0.19923338811E+02 -0.15271412420E+02 -0.28213469865E+01  0.25694463713E+02  0.47000000000E+01 0. -1.
         -5    1    1    2    0  502  0.86797647113E+02 -0.25289318035E+01  0.19736150620E+03  0.21567077032E+03  0.47000000000E+01 0. -1.
        -11    1    1    2    0    0 -0.59104214403E+02 -0.30071841240E+02  0.50331819422E+02  0.83252122148E+02  0.00000000000E+00 0.  1.
         11    1    1    2    0    0 -0.77700938991E+01  0.47872185464E+02  0.46148435331E+02  0.66946236517E+02  0.00000000000E+00 0. -1.
<mgrwt>
<rscale>  0 0.26197169E+03</rscale>
<asrwt>0</asrwt>
<pdfrwt beam="1">  1        3 0.52506461E-01 0.26197169E+03</pdfrwt>
<pdfrwt beam="2">  1       -3 0.77340909E-02 0.26197169E+03</pdfrwt>
<totfact> 0.10327749E+03</totfact>
</mgrwt>
</event>
<event>
 6    1  0.5258538E-006  0.1255070E+03  0.7546771E-02  0.1245686E+00
         -1   -1    0    0    0  501 -0.00000000000E+00  0.00000000000E+00  0.62581418883E+02  0.62581418883E+02  0.00000000000E+00 0.  1.
          1   -1    0    0  501    0  0.00000000000E+00 -0.00000000000E+00 -0.24431699193E+03  0.24431699193E+03  0.00000000000E+00 0. -1.
          5    1    1    2  502    0 -0.56319629857E+02 -0.58187668137E+01 -0.85503298703E+02  0.10265798967E+03  0.47000000000E+01 0. -1.
         -5    1    1    2    0  502  0.67187233300E+02  0.88473232476E+01 -0.77294841306E+02  0.10290277907E+03  0.47000000000E+01 0. -1.
        -11    1    1    2    0    0 -0.25160477648E+02 -0.39245743002E+02  0.15734449152E+02  0.49202142935E+02  0.00000000000E+00 0.  1.
         11    1    1    2    0    0  0.14292874205E+02  0.36217186568E+02 -0.34671882188E+02  0.52135499139E+02  0.00000000000E+00 0. -1.
<mgrwt>
<rscale>  0 0.11844421E+03</rscale>
<asrwt>0</asrwt>
<pdfrwt beam="2">  1        1 0.37587230E-01 0.12550695E+03</pdfrwt>
<pdfrwt beam="1">  1       -1 0.96279106E-02 0.12550695E+03</pdfrwt>
<totfact> 0.69529696E+03</totfact>
</mgrwt>
</event>
<event>
 6    1  0.5258538E-006  0.1346774E+03  0.7546771E-02  0.1237668E+00
          2   -1    0    0  501    0  0.00000000000E+00  0.00000000000E+00  0.34483249541E+03  0.34483249541E+03  0.00000000000E+00 0. -1.
         -2   -1    0    0    0  501 -0.00000000000E+00 -0.00000000000E+00 -0.38252501460E+02  0.38252501460E+02  0.00000000000E+00 0.  1.
          5    1    1    2  502    0  0.11369004898E+02 -0.36682329929E+02  0.22658420482E+02  0.44836833297E+02  0.47000000000E+01 0.  1.
         -5    1    1    2    0  502 -0.47269715831E+02  0.71707906381E+02  0.16598839966E+03  0.18695103287E+03  0.47000000000E+01 0.  1.
        -11    1    1    2    0    0  0.12804177967E+01 -0.12073101668E+02 -0.10663180397E+02  0.16158671659E+02  0.00000000000E+00 0.  1.
         11    1    1    2    0    0  0.34620293136E+02 -0.22952474785E+02  0.12859635421E+03  0.13513845904E+03  0.00000000000E+00 0. -1.
<mgrwt>
<rscale>  0 0.12335198E+03</rscale>
<asrwt>0</asrwt>
<pdfrwt beam="1">  1        2 0.53051151E-01 0.13467736E+03</pdfrwt>
<pdfrwt beam="2">  1       -2 0.58850005E-02 0.13467736E+03</pdfrwt>
<totfact> 0.13491852E+04</totfact>
</mgrwt>
</event>
<event>
 6    1  0.5258538E-006  0.1274810E+03  0.7546771E-02  0.1245594E+00
         -2   -1    0    0    0  501 -0.00000000000E+00  0.00000000000E+00  0.34872439122E+02  0.34872439122E+02  0.00000000000E+00 0.  1.
          2   -1    0    0  501    0  0.00000000000E+00 -0.00000000000E+00 -0.35625478031E+03  0.35625478031E+03  0.00000000000E+00 0. -1.
          5    1    1    2  502    0  0.32092892932E+02  0.20687244428E+02 -0.16784377104E+03  0.17219621755E+03  0.47000000000E+01 0.  1.
         -5    1    1    2    0  502 -0.53012799847E+02 -0.68919276594E+01 -0.25557197142E+02  0.59440019685E+02  0.47000000000E+01 0.  1.
        -11    1    1    2    0    0  0.19493497644E+02  0.22280435074E+02 -0.11852909211E+03  0.12217020879E+03  0.00000000000E+00 0. -1.
         11    1    1    2    0    0  0.14264092709E+01 -0.36075751842E+02 -0.94522808905E+01  0.37320773417E+02  0.00000000000E+00 0.  1.
<mgrwt>
<rscale>  0 0.11849883E+03</rscale>
<asrwt>0</asrwt>
<pdfrwt beam="2">  1        2 0.54808426E-01 0.12748103E+03</pdfrwt>
<pdfrwt beam="1">  1       -2 0.53649908E-02 0.12748103E+03</pdfrwt>
<totfact> 0.14917633E+04</totfact>
</mgrwt>
</event>
<event>
 6    1  0.5258538E-006  0.1492472E+03  0.7546771E-02  0.1209717E+00
         -1   -1    0    0    0  501 -0.00000000000E+00  0.00000000000E+00  0.87068968634E+02  0.87068968634E+02  0.00000000000E+00 0.  1.
          1   -1    0    0  501    0  0.00000000000E+00 -0.00000000000E+00 -0.21971719005E+03  0.21971719005E+03  0.00000000000E+00 0. -1.
          5    1    1    2  502    0  0.71723519361E+01 -0.15718885137E+02 -0.72713180597E+02  0.74885396539E+02  0.47000000000E+01 0.  1.
         -5    1    1    2    0  502 -0.32804918660E+02  0.93175736872E+02 -0.20247410297E+02  0.10094517449E+03  0.47000000000E+01 0.  1.
        -11    1    1    2    0    0  0.38890477108E+02 -0.82105534881E+02 -0.58066729494E+02  0.10782176562E+03  0.00000000000E+00 0. -1.
         11    1    1    2    0    0 -0.13257910383E+02  0.46486831463E+01  0.18379098971E+02  0.23133822030E+02  0.00000000000E+00 0.  1.
<mgrwt>
<rscale>  0 0.14271858E+03</rscale>
<asrwt>0</asrwt>
<pdfrwt beam="2">  1        1 0.33802645E-01 0.14924717E+03</pdfrwt>
<pdfrwt beam="1">  1       -1 0.13395226E-01 0.14924717E+03</pdfrwt>
<totfact> 0.48235452E+03</totfact>
</mgrwt>
</event>
<event>
 6    1  0.5258538E-006  0.1383958E+03  0.7546771E-02  0.1226754E+00
         -1   -1    0    0    0  501 -0.00000000000E+00  0.00000000000E+00  0.10984154629E+03  0.10984154629E+03  0.00000000000E+00 0.  1.
          1   -1    0    0  501    0  0.00000000000E+00 -0.00000000000E+00 -0.20836072738E+03  0.20836072738E+03  0.00000000000E+00 0. -1.
          5    1    1    2  502    0 -0.60470810606E+01 -0.81070556447E+02 -0.85128145073E+02  0.11780447103E+03  0.47000000000E+01 0. -1.
         -5    1    1    2    0  502 -0.38529936482E+02  0.41691469393E+02 -0.58934774124E+02  0.81964213084E+02  0.47000000000E+01 0. -1.
        -11    1    1    2    0    0  0.24889242954E+02 -0.26883943792E+01 -0.24082506569E+02  0.34737141532E+02  0.00000000000E+00 0. -1.
         11    1    1    2    0    0  0.19687774589E+02  0.42067481433E+02  0.69626244682E+02  0.83696448018E+02  0.00000000000E+00 0.  1.
<mgrwt>
<rscale>  0 0.13047388E+03</rscale>
<asrwt>0</asrwt>
<pdfrwt beam="2">  1        1 0.32055496E-01 0.13839582E+03</pdfrwt>
<pdfrwt beam="1">  1       -1 0.16898700E-01 0.13839582E+03</pdfrwt>
<totfact> 0.35631898E+03</totfact>
</mgrwt>
</event>
<event>
 6    1  0.5258538E-006  0.2866111E+03  0.7546771E-02  0.1092132E+00
         -1   -1    0    0    0  501 -0.00000000000E+00  0.00000000000E+00  0.87776081776E+02  0.87776081776E+02  0.00000000000E+00 0.  1.
          1   -1    0    0  501    0  0.00000000000E+00 -0.00000000000E+00 -0.23396437956E+03  0.23396437956E+03  0.00000000000E+00 0. -1.
          5    1    1    2  502    0  0.60566050061E+02  0.94967336110E+02 -0.68164365998E+02  0.13174032086E+03  0.47000000000E+01 0.  1.
         -5    1    1    2    0  502 -0.33282944580E+02 -0.12700359371E+02 -0.46399417541E+02  0.58686024539E+02  0.47000000000E+01 0.  1.
        -11    1    1    2    0    0  0.34329601764E+02 -0.32111526352E+02 -0.38972172326E+01  0.47168421472E+02  0.00000000000E+00 0.  1.
         11    1    1    2    0    0 -0.61612707246E+02 -0.50155450387E+02 -0.27727297011E+02  0.84145694466E+02  0.00000000000E+00 0. -1.
<mgrwt>
<rscale>  0 0.28661107E+03</rscale>
<asrwt>0</asrwt>
<pdfrwt beam="2">  1        1 0.35994520E-01 0.28661107E+03</pdfrwt>
<pdfrwt beam="1">  1       -1 0.13504012E-01 0.28661107E+03</pdfrwt>
<totfact> 0.45447520E+03</totfact>
</mgrwt>
</event>
<event>
 6    1  0.5258538E-006  0.1360889E+03  0.7546771E-02  0.1231041E+00
          1   -1    0    0  501    0  0.00000000000E+00  0.00000000000E+00  0.66167820121E+02  0.66167820121E+02  0.00000000000E+00 0. -1.
         -1   -1    0    0    0  501 -0.00000000000E+00 -0.00000000000E+00 -0.38820068677E+03  0.38820068677E+03  0.00000000000E+00 0.  1.
          5    1    1    2  502    0 -0.18473852102E+02 -0.63847456718E+02  0.15434113589E+02  0.68396511629E+02  0.47000000000E+01 0.  1.
         -5    1    1    2    0  502  0.52885966407E+02  0.22476455019E+02 -0.39282468316E+02  0.69766172247E+02  0.47000000000E+01 0.  1.
        -11    1    1    2    0    0  0.10314506470E+02  0.39454587188E+02 -0.23648869733E+03  0.23997907713E+03  0.00000000000E+00 0.  1.
         11    1    1    2    0    0 -0.44726620775E+02  0.19164145106E+01 -0.61695814595E+02  0.76226745891E+02  0.00000000000E+00 0. -1.
<mgrwt>
<rscale>  0 0.12761327E+03</rscale>
<asrwt>0</asrwt>
<pdfrwt beam="1">  1        1 0.10179665E-01 0.13608888E+03</pdfrwt>
<pdfrwt beam="2">  1       -1 0.59723182E-01 0.13608888E+03</pdfrwt>
<totfact> 0.17900132E+03</totfact>
</mgrwt>
</event>
<event>
 6    1  0.5258538E-006  0.1363043E+03  0.7546771E-02  0.1310986E+00
          1   -1    0    0  501    0  0.00000000000E+00  0.00000000000E+00  0.45346185801E+03  0.45346185801E+03  0.00000000000E+00 0. -1.
         -1   -1    0    0    0  501 -0.00000000000E+00 -0.00000000000E+00 -0.14144131586E+02  0.14144131586E+02  0.00000000000E+00 0.  1.
          5    1    1    2  502    0 -0.33938792390E+02 -0.45888997767E+02  0.31943982895E+03  0.32453279660E+03  0.47000000000E+01 0. -1.
         -5    1    1    2    0  502  0.13570977601E+02  0.53358009726E+02  0.77684458019E+02  0.95332122879E+02  0.47000000000E+01 0.  1.
        -11    1    1    2    0    0  0.11876605274E+02 -0.18549820007E+01  0.25453132763E+02  0.28148830855E+02  0.00000000000E+00 0.  1.
         11    1    1    2    0    0  0.84912095151E+01 -0.56140299585E+01  0.16740306690E+02  0.19592239267E+02  0.00000000000E+00 0. -1.
<mgrwt>
<rscale>  0 0.86723403E+02</rscale>
<asrwt>0</asrwt>
<pdfrwt beam="1">  1        1 0.69763352E-01 0.13630426E+03</pdfrwt>
<pdfrwt beam="2">  1       -1 0.21760206E-02 0.13630426E+03</pdfrwt>
<totfact> 0.29097044E+04</totfact>
</mgrwt>
</event>
<event>
 6    1  0.5258538E-006  0.1534516E+03  0.7546771E-02  0.1204608E+00
         -4   -1    0    0    0  501 -0.00000000000E+00  0.00000000000E+00  0.44129678189E+02  0.44129678189E+02  0.00000000000E+00 0.  1.
          4   -1    0    0  501    0  0.00000000000E+00 -0.00000000000E+00 -0.44972508622E+03  0.44972508622E+03  0.00000000000E+00 0. -1.
          5    1    1    2  502    0 -0.51846649378E+02  0.73934202874E+02 -0.22698236376E+03  0.24433056474E+03  0.47000000000E+01 0. -1.
         -5    1    1    2    0  502  0.29128186017E+02  0.12126657061E+02 -0.28575633292E+01  0.32027530350E+02  0.47000000000E+01 0. -1.
        -11    1    1    2    0    0  0.40809704245E+02 -0.94553657637E+02 -0.11926595151E+03  0.15757599221E+03  0.00000000000E+00 0.  1.
         11    1    1    2    0    0 -0.18091240884E+02  0.84927977017E+01 -0.56489529427E+02  0.59920677103E+02  0.00000000000E+00 0. -1.
<mgrwt>
<rscale>  0 0.14668413E+03</rscale>
<asrwt>0</asrwt>
<pdfrwt beam="2">  1        4 0.69188475E-01 0.15345164E+03</pdfrwt>
<pdfrwt beam="1">  1       -4 0.67891812E-02 0.15345164E+03</pdfrwt>
<totfact> 0.48181756E+02</totfact>
</mgrwt>
</event>
<event>
 6    1  0.5258538E-006  0.1734109E+03  0.7546771E-02  0.1180476E+00
          2   -1    0    0  501    0  0.00000000000E+00  0.00000000000E+00  0.78129883224E+02  0.78129883224E+02  0.00000000000E+00 0. -1.
         -2   -1    0    0    0  501 -0.00000000000E+00 -0.00000000000E+00 -0.35035109232E+03  0.35035109232E+03  0.00000000000E+00 0.  1.
          5    1    1    2  502    0 -0.46465649280E+02  0.72601413647E+01 -0.34660069737E+02  0.58610380052E+02  0.47000000000E+01 0.  1.
         -5    1    1    2    0  502  0.55750081521E+02  0.11256890181E+03 -0.68281034764E+02  0.14305320322E+03  0.47000000000E+01 0.  1.
        -11    1    1    2    0    0  0.22036292538E+02 -0.72814926719E+01 -0.27135118083E+01  0.23366246397E+02  0.00000000000E+00 0. -1.
         11    1    1    2    0    0 -0.31320724779E+02 -0.11254755050E+03 -0.16656659279E+03  0.20345114588E+03  0.00000000000E+00 0.  1.
<mgrwt>
<rscale>  0 0.16750438E+03</rscale>
<asrwt>0</asrwt>
<pdfrwt beam="1">  1        2 0.12019982E-01 0.17341087E+03</pdfrwt>
<pdfrwt beam="2">  1       -2 0.53900168E-01 0.17341087E+03</pdfrwt>
<totfact> 0.16504514E+03</totfact>
</mgrwt>
</event>
<event>
 6    1  0.5258538E-006  0.2233053E+03  0.7546771E-02  0.1134694E+00
          2   -1    0    0  501    0  0.00000000000E+00  0.00000000000E+00  0.34835177618E+03  0.34835177618E+03  0.00000000000E+00 0. -1.
         -2   -1    0    0    0  501 -0.00000000000E+00 -0.00000000000E+00 -0.15153084865E+03  0.15153084865E+03  0.00000000000E+00 0.  1.
          5    1    1    2  502    0 -0.17025713855E+03 -0.51535327034E+02  0.14906241647E+03  0.23213159450E+03  0.47000000000E+01 0. -1.
         -5    1    1    2    0  502 -0.14568325524E+02  0.42631311341E+02  0.41446487617E+02  0.61396792677E+02  0.47000000000E+01 0. -1.
        -11    1    1    2    0    0  0.55929024589E+02 -0.33962246522E+02 -0.19092397287E+02  0.68161643279E+02  0.00000000000E+00 0.  1.
         11    1    1    2    0    0  0.12889643949E+03  0.42866262215E+02  0.25404420730E+02  0.13819259438E+03  0.00000000000E+00 0. -1.
<mgrwt>
<rscale>  0 0.21891567E+03</rscale>
<asrwt>0</asrwt>
<pdfrwt beam="1">  1        2 0.53592581E-01 0.22330533E+03</pdfrwt>
<pdfrwt beam="2">  1       -2 0.23312438E-01 0.22330533E+03</pdfrwt>
<totfact> 0.14880920E+03</totfact>
</mgrwt>
</event>
<event>
 6    1  0.5258538E-006  0.1673838E+03  0.7546771E-02  0.1187789E+00
          2   -1    0    0  501    0  0.00000000000E+00  0.00000000000E+00  0.35673816768E+03  0.35673816768E+03  0.00000000000E+00 0. -1.
         -2   -1    0    0    0  501 -0.00000000000E+00 -0.00000000000E+00 -0.10955259640E+03  0.10955259640E+03  0.00000000000E+00 0.  1.
          5    1    1    2  502    0 -0.40783260556E+02 -0.53627221889E+02  0.13855460047E+03  0.15413831639E+03  0.47000000000E+01 0. -1.
         -5    1    1    2    0  502  0.84364924130E+02 -0.48853948334E+02  0.13556451199E+03  0.16704483111E+03  0.47000000000E+01 0. -1.
        -11    1    1    2    0    0  0.27272067242E+02  0.28462593696E+02 -0.10913891384E+01  0.39434452219E+02  0.00000000000E+00 0. -1.
         11    1    1    2    0    0 -0.70853730817E+02  0.74018576527E+02 -0.25842152049E+02  0.10567316435E+03  0.00000000000E+00 0.  1.
<mgrwt>
<rscale>  0 0.16080677E+03</rscale>
<asrwt>0</asrwt>
<pdfrwt beam="1">  1        2 0.54882794E-01 0.16738377E+03</pdfrwt>
<pdfrwt beam="2">  1       -2 0.16854246E-01 0.16738377E+03</pdfrwt>
<totfact> 0.25010774E+03</totfact>
</mgrwt>
</event>
<event>
 6    1  0.5258538E-006  0.1883479E+03  0.7546771E-02  0.1165048E+00
          3   -1    0    0  501    0  0.00000000000E+00  0.00000000000E+00  0.10380740766E+03  0.10380740766E+03  0.00000000000E+00 0. -1.
         -3   -1    0    0    0  501 -0.00000000000E+00 -0.00000000000E+00 -0.32480028122E+03  0.32480028122E+03  0.00000000000E+00 0.  1.
          5    1    1    2  502    0  0.55958579735E+02 -0.14468813638E+02 -0.65822771531E+02  0.87723636872E+02  0.47000000000E+01 0.  1.
         -5    1    1    2    0  502  0.90358111487E+01 -0.11054451889E+03  0.23328497842E+01  0.11103724028E+03  0.47000000000E+01 0.  1.
        -11    1    1    2    0    0  0.13910809307E+01 -0.10195475386E+02  0.19777662634E+01  0.10478281534E+02  0.00000000000E+00 0. -1.
         11    1    1    2    0    0 -0.66385471815E+02  0.13520880792E+03 -0.15948071807E+03  0.21936853020E+03  0.00000000000E+00 0.  1.
<mgrwt>
<rscale>  0 0.18287681E+03</rscale>
<asrwt>0</asrwt>
<pdfrwt beam="1">  1        3 0.15970371E-01 0.18834786E+03</pdfrwt>
<pdfrwt beam="2">  1       -3 0.49969273E-01 0.18834786E+03</pdfrwt>
<totfact> 0.32310142E+02</totfact>
</mgrwt>
</event>
<event>
 6    1  0.5258538E-006  0.1935478E+03  0.7546771E-02  0.1159841E+00
         -1   -1    0    0    0  501 -0.00000000000E+00  0.00000000000E+00  0.56576397222E+02  0.56576397222E+02  0.00000000000E+00 0.  1.
          1   -1    0    0  501    0  0.00000000000E+00 -0.00000000000E+00 -0.84886857555E+03  0.84886857555E+03  0.00000000000E+00 0. -1.
          5    1    1    2  502    0 -0.87314303556E+02 -0.95342657659E+01 -0.18275540292E+03  0.20282089913E+03  0.47000000000E+01 0. -1.
         -5    1    1    2    0  502 -0.46036702136E+02  0.73217874702E+02 -0.47446869278E+03  0.48230992686E+03  0.47000000000E+01 0. -1.
        -11    1    1    2    0    0  0.11140489803E+03 -0.76471763391E+02 -0.73746155191E+02  0.15393984964E+03  0.00000000000E+00 0.  1.
         11    1    1    2    0    0  0.21946107658E+02  0.12788154455E+02 -0.61321927443E+02  0.66374297141E+02  0.00000000000E+00 0. -1.
<mgrwt>
<rscale>  0 0.18847874E+03</rscale>
<asrwt>0</asrwt>
<pdfrwt beam="2">  1        1 0.13059517E+00 0.19354776E+03</pdfrwt>
<pdfrwt beam="1">  1       -1 0.87040610E-02 0.19354776E+03</pdfrwt>
<totfact> 0.15833970E+03</totfact>
</mgrwt>
</event>
<event>
 6    1  0.5258538E-006  0.1354212E+03  0.7546771E-02  0.1234297E+00
         -1   -1    0    0    0  501 -0.00000000000E+00  0.00000000000E+00  0.12118803162E+03  0.12118803162E+03  0.00000000000E+00 0.  1.
          1   -1    0    0  501    0  0.00000000000E+00 -0.00000000000E+00 -0.12771243941E+03  0.12771243941E+03  0.00000000000E+00 0. -1.
          5    1    1    2  502    0  0.64463434322E+01 -0.80155490049E+02 -0.68636102720E+01  0.80843410830E+02  0.47000000000E+01 0. -1.
         -5    1    1    2    0  502 -0.32327640630E+00  0.48944657936E+02 -0.36889566056E+02  0.61470432989E+02  0.47000000000E+01 0.  1.
        -11    1    1    2    0    0 -0.10876090523E+02  0.56937073036E+02  0.50834040315E+02  0.77098763192E+02  0.00000000000E+00 0.  1.
         11    1    1    2    0    0  0.47530234968E+01 -0.25726240922E+02 -0.13605271779E+02  0.29487864022E+02  0.00000000000E+00 0. -1.
<mgrwt>
<rscale>  0 0.12549532E+03</rscale>
<asrwt>0</asrwt>
<pdfrwt beam="2">  1        1 0.19648068E-01 0.13542116E+03</pdfrwt>
<pdfrwt beam="1">  1       -1 0.18644313E-01 0.13542116E+03</pdfrwt>
<totfact> 0.56285886E+03</totfact>
</mgrwt>
</event>
<event>
 6    1  0.5258538E-006  0.2217623E+03  0.7546771E-02  0.1155432E+00
          1   -1    0    0  501    0  0.00000000000E+00  0.00000000000E+00  0.10370810418E+03  0.10370810418E+03  0.00000000000E+00 0. -1.
         -1   -1    0    0    0  501 -0.00000000000E+00 -0.00000000000E+00 -0.29948498381E+03  0.29948498381E+03  0.00000000000E+00 0.  1.
          5    1    1    2  502    0  0.14503534664E+03  0.24717943278E+02 -0.48963449222E+02  0.15513135677E+03  0.47000000000E+01 0. -1.
         -5    1    1    2    0  502 -0.58432020717E+02 -0.41237554761E+02 -0.51905362640E+02  0.88493466643E+02  0.47000000000E+01 0.  1.
        -11    1    1    2    0    0 -0.42610893112E+02  0.23013900469E+02  0.64766717827E+01  0.48859749324E+02  0.00000000000E+00 0. -1.
         11    1    1    2    0    0 -0.43992432808E+02 -0.64942889856E+01 -0.10138473956E+03  0.11070851525E+03  0.00000000000E+00 0.  1.
<mgrwt>
<rscale>  0 0.19339774E+03</rscale>
<asrwt>0</asrwt>
<pdfrwt beam="1">  1        1 0.15955093E-01 0.22176234E+03</pdfrwt>
<pdfrwt beam="2">  1       -1 0.46074612E-01 0.22176234E+03</pdfrwt>
<totfact> 0.16294268E+03</totfact>
</mgrwt>
</event>
<event>
 6    1  0.5258538E-006  0.3671737E+03  0.7546771E-02  0.1055779E+00
          3   -1    0    0  501    0  0.00000000000E+00  0.00000000000E+00  0.15851897567E+04  0.15851897567E+04  0.00000000000E+00 0. -1.
         -3   -1    0    0    0  501 -0.00000000000E+00 -0.00000000000E+00 -0.21261891148E+02  0.21261891148E+02  0.00000000000E+00 0.  1.
          5    1    1    2  502    0  0.83964020872E+02  0.10625983275E+03  0.68197779616E+03  0.69531065957E+03  0.47000000000E+01 0.  1.
         -5    1    1    2    0  502 -0.12948131667E+02 -0.15546067117E+01  0.47995786854E+03  0.48015801200E+03  0.47000000000E+01 0.  1.
        -11    1    1    2    0    0 -0.40153168792E+02 -0.48450071323E+02  0.75686186939E+02  0.98428071548E+02  0.00000000000E+00 0.  1.
         11    1    1    2    0    0 -0.30862720412E+02 -0.56255154715E+02  0.32630601391E+03  0.33255490473E+03  0.00000000000E+00 0. -1.
<mgrwt>
<rscale>  0 0.36717370E+03</rscale>
<asrwt>0</asrwt>
<pdfrwt beam="1">  1        3 0.24387525E+00 0.36717370E+03</pdfrwt>
<pdfrwt beam="2">  1       -3 0.32710614E-02 0.36717370E+03</pdfrwt>
<totfact> 0.10178480E+02</totfact>
</mgrwt>
</event>
<event>
 6    1  0.5258538E-006  0.1416176E+03  0.7546771E-02  0.1221714E+00
          2   -1    0    0  501    0  0.00000000000E+00  0.00000000000E+00  0.14913047218E+03  0.14913047218E+03  0.00000000000E+00 0. -1.
         -2   -1    0    0    0  501 -0.00000000000E+00 -0.00000000000E+00 -0.10904663496E+03  0.10904663496E+03  0.00000000000E+00 0.  1.
          5    1    1    2  502    0 -0.17991083438E+02 -0.30690968520E+02 -0.18372746499E+02  0.40314543851E+02  0.47000000000E+01 0. -1.
         -5    1    1    2    0  502  0.83521218640E+02  0.42386378787E+02  0.44061037995E+02  0.10361401517E+03  0.47000000000E+01 0. -1.
        -11    1    1    2    0    0 -0.88489572453E+02 -0.47929429331E+01  0.59082615189E+01  0.88816013697E+02  0.00000000000E+00 0.  1.
         11    1    1    2    0    0  0.22959437251E+02 -0.69024673339E+01  0.84872842101E+01  0.25432534428E+02  0.00000000000E+00 0. -1.
<mgrwt>
<rscale>  0 0.13394662E+03</rscale>
<asrwt>0</asrwt>
<pdfrwt beam="1">  1        2 0.22943150E-01 0.14161759E+03</pdfrwt>
<pdfrwt beam="2">  1       -2 0.16776405E-01 0.14161759E+03</pdfrwt>
<totfact> 0.64094576E+03</totfact>
</mgrwt>
</event>
<event>
 6    1  0.5258538E-006  0.2407440E+03  0.7546771E-02  0.1119298E+00
         -2   -1    0    0    0  501 -0.00000000000E+00  0.00000000000E+00  0.61754140544E+02  0.61754140544E+02  0.00000000000E+00 0.  1.
          2   -1    0    0  501    0  0.00000000000E+00 -0.00000000000E+00 -0.23463080405E+03  0.23463080405E+03  0.00000000000E+00 0. -1.
          5    1    1    2  502    0 -0.62375071201E+02  0.70606027134E+01  0.21070426245E+01  0.62984373035E+02  0.47000000000E+01 0.  1.
         -5    1    1    2    0  502  0.12654378898E+02 -0.18751879042E+02 -0.10304473372E+03  0.10560337788E+03  0.47000000000E+01 0.  1.
        -11    1    1    2    0    0  0.44637022677E+02 -0.34050160050E+02 -0.55452180438E+02  0.78910211686E+02  0.00000000000E+00 0. -1.
         11    1    1    2    0    0  0.50836696257E+01  0.45741436379E+02 -0.16486791976E+02  0.48886981994E+02  0.00000000000E+00 0.  1.
<mgrwt>
<rscale>  0 0.24074404E+03</rscale>
<asrwt>0</asrwt>
<pdfrwt beam="2">  1        2 0.36097046E-01 0.24074404E+03</pdfrwt>
<pdfrwt beam="1">  1       -2 0.95006372E-02 0.24074404E+03</pdfrwt>
<totfact> 0.10121210E+04</totfact>
</mgrwt>
</event>
<event>
 6    1  0.5258538E-006  0.3695225E+03  0.7546771E-02  0.1054876E+00
         -2   -1    0    0    0  501 -0.00000000000E+00  0.00000000000E+00  0.66770421089E+02  0.66770421089E+02  0.00000000000E+00 0.  1.
          2   -1    0    0  501    0  0.00000000000E+00 -0.00000000000E+00 -0.51125515767E+03  0.51125515767E+03  0.00000000000E+00 0. -1.
          5    1    1    2  502    0  0.11303863864E+03 -0.49212994921E+02 -0.13220585427E+03  0.18083177430E+03  0.47000000000E+01 0. -1.
         -5    1    1    2    0  502  0.29086553809E+01 -0.27345862885E+02 -0.18695927390E+03  0.18902940669E+03  0.47000000000E+01 0. -1.
        -11    1    1    2    0    0 -0.45902102404E+02  0.10017251069E+02 -0.96524369663E+02  0.10735130303E+03  0.00000000000E+00 0. -1.
         11    1    1    2    0    0 -0.70045191616E+02  0.66541606737E+02 -0.28795238743E+02  0.10081309473E+03  0.00000000000E+00 0.  1.
<mgrwt>
<rscale>  0 0.36952251E+03</rscale>
<asrwt>0</asrwt>
<pdfrwt beam="2">  1        2 0.78654640E-01 0.36952251E+03</pdfrwt>
<pdfrwt beam="1">  1       -2 0.10272372E-01 0.36952251E+03</pdfrwt>
<totfact> 0.38767250E+03</totfact>
</mgrwt>
</event>
<event>
 6    1  0.5258538E-006  0.1304750E+03  0.7546771E-02  0.1240194E+00
         -1   -1    0    0    0  501 -0.00000000000E+00  0.00000000000E+00  0.26628503252E+03  0.26628503252E+03  0.00000000000E+00 0.  1.
          1   -1    0    0  501    0  0.00000000000E+00 -0.00000000000E+00 -0.49578255646E+02  0.49578255646E+02  0.00000000000E+00 0. -1.
          5    1    1    2  502    0  0.47788297649E+02  0.37668519173E+02  0.11224961603E+03  0.12776816907E+03  0.47000000000E+01 0.  1.
         -5    1    1    2    0  502 -0.10976130728E+02 -0.44495916001E+02  0.27481147847E+01  0.46151967687E+02  0.47000000000E+01 0.  1.
        -11    1    1    2    0    0 -0.83775420262E+01 -0.35068502641E+02  0.78212550187E+02  0.86123086885E+02  0.00000000000E+00 0.  1.
         11    1    1    2    0    0 -0.28434624894E+02  0.41895899468E+02  0.23496495875E+02  0.55820064524E+02  0.00000000000E+00 0. -1.
<mgrwt>
<rscale>  0 0.12177725E+03</rscale>
<asrwt>0</asrwt>
<pdfrwt beam="2">  1        1 0.76274241E-02 0.13047504E+03</pdfrwt>
<pdfrwt beam="1">  1       -1 0.40966927E-01 0.13047504E+03</pdfrwt>
<totfact> 0.52180441E+03</totfact>
</mgrwt>
</event>
<event>
 6    1  0.5258538E-006  0.2128633E+03  0.7546771E-02  0.1142930E+00
          1   -1    0    0  501    0  0.00000000000E+00  0.00000000000E+00  0.31555116822E+03  0.31555116822E+03  0.00000000000E+00 0. -1.
         -1   -1    0    0    0  501 -0.00000000000E+00 -0.00000000000E+00 -0.13196800718E+03  0.13196800718E+03  0.00000000000E+00 0.  1.
          5    1    1    2  502    0 -0.95050571774E+02  0.13593259297E+03  0.54158392852E+02  0.17454942722E+03  0.47000000000E+01 0. -1.
         -5    1    1    2    0  502  0.30495441134E+02  0.23810817751E+02  0.47206449379E+02  0.61216548701E+02  0.47000000000E+01 0. -1.
        -11    1    1    2    0    0 -0.13916399979E+02 -0.47979786806E+02 -0.42195908182E+01  0.50135128174E+02  0.00000000000E+00 0.  1.
         11    1    1    2    0    0  0.78471530619E+02 -0.11176362392E+03  0.86437909625E+02  0.16161807130E+03  0.00000000000E+00 0. -1.
<mgrwt>
<rscale>  0 0.20828693E+03</rscale>
<asrwt>0</asrwt>
<pdfrwt beam="1">  1        1 0.48546334E-01 0.21286325E+03</pdfrwt>
<pdfrwt beam="2">  1       -1 0.20302770E-01 0.21286325E+03</pdfrwt>
<totfact> 0.16068467E+03</totfact>
</mgrwt>
</event>
<event>
 6    1  0.5258538E-006  0.1884664E+03  0.7546771E-02  0.1164045E+00
          3   -1    0    0  501    0  0.00000000000E+00  0.00000000000E+00  0.62707395661E+02  0.62707395661E+02  0.00000000000E+00 0. -1.
         -3   -1    0    0    0  501 -0.00000000000E+00 -0.00000000000E+00 -0.52975216784E+03  0.52975216784E+03  0.00000000000E+00 0.  1.
          5    1    1    2  502    0 -0.53185573876E+02  0.36566654353E+02 -0.99770902784E+02  0.11892076573E+03  0.47000000000E+01 0.  1.
         -5    1    1    2    0  502 -0.77266703803E+02 -0.90207828229E+02 -0.95651912361E+02  0.15257448715E+03  0.47000000000E+01 0.  1.
        -11    1    1    2    0    0  0.96238856334E+02  0.31107079490E+02 -0.25907622714E+03  0.27811878637E+03  0.00000000000E+00 0.  1.
         11    1    1    2    0    0  0.34213421345E+02  0.22534094386E+02 -0.12545729893E+02  0.42845524253E+02  0.00000000000E+00 0. -1.
<mgrwt>
<rscale>  0 0.18393820E+03</rscale>
<asrwt>0</asrwt>
<pdfrwt beam="1">  1        3 0.96472917E-02 0.18846643E+03</pdfrwt>
<pdfrwt beam="2">  1       -3 0.81500333E-01 0.18846643E+03</pdfrwt>
<totfact> 0.27197993E+02</totfact>
</mgrwt>
</event>
<event>
 6    1  0.5258538E-006  0.2697135E+03  0.7546771E-02  0.1103584E+00
         -1   -1    0    0    0  501 -0.00000000000E+00  0.00000000000E+00  0.37638125303E+02  0.37638125303E+02  0.00000000000E+00 0.  1.
          1   -1    0    0  501    0  0.00000000000E+00 -0.00000000000E+00 -0.20907963973E+04  0.20907963973E+04  0.00000000000E+00 0. -1.
          5    1    1    2  502    0 -0.40845730480E+02 -0.26039226984E+02 -0.60281151798E+03  0.60477287575E+03  0.47000000000E+01 0. -1.
         -5    1    1    2    0  502 -0.19724787423E+03  0.52840391095E+01 -0.82419184696E+03  0.84749568468E+03  0.47000000000E+01 0. -1.
        -11    1    1    2    0    0  0.17679928286E+03  0.41442116394E+02 -0.37269276235E+03  0.41457849744E+03  0.00000000000E+00 0.  1.
         11    1    1    2    0    0  0.61294321850E+02 -0.20686928520E+02 -0.25346214467E+03  0.26158746469E+03  0.00000000000E+00 0. -1.
<mgrwt>
<rscale>  0 0.26601125E+03</rscale>
<asrwt>0</asrwt>
<pdfrwt beam="2">  1        1 0.32166093E+00 0.26971349E+03</pdfrwt>
<pdfrwt beam="1">  1       -1 0.57904819E-02 0.26971349E+03</pdfrwt>
<totfact> 0.41532884E+02</totfact>
</mgrwt>
</event>
<event>
 6    1  0.5258538E-006  0.1346346E+03  0.7546771E-02  0.1232836E+00
          3   -1    0    0  501    0  0.00000000000E+00  0.00000000000E+00  0.41061645312E+03  0.41061645312E+03  0.00000000000E+00 0. -1.
         -3   -1    0    0    0  501 -0.00000000000E+00 -0.00000000000E+00 -0.35899291507E+02  0.35899291507E+02  0.00000000000E+00 0.  1.
          5    1    1    2  502    0 -0.41025730014E+02 -0.30152702678E+02  0.10064751384E+03  0.11289069069E+03  0.47000000000E+01 0.  1.
         -5    1    1    2    0  502  0.83156971239E+02  0.31714048549E+01  0.14672254961E+03  0.16874458877E+03  0.47000000000E+01 0.  1.
        -11    1    1    2    0    0 -0.30296056496E+02 -0.99349167958E+01  0.12157485435E+03  0.12568611228E+03  0.00000000000E+00 0. -1.
         11    1    1    2    0    0 -0.11835184730E+02  0.36916214619E+02  0.57722438104E+01  0.39194352884E+02  0.00000000000E+00 0.  1.
<mgrwt>
<rscale>  0 0.12644012E+03</rscale>
<asrwt>0</asrwt>
<pdfrwt beam="1">  1        3 0.63171759E-01 0.13463463E+03</pdfrwt>
<pdfrwt beam="2">  1       -3 0.55229682E-02 0.13463463E+03</pdfrwt>
<totfact> 0.11075714E+03</totfact>
</mgrwt>
</event>
<event>
 6    1  0.5258538E-006  0.1423159E+03  0.7546771E-02  0.1220614E+00
          1   -1    0    0  501    0  0.00000000000E+00  0.00000000000E+00  0.96370413238E+03  0.96370413238E+03  0.00000000000E+00 0. -1.
         -1   -1    0    0    0  501 -0.00000000000E+00 -0.00000000000E+00 -0.22203834127E+02  0.22203834127E+02  0.00000000000E+00 0.  1.
          5    1    1    2  502    0 -0.16566978249E+02  0.33602711520E+02  0.91463593869E+02  0.98950927197E+02  0.47000000000E+01 0. -1.
         -5    1    1    2    0  502 -0.29976802561E+02 -0.83217275786E+02  0.65454573984E+03  0.66051187667E+03  0.47000000000E+01 0. -1.
        -11    1    1    2    0    0  0.98865558911E+01 -0.26766504022E+02  0.63310763931E+02  0.69443808612E+02  0.00000000000E+00 0. -1.
         11    1    1    2    0    0  0.36657224919E+02  0.76381068289E+02  0.13218020061E+03  0.15700135402E+03  0.00000000000E+00 0.  1.
<mgrwt>
<rscale>  0 0.13472119E+03</rscale>
<asrwt>0</asrwt>
<pdfrwt beam="1">  1        1 0.14826214E+00 0.14231593E+03</pdfrwt>
<pdfrwt beam="2">  1       -1 0.34159752E-02 0.14231593E+03</pdfrwt>
<totfact> 0.51772900E+03</totfact>
</mgrwt>
</event>
<event>
 6    1  0.5258538E-006  0.2237514E+03  0.7546771E-02  0.1164993E+00
         -1   -1    0    0    0  501 -0.00000000000E+00  0.00000000000E+00  0.27815460472E+02  0.27815460472E+02  0.00000000000E+00 0.  1.
          1   -1    0    0  501    0  0.00000000000E+00 -0.00000000000E+00 -0.16773882713E+04  0.16773882713E+04  0.00000000000E+00 0. -1.
          5    1    1    2  502    0 -0.16792762589E+02 -0.11042484905E+03 -0.98771507388E+03  0.99402152961E+03  0.47000000000E+01 0. -1.
         -5    1    1    2    0  502 -0.35185712487E+02  0.98763302293E+02 -0.55505561802E+03  0.56489030204E+03  0.47000000000E+01 0.  1.
        -11    1    1    2    0    0  0.13913070236E+02  0.42142262382E+02 -0.24674952414E+02  0.50777919204E+02  0.00000000000E+00 0.  1.
         11    1    1    2    0    0  0.38065404840E+02 -0.30480715627E+02 -0.82127166512E+02  0.95513980915E+02  0.00000000000E+00 0. -1.
<mgrwt>
<rscale>  0 0.18293430E+03</rscale>
<asrwt>0</asrwt>
<pdfrwt beam="2">  1        1 0.25805977E+00 0.22375140E+03</pdfrwt>
<pdfrwt beam="1">  1       -1 0.42793010E-02 0.22375140E+03</pdfrwt>
<totfact> 0.12194366E+03</totfact>
</mgrwt>
</event>
<event>
 6    1  0.5258538E-006  0.1558276E+03  0.7546771E-02  0.1210786E+00
          2   -1    0    0  501    0  0.00000000000E+00  0.00000000000E+00  0.29320939577E+03  0.29320939577E+03  0.00000000000E+00 0. -1.
         -2   -1    0    0    0  501 -0.00000000000E+00 -0.00000000000E+00 -0.62777639143E+02  0.62777639143E+02  0.00000000000E+00 0.  1.
          5    1    1    2  502    0  0.18338634841E+02 -0.69928334904E+02  0.14039219201E+03  0.15798207217E+03  0.47000000000E+01 0. -1.
         -5    1    1    2    0  502 -0.48490003076E+02  0.49020657862E+02  0.37942715549E+02  0.78841898498E+02  0.47000000000E+01 0.  1.
        -11    1    1    2    0    0 -0.26881764022E+02  0.33909753928E+01  0.52966368157E+02  0.59494235913E+02  0.00000000000E+00 0.  1.
         11    1    1    2    0    0  0.57033132257E+02  0.17516701649E+02 -0.86951908401E+00  0.59668828337E+02  0.00000000000E+00 0. -1.
<mgrwt>
<rscale>  0 0.14190683E+03</rscale>
<asrwt>0</asrwt>
<pdfrwt beam="1">  1        2 0.45109137E-01 0.15582764E+03</pdfrwt>
<pdfrwt beam="2">  1       -2 0.96580985E-02 0.15582764E+03</pdfrwt>
<totfact> 0.75486907E+03</totfact>
</mgrwt>
</event>
<event>
 6    1  0.5258538E-006  0.1364086E+03  0.7546771E-02  0.1229978E+00
         -2   -1    0    0    0  501 -0.00000000000E+00  0.00000000000E+00  0.19968678113E+02  0.19968678113E+02  0.00000000000E+00 0.  1.
          2   -1    0    0  501    0  0.00000000000E+00 -0.00000000000E+00 -0.74828406153E+03  0.74828406153E+03  0.00000000000E+00 0. -1.
          5    1    1    2  502    0  0.44542169128E+02 -0.88711052253E+00 -0.35407253851E+03  0.35689528482E+03  0.47000000000E+01 0.  1.
         -5    1    1    2    0  502 -0.29531254341E+02 -0.51629104684E+02 -0.92728982996E+02  0.11026519723E+03  0.47000000000E+01 0.  1.
        -11    1    1    2    0    0 -0.11002630785E+02  0.78881990060E+02 -0.22272585641E+03  0.23653801672E+03  0.00000000000E+00 0. -1.
         11    1    1    2    0    0 -0.40082840025E+01 -0.26365774854E+02 -0.58788005497E+02  0.64554240872E+02  0.00000000000E+00 0.  1.
<mgrwt>
<rscale>  0 0.12831441E+03</rscale>
<asrwt>0</asrwt>
<pdfrwt beam="2">  1        2 0.11512063E+00 0.13640864E+03</pdfrwt>
<pdfrwt beam="1">  1       -2 0.30721042E-02 0.13640864E+03</pdfrwt>
<totfact> 0.15032372E+04</totfact>
</mgrwt>
</event>
<event>
 6    1  0.5258538E-006  0.1538057E+03  0.7546771E-02  0.1202724E+00
          2   -1    0    0  501    0  0.00000000000E+00  0.00000000000E+00  0.56640123137E+02  0.56640123137E+02  0.00000000000E+00 0. -1.
         -2   -1    0    0    0  501 -0.00000000000E+00 -0.00000000000E+00 -0.36203693776E+03  0.36203693776E+03  0.00000000000E+00 0.  1.
          5    1    1    2  502    0 -0.68713182920E+02 -0.84213734408E+01 -0.53423664753E+02  0.87570537244E+02  0.47000000000E+01 0. -1.
         -5    1    1    2    0  502  0.15246483015E+02  0.80341506000E+02 -0.10588273239E+03  0.13386730687E+03  0.47000000000E+01 0. -1.
        -11    1    1    2    0    0 -0.26448009884E+02 -0.31207560770E+02 -0.30984362031E+02  0.51317051420E+02  0.00000000000E+00 0. -1.
         11    1    1    2    0    0  0.79914709789E+02 -0.40712571789E+02 -0.11510605545E+03  0.14592216536E+03  0.00000000000E+00 0.  1.
<mgrwt>
<rscale>  0 0.14818275E+03</rscale>
<asrwt>0</asrwt>
<pdfrwt beam="1">  1        2 0.87138650E-02 0.15380569E+03</pdfrwt>
<pdfrwt beam="2">  1       -2 0.55697991E-01 0.15380569E+03</pdfrwt>
<totfact> 0.22811661E+03</totfact>
</mgrwt>
</event>
<event>
 6    1  0.5258538E-006  0.2971976E+03  0.7546771E-02  0.1086650E+00
         -1   -1    0    0    0  501 -0.00000000000E+00  0.00000000000E+00  0.46933438270E+02  0.46933438270E+02  0.00000000000E+00 0.  1.
          1   -1    0    0  501    0  0.00000000000E+00 -0.00000000000E+00 -0.47048763830E+03  0.47048763830E+03  0.00000000000E+00 0. -1.
          5    1    1    2  502    0 -0.25461617413E+02  0.11191730261E+01 -0.20931622896E+03  0.21091448555E+03  0.47000000000E+01 0. -1.
         -5    1    1    2    0  502  0.45101463400E+02  0.79782980159E+02 -0.12027434088E+03  0.15128606346E+03  0.47000000000E+01 0. -1.
        -11    1    1    2    0    0  0.91431822191E+01 -0.62458565264E+02 -0.10213931307E+03  0.12007126813E+03  0.00000000000E+00 0. -1.
         11    1    1    2    0    0 -0.28783028206E+02 -0.18443587921E+02  0.81756828741E+01  0.35149259431E+02  0.00000000000E+00 0.  1.
<mgrwt>
<rscale>  0 0.29719759E+03</rscale>
<asrwt>0</asrwt>
<pdfrwt beam="2">  1        1 0.72382712E-01 0.29719759E+03</pdfrwt>
<pdfrwt beam="1">  1       -1 0.72205291E-02 0.29719759E+03</pdfrwt>
<totfact> 0.49265487E+03</totfact>
</mgrwt>
</event>
<event>
 6    1  0.5258538E-006  0.1471742E+03  0.7546771E-02  0.1216725E+00
          2   -1    0    0  501    0  0.00000000000E+00  0.00000000000E+00  0.22295189680E+03  0.22295189680E+03  0.00000000000E+00 0. -1.
         -2   -1    0    0    0  501 -0.00000000000E+00 -0.00000000000E+00 -0.75784721159E+02  0.75784721159E+02  0.00000000000E+00 0.  1.
          5    1    1    2  502    0 -0.75682651524E+02 -0.66464417626E+01  0.15075822524E+02  0.77597740654E+02  0.47000000000E+01 0.  1.
         -5    1    1    2    0  502  0.14407053300E+02  0.54409825534E+02  0.78858498405E+02  0.96998685919E+02  0.47000000000E+01 0.  1.
        -11    1    1    2    0    0 -0.19265134918E+02 -0.58421580649E+01  0.29418769651E+01  0.20345291208E+02  0.00000000000E+00 0.  1.
         11    1    1    2    0    0  0.80540733142E+02 -0.41921225706E+02  0.50290977744E+02  0.10379490017E+03  0.00000000000E+00 0. -1.
<mgrwt>
<rscale>  0 0.13750585E+03</rscale>
<asrwt>0</asrwt>
<pdfrwt beam="1">  1        2 0.34300292E-01 0.14717424E+03</pdfrwt>
<pdfrwt beam="2">  1       -2 0.11659188E-01 0.14717424E+03</pdfrwt>
<totfact> 0.74785011E+03</totfact>
</mgrwt>
</event>
<event>
 6    1  0.5258538E-006  0.2006377E+03  0.7546771E-02  0.1153565E+00
          2   -1    0    0  501    0  0.00000000000E+00  0.00000000000E+00  0.12451155595E+04  0.12451155595E+04  0.00000000000E+00 0. -1.
         -2   -1    0    0    0  501 -0.00000000000E+00 -0.00000000000E+00 -0.44716835310E+02  0.44716835310E+02  0.00000000000E+00 0.  1.
          5    1    1    2  502    0  0.42309491889E+02 -0.40814893226E+02  0.61992639117E+03  0.62272527577E+03  0.47000000000E+01 0. -1.
         -5    1    1    2    0  502 -0.16729455363E+02 -0.11403283751E+03  0.37956575923E+03  0.39670595948E+03  0.47000000000E+01 0. -1.
        -11    1    1    2    0    0  0.12120203103E+02  0.77389972724E+02  0.40163303601E+02  0.88029530031E+02  0.00000000000E+00 0. -1.
         11    1    1    2    0    0 -0.37700239629E+02  0.77457758016E+02  0.16074327017E+03  0.18237162951E+03  0.00000000000E+00 0.  1.
<mgrwt>
<rscale>  0 0.19553132E+03</rscale>
<asrwt>0</asrwt>
<pdfrwt beam="1">  1        2 0.19155621E+00 0.20063770E+03</pdfrwt>
<pdfrwt beam="2">  1       -2 0.68795141E-02 0.20063770E+03</pdfrwt>
<totfact> 0.22519670E+03</totfact>
</mgrwt>
</event>
<event>
 6    1  0.5258538E-006  0.1973421E+03  0.7546771E-02  0.1182694E+00
          1   -1    0    0  501    0  0.00000000000E+00  0.00000000000E+00  0.16227499690E+04  0.16227499690E+04  0.00000000000E+00 0. -1.
         -1   -1    0    0    0  501 -0.00000000000E+00 -0.00000000000E+00 -0.14363136966E+02  0.14363136966E+02  0.00000000000E+00 0.  1.
          5    1    1    2  502    0  0.15233740091E+02 -0.35544703595E+02  0.12595531521E+04  0.12601554371E+04  0.47000000000E+01 0. -1.
         -5    1    1    2    0  502  0.11699194311E+02  0.77138952289E+01  0.17386399545E-01  0.14780582851E+02  0.47000000000E+01 0.  1.
        -11    1    1    2    0    0 -0.58128313599E+02  0.10342679568E+02  0.17411746918E+03  0.18385528259E+03  0.00000000000E+00 0.  1.
         11    1    1    2    0    0  0.31195379197E+02  0.17488128798E+02  0.17469882440E+03  0.17832180343E+03  0.00000000000E+00 0. -1.
<mgrwt>
<rscale>  0 0.16543488E+03</rscale>
<asrwt>0</asrwt>
<pdfrwt beam="1">  1        1 0.24965370E+00 0.19734212E+03</pdfrwt>
<pdfrwt beam="2">  1       -1 0.22097147E-02 0.19734212E+03</pdfrwt>
<totfact> 0.35047508E+03</totfact>
</mgrwt>
</event>
<event>
 6    1  0.5258538E-006  0.1356190E+03  0.7546771E-02  0.1231203E+00
          1   -1    0    0  501    0  0.00000000000E+00  0.00000000000E+00  0.27034720257E+03  0.27034720257E+03  0.00000000000E+00 0. -1.
         -1   -1    0    0    0  501 -0.00000000000E+00 -0.00000000000E+00 -0.59319787422E+02  0.59319787422E+02  0.00000000000E+00 0.  1.
          5    1    1    2  502    0  0.29881977797E+02 -0.49796763252E+02  0.14674079529E+03  0.15788477200E+03  0.47000000000E+01 0.  1.
         -5    1    1    2    0  502 -0.53024125167E+02  0.25496675364E+01  0.19711225522E+02  0.56821484192E+02  0.47000000000E+01 0.  1.
        -11    1    1    2    0    0  0.21517595050E+02  0.33793895769E+01  0.63519109253E+02  0.67149865308E+02  0.00000000000E+00 0. -1.
         11    1    1    2    0    0  0.16245523205E+01  0.43867706138E+02 -0.18943714909E+02  0.47810868499E+02  0.00000000000E+00 0.  1.
<mgrwt>
<rscale>  0 0.12750668E+03</rscale>
<asrwt>0</asrwt>
<pdfrwt beam="1">  1        1 0.41591877E-01 0.13561896E+03</pdfrwt>
<pdfrwt beam="2">  1       -1 0.91261213E-02 0.13561896E+03</pdfrwt>
<totfact> 0.66911715E+03</totfact>
</mgrwt>
</event>
<event>
 6    1  0.5258538E-006  0.3861225E+03  0.7546771E-02  0.1048694E+00
          1   -1    0    0  501    0  0.00000000000E+00  0.00000000000E+00  0.32711280216E+03  0.32711280216E+03  0.00000000000E+00 0. -1.
         -1   -1    0    0    0  501 -0.00000000000E+00 -0.00000000000E+00 -0.11394431680E+03  0.11394431680E+03  0.00000000000E+00 0.  1.
          5    1    1    2  502    0 -0.63863130289E+01 -0.18874011596E+02  0.30561640359E+00  0.20474293864E+02  0.47000000000E+01 0.  1.
         -5    1    1    2    0  502 -0.35014109062E+02  0.14449908056E+03  0.21503108096E+03  0.26146974566E+03  0.47000000000E+01 0.  1.
        -11    1    1    2    0    0 -0.91143741329E+01 -0.10163867321E+03 -0.10460264366E+02  0.10258123044E+03  0.00000000000E+00 0.  1.
         11    1    1    2    0    0  0.50514796224E+02 -0.23986395755E+02  0.82920523546E+01  0.56531848998E+02  0.00000000000E+00 0. -1.
<mgrwt>
<rscale>  0 0.38612249E+03</rscale>
<asrwt>0</asrwt>
<pdfrwt beam="1">  1        1 0.50325046E-01 0.38612249E+03</pdfrwt>
<pdfrwt beam="2">  1       -1 0.17529895E-01 0.38612249E+03</pdfrwt>
<totfact> 0.19709313E+03</totfact>
</mgrwt>
</event>
<event>
 6    1  0.5258538E-006  0.6354145E+03  0.7546771E-02  0.9834539E-01
          1   -1    0    0  501    0  0.00000000000E+00  0.00000000000E+00  0.22182262750E+03  0.22182262750E+03  0.00000000000E+00 0. -1.
         -1   -1    0    0    0  501 -0.00000000000E+00 -0.00000000000E+00 -0.45503877719E+03  0.45503877719E+03  0.00000000000E+00 0.  1.
          5    1    1    2  502    0  0.72346188481E+02  0.13744665279E+03  0.16270684626E+03  0.22499146910E+03  0.47000000000E+01 0.  1.
         -5    1    1    2    0  502 -0.17225687519E+02  0.14019189237E+02 -0.14678935655E+02  0.27033740572E+02  0.47000000000E+01 0.  1.
        -11    1    1    2    0    0 -0.49786328591E+02 -0.10451109295E+03 -0.34881402527E+03  0.36752206912E+03  0.00000000000E+00 0.  1.
         11    1    1    2    0    0 -0.53341723714E+01 -0.46954749076E+02 -0.32430035019E+02  0.57314125894E+02  0.00000000000E+00 0. -1.
<mgrwt>
<rscale>  0 0.63541450E+03</rscale>
<asrwt>0</asrwt>
<pdfrwt beam="1">  1        1 0.34126558E-01 0.63541450E+03</pdfrwt>
<pdfrwt beam="2">  1       -1 0.70005966E-01 0.63541450E+03</pdfrwt>
<totfact> 0.27210278E+02</totfact>
</mgrwt>
</event>
<event>
 6    1  0.5258538E-006  0.2471354E+03  0.7546771E-02  0.1115129E+00
         -3   -1    0    0    0  501 -0.00000000000E+00  0.00000000000E+00  0.15547249651E+03  0.15547249651E+03  0.00000000000E+00 0.  1.
          3   -1    0    0  501    0  0.00000000000E+00 -0.00000000000E+00 -0.98210148958E+02  0.98210148958E+02  0.00000000000E+00 0. -1.
          5    1    1    2  502    0  0.28103916341E+02  0.18781420326E+02 -0.26237520228E+02  0.43047291795E+02  0.47000000000E+01 0.  1.
         -5    1    1    2    0  502 -0.72333126671E+01 -0.72715905870E+02  0.70415512457E+02  0.10158916366E+03  0.47000000000E+01 0.  1.
        -11    1    1    2    0    0  0.23898342533E+02  0.44862612970E+02  0.31494342090E+02  0.59796976529E+02  0.00000000000E+00 0.  1.
         11    1    1    2    0    0 -0.44768946207E+02  0.90718725740E+01 -0.18409986763E+02  0.49249213487E+02  0.00000000000E+00 0. -1.
<mgrwt>
<rscale>  0 0.24713540E+03</rscale>
<asrwt>0</asrwt>
<pdfrwt beam="2">  1        3 0.15109254E-01 0.24713540E+03</pdfrwt>
<pdfrwt beam="1">  1       -3 0.23918846E-01 0.24713540E+03</pdfrwt>
<totfact> 0.15001405E+03</totfact>
</mgrwt>
</event>
<event>
 6    1  0.5258538E-006  0.3586222E+03  0.7546771E-02  0.1059131E+00
         -1   -1    0    0    0  501 -0.00000000000E+00  0.00000000000E+00  0.10827666033E+03  0.10827666033E+03  0.00000000000E+00 0.  1.
          1   -1    0    0  501    0  0.00000000000E+00 -0.00000000000E+00 -0.29694731774E+03  0.29694731774E+03  0.00000000000E+00 0. -1.
          5    1    1    2  502    0 -0.88010856019E+02 -0.11630361629E+03 -0.16280096887E+03  0.21862910923E+03  0.47000000000E+01 0.  1.
         -5    1    1    2    0  502  0.21971937242E+02  0.25201386964E+01  0.34587183909E+01  0.22872906639E+02  0.47000000000E+01 0.  1.
        -11    1    1    2    0    0  0.35899597358E+02  0.77372501882E+02 -0.62700568116E+02  0.10586144898E+03  0.00000000000E+00 0. -1.
         11    1    1    2    0    0  0.30139321419E+02  0.36410975713E+02  0.33372161186E+02  0.57860513220E+02  0.00000000000E+00 0.  1.
<mgrwt>
<rscale>  0 0.35862216E+03</rscale>
<asrwt>0</asrwt>
<pdfrwt beam="2">  1        1 0.45684203E-01 0.35862216E+03</pdfrwt>
<pdfrwt beam="1">  1       -1 0.16657948E-01 0.35862216E+03</pdfrwt>
<totfact> 0.24188399E+03</totfact>
</mgrwt>
</event>
<event>
 6    1  0.5258538E-006  0.2966300E+03  0.7546771E-02  0.1088033E+00
         -1   -1    0    0    0  501 -0.00000000000E+00  0.00000000000E+00  0.17170705765E+03  0.17170705765E+03  0.00000000000E+00 0.  1.
          1   -1    0    0  501    0  0.00000000000E+00 -0.00000000000E+00 -0.89158805707E+03  0.89158805707E+03  0.00000000000E+00 0. -1.
          5    1    1    2  502    0  0.12918633242E+03 -0.15761891813E+03 -0.38615415269E+03  0.43665770516E+03  0.47000000000E+01 0. -1.
         -5    1    1    2    0  502  0.18603717597E+02 -0.72890550669E+02 -0.32998736937E+03  0.33848616609E+03  0.47000000000E+01 0.  1.
        -11    1    1    2    0    0 -0.10030539550E+03  0.20947439920E+03 -0.21545069869E+02  0.23324855052E+03  0.00000000000E+00 0.  1.
         11    1    1    2    0    0 -0.47484654520E+02  0.21035069603E+02  0.17805592517E+02  0.54902692948E+02  0.00000000000E+00 0. -1.
<mgrwt>
<rscale>  0 0.29448098E+03</rscale>
<asrwt>0</asrwt>
<pdfrwt beam="2">  1        1 0.13716739E+00 0.29662997E+03</pdfrwt>
<pdfrwt beam="1">  1       -1 0.26416471E-01 0.29662997E+03</pdfrwt>
<totfact> 0.24741216E+02</totfact>
</mgrwt>
</event>
<event>
 6    1  0.5258538E-006  0.1260463E+03  0.7546771E-02  0.1247110E+00
         -2   -1    0    0    0  501 -0.00000000000E+00  0.00000000000E+00  0.19636857003E+03  0.19636857003E+03  0.00000000000E+00 0.  1.
          2   -1    0    0  501    0  0.00000000000E+00 -0.00000000000E+00 -0.99179076133E+02  0.99179076133E+02  0.00000000000E+00 0. -1.
          5    1    1    2  502    0  0.36452656913E+02 -0.26066898930E+02 -0.51853480169E+02  0.68696090293E+02  0.47000000000E+01 0. -1.
         -5    1    1    2    0  502 -0.46060994107E+02  0.39137527434E+02  0.15332798682E+02  0.62534358134E+02  0.47000000000E+01 0. -1.
        -11    1    1    2    0    0  0.35067789437E+02  0.60880878553E+01  0.10580506481E+02  0.37131681717E+02  0.00000000000E+00 0. -1.
         11    1    1    2    0    0 -0.25459452242E+02 -0.19158716359E+02  0.12312966891E+03  0.12718551602E+03  0.00000000000E+00 0.  1.
<mgrwt>
<rscale>  0 0.11759998E+03</rscale>
<asrwt>0</asrwt>
<pdfrwt beam="2">  1        2 0.15258319E-01 0.12604630E+03</pdfrwt>
<pdfrwt beam="1">  1       -2 0.30210549E-01 0.12604630E+03</pdfrwt>
<totfact> 0.36778058E+03</totfact>
</mgrwt>
</event>
<event>
 6    1  0.5258538E-006  0.1286650E+03  0.7546771E-02  0.1243959E+00
          2   -1    0    0  501    0  0.00000000000E+00  0.00000000000E+00  0.16154557893E+03  0.16154557893E+03  0.00000000000E+00 0. -1.
         -2   -1    0    0    0  501 -0.00000000000E+00 -0.00000000000E+00 -0.77948916461E+02  0.77948916461E+02  0.00000000000E+00 0.  1.
          5    1    1    2  502    0 -0.13861721805E+02  0.65038491113E+02  0.39074438332E+02  0.77272597916E+02  0.47000000000E+01 0. -1.
         -5    1    1    2    0  502 -0.15727571468E+02 -0.57732409565E+02  0.12288992754E+02  0.61265789486E+02  0.47000000000E+01 0. -1.
        -11    1    1    2    0    0  0.37066223779E+02  0.32777475349E+02  0.82481419283E+00  0.49486848293E+02  0.00000000000E+00 0.  1.
         11    1    1    2    0    0 -0.74769305061E+01 -0.40083556897E+02  0.31408417192E+02  0.51469259698E+02  0.00000000000E+00 0. -1.
<mgrwt>
<rscale>  0 0.11947903E+03</rscale>
<asrwt>0</asrwt>
<pdfrwt beam="1">  1        2 0.24853166E-01 0.12866500E+03</pdfrwt>
<pdfrwt beam="2">  1       -2 0.11992141E-01 0.12866500E+03</pdfrwt>
<totfact> 0.10048199E+04</totfact>
</mgrwt>
</event>
<event>
 6    1  0.5258538E-006  0.1340991E+03  0.7546771E-02  0.1230325E+00
          2   -1    0    0  501    0  0.00000000000E+00  0.00000000000E+00  0.36758076782E+04  0.36758076782E+04  0.00000000000E+00 0. -1.
         -2   -1    0    0    0  501 -0.00000000000E+00 -0.00000000000E+00 -0.32752204160E+02  0.32752204160E+02  0.00000000000E+00 0.  1.
          5    1    1    2  502    0  0.57635890435E+02  0.81341415549E+02  0.27721531884E+04  0.27739491184E+04  0.47000000000E+01 0. -1.
         -5    1    1    2    0  502 -0.13471183910E+02 -0.30828768876E+02  0.80351341757E+03  0.80423117821E+03  0.47000000000E+01 0.  1.
        -11    1    1    2    0    0  0.18980545595E+02 -0.32248533923E+02  0.49876976527E+02  0.62353362690E+02  0.00000000000E+00 0. -1.
         11    1    1    2    0    0 -0.63145252120E+02 -0.18264112750E+02  0.17511891610E+02  0.68026223087E+02  0.00000000000E+00 0.  1.
<mgrwt>
<rscale>  0 0.12808507E+03</rscale>
<asrwt>0</asrwt>
<pdfrwt beam="1">  1        2 0.56550855E+00 0.13409906E+03</pdfrwt>
<pdfrwt beam="2">  1       -2 0.50388035E-02 0.13409906E+03</pdfrwt>
<totfact> 0.16036587E+02</totfact>
</mgrwt>
</event>
<event>
 6    1  0.5258538E-006  0.3797191E+03  0.7546771E-02  0.1080997E+00
          2   -1    0    0  501    0  0.00000000000E+00  0.00000000000E+00  0.23560325949E+04  0.23560325949E+04  0.00000000000E+00 0. -1.
         -2   -1    0    0    0  501 -0.00000000000E+00 -0.00000000000E+00 -0.49043011134E+02  0.49043011134E+02  0.00000000000E+00 0.  1.
          5    1    1    2  502    0 -0.13139315413E+03  0.98610300152E+02  0.19872499529E+04  0.19940342568E+04  0.47000000000E+01 0. -1.
         -5    1    1    2    0  502 -0.78070949011E+01 -0.89971119204E+02  0.13880780721E+03  0.16566668454E+03  0.47000000000E+01 0.  1.
        -11    1    1    2    0    0  0.10645948859E+03 -0.24378711758E+02  0.72675376491E+02  0.13118557332E+03  0.00000000000E+00 0.  1.
         11    1    1    2    0    0  0.32740760439E+02  0.15739530810E+02  0.10825644721E+03  0.11418909137E+03  0.00000000000E+00 0. -1.
<mgrwt>
<rscale>  0 0.30864473E+03</rscale>
<asrwt>0</asrwt>
<pdfrwt beam="1">  1        2 0.36246647E+00 0.37971905E+03</pdfrwt>
<pdfrwt beam="2">  1       -2 0.75450805E-02 0.37971905E+03</pdfrwt>
<totfact> 0.48908293E+02</totfact>
</mgrwt>
</event>
<event>
 6    1  0.5258538E-006  0.1388199E+03  0.7546771E-02  0.1226000E+00
          1   -1    0    0  501    0  0.00000000000E+00  0.00000000000E+00  0.11638196539E+03  0.11638196539E+03  0.00000000000E+00 0. -1.
         -1   -1    0    0    0  501 -0.00000000000E+00 -0.00000000000E+00 -0.13443282347E+03  0.13443282347E+03  0.00000000000E+00 0.  1.
          5    1    1    2  502    0 -0.74210168268E+02  0.36652299098E+02 -0.10628135793E+02  0.83579826357E+02  0.47000000000E+01 0. -1.
         -5    1    1    2    0  502  0.52053598023E+02  0.19512974700E+02 -0.12142771365E+02  0.57095272529E+02  0.47000000000E+01 0. -1.
        -11    1    1    2    0    0  0.37006736389E+02  0.11598172697E+02 -0.80350198975E+01  0.39605273548E+02  0.00000000000E+00 0.  1.
         11    1    1    2    0    0 -0.14850166144E+02 -0.67763446495E+02  0.12755068971E+02  0.70534416421E+02  0.00000000000E+00 0. -1.
<mgrwt>
<rscale>  0 0.13098604E+03</rscale>
<asrwt>0</asrwt>
<pdfrwt beam="1">  1        1 0.17904918E-01 0.13881992E+03</pdfrwt>
<pdfrwt beam="2">  1       -1 0.20681973E-01 0.13881992E+03</pdfrwt>
<totfact> 0.53749105E+03</totfact>
</mgrwt>
</event>
<event>
 6    1  0.5258538E-006  0.1619181E+03  0.7546771E-02  0.1194716E+00
          2   -1    0    0  501    0  0.00000000000E+00  0.00000000000E+00  0.10947547438E+03  0.10947547438E+03  0.00000000000E+00 0. -1.
         -2   -1    0    0    0  501 -0.00000000000E+00 -0.00000000000E+00 -0.29660660214E+03  0.29660660214E+03  0.00000000000E+00 0.  1.
          5    1    1    2  502    0  0.87080023383E+02 -0.73455163066E+01  0.42423788295E+02  0.97256130375E+02  0.47000000000E+01 0.  1.
         -5    1    1    2    0  502 -0.81767467245E+01 -0.58745581791E+02 -0.27112882735E+02  0.65384256340E+02  0.47000000000E+01 0.  1.
        -11    1    1    2    0    0 -0.52658527939E+02  0.17477275374E+02 -0.17121696326E+03  0.17998228865E+03  0.00000000000E+00 0.  1.
         11    1    1    2    0    0 -0.26244748720E+02  0.48613822723E+02 -0.31225070058E+02  0.63459401157E+02  0.00000000000E+00 0. -1.
<mgrwt>
<rscale>  0 0.15478247E+03</rscale>
<asrwt>0</asrwt>
<pdfrwt beam="1">  1        2 0.16842381E-01 0.16191810E+03</pdfrwt>
<pdfrwt beam="2">  1       -2 0.45631784E-01 0.16191810E+03</pdfrwt>
<totfact> 0.15353128E+03</totfact>
</mgrwt>
</event>
<event>
 6    1  0.5258538E-006  0.1304999E+03  0.7546771E-02  0.1243777E+00
         -2   -1    0    0    0  501 -0.00000000000E+00  0.00000000000E+00  0.26330543474E+03  0.26330543474E+03  0.00000000000E+00 0.  1.
          2   -1    0    0  501    0  0.00000000000E+00 -0.00000000000E+00 -0.48747570923E+02  0.48747570923E+02  0.00000000000E+00 0. -1.
          5    1    1    2  502    0 -0.42911683714E+02  0.16213222410E+01  0.11875292619E+03  0.12636609025E+03  0.47000000000E+01 0.  1.
         -5    1    1    2    0  502  0.12898855055E+02 -0.24114554408E+02 -0.22554265473E+02  0.35758594590E+02  0.47000000000E+01 0.  1.
        -11    1    1    2    0    0  0.43221431159E+02 -0.15115423962E+01  0.11432804022E+03  0.12223451907E+03  0.00000000000E+00 0.  1.
         11    1    1    2    0    0 -0.13208602501E+02  0.24004774563E+02  0.40311628860E+01  0.27693801763E+02  0.00000000000E+00 0. -1.
<mgrwt>
<rscale>  0 0.11958882E+03</rscale>
<asrwt>0</asrwt>
<pdfrwt beam="2">  1        2 0.74996264E-02 0.13049993E+03</pdfrwt>
<pdfrwt beam="1">  1       -2 0.40508528E-01 0.13049993E+03</pdfrwt>
<totfact> 0.50865173E+03</totfact>
</mgrwt>
</event>
<event>
 6    1  0.5258538E-006  0.2755187E+03  0.7546771E-02  0.1098162E+00
         -1   -1    0    0    0  501 -0.00000000000E+00  0.00000000000E+00  0.24344906810E+02  0.24344906810E+02  0.00000000000E+00 0.  1.
          1   -1    0    0  501    0  0.00000000000E+00 -0.00000000000E+00 -0.77953191749E+03  0.77953191749E+03  0.00000000000E+00 0. -1.
          5    1    1    2  502    0  0.70833832389E+01  0.34413989158E+02 -0.70508056687E+02  0.78917507726E+02  0.47000000000E+01 0. -1.
         -5    1    1    2    0  502 -0.45088996650E+02 -0.71641407976E+02 -0.53219593810E+03  0.53890640698E+03  0.47000000000E+01 0. -1.
        -11    1    1    2    0    0  0.43533647414E+02 -0.19191777476E+02 -0.50556845292E+02  0.69422599964E+02  0.00000000000E+00 0.  1.
         11    1    1    2    0    0 -0.55280340029E+01  0.56419196295E+02 -0.10192617060E+03  0.11663030963E+03  0.00000000000E+00 0. -1.
<mgrwt>
<rscale>  0 0.27551865E+03</rscale>
<asrwt>0</asrwt>
<pdfrwt beam="2">  1        1 0.11992798E+00 0.27551865E+03</pdfrwt>
<pdfrwt beam="1">  1       -1 0.37453705E-02 0.27551865E+03</pdfrwt>
<totfact> 0.64928755E+03</totfact>
</mgrwt>
</event>
<event>
 6    1  0.5258538E-006  0.1603734E+03  0.7546771E-02  0.1195851E+00
          1   -1    0    0  501    0  0.00000000000E+00  0.00000000000E+00  0.48955558687E+03  0.48955558687E+03  0.00000000000E+00 0. -1.
         -1   -1    0    0    0  501 -0.00000000000E+00 -0.00000000000E+00 -0.44941577492E+02  0.44941577492E+02  0.00000000000E+00 0.  1.
          5    1    1    2  502    0 -0.56482196421E+02  0.87173579513E+01  0.48803296354E+02  0.75299950712E+02  0.47000000000E+01 0.  1.
         -5    1    1    2    0  502  0.36130073610E+02  0.89671901363E+02  0.17577075938E+03  0.20065862046E+03  0.47000000000E+01 0.  1.
        -11    1    1    2    0    0  0.31977261740E+01  0.13461320976E+02  0.65811758909E+02  0.67250429187E+02  0.00000000000E+00 0.  1.
         11    1    1    2    0    0  0.17154396638E+02 -0.11185058029E+03  0.15422819474E+03  0.19128816400E+03  0.00000000000E+00 0. -1.
<mgrwt>
<rscale>  0 0.15382399E+03</rscale>
<asrwt>0</asrwt>
<pdfrwt beam="1">  1        1 0.75316240E-01 0.16037340E+03</pdfrwt>
<pdfrwt beam="2">  1       -1 0.69140892E-02 0.16037340E+03</pdfrwt>
<totfact> 0.48651119E+03</totfact>
</mgrwt>
</event>
<event>
 6    1  0.5258538E-006  0.1373319E+03  0.7546771E-02  0.1227959E+00
         -1   -1    0    0    0  501 -0.00000000000E+00  0.00000000000E+00  0.62373352251E+02  0.62373352251E+02  0.00000000000E+00 0.  1.
          1   -1    0    0  501    0  0.00000000000E+00 -0.00000000000E+00 -0.29684416169E+03  0.29684416169E+03  0.00000000000E+00 0. -1.
          5    1    1    2  502    0  0.43201616660E+01 -0.35153716453E+02 -0.15916798515E+02  0.39113706706E+02  0.47000000000E+01 0.  1.
         -5    1    1    2    0  502  0.30184596390E+02  0.80374100110E+02 -0.18807910806E+03  0.20680170869E+03  0.47000000000E+01 0.  1.
        -11    1    1    2    0    0  0.19743852139E+02  0.68093073972E+01  0.14759857498E+02  0.25574201021E+02  0.00000000000E+00 0. -1.
         11    1    1    2    0    0 -0.54248610195E+02 -0.52029691054E+02 -0.45234760361E+02  0.87727897525E+02  0.00000000000E+00 0.  1.
<mgrwt>
<rscale>  0 0.12966163E+03</rscale>
<asrwt>0</asrwt>
<pdfrwt beam="2">  1        1 0.45668332E-01 0.13733194E+03</pdfrwt>
<pdfrwt beam="1">  1       -1 0.95959004E-02 0.13733194E+03</pdfrwt>
<totfact> 0.55268356E+03</totfact>
</mgrwt>
</event>
<event>
 6    1  0.5258538E-006  0.1681244E+03  0.7546771E-02  0.1186310E+00
          1   -1    0    0  501    0  0.00000000000E+00  0.00000000000E+00  0.44913096049E+02  0.44913096049E+02  0.00000000000E+00 0. -1.
         -1   -1    0    0    0  501 -0.00000000000E+00 -0.00000000000E+00 -0.54961341816E+03  0.54961341816E+03  0.00000000000E+00 0.  1.
          5    1    1    2  502    0  0.28087270731E+02 -0.10290870103E+02  0.71097383923E+01  0.31103619799E+02  0.47000000000E+01 0.  1.
         -5    1    1    2    0  502  0.78368507166E+02 -0.25869517611E+02 -0.25792198291E+03  0.27084440944E+03  0.47000000000E+01 0.  1.
        -11    1    1    2    0    0  0.12485984678E+02  0.22139545840E+02 -0.50870069701E+02  0.56866715175E+02  0.00000000000E+00 0.  1.
         11    1    1    2    0    0 -0.11894176258E+03  0.14020841875E+02 -0.20301800790E+03  0.23571176980E+03  0.00000000000E+00 0. -1.
<mgrwt>
<rscale>  0 0.16213210E+03</rscale>
<asrwt>0</asrwt>
<pdfrwt beam="1">  1        1 0.69097076E-02 0.16812445E+03</pdfrwt>
<pdfrwt beam="2">  1       -1 0.84555904E-01 0.16812445E+03</pdfrwt>
<totfact> 0.15195497E+03</totfact>
</mgrwt>
</event>
<event>
 6    1  0.5258538E-006  0.1253035E+03  0.7546771E-02  0.1250626E+00
          1   -1    0    0  501    0  0.00000000000E+00  0.00000000000E+00  0.50827995539E+03  0.50827995539E+03  0.00000000000E+00 0. -1.
         -1   -1    0    0    0  501 -0.00000000000E+00 -0.00000000000E+00 -0.24675153085E+02  0.24675153085E+02  0.00000000000E+00 0.  1.
          5    1    1    2  502    0 -0.18936640586E+02 -0.26882416994E+02  0.15845489261E+02  0.36802584556E+02  0.47000000000E+01 0. -1.
         -5    1    1    2    0  502  0.14265380545E+02  0.19633435617E+02  0.33208168470E+03  0.33300046275E+03  0.47000000000E+01 0. -1.
        -11    1    1    2    0    0 -0.35977317891E+01  0.25332416263E+02  0.14040183785E+03  0.14271422865E+03  0.00000000000E+00 0. -1.
         11    1    1    2    0    0  0.82689918306E+01 -0.18083434886E+02 -0.47242094965E+01  0.20437832530E+02  0.00000000000E+00 0.  1.
<mgrwt>
<rscale>  0 0.11554909E+03</rscale>
<asrwt>0</asrwt>
<pdfrwt beam="1">  1        1 0.78196909E-01 0.12530353E+03</pdfrwt>
<pdfrwt beam="2">  1       -1 0.37961778E-02 0.12530353E+03</pdfrwt>
<totfact> 0.11100261E+04</totfact>
</mgrwt>
</event>
<event>
 6    1  0.5258538E-006  0.2271722E+03  0.7546771E-02  0.1131759E+00
          2   -1    0    0  501    0  0.00000000000E+00  0.00000000000E+00  0.65099129568E+03  0.65099129568E+03  0.00000000000E+00 0. -1.
         -2   -1    0    0    0  501 -0.00000000000E+00 -0.00000000000E+00 -0.73710529968E+02  0.73710529968E+02  0.00000000000E+00 0.  1.
          5    1    1    2  502    0 -0.34600234195E+02  0.13319346511E+01  0.97633027878E+02  0.10369787071E+03  0.47000000000E+01 0.  1.
         -5    1    1    2    0  502 -0.69601494126E+01  0.18374260386E+03  0.21890324820E+03  0.28592046136E+03  0.47000000000E+01 0.  1.
        -11    1    1    2    0    0 -0.16303290406E+02 -0.12818886790E+03  0.16504718659E+03  0.20961573636E+03  0.00000000000E+00 0.  1.
         11    1    1    2    0    0  0.57863674013E+02 -0.56885670612E+02  0.95697303051E+02  0.12546775722E+03  0.00000000000E+00 0. -1.
<mgrwt>
<rscale>  0 0.22287362E+03</rscale>
<asrwt>0</asrwt>
<pdfrwt beam="1">  1        2 0.10015250E+00 0.22717225E+03</pdfrwt>
<pdfrwt beam="2">  1       -2 0.11340082E-01 0.22717225E+03</pdfrwt>
<totfact> 0.24679861E+03</totfact>
</mgrwt>
</event>
<event>
 6    1  0.5258538E-006  0.1872706E+03  0.7546771E-02  0.1165940E+00
          1   -1    0    0  501    0  0.00000000000E+00  0.00000000000E+00  0.27370320007E+03  0.27370320007E+03  0.00000000000E+00 0. -1.
         -1   -1    0    0    0  501 -0.00000000000E+00 -0.00000000000E+00 -0.11533095312E+03  0.11533095312E+03  0.00000000000E+00 0.  1.
          5    1    1    2  502    0 -0.17645320797E+02 -0.16839692245E+02  0.19775383971E+02  0.31750407748E+02  0.47000000000E+01 0.  1.
         -5    1    1    2    0  502  0.65448471985E+02  0.14783329081E+03  0.80118017366E+02  0.18049701123E+03  0.47000000000E+01 0.  1.
        -11    1    1    2    0    0 -0.45979363191E+02 -0.10351797607E+03  0.82592995171E+02  0.14018443587E+03  0.00000000000E+00 0. -1.
         11    1    1    2    0    0 -0.18237879969E+01 -0.27475622493E+02 -0.24114149558E+02  0.36602298329E+02  0.00000000000E+00 0.  1.
<mgrwt>
<rscale>  0 0.18193812E+03</rscale>
<asrwt>0</asrwt>
<pdfrwt beam="1">  1        1 0.42108184E-01 0.18727059E+03</pdfrwt>
<pdfrwt beam="2">  1       -1 0.17743224E-01 0.18727059E+03</pdfrwt>
<totfact> 0.23783035E+03</totfact>
</mgrwt>
</event>
<event>
 6    1  0.5258538E-006  0.1355003E+03  0.7546771E-02  0.1231147E+00
         -2   -1    0    0    0  501 -0.00000000000E+00  0.00000000000E+00  0.11416491933E+03  0.11416491933E+03  0.00000000000E+00 0. -1.
          2   -1    0    0  501    0  0.00000000000E+00 -0.00000000000E+00 -0.13102325079E+03  0.13102325079E+03  0.00000000000E+00 0.  1.
          5    1    1    2  502    0  0.72322587493E+02  0.13565874289E+02  0.21507281122E+02  0.76806528031E+02  0.47000000000E+01 0. -1.
         -5    1    1    2    0  502 -0.22400693376E+02 -0.29062522816E+02 -0.49097423581E+02  0.61474127066E+02  0.47000000000E+01 0. -1.
        -11    1    1    2    0    0 -0.76076084287E+02  0.28617327705E+00  0.89192882048E+01  0.76597690551E+02  0.00000000000E+00 0.  1.
         11    1    1    2    0    0  0.26154190171E+02  0.15210475250E+02  0.18125227971E+01  0.30309824475E+02  0.00000000000E+00 0. -1.
<mgrwt>
<rscale>  0 0.12754322E+03</rscale>
<asrwt>0</asrwt>
<pdfrwt beam="2">  1        2 0.20157423E-01 0.13550027E+03</pdfrwt>
<pdfrwt beam="1">  1       -2 0.17563834E-01 0.13550027E+03</pdfrwt>
<totfact> 0.68471128E+03</totfact>
</mgrwt>
</event>
<event>
 6    1  0.5258538E-006  0.1273582E+03  0.7546771E-02  0.1246366E+00
         -2   -1    0    0    0  501 -0.00000000000E+00  0.00000000000E+00  0.54713784319E+03  0.54713784319E+03  0.00000000000E+00 0.  1.
          2   -1    0    0  501    0  0.00000000000E+00 -0.00000000000E+00 -0.22397177556E+02  0.22397177556E+02  0.00000000000E+00 0. -1.
          5    1    1    2  502    0  0.39946107989E+02  0.10446296013E+02  0.25551855639E+03  0.25887572173E+03  0.47000000000E+01 0.  1.
         -5    1    1    2    0  502 -0.46455660116E+02  0.13107728212E+02  0.39812593132E+02  0.62746103206E+02  0.47000000000E+01 0.  1.
        -11    1    1    2    0    0 -0.35741313566E+02 -0.17075252821E+02  0.51669762367E+02  0.65105837661E+02  0.00000000000E+00 0. -1.
         11    1    1    2    0    0  0.42250865693E+02 -0.64787714029E+01  0.17773975374E+03  0.18280735814E+03  0.00000000000E+00 0.  1.
<mgrwt>
<rscale>  0 0.11803993E+03</rscale>
<asrwt>0</asrwt>
<pdfrwt beam="2">  1        2 0.34457200E-02 0.12735820E+03</pdfrwt>
<pdfrwt beam="1">  1       -2 0.84175043E-01 0.12735820E+03</pdfrwt>
<totfact> 0.31287444E+03</totfact>
</mgrwt>
</event>
<event>
 6    1  0.5258538E-006  0.3526894E+03  0.7546771E-02  0.1062589E+00
         -2   -1    0    0    0  501 -0.00000000000E+00  0.00000000000E+00  0.58038040011E+03  0.58038040011E+03  0.00000000000E+00 0.  1.
          2   -1    0    0  501    0  0.00000000000E+00 -0.00000000000E+00 -0.37947350397E+03  0.37947350397E+03  0.00000000000E+00 0. -1.
          5    1    1    2  502    0 -0.39039923340E+02 -0.32787686867E+02 -0.76673124252E+02  0.92195477150E+02  0.47000000000E+01 0.  1.
         -5    1    1    2    0  502 -0.40779666053E+02 -0.28720147329E+03 -0.14459006880E+03  0.32415435431E+03  0.47000000000E+01 0.  1.
        -11    1    1    2    0    0  0.40596101876E+01  0.19673578574E+03  0.22425635015E+03  0.29834939317E+03  0.00000000000E+00 0.  1.
         11    1    1    2    0    0  0.75759979205E+02  0.12325337442E+03  0.19791373904E+03  0.24515467945E+03  0.00000000000E+00 0. -1.
<mgrwt>
<rscale>  0 0.35006275E+03</rscale>
<asrwt>0</asrwt>
<pdfrwt beam="2">  1        2 0.58380539E-01 0.35268936E+03</pdfrwt>
<pdfrwt beam="1">  1       -2 0.89289292E-01 0.35268936E+03</pdfrwt>
<totfact> 0.94277737E+01</totfact>
</mgrwt>
</event>
<event>
 6    1  0.5258538E-006  0.3294093E+03  0.7546771E-02  0.1071399E+00
          3   -1    0    0  501    0  0.00000000000E+00  0.00000000000E+00  0.25027565720E+02  0.25027565720E+02  0.00000000000E+00 0. -1.
         -3   -1    0    0    0  501 -0.00000000000E+00 -0.00000000000E+00 -0.10839099263E+04  0.10839099263E+04  0.00000000000E+00 0.  1.
          5    1    1    2  502    0  0.81546841698E+01  0.18909200353E+02 -0.33054664534E+01  0.21379261923E+02  0.47000000000E+01 0.  1.
         -5    1    1    2    0  502  0.32416482818E+02 -0.10836606184E+03 -0.30848271232E+03  0.32859961277E+03  0.47000000000E+01 0.  1.
        -11    1    1    2    0    0 -0.36333979345E+02 -0.70134583547E+01 -0.22070302476E+03  0.22378376123E+03  0.00000000000E+00 0. -1.
         11    1    1    2    0    0 -0.42371876434E+01  0.96470319845E+02 -0.52639115702E+03  0.53517485606E+03  0.00000000000E+00 0.  1.
<mgrwt>
<rscale>  0 0.32940933E+03</rscale>
<asrwt>0</asrwt>
<pdfrwt beam="1">  1        3 0.38503956E-02 0.32940933E+03</pdfrwt>
<pdfrwt beam="2">  1       -3 0.16675534E+00 0.32940933E+03</pdfrwt>
<totfact> 0.23017644E+02</totfact>
</mgrwt>
</event>
<event>
 6    1  0.5258538E-006  0.1520685E+03  0.7546771E-02  0.1205534E+00
          1   -1    0    0  501    0  0.00000000000E+00  0.00000000000E+00  0.93521020002E+02  0.93521020002E+02  0.00000000000E+00 0. -1.
         -1   -1    0    0    0  501 -0.00000000000E+00 -0.00000000000E+00 -0.22336159921E+03  0.22336159921E+03  0.00000000000E+00 0.  1.
          5    1    1    2  502    0  0.24175755876E+02  0.31847816013E+02 -0.30471133493E+02  0.50490895549E+02  0.47000000000E+01 0. -1.
         -5    1    1    2    0  502  0.27495614321E+02 -0.10135166579E+03 -0.27079378516E+01  0.10515508496E+03  0.47000000000E+01 0. -1.
        -11    1    1    2    0    0 -0.25547833324E+02  0.19126949149E+02 -0.99425393642E+02  0.10442193674E+03  0.00000000000E+00 0.  1.
         11    1    1    2    0    0 -0.26123536873E+02  0.50376900624E+02  0.27638857778E+01  0.56814701969E+02  0.00000000000E+00 0. -1.
<mgrwt>
<rscale>  0 0.14595487E+03</rscale>
<asrwt>0</asrwt>
<pdfrwt beam="1">  1        1 0.14387849E-01 0.15206847E+03</pdfrwt>
<pdfrwt beam="2">  1       -1 0.34363323E-01 0.15206847E+03</pdfrwt>
<totfact> 0.30849968E+03</totfact>
</mgrwt>
</event>
<event>
 6    1  0.5258538E-006  0.2317717E+03  0.7546771E-02  0.1125399E+00
          1   -1    0    0  501    0  0.00000000000E+00  0.00000000000E+00  0.11175749635E+03  0.11175749635E+03  0.00000000000E+00 0. -1.
         -1   -1    0    0    0  501 -0.00000000000E+00 -0.00000000000E+00 -0.12016666642E+03  0.12016666642E+03  0.00000000000E+00 0.  1.
          5    1    1    2  502    0 -0.61280012249E+01  0.12937360855E+02 -0.51135150867E+02  0.53308736237E+02  0.47000000000E+01 0. -1.
         -5    1    1    2    0  502 -0.84052473734E+01 -0.36110673675E+02  0.65546574017E+02  0.75452450604E+02  0.47000000000E+01 0. -1.
        -11    1    1    2    0    0  0.18929295867E+02  0.62876540557E+01  0.36355671341E+02  0.41467911380E+02  0.00000000000E+00 0. -1.
         11    1    1    2    0    0 -0.43960472688E+01  0.16885658765E+02 -0.59176264561E+02  0.61695064558E+02  0.00000000000E+00 0.  1.
<mgrwt>
<rscale>  0 0.23177166E+03</rscale>
<asrwt>0</asrwt>
<pdfrwt beam="1">  1        1 0.17193461E-01 0.23177166E+03</pdfrwt>
<pdfrwt beam="2">  1       -1 0.18487179E-01 0.23177166E+03</pdfrwt>
<totfact> 0.70061252E+03</totfact>
</mgrwt>
</event>
<event>
 6    1  0.5258538E-006  0.1352030E+03  0.7546771E-02  0.1232907E+00
          2   -1    0    0  501    0  0.00000000000E+00  0.00000000000E+00  0.12118071945E+04  0.12118071945E+04  0.00000000000E+00 0. -1.
         -2   -1    0    0    0  501 -0.00000000000E+00 -0.00000000000E+00 -0.19239090522E+02  0.19239090522E+02  0.00000000000E+00 0.  1.
          5    1    1    2  502    0  0.83721479496E+02  0.74754507975E+01  0.62999994186E+03  0.63559986252E+03  0.47000000000E+01 0. -1.
         -5    1    1    2    0  502 -0.44001615419E+02  0.25335701981E+02  0.39737601900E+03  0.40063428514E+03  0.47000000000E+01 0. -1.
        -11    1    1    2    0    0  0.11487057747E+01  0.27891343698E+02  0.29297736688E+02  0.40467319571E+02  0.00000000000E+00 0.  1.
         11    1    1    2    0    0 -0.40868569852E+02 -0.60702496476E+02  0.13589440646E+03  0.15434481781E+03  0.00000000000E+00 0. -1.
<mgrwt>
<rscale>  0 0.12639394E+03</rscale>
<asrwt>0</asrwt>
<pdfrwt beam="1">  1        2 0.18643182E+00 0.13520297E+03</pdfrwt>
<pdfrwt beam="2">  1       -2 0.29598610E-02 0.13520297E+03</pdfrwt>
<totfact> 0.82648349E+03</totfact>
</mgrwt>
</event>
<event>
 6    1  0.5258538E-006  0.1335928E+03  0.7546771E-02  0.1236076E+00
          3   -1    0    0  501    0  0.00000000000E+00  0.00000000000E+00  0.26376210095E+03  0.26376210095E+03  0.00000000000E+00 0. -1.
         -3   -1    0    0    0  501 -0.00000000000E+00 -0.00000000000E+00 -0.63297703728E+02  0.63297703728E+02  0.00000000000E+00 0.  1.
          5    1    1    2  502    0 -0.78719531238E+01 -0.63985372274E+02  0.19224720425E+03  0.20282300918E+03  0.47000000000E+01 0. -1.
         -5    1    1    2    0  502  0.70532077207E+01  0.16847610331E+02 -0.11384209907E+02  0.22029070525E+02  0.47000000000E+01 0. -1.
        -11    1    1    2    0    0 -0.21906140416E+02 -0.19806980004E+02  0.39106491711E+01  0.29790747251E+02  0.00000000000E+00 0.  1.
         11    1    1    2    0    0  0.22724885819E+02  0.66944741947E+02  0.15690753703E+02  0.72416977717E+02  0.00000000000E+00 0. -1.
<mgrwt>
<rscale>  0 0.12435805E+03</rscale>
<asrwt>0</asrwt>
<pdfrwt beam="1">  1        3 0.40578784E-01 0.13359280E+03</pdfrwt>
<pdfrwt beam="2">  1       -3 0.97381084E-02 0.13359280E+03</pdfrwt>
<totfact> 0.10710016E+03</totfact>
</mgrwt>
</event>
<event>
 6    1  0.5258538E-006  0.2961904E+03  0.7546771E-02  0.1087161E+00
          2   -1    0    0  501    0  0.00000000000E+00  0.00000000000E+00  0.26537603076E+03  0.26537603076E+03  0.00000000000E+00 0.  1.
         -2   -1    0    0    0  501 -0.00000000000E+00 -0.00000000000E+00 -0.82645718426E+02  0.82645718426E+02  0.00000000000E+00 0. -1.
          5    1    1    2  502    0 -0.10628287956E+03 -0.60709465002E+02  0.88361058140E+02  0.15103461929E+03  0.47000000000E+01 0. -1.
         -5    1    1    2    0  502  0.35603908958E+02 -0.98932513768E+01  0.20771695709E+02  0.42650534563E+02  0.47000000000E+01 0. -1.
        -11    1    1    2    0    0  0.59357089699E+02  0.17029863507E+02 -0.10487187069E+01  0.61760668386E+02  0.00000000000E+00 0.  1.
         11    1    1    2    0    0  0.11321880900E+02  0.53572852871E+02  0.74646277189E+02  0.92575926947E+02  0.00000000000E+00 0. -1.
<mgrwt>
<rscale>  0 0.29619043E+03</rscale>
<asrwt>0</asrwt>
<pdfrwt beam="1">  1        2 0.40827081E-01 0.29619043E+03</pdfrwt>
<pdfrwt beam="2">  1       -2 0.12714726E-01 0.29619043E+03</pdfrwt>
<totfact> 0.56018215E+03</totfact>
</mgrwt>
</event>
<event>
 6    1  0.5258538E-006  0.1436733E+03  0.7546771E-02  0.1220278E+00
          2   -1    0    0  501    0  0.00000000000E+00  0.00000000000E+00  0.33027362918E+03  0.33027362918E+03  0.00000000000E+00 0. -1.
         -2   -1    0    0    0  501 -0.00000000000E+00 -0.00000000000E+00 -0.60653880007E+02  0.60653880007E+02  0.00000000000E+00 0.  1.
          5    1    1    2  502    0  0.82155943945E+02  0.15573190019E+02  0.10251979078E+03  0.13238021330E+03  0.47000000000E+01 0. -1.
         -5    1    1    2    0  502 -0.20451449326E+02 -0.50349354111E+02  0.12952805937E+03  0.14054510808E+03  0.47000000000E+01 0. -1.
        -11    1    1    2    0    0 -0.51387150198E+02 -0.80630029730E+01 -0.10205313073E+02  0.53007543212E+02  0.00000000000E+00 0.  1.
         11    1    1    2    0    0 -0.10317344421E+02  0.42839167065E+02  0.47777212095E+02  0.64994644597E+02  0.00000000000E+00 0. -1.
<mgrwt>
<rscale>  0 0.13495896E+03</rscale>
<asrwt>0</asrwt>
<pdfrwt beam="1">  1        2 0.50811327E-01 0.14367333E+03</pdfrwt>
<pdfrwt beam="2">  1       -2 0.93313663E-02 0.14367333E+03</pdfrwt>
<totfact> 0.69836896E+03</totfact>
</mgrwt>
</event>
<event>
 6    1  0.5258538E-006  0.1408226E+03  0.7546771E-02  0.1223648E+00
          1   -1    0    0  501    0  0.00000000000E+00  0.00000000000E+00  0.33667884482E+02  0.33667884482E+02  0.00000000000E+00 0. -1.
         -1   -1    0    0    0  501 -0.00000000000E+00 -0.00000000000E+00 -0.50830493376E+03  0.50830493376E+03  0.00000000000E+00 0.  1.
          5    1    1    2  502    0  0.60058054242E+02 -0.24369607841E+02 -0.32489257406E+02  0.72653214055E+02  0.47000000000E+01 0.  1.
         -5    1    1    2    0  502 -0.30476809228E+02 -0.33345529034E+02 -0.15697752155E+03  0.16341601047E+03  0.47000000000E+01 0.  1.
        -11    1    1    2    0    0  0.10308596146E+02  0.65141594137E+02 -0.21453681122E+03  0.22444540051E+03  0.00000000000E+00 0. -1.
         11    1    1    2    0    0 -0.39889841160E+02 -0.74264572622E+01 -0.70633459098E+02  0.81458193200E+02  0.00000000000E+00 0.  1.
<mgrwt>
<rscale>  0 0.13259991E+03</rscale>
<asrwt>0</asrwt>
<pdfrwt beam="1">  1        1 0.51796743E-02 0.14082265E+03</pdfrwt>
<pdfrwt beam="2">  1       -1 0.78200763E-01 0.14082265E+03</pdfrwt>
<totfact> 0.26239613E+03</totfact>
</mgrwt>
</event>
<event>
 6    1  0.5258538E-006  0.1309202E+03  0.7546771E-02  0.1240972E+00
          1   -1    0    0  501    0  0.00000000000E+00  0.00000000000E+00  0.12661394833E+04  0.12661394833E+04  0.00000000000E+00 0. -1.
         -1   -1    0    0    0  501 -0.00000000000E+00 -0.00000000000E+00 -0.11832706804E+02  0.11832706804E+02  0.00000000000E+00 0.  1.
          5    1    1    2  502    0  0.42675070804E+02  0.36372399897E+02  0.18875009125E+03  0.19695887918E+03  0.47000000000E+01 0.  1.
         -5    1    1    2    0  502 -0.36903057675E+01 -0.34929313524E+02  0.75471574230E+03  0.75554723014E+03  0.47000000000E+01 0.  1.
        -11    1    1    2    0    0 -0.60346426106E+02 -0.24334112808E+02  0.21634056488E+03  0.22591387785E+03  0.00000000000E+00 0.  1.
         11    1    1    2    0    0  0.21361661070E+02  0.22891026435E+02  0.94500378111E+02  0.99552202980E+02  0.00000000000E+00 0. -1.
<mgrwt>
<rscale>  0 0.12129724E+03</rscale>
<asrwt>0</asrwt>
<pdfrwt beam="1">  1        1 0.19479058E+00 0.13092024E+03</pdfrwt>
<pdfrwt beam="2">  1       -1 0.18204174E-02 0.13092024E+03</pdfrwt>
<totfact> 0.78715701E+03</totfact>
</mgrwt>
</event>
<event>
 6    1  0.5258538E-006  0.1117113E+03  0.7546771E-02  0.1266793E+00
          1   -1    0    0  501    0  0.00000000000E+00  0.00000000000E+00  0.21933622803E+03  0.21933622803E+03  0.00000000000E+00 0. -1.
         -1   -1    0    0    0  501 -0.00000000000E+00 -0.00000000000E+00 -0.59298184711E+02  0.59298184711E+02  0.00000000000E+00 0.  1.
          5    1    1    2  502    0  0.53548524473E+01 -0.26741929029E+02  0.15906441607E+03  0.16145396766E+03  0.47000000000E+01 0. -1.
         -5    1    1    2    0  502 -0.12473705115E+02  0.14926449659E+02 -0.11918767754E+02  0.23292471820E+02  0.47000000000E+01 0.  1.
        -11    1    1    2    0    0  0.47324078820E+02  0.92472219052E+01 -0.73920209884E+01  0.48782389481E+02  0.00000000000E+00 0.  1.
         11    1    1    2    0    0 -0.40205226153E+02  0.25682574648E+01  0.20284415994E+02  0.45105583786E+02  0.00000000000E+00 0. -1.
<mgrwt>
<rscale>  0 0.10670673E+03</rscale>
<asrwt>0</asrwt>
<pdfrwt beam="1">  1        1 0.33744035E-01 0.11171126E+03</pdfrwt>
<pdfrwt beam="2">  1       -1 0.91227978E-02 0.11171126E+03</pdfrwt>
<totfact> 0.85438781E+03</totfact>
</mgrwt>
</event>
<event>
 6    1  0.5258538E-006  0.1453793E+03  0.7546771E-02  0.1215140E+00
         -2   -1    0    0    0  501 -0.00000000000E+00  0.00000000000E+00  0.40628306961E+02  0.40628306961E+02  0.00000000000E+00 0. -1.
          2   -1    0    0  501    0  0.00000000000E+00 -0.00000000000E+00 -0.44619758728E+03  0.44619758728E+03  0.00000000000E+00 0.  1.
          5    1    1    2  502    0 -0.87317728980E+02 -0.56078305601E+02 -0.13643542090E+03  0.17148141657E+03  0.47000000000E+01 0. -1.
         -5    1    1    2    0  502  0.40924642943E+02 -0.18860340266E+01 -0.45554177810E+02  0.61446372068E+02  0.47000000000E+01 0. -1.
        -11    1    1    2    0    0 -0.47733348797E+01  0.90705765888E+01  0.71900401745E+01  0.12520254120E+02  0.00000000000E+00 0. -1.
         11    1    1    2    0    0  0.51166420917E+02  0.48893763039E+02 -0.23076972179E+03  0.24137785148E+03  0.00000000000E+00 0.  1.
<mgrwt>
<rscale>  0 0.13866262E+03</rscale>
<asrwt>0</asrwt>
<pdfrwt beam="2">  1        2 0.68645785E-01 0.14537930E+03</pdfrwt>
<pdfrwt beam="1">  1       -2 0.62505085E-02 0.14537930E+03</pdfrwt>
<totfact> 0.93977999E+03</totfact>
</mgrwt>
</event>
<event>
 6    1  0.5258538E-006  0.2339406E+03  0.7546771E-02  0.1123897E+00
         -1   -1    0    0    0  501 -0.00000000000E+00  0.00000000000E+00  0.17141492779E+03  0.17141492779E+03  0.00000000000E+00 0.  1.
          1   -1    0    0  501    0  0.00000000000E+00 -0.00000000000E+00 -0.79818321529E+02  0.79818321529E+02  0.00000000000E+00 0. -1.
          5    1    1    2  502    0  0.42466264852E+02 -0.60042616919E+01  0.87156464266E+02  0.97251087770E+02  0.47000000000E+01 0. -1.
         -5    1    1    2    0  502 -0.15543189121E+02  0.16743314237E+02 -0.34341099233E+02  0.41513014781E+02  0.47000000000E+01 0. -1.
        -11    1    1    2    0    0 -0.48208144533E+02  0.31881296101E+02  0.24084416026E+02  0.62613906887E+02  0.00000000000E+00 0.  1.
         11    1    1    2    0    0  0.21285068802E+02 -0.42620348645E+02  0.14696825202E+02  0.49855239881E+02  0.00000000000E+00 0. -1.
<mgrwt>
<rscale>  0 0.23394061E+03</rscale>
<asrwt>0</asrwt>
<pdfrwt beam="2">  1        1 0.12279742E-01 0.23394061E+03</pdfrwt>
<pdfrwt beam="1">  1       -1 0.26371527E-01 0.23394061E+03</pdfrwt>
<totfact> 0.60900543E+03</totfact>
</mgrwt>
</event>
<event>
 6    1  0.5258538E-006  0.1826809E+03  0.7546771E-02  0.1170477E+00
          1   -1    0    0  501    0  0.00000000000E+00  0.00000000000E+00  0.24496873012E+04  0.24496873012E+04  0.00000000000E+00 0. -1.
         -1   -1    0    0    0  501 -0.00000000000E+00 -0.00000000000E+00 -0.18831017607E+02  0.18831017607E+02  0.00000000000E+00 0.  1.
          5    1    1    2  502    0 -0.68914489279E+02 -0.91844990747E+02  0.11095274423E+04  0.11154631076E+04  0.47000000000E+01 0.  1.
         -5    1    1    2    0  502 -0.52932190026E+02  0.37983771431E+02  0.88880714445E+03  0.89120413692E+03  0.47000000000E+01 0.  1.
        -11    1    1    2    0    0  0.69542146221E+01  0.32526376051E+02  0.38558652980E+02  0.50922450448E+02  0.00000000000E+00 0.  1.
         11    1    1    2    0    0  0.11489246468E+03  0.21334843266E+02  0.39396304387E+03  0.41092862386E+03  0.00000000000E+00 0. -1.
<mgrwt>
<rscale>  0 0.17726481E+03</rscale>
<asrwt>0</asrwt>
<pdfrwt beam="1">  1        1 0.37687472E+00 0.18268090E+03</pdfrwt>
<pdfrwt beam="2">  1       -1 0.28970816E-02 0.18268090E+03</pdfrwt>
<totfact> 0.68972161E+02</totfact>
</mgrwt>
</event>
<event>
 6    1  0.5258538E-006  0.1284266E+03  0.7546771E-02  0.1243725E+00
          2   -1    0    0  501    0  0.00000000000E+00  0.00000000000E+00  0.83832384007E+02  0.83832384007E+02  0.00000000000E+00 0. -1.
         -2   -1    0    0    0  501 -0.00000000000E+00 -0.00000000000E+00 -0.15120062594E+03  0.15120062594E+03  0.00000000000E+00 0.  1.
          5    1    1    2  502    0  0.47928850478E+02 -0.22870665416E+02 -0.43684817722E+02  0.68925288132E+02  0.47000000000E+01 0. -1.
         -5    1    1    2    0  502 -0.63494016822E+02 -0.21921627836E+01  0.84087516248E+01  0.64258017817E+02  0.47000000000E+01 0. -1.
        -11    1    1    2    0    0  0.14132585201E+01  0.53955722412E+02  0.32312156262E+01  0.54070861239E+02  0.00000000000E+00 0. -1.
         11    1    1    2    0    0  0.14151907824E+02 -0.28892894213E+02 -0.35323391460E+02  0.47778842758E+02  0.00000000000E+00 0.  1.
<mgrwt>
<rscale>  0 0.11962024E+03</rscale>
<asrwt>0</asrwt>
<pdfrwt beam="1">  1        2 0.12897290E-01 0.12842660E+03</pdfrwt>
<pdfrwt beam="2">  1       -2 0.23261635E-01 0.12842660E+03</pdfrwt>
<totfact> 0.71117091E+03</totfact>
</mgrwt>
</event>
<event>
 6    1  0.5258538E-006  0.2481060E+03  0.7546771E-02  0.1116110E+00
         -1   -1    0    0    0  501 -0.00000000000E+00  0.00000000000E+00  0.62711108185E+02  0.62711108185E+02  0.00000000000E+00 0.  1.
          1   -1    0    0  501    0  0.00000000000E+00 -0.00000000000E+00 -0.15665259650E+04  0.15665259650E+04  0.00000000000E+00 0. -1.
          5    1    1    2  502    0 -0.87441360102E+02  0.13861107952E+03 -0.82337823302E+03  0.83954322547E+03  0.47000000000E+01 0.  1.
         -5    1    1    2    0  502  0.43376764188E+02  0.59412346947E+02 -0.43322369010E+03  0.43944991330E+03  0.47000000000E+01 0.  1.
        -11    1    1    2    0    0  0.57019794531E+02 -0.20009265313E+03 -0.25926746443E+03  0.33242735284E+03  0.00000000000E+00 0.  1.
         11    1    1    2    0    0 -0.12955198616E+02  0.20692266606E+01  0.12054530690E+02  0.17816581612E+02  0.00000000000E+00 0. -1.
<mgrwt>
<rscale>  0 0.24561089E+03</rscale>
<asrwt>0</asrwt>
<pdfrwt beam="2">  1        1 0.24100400E+00 0.24810598E+03</pdfrwt>
<pdfrwt beam="1">  1       -1 0.96478624E-02 0.24810598E+03</pdfrwt>
<totfact> 0.41923366E+02</totfact>
</mgrwt>
</event>
<event>
 6    1  0.5258538E-006  0.4185183E+03  0.7546771E-02  0.1037550E+00
          2   -1    0    0  501    0  0.00000000000E+00  0.00000000000E+00  0.21267392975E+03  0.21267392975E+03  0.00000000000E+00 0. -1.
         -2   -1    0    0    0  501 -0.00000000000E+00 -0.00000000000E+00 -0.20589917792E+03  0.20589917792E+03  0.00000000000E+00 0.  1.
          5    1    1    2  502    0  0.15206783490E+02  0.34616192087E+01 -0.29755384269E+02  0.33921998241E+02  0.47000000000E+01 0.  1.
         -5    1    1    2    0  502 -0.15016141987E+03  0.10473593506E+03 -0.11967084802E+02  0.18353029512E+03  0.47000000000E+01 0.  1.
        -11    1    1    2    0    0  0.36053457218E+02 -0.52544182851E+02 -0.22125652108E+02  0.67455818208E+02  0.00000000000E+00 0.  1.
         11    1    1    2    0    0  0.98901179157E+02 -0.55653371416E+02  0.70622873017E+02  0.13366499610E+03  0.00000000000E+00 0. -1.
<mgrwt>
<rscale>  0 0.41851828E+03</rscale>
<asrwt>0</asrwt>
<pdfrwt beam="1">  1        2 0.32719066E-01 0.41851828E+03</pdfrwt>
<pdfrwt beam="2">  1       -2 0.31676797E-01 0.41851828E+03</pdfrwt>
<totfact> 0.14846966E+03</totfact>
</mgrwt>
</event>
<event>
 6    1  0.5258538E-006  0.1363634E+03  0.7546771E-02  0.1230478E+00
          1   -1    0    0  501    0  0.00000000000E+00  0.00000000000E+00  0.15855232352E+03  0.15855232352E+03  0.00000000000E+00 0. -1.
         -1   -1    0    0    0  501 -0.00000000000E+00 -0.00000000000E+00 -0.12318872797E+03  0.12318872797E+03  0.00000000000E+00 0.  1.
          5    1    1    2  502    0  0.70160163681E+02 -0.54017251978E+02  0.41950560940E+02  0.98093076423E+02  0.47000000000E+01 0. -1.
         -5    1    1    2    0  502 -0.17344582067E+02  0.40605577337E+02  0.47323635519E+02  0.64894251800E+02  0.47000000000E+01 0. -1.
        -11    1    1    2    0    0 -0.96836152305E+01  0.42538324277E+02  0.26717501980E+00  0.43627431952E+02  0.00000000000E+00 0. -1.
         11    1    1    2    0    0 -0.43131966384E+02 -0.29126649637E+02 -0.54177775930E+02  0.75126291322E+02  0.00000000000E+00 0.  1.
<mgrwt>
<rscale>  0 0.12798432E+03</rscale>
<asrwt>0</asrwt>
<pdfrwt beam="1">  1        1 0.24392665E-01 0.13636344E+03</pdfrwt>
<pdfrwt beam="2">  1       -1 0.18952112E-01 0.13636344E+03</pdfrwt>
<totfact> 0.41730101E+03</totfact>
</mgrwt>
</event>
<event>
 6    1  0.5258538E-006  0.1328704E+03  0.7546771E-02  0.1235983E+00
         -1   -1    0    0    0  501 -0.00000000000E+00  0.00000000000E+00  0.34897873441E+03  0.34897873441E+03  0.00000000000E+00 0.  1.
          1   -1    0    0  501    0  0.00000000000E+00 -0.00000000000E+00 -0.39742689978E+02  0.39742689978E+02  0.00000000000E+00 0. -1.
          5    1    1    2  502    0 -0.53091334481E+02  0.49988574283E+01  0.11860732614E+02  0.54831061915E+02  0.47000000000E+01 0.  1.
         -5    1    1    2    0  502  0.17426448543E+02 -0.32583843617E+02  0.15012836540E+03  0.15468032865E+03  0.47000000000E+01 0.  1.
        -11    1    1    2    0    0 -0.17639944613E+02  0.23585273369E+02  0.11046305171E+03  0.11432199507E+03  0.00000000000E+00 0.  1.
         11    1    1    2    0    0  0.53304830550E+02  0.39997128191E+01  0.36783894717E+02  0.64888038753E+02  0.00000000000E+00 0. -1.
<mgrwt>
<rscale>  0 0.12441726E+03</rscale>
<asrwt>0</asrwt>
<pdfrwt beam="2">  1        1 0.61142602E-02 0.13287044E+03</pdfrwt>
<pdfrwt beam="1">  1       -1 0.53689034E-01 0.13287044E+03</pdfrwt>
<totfact> 0.43242779E+03</totfact>
</mgrwt>
</event>
<event>
 6    1  0.5258538E-006  0.2913377E+03  0.7546771E-02  0.1124366E+00
          1   -1    0    0  501    0  0.00000000000E+00  0.00000000000E+00  0.86754016157E+03  0.86754016157E+03  0.00000000000E+00 0. -1.
         -1   -1    0    0    0  501 -0.00000000000E+00 -0.00000000000E+00 -0.52736193432E+02  0.52736193432E+02  0.00000000000E+00 0.  1.
          5    1    1    2  502    0  0.75381045434E+02  0.14759614008E+03  0.57765011419E+03  0.60097310007E+03  0.47000000000E+01 0. -1.
         -5    1    1    2    0  502 -0.16874152077E+02 -0.92434610953E+02  0.10351254769E+03  0.13987791763E+03  0.47000000000E+01 0.  1.
        -11    1    1    2    0    0  0.17727002168E+01  0.19236048352E+02  0.44878196148E+02  0.48859190658E+02  0.00000000000E+00 0. -1.
         11    1    1    2    0    0 -0.60279593574E+02 -0.74397577476E+02  0.88763110109E+02  0.13056614665E+03  0.00000000000E+00 0.  1.
<mgrwt>
<rscale>  0 0.23326059E+03</rscale>
<asrwt>0</asrwt>
<pdfrwt beam="1">  1        1 0.13346771E+00 0.29133771E+03</pdfrwt>
<pdfrwt beam="2">  1       -1 0.81132612E-02 0.29133771E+03</pdfrwt>
<totfact> 0.17081411E+03</totfact>
</mgrwt>
</event>
<event>
 6    1  0.5258538E-006  0.1342344E+03  0.7546771E-02  0.1234201E+00
         -1   -1    0    0    0  501 -0.00000000000E+00  0.00000000000E+00  0.28291898675E+02  0.28291898675E+02  0.00000000000E+00 0.  1.
          1   -1    0    0  501    0  0.00000000000E+00 -0.00000000000E+00 -0.65661606838E+03  0.65661606838E+03  0.00000000000E+00 0. -1.
          5    1    1    2  502    0  0.74207870325E+02  0.29464214873E+02 -0.43640901967E+03  0.44367766501E+03  0.47000000000E+01 0. -1.
         -5    1    1    2    0  502 -0.39901407309E+02  0.54527594809E+01 -0.77402942003E+02  0.87379404449E+02  0.47000000000E+01 0. -1.
        -11    1    1    2    0    0 -0.11487881137E+02 -0.13755734267E+02  0.13291571796E+02  0.22312721014E+02  0.00000000000E+00 0.  1.
         11    1    1    2    0    0 -0.22818581880E+02 -0.21161240087E+02 -0.12780377982E+03  0.13153817658E+03  0.00000000000E+00 0. -1.
<mgrwt>
<rscale>  0 0.12555695E+03</rscale>
<asrwt>0</asrwt>
<pdfrwt beam="2">  1        1 0.10101786E+00 0.13423442E+03</pdfrwt>
<pdfrwt beam="1">  1       -1 0.43525997E-02 0.13423442E+03</pdfrwt>
<totfact> 0.64611826E+03</totfact>
</mgrwt>
</event>
<event>
 6    1  0.5258538E-006  0.3616575E+03  0.7546771E-02  0.1057929E+00
         -2   -1    0    0    0  501 -0.00000000000E+00  0.00000000000E+00  0.10476996163E+03  0.10476996163E+03  0.00000000000E+00 0.  1.
          2   -1    0    0  501    0  0.00000000000E+00 -0.00000000000E+00 -0.31210316487E+03  0.31210316487E+03  0.00000000000E+00 0. -1.
          5    1    1    2  502    0 -0.19321292654E+02  0.38879746419E+02 -0.16624633514E+03  0.17188624430E+03  0.47000000000E+01 0. -1.
         -5    1    1    2    0  502 -0.44105212166E+02  0.58387957743E+02 -0.16557923164E+02  0.75170992870E+02  0.47000000000E+01 0.  1.
        -11    1    1    2    0    0  0.50005459187E+02 -0.51911936417E+02  0.45551941513E+02  0.85266490878E+02  0.00000000000E+00 0.  1.
         11    1    1    2    0    0  0.13421045632E+02 -0.45355767745E+02 -0.70080886441E+02  0.84549398448E+02  0.00000000000E+00 0. -1.
<mgrwt>
<rscale>  0 0.36165750E+03</rscale>
<asrwt>0</asrwt>
<pdfrwt beam="2">  1        2 0.48015872E-01 0.36165750E+03</pdfrwt>
<pdfrwt beam="1">  1       -2 0.16118455E-01 0.36165750E+03</pdfrwt>
<totfact> 0.31924643E+03</totfact>
</mgrwt>
</event>
<event>
 6    1  0.5258538E-006  0.1382821E+03  0.7546771E-02  0.1226786E+00
         -2   -1    0    0    0  501 -0.00000000000E+00  0.00000000000E+00  0.23634423607E+03  0.23634423607E+03  0.00000000000E+00 0.  1.
          2   -1    0    0  501    0  0.00000000000E+00 -0.00000000000E+00 -0.76238786256E+02  0.76238786256E+02  0.00000000000E+00 0. -1.
          5    1    1    2  502    0  0.69163046657E+01 -0.43318804767E+02 -0.14754651554E+02  0.46520359620E+02  0.47000000000E+01 0. -1.
         -5    1    1    2    0  502  0.45305071041E+02  0.70932356346E+02  0.42944531337E+02  0.94605874081E+02  0.47000000000E+01 0. -1.
        -11    1    1    2    0    0 -0.73609848170E+02 -0.25611683637E+02  0.66000435456E+02  0.10212945494E+03  0.00000000000E+00 0.  1.
         11    1    1    2    0    0  0.21388472463E+02 -0.20018679424E+01  0.65915134573E+02  0.69327333681E+02  0.00000000000E+00 0. -1.
<mgrwt>
<rscale>  0 0.13045261E+03</rscale>
<asrwt>0</asrwt>
<pdfrwt beam="2">  1        2 0.11729044E-01 0.13828212E+03</pdfrwt>
<pdfrwt beam="1">  1       -2 0.36360651E-01 0.13828212E+03</pdfrwt>
<totfact> 0.36010569E+03</totfact>
</mgrwt>
</event>
<event>
 6    1  0.5258538E-006  0.2475810E+03  0.7546771E-02  0.1117129E+00
          2   -1    0    0  501    0  0.00000000000E+00  0.00000000000E+00  0.19585141694E+04  0.19585141694E+04  0.00000000000E+00 0.  1.
         -2   -1    0    0    0  501 -0.00000000000E+00 -0.00000000000E+00 -0.30564530317E+02  0.30564530317E+02  0.00000000000E+00 0. -1.
          5    1    1    2  502    0  0.57009407611E+02  0.25276664206E+02  0.68055264677E+03  0.68342005922E+03  0.47000000000E+01 0. -1.
         -5    1    1    2    0  502  0.14664967346E+03  0.39484281902E+02  0.48952578448E+03  0.51256484362E+03  0.47000000000E+01 0. -1.
        -11    1    1    2    0    0 -0.15646365549E+03 -0.24576524024E+02  0.40589651300E+03  0.43570272008E+03  0.00000000000E+00 0. -1.
         11    1    1    2    0    0 -0.47195425581E+02 -0.40184422084E+02  0.35197469480E+03  0.35739107677E+03  0.00000000000E+00 0.  1.
<mgrwt>
<rscale>  0 0.24404274E+03</rscale>
<asrwt>0</asrwt>
<pdfrwt beam="1">  1        2 0.30130977E+00 0.24758100E+03</pdfrwt>
<pdfrwt beam="2">  1       -2 0.47022370E-02 0.24758100E+03</pdfrwt>
<totfact> 0.16824866E+03</totfact>
</mgrwt>
</event>
<event>
 6    1  0.5258538E-006  0.1407100E+03  0.7546771E-02  0.1223302E+00
          2   -1    0    0  501    0  0.00000000000E+00  0.00000000000E+00  0.21803166958E+04  0.21803166958E+04  0.00000000000E+00 0. -1.
         -2   -1    0    0    0  501 -0.00000000000E+00 -0.00000000000E+00 -0.89831662415E+01  0.89831662415E+01  0.00000000000E+00 0.  1.
          5    1    1    2  502    0  0.22957250739E+02 -0.96172869072E+02  0.13172945788E+04  0.13210084608E+04  0.47000000000E+01 0.  1.
         -5    1    1    2    0  502  0.58632230112E+01  0.38430790159E+02  0.33959411991E+03  0.34184434951E+03  0.47000000000E+01 0.  1.
        -11    1    1    2    0    0  0.32107124648E+02  0.10965109447E+02  0.19238248598E+03  0.19535127844E+03  0.00000000000E+00 0. -1.
         11    1    1    2    0    0 -0.60927598398E+02  0.46776969467E+02  0.32206234483E+03  0.33109577327E+03  0.00000000000E+00 0.  1.
<mgrwt>
<rscale>  0 0.13283948E+03</rscale>
<asrwt>0</asrwt>
<pdfrwt beam="1">  1        2 0.33543292E+00 0.14071002E+03</pdfrwt>
<pdfrwt beam="2">  1       -2 0.13820273E-02 0.14071002E+03</pdfrwt>
<totfact> 0.78546788E+03</totfact>
</mgrwt>
</event>
<event>
 6    1  0.5258538E-006  0.1250123E+03  0.7546771E-02  0.1243744E+00
          2   -1    0    0  501    0  0.00000000000E+00  0.00000000000E+00  0.73507381086E+03  0.73507381086E+03  0.00000000000E+00 0. -1.
         -2   -1    0    0    0  501 -0.00000000000E+00 -0.00000000000E+00 -0.19877328672E+02  0.19877328672E+02  0.00000000000E+00 0.  1.
          5    1    1    2  502    0 -0.57536647323E+02 -0.16185921420E+02  0.33958299685E+03  0.34483496283E+03  0.47000000000E+01 0. -1.
         -5    1    1    2    0  502  0.55808477668E+02  0.15790717445E+02  0.16344601980E+03  0.17349531500E+03  0.47000000000E+01 0. -1.
        -11    1    1    2    0    0 -0.40463182211E+02  0.24158656752E+02  0.56384573496E+02  0.73485576401E+02  0.00000000000E+00 0.  1.
         11    1    1    2    0    0  0.42191351867E+02 -0.23763452777E+02  0.15578289204E+03  0.16313528531E+03  0.00000000000E+00 0. -1.
<mgrwt>
<rscale>  0 0.11960856E+03</rscale>
<asrwt>0</asrwt>
<pdfrwt beam="1">  1        2 0.11308826E+00 0.12501234E+03</pdfrwt>
<pdfrwt beam="2">  1       -2 0.30580511E-02 0.12501234E+03</pdfrwt>
<totfact> 0.15363532E+04</totfact>
</mgrwt>
</event>
<event>
 6    1  0.5258538E-006  0.1527709E+03  0.7546771E-02  0.1204910E+00
          2   -1    0    0  501    0  0.00000000000E+00  0.00000000000E+00  0.34461316265E+03  0.34461316265E+03  0.00000000000E+00 0. -1.
         -2   -1    0    0    0  501 -0.00000000000E+00 -0.00000000000E+00 -0.59278768454E+02  0.59278768454E+02  0.00000000000E+00 0.  1.
          5    1    1    2  502    0  0.28773894228E+02 -0.77134930898E+02  0.13933630916E+03  0.16190871380E+03  0.47000000000E+01 0.  1.
         -5    1    1    2    0  502 -0.63710633025E+02 -0.34465790857E+01  0.48925572853E+02  0.80540209503E+02  0.47000000000E+01 0.  1.
        -11    1    1    2    0    0 -0.10930713331E+02  0.82036490537E+02  0.56701069861E+02  0.10032186998E+03  0.00000000000E+00 0.  1.
         11    1    1    2    0    0  0.45867452128E+02 -0.14549805529E+01  0.40371442322E+02  0.61121137819E+02  0.00000000000E+00 0. -1.
<mgrwt>
<rscale>  0 0.14644587E+03</rscale>
<asrwt>0</asrwt>
<pdfrwt beam="1">  1        2 0.53017408E-01 0.15277089E+03</pdfrwt>
<pdfrwt beam="2">  1       -2 0.91198107E-02 0.15277089E+03</pdfrwt>
<totfact> 0.69453328E+03</totfact>
</mgrwt>
</event>
<event>
 6    1  0.5258538E-006  0.1326685E+03  0.7546771E-02  0.1238833E+00
         -2   -1    0    0    0  501 -0.00000000000E+00  0.00000000000E+00  0.28424575819E+02  0.28424575819E+02  0.00000000000E+00 0.  1.
          2   -1    0    0  501    0  0.00000000000E+00 -0.00000000000E+00 -0.90011408878E+03  0.90011408878E+03  0.00000000000E+00 0. -1.
          5    1    1    2  502    0 -0.76903218357E+02  0.42664072259E+02 -0.49112328626E+03  0.49895741338E+03  0.47000000000E+01 0.  1.
         -5    1    1    2    0  502  0.39753734663E+02 -0.18254833158E+02 -0.30117660691E+03  0.30437318690E+03  0.47000000000E+01 0.  1.
        -11    1    1    2    0    0  0.17525424998E+01 -0.51599555284E+02 -0.49235197546E+02  0.71342064647E+02  0.00000000000E+00 0. -1.
         11    1    1    2    0    0  0.35396941194E+02  0.27190316182E+02 -0.30154422237E+02  0.53865999670E+02  0.00000000000E+00 0.  1.
<mgrwt>
<rscale>  0 0.12262203E+03</rscale>
<asrwt>0</asrwt>
<pdfrwt beam="2">  1        2 0.13847909E+00 0.13266851E+03</pdfrwt>
<pdfrwt beam="1">  1       -2 0.43730117E-02 0.13266851E+03</pdfrwt>
<totfact> 0.70535905E+03</totfact>
</mgrwt>
</event>
<event>
 6    1  0.5258538E-006  0.2278900E+03  0.7546771E-02  0.1128134E+00
         -2   -1    0    0    0  501 -0.00000000000E+00  0.00000000000E+00  0.41406880649E+02  0.41406880649E+02  0.00000000000E+00 0. -1.
          2   -1    0    0  501    0  0.00000000000E+00 -0.00000000000E+00 -0.31355822937E+03  0.31355822937E+03  0.00000000000E+00 0.  1.
          5    1    1    2  502    0 -0.13631642302E+02 -0.86594379908E+01 -0.16322765214E+03  0.16409193753E+03  0.47000000000E+01 0.  1.
         -5    1    1    2    0  502  0.48920691941E+02  0.51601958918E+01 -0.67780824927E+01  0.49878794331E+02  0.47000000000E+01 0.  1.
        -11    1    1    2    0    0  0.24355602266E+01  0.42703211337E+02 -0.45940429054E+02  0.62769572516E+02  0.00000000000E+00 0.  1.
         11    1    1    2    0    0 -0.37724609865E+02 -0.39203969238E+02 -0.56205185033E+02  0.78224805645E+02  0.00000000000E+00 0. -1.
<mgrwt>
<rscale>  0 0.22789005E+03</rscale>
<asrwt>0</asrwt>
<pdfrwt beam="2">  1        2 0.48239728E-01 0.22789005E+03</pdfrwt>
<pdfrwt beam="1">  1       -2 0.63702893E-02 0.22789005E+03</pdfrwt>
<totfact> 0.13764143E+04</totfact>
</mgrwt>
</event>
<event>
 6    1  0.5258538E-006  0.1272717E+03  0.7546771E-02  0.1247110E+00
         -1   -1    0    0    0  501 -0.00000000000E+00  0.00000000000E+00  0.15962730220E+02  0.15962730220E+02  0.00000000000E+00 0.  1.
          1   -1    0    0  501    0  0.00000000000E+00 -0.00000000000E+00 -0.80926971914E+03  0.80926971914E+03  0.00000000000E+00 0. -1.
          5    1    1    2  502    0  0.53920733673E+02 -0.11546248260E+02 -0.12858669379E+03  0.13999067536E+03  0.47000000000E+01 0.  1.
         -5    1    1    2    0  502 -0.48727126614E+02 -0.11722271578E+02 -0.42865471141E+03  0.43160015771E+03  0.47000000000E+01 0.  1.
        -11    1    1    2    0    0 -0.37433877761E+02  0.28487140170E+02 -0.69622101232E+02  0.84024099753E+02  0.00000000000E+00 0.  1.
         11    1    1    2    0    0  0.32240270702E+02 -0.52186203316E+01 -0.16644348249E+03  0.16961751653E+03  0.00000000000E+00 0. -1.
<mgrwt>
<rscale>  0 0.11759969E+03</rscale>
<asrwt>0</asrwt>
<pdfrwt beam="2">  1        1 0.12450306E+00 0.12727174E+03</pdfrwt>
<pdfrwt beam="1">  1       -1 0.24558041E-02 0.12727174E+03</pdfrwt>
<totfact> 0.10957944E+04</totfact>
</mgrwt>
</event>
<event>
 6    1  0.5258538E-006  0.1660290E+03  0.7546771E-02  0.1188910E+00
          2   -1    0    0  501    0  0.00000000000E+00  0.00000000000E+00  0.11262690168E+04  0.11262690168E+04  0.00000000000E+00 0.  1.
         -2   -1    0    0    0  501 -0.00000000000E+00 -0.00000000000E+00 -0.38822497374E+02  0.38822497374E+02  0.00000000000E+00 0. -1.
          5    1    1    2  502    0 -0.50327620864E+01 -0.33225421430E+02  0.31708810179E+03  0.31889843465E+03  0.47000000000E+01 0.  1.
         -5    1    1    2    0  502  0.11009214905E+03  0.63268858343E+02  0.64179644988E+03  0.65425377553E+03  0.47000000000E+01 0.  1.
        -11    1    1    2    0    0 -0.44315877984E+00  0.10679688256E+02 -0.92875480996E+01  0.14160179401E+02  0.00000000000E+00 0. -1.
         11    1    1    2    0    0 -0.10461622818E+03 -0.40723125169E+02  0.13784951588E+03  0.17777912462E+03  0.00000000000E+00 0.  1.
<mgrwt>
<rscale>  0 0.15981167E+03</rscale>
<asrwt>0</asrwt>
<pdfrwt beam="1">  1        2 0.17327213E+00 0.16602904E+03</pdfrwt>
<pdfrwt beam="2">  1       -2 0.59726928E-02 0.16602904E+03</pdfrwt>
<totfact> 0.32553940E+03</totfact>
</mgrwt>
</event>
<event>
 6    1  0.5258538E-006  0.1470823E+03  0.7546771E-02  0.1213507E+00
         -2   -1    0    0    0  501 -0.00000000000E+00  0.00000000000E+00  0.13862851971E+02  0.13862851971E+02  0.00000000000E+00 0.  1.
          2   -1    0    0  501    0  0.00000000000E+00 -0.00000000000E+00 -0.13526833278E+04  0.13526833278E+04  0.00000000000E+00 0. -1.
          5    1    1    2  502    0  0.20545652113E+02  0.22994590577E+02 -0.88348408921E+02  0.93693150098E+02  0.47000000000E+01 0. -1.
         -5    1    1    2    0  502 -0.29925043667E+02 -0.99938898635E+02 -0.79246575470E+03  0.79931680458E+03  0.47000000000E+01 0. -1.
        -11    1    1    2    0    0  0.28463776362E+02 -0.10515761917E+02 -0.99604931121E+02  0.10412449336E+03  0.00000000000E+00 0. -1.
         11    1    1    2    0    0 -0.19084384808E+02  0.87460069975E+02 -0.35840138111E+03  0.36941173176E+03  0.00000000000E+00 0.  1.
<mgrwt>
<rscale>  0 0.13986745E+03</rscale>
<asrwt>0</asrwt>
<pdfrwt beam="2">  1        2 0.20810512E+00 0.14708225E+03</pdfrwt>
<pdfrwt beam="1">  1       -2 0.21327466E-02 0.14708225E+03</pdfrwt>
<totfact> 0.11237591E+04</totfact>
</mgrwt>
</event>
<event>
 6    1  0.5258538E-006  0.1265975E+03  0.7546771E-02  0.1247262E+00
         -1   -1    0    0    0  501 -0.00000000000E+00  0.00000000000E+00  0.27122038578E+02  0.27122038578E+02  0.00000000000E+00 0.  1.
          1   -1    0    0  501    0  0.00000000000E+00 -0.00000000000E+00 -0.53611680923E+03  0.53611680923E+03  0.00000000000E+00 0. -1.
          5    1    1    2  502    0 -0.49779522590E+02 -0.94289174305E+01 -0.22612603605E+03  0.23178002401E+03  0.47000000000E+01 0. -1.
         -5    1    1    2    0  502  0.69138737120E+02  0.14590268346E+02 -0.17267749302E+03  0.18663506503E+03  0.47000000000E+01 0. -1.
        -11    1    1    2    0    0  0.19141810609E+02 -0.18132809484E+02  0.10581949378E+01  0.26388017540E+02  0.00000000000E+00 0.  1.
         11    1    1    2    0    0 -0.38501025138E+02  0.12971458569E+02 -0.11124943652E+03  0.11843574123E+03  0.00000000000E+00 0. -1.
<mgrwt>
<rscale>  0 0.11751008E+03</rscale>
<asrwt>0</asrwt>
<pdfrwt beam="2">  1        1 0.82479513E-01 0.12659752E+03</pdfrwt>
<pdfrwt beam="1">  1       -1 0.41726211E-02 0.12659752E+03</pdfrwt>
<totfact> 0.90180717E+03</totfact>
</mgrwt>
</event>
<event>
 6    1  0.5258538E-006  0.1342136E+03  0.7546771E-02  0.1232881E+00
          1   -1    0    0  501    0  0.00000000000E+00  0.00000000000E+00  0.38153902812E+03  0.38153902812E+03  0.00000000000E+00 0. -1.
         -1   -1    0    0    0  501 -0.00000000000E+00 -0.00000000000E+00 -0.48182350973E+02  0.48182350973E+02  0.00000000000E+00 0.  1.
          5    1    1    2  502    0  0.72024030527E+02  0.76993346678E+01  0.17098992820E+03  0.18575894668E+03  0.47000000000E+01 0.  1.
         -5    1    1    2    0  502 -0.40502184282E+02 -0.45043087150E+02  0.11094324334E+03  0.12649031534E+03  0.47000000000E+01 0.  1.
        -11    1    1    2    0    0 -0.17608757645E+02  0.53951060845E+02 -0.50590706816E+01  0.56977008593E+02  0.00000000000E+00 0.  1.
         11    1    1    2    0    0 -0.13913088600E+02 -0.16607308363E+02  0.56482576290E+02  0.60495108478E+02  0.00000000000E+00 0. -1.
<mgrwt>
<rscale>  0 0.12641035E+03</rscale>
<asrwt>0</asrwt>
<pdfrwt beam="1">  1        1 0.58698310E-01 0.13421359E+03</pdfrwt>
<pdfrwt beam="2">  1       -1 0.74126696E-02 0.13421359E+03</pdfrwt>
<totfact> 0.59670079E+03</totfact>
</mgrwt>
</event>
<event>
 6    1  0.5258538E-006  0.1705516E+03  0.7546771E-02  0.1193557E+00
         -1   -1    0    0    0  501 -0.00000000000E+00  0.00000000000E+00  0.73410372605E+02  0.73410372605E+02  0.00000000000E+00 0.  1.
          1   -1    0    0  501    0  0.00000000000E+00 -0.00000000000E+00 -0.13811615647E+04  0.13811615647E+04  0.00000000000E+00 0. -1.
          5    1    1    2  502    0  0.99642967887E+01  0.43484112645E+02 -0.10986729988E+04  0.10995883791E+04  0.47000000000E+01 0. -1.
         -5    1    1    2    0  502 -0.67378897250E+02  0.73333184422E+01 -0.22519268996E+03  0.23521804983E+03  0.47000000000E+01 0.  1.
        -11    1    1    2    0    0 -0.20174812595E+02 -0.22353391970E+02  0.21415013605E+02  0.36949966218E+02  0.00000000000E+00 0. -1.
         11    1    1    2    0    0  0.77589413056E+02 -0.28464039117E+02 -0.53005169783E+01  0.82815542149E+02  0.00000000000E+00 0.  1.
<mgrwt>
<rscale>  0 0.15576969E+03</rscale>
<asrwt>0</asrwt>
<pdfrwt beam="2">  1        1 0.21248636E+00 0.17055158E+03</pdfrwt>
<pdfrwt beam="1">  1       -1 0.11293905E-01 0.17055158E+03</pdfrwt>
<totfact> 0.44144024E+02</totfact>
</mgrwt>
</event>
<event>
 6    1  0.5258538E-006  0.1568201E+03  0.7546771E-02  0.1204484E+00
          2   -1    0    0  501    0  0.00000000000E+00  0.00000000000E+00  0.14252947523E+04  0.14252947523E+04  0.00000000000E+00 0. -1.
         -2   -1    0    0    0  501 -0.00000000000E+00 -0.00000000000E+00 -0.16011021736E+02  0.16011021736E+02  0.00000000000E+00 0.  1.
          5    1    1    2  502    0 -0.65201056900E+00 -0.59580428228E+02  0.16510167236E+03  0.17558731378E+03  0.47000000000E+01 0.  1.
         -5    1    1    2    0  502 -0.28297204119E+02 -0.30577289749E+02  0.90220974227E+03  0.90318337643E+03  0.47000000000E+01 0.  1.
        -11    1    1    2    0    0 -0.24685610427E+02  0.29790737401E+02  0.90738571232E+02  0.98642565388E+02  0.00000000000E+00 0.  1.
         11    1    1    2    0    0  0.53634825115E+02  0.60366980576E+02  0.25123374466E+03  0.26389251840E+03  0.00000000000E+00 0. -1.
<mgrwt>
<rscale>  0 0.14678180E+03</rscale>
<asrwt>0</asrwt>
<pdfrwt beam="1">  1        2 0.21927602E+00 0.15682011E+03</pdfrwt>
<pdfrwt beam="2">  1       -2 0.24632352E-02 0.15682011E+03</pdfrwt>
<totfact> 0.83513900E+03</totfact>
</mgrwt>
</event>
<event>
 6    1  0.5258538E-006  0.1458335E+03  0.7546771E-02  0.1216282E+00
         -2   -1    0    0    0  501 -0.00000000000E+00  0.00000000000E+00  0.10345963962E+03  0.10345963962E+03  0.00000000000E+00 0.  1.
          2   -1    0    0  501    0  0.00000000000E+00 -0.00000000000E+00 -0.18519518978E+03  0.18519518978E+03  0.00000000000E+00 0. -1.
          5    1    1    2  502    0  0.67822706964E+02  0.11127722154E+02 -0.11587304757E+02  0.69857722635E+02  0.47000000000E+01 0.  1.
         -5    1    1    2    0  502 -0.32328232467E+02  0.55092279623E+02 -0.79475141509E+02  0.10207184728E+03  0.47000000000E+01 0.  1.
        -11    1    1    2    0    0 -0.19500364920E+02 -0.35767400058E+02  0.49323728721E+02  0.63971879400E+02  0.00000000000E+00 0.  1.
         11    1    1    2    0    0 -0.15994109577E+02 -0.30452601718E+02 -0.39996832616E+02  0.52753380099E+02  0.00000000000E+00 0. -1.
<mgrwt>
<rscale>  0 0.13782768E+03</rscale>
<asrwt>0</asrwt>
<pdfrwt beam="2">  1        2 0.28491567E-01 0.14583349E+03</pdfrwt>
<pdfrwt beam="1">  1       -2 0.15916868E-01 0.14583349E+03</pdfrwt>
<totfact> 0.55167405E+03</totfact>
</mgrwt>
</event>
<event>
 6    1  0.5258538E-006  0.1683528E+03  0.7546771E-02  0.1192105E+00
         -2   -1    0    0    0  501 -0.00000000000E+00  0.00000000000E+00  0.15760198942E+02  0.15760198942E+02  0.00000000000E+00 0.  1.
          2   -1    0    0  501    0  0.00000000000E+00 -0.00000000000E+00 -0.19162390058E+04  0.19162390058E+04  0.00000000000E+00 0. -1.
          5    1    1    2  502    0  0.71788242808E+02  0.25649535421E+02 -0.84367028632E+03  0.84712047106E+03  0.47000000000E+01 0. -1.
         -5    1    1    2    0  502 -0.16342613123E+01 -0.89496218746E+02 -0.70579183752E+03  0.71146078732E+03  0.47000000000E+01 0.  1.
        -11    1    1    2    0    0 -0.13988379750E+02  0.63166393528E+02 -0.24550526019E+03  0.25388678741E+03  0.00000000000E+00 0. -1.
         11    1    1    2    0    0 -0.56165601746E+02  0.68028979628E+00 -0.10551142282E+03  0.11953115895E+03  0.00000000000E+00 0.  1.
<mgrwt>
<rscale>  0 0.15701792E+03</rscale>
<asrwt>0</asrwt>
<pdfrwt beam="2">  1        2 0.29480604E+00 0.16835280E+03</pdfrwt>
<pdfrwt beam="1">  1       -2 0.24246457E-02 0.16835280E+03</pdfrwt>
<totfact> 0.47617389E+03</totfact>
</mgrwt>
</event>
<event>
 6    1  0.5258538E-006  0.1302641E+03  0.7546771E-02  0.1240521E+00
          2   -1    0    0  501    0  0.00000000000E+00  0.00000000000E+00  0.24526464200E+03  0.24526464200E+03  0.00000000000E+00 0. -1.
         -2   -1    0    0    0  501 -0.00000000000E+00 -0.00000000000E+00 -0.65046206273E+02  0.65046206273E+02  0.00000000000E+00 0.  1.
          5    1    1    2  502    0  0.28071115002E+01 -0.29093582309E+02  0.14189608988E+03  0.14495139437E+03  0.47000000000E+01 0. -1.
         -5    1    1    2    0  502 -0.31117355920E+02  0.52384621867E+02  0.23244976398E+02  0.65382393466E+02  0.47000000000E+01 0. -1.
        -11    1    1    2    0    0 -0.27026655891E+02 -0.31203387062E+02 -0.25626231481E+01  0.41360107956E+02  0.00000000000E+00 0.  1.
         11    1    1    2    0    0  0.55336900310E+02  0.79123475034E+01  0.17639992592E+02  0.58616952476E+02  0.00000000000E+00 0. -1.
<mgrwt>
<rscale>  0 0.12157512E+03</rscale>
<asrwt>0</asrwt>
<pdfrwt beam="1">  1        2 0.37733021E-01 0.13026408E+03</pdfrwt>
<pdfrwt beam="2">  1       -2 0.10007109E-01 0.13026408E+03</pdfrwt>
<totfact> 0.85266265E+03</totfact>
</mgrwt>
</event>
<event>
 6    1  0.5258538E-006  0.2732608E+03  0.7546771E-02  0.1099428E+00
         -4   -1    0    0    0  501 -0.00000000000E+00  0.00000000000E+00  0.42327969114E+02  0.42327969114E+02  0.00000000000E+00 0.  1.
          4   -1    0    0  501    0  0.00000000000E+00 -0.00000000000E+00 -0.44102915434E+03  0.44102915434E+03  0.00000000000E+00 0. -1.
          5    1    1    2  502    0 -0.66068734079E+02 -0.83201619080E+02 -0.24945909770E+03  0.27118170747E+03  0.47000000000E+01 0.  1.
         -5    1    1    2    0  502  0.30046490744E+02  0.18445456207E+02 -0.46836397625E+02  0.58811262554E+02  0.47000000000E+01 0.  1.
        -11    1    1    2    0    0  0.52215306931E+02  0.11413695345E+02 -0.72592927968E+02  0.90146790904E+02  0.00000000000E+00 0. -1.
         11    1    1    2    0    0 -0.16193063597E+02  0.53342467528E+02 -0.29812761931E+02  0.63217362525E+02  0.00000000000E+00 0.  1.
<mgrwt>
<rscale>  0 0.27326082E+03</rscale>
<asrwt>0</asrwt>
<pdfrwt beam="2">  1        4 0.67850642E-01 0.27326082E+03</pdfrwt>
<pdfrwt beam="1">  1       -4 0.65119950E-02 0.27326082E+03</pdfrwt>
<totfact> 0.59270121E+02</totfact>
</mgrwt>
</event>
<event>
 6    1  0.5258538E-006  0.1523121E+03  0.7546771E-02  0.1213479E+00
          2   -1    0    0  501    0  0.00000000000E+00  0.00000000000E+00  0.10093581272E+03  0.10093581272E+03  0.00000000000E+00 0. -1.
         -2   -1    0    0    0  501 -0.00000000000E+00 -0.00000000000E+00 -0.16832221604E+03  0.16832221604E+03  0.00000000000E+00 0.  1.
          5    1    1    2  502    0 -0.75605597479E+02  0.34470763212E+02  0.27180520377E+01  0.83270148874E+02  0.47000000000E+01 0. -1.
         -5    1    1    2    0  502  0.22445228277E+02 -0.56151601165E+02 -0.42779388883E+02  0.74222346359E+02  0.47000000000E+01 0.  1.
        -11    1    1    2    0    0  0.81887373204E+01 -0.30164044313E+02  0.11028061405E+02  0.33144277433E+02  0.00000000000E+00 0.  1.
         11    1    1    2    0    0  0.44971631882E+02  0.51844882267E+02 -0.38353127887E+02  0.78621256096E+02  0.00000000000E+00 0. -1.
<mgrwt>
<rscale>  0 0.13988845E+03</rscale>
<asrwt>0</asrwt>
<pdfrwt beam="1">  1        2 0.15528587E-01 0.15231210E+03</pdfrwt>
<pdfrwt beam="2">  1       -2 0.25895725E-01 0.15231210E+03</pdfrwt>
<totfact> 0.47953377E+03</totfact>
</mgrwt>
</event>
<event>
 6    1  0.5258538E-006  0.2129015E+03  0.7546771E-02  0.1142908E+00
         -2   -1    0    0    0  501 -0.00000000000E+00  0.00000000000E+00  0.58688340351E+02  0.58688340351E+02  0.00000000000E+00 0. -1.
          2   -1    0    0  501    0  0.00000000000E+00 -0.00000000000E+00 -0.91801197054E+03  0.91801197054E+03  0.00000000000E+00 0.  1.
          5    1    1    2  502    0  0.44633091622E+02  0.94225929877E+02 -0.29283056074E+03  0.31087371397E+03  0.47000000000E+01 0. -1.
         -5    1    1    2    0  502 -0.76090658581E+02  0.75202789967E+02 -0.38400421426E+03  0.39865596008E+03  0.47000000000E+01 0. -1.
        -11    1    1    2    0    0  0.16207498513E+02 -0.69962721391E+02 -0.17501610375E+02  0.73917330567E+02  0.00000000000E+00 0. -1.
         11    1    1    2    0    0  0.15250068446E+02 -0.99465998452E+02 -0.16498724481E+03  0.19325330627E+03  0.00000000000E+00 0.  1.
<mgrwt>
<rscale>  0 0.20831390E+03</rscale>
<asrwt>0</asrwt>
<pdfrwt beam="2">  1        2 0.14123260E+00 0.21290149E+03</pdfrwt>
<pdfrwt beam="1">  1       -2 0.90289758E-02 0.21290149E+03</pdfrwt>
<totfact> 0.23001028E+03</totfact>
</mgrwt>
</event>
<event>
 6    1  0.5258538E-006  0.2613462E+03  0.7546771E-02  0.1108456E+00
         -2   -1    0    0    0  501 -0.00000000000E+00  0.00000000000E+00  0.10816062971E+04  0.10816062971E+04  0.00000000000E+00 0.  1.
          2   -1    0    0  501    0  0.00000000000E+00 -0.00000000000E+00 -0.10714434929E+03  0.10714434929E+03  0.00000000000E+00 0. -1.
          5    1    1    2  502    0 -0.12435167604E+02 -0.10446376709E+02 -0.70690812893E+01  0.18325449244E+02  0.47000000000E+01 0.  1.
         -5    1    1    2    0  502  0.23074697275E+03 -0.60467323951E+02  0.10690322685E+03  0.26143995986E+03  0.47000000000E+01 0.  1.
        -11    1    1    2    0    0 -0.18654913602E+03  0.20110822345E+02  0.66078260616E+03  0.68690514478E+03  0.00000000000E+00 0. -1.
         11    1    1    2    0    0 -0.31762669132E+02  0.50802878315E+02  0.21384519605E+03  0.22208009247E+03  0.00000000000E+00 0.  1.
<mgrwt>
<rscale>  0 0.25782635E+03</rscale>
<asrwt>0</asrwt>
<pdfrwt beam="2">  1        2 0.16483747E-01 0.26134618E+03</pdfrwt>
<pdfrwt beam="1">  1       -2 0.16640096E+00 0.26134618E+03</pdfrwt>
<totfact> 0.84307091E+01</totfact>
</mgrwt>
</event>
<event>
 6    1  0.5258538E-006  0.2158943E+03  0.7546771E-02  0.1173959E+00
         -2   -1    0    0    0  501 -0.00000000000E+00  0.00000000000E+00  0.50255810100E+02  0.50255810100E+02  0.00000000000E+00 0.  1.
          2   -1    0    0  501    0  0.00000000000E+00 -0.00000000000E+00 -0.48470306313E+03  0.48470306313E+03  0.00000000000E+00 0. -1.
          5    1    1    2  502    0 -0.70451635206E+02  0.85777496253E+02 -0.27011513457E+03  0.29207103193E+03  0.47000000000E+01 0. -1.
         -5    1    1    2    0  502 -0.16563253877E+02 -0.86495148899E+02 -0.78971546121E+02  0.11838220837E+03  0.47000000000E+01 0.  1.
        -11    1    1    2    0    0  0.71751251542E+02  0.10387790185E+02 -0.70240731695E+02  0.10094507750E+03  0.00000000000E+00 0. -1.
         11    1    1    2    0    0  0.15263637541E+02 -0.96701375401E+01 -0.15119840639E+02  0.23560555426E+02  0.00000000000E+00 0.  1.
<mgrwt>
<rscale>  0 0.17378342E+03</rscale>
<asrwt>0</asrwt>
<pdfrwt beam="2">  1        2 0.74569703E-01 0.21589431E+03</pdfrwt>
<pdfrwt beam="1">  1       -2 0.77316630E-02 0.21589431E+03</pdfrwt>
<totfact> 0.63271259E+03</totfact>
</mgrwt>
</event>
<event>
 6    1  0.5258538E-006  0.2079220E+03  0.7546771E-02  0.1172927E+00
         -2   -1    0    0    0  501 -0.00000000000E+00  0.00000000000E+00  0.21367092993E+02  0.21367092993E+02  0.00000000000E+00 0.  1.
          2   -1    0    0  501    0  0.00000000000E+00 -0.00000000000E+00 -0.15403996319E+04  0.15403996319E+04  0.00000000000E+00 0. -1.
          5    1    1    2  502    0 -0.50958196656E+02 -0.93670810270E+02 -0.73764057326E+03  0.74532319421E+03  0.47000000000E+01 0. -1.
         -5    1    1    2    0  502  0.83054501808E+02  0.56448427830E+02 -0.59163224201E+03  0.60011271863E+03  0.47000000000E+01 0.  1.
        -11    1    1    2    0    0 -0.37553756907E+01  0.64456160708E+02 -0.11904998906E+03  0.13543116110E+03  0.00000000000E+00 0.  1.
         11    1    1    2    0    0 -0.28340929461E+02 -0.27233778268E+02 -0.70709734542E+02  0.80899650929E+02  0.00000000000E+00 0. -1.
<mgrwt>
<rscale>  0 0.17480524E+03</rscale>
<asrwt>0</asrwt>
<pdfrwt beam="2">  1        2 0.23698461E+00 0.20792205E+03</pdfrwt>
<pdfrwt beam="1">  1       -2 0.32872444E-02 0.20792205E+03</pdfrwt>
<totfact> 0.47742741E+03</totfact>
</mgrwt>
</event>
<event>
 6    1  0.5258538E-006  0.1706852E+03  0.7546771E-02  0.1186452E+00
          2   -1    0    0  501    0  0.00000000000E+00  0.00000000000E+00  0.13253756315E+04  0.13253756315E+04  0.00000000000E+00 0. -1.
         -2   -1    0    0    0  501 -0.00000000000E+00 -0.00000000000E+00 -0.19084495848E+02  0.19084495848E+02  0.00000000000E+00 0.  1.
          5    1    1    2  502    0 -0.20955567154E+02  0.18908366441E+02  0.38714515026E+03  0.38820113277E+03  0.47000000000E+01 0.  1.
         -5    1    1    2    0  502  0.11063114005E+03  0.55032122626E+02  0.48706242472E+03  0.50251336225E+03  0.47000000000E+01 0.  1.
        -11    1    1    2    0    0 -0.36562096946E+02  0.50958486333E+01  0.67540565850E+02  0.76970660915E+02  0.00000000000E+00 0.  1.
         11    1    1    2    0    0 -0.53113475953E+02 -0.79036337701E+02  0.36454299486E+03  0.37677497144E+03  0.00000000000E+00 0. -1.
<mgrwt>
<rscale>  0 0.16200488E+03</rscale>
<asrwt>0</asrwt>
<pdfrwt beam="1">  1        2 0.20390387E+00 0.17068517E+03</pdfrwt>
<pdfrwt beam="2">  1       -2 0.29360773E-02 0.17068517E+03</pdfrwt>
<totfact> 0.73174946E+03</totfact>
</mgrwt>
</event>
<event>
 6    1  0.5258538E-006  0.1351923E+03  0.7546771E-02  0.1231662E+00
          2   -1    0    0  501    0  0.00000000000E+00  0.00000000000E+00  0.13177919383E+03  0.13177919383E+03  0.00000000000E+00 0. -1.
         -2   -1    0    0    0  501 -0.00000000000E+00 -0.00000000000E+00 -0.13163606619E+03  0.13163606619E+03  0.00000000000E+00 0.  1.
          5    1    1    2  502    0  0.37236754583E+02 -0.53633142025E+02  0.82866695664E+02  0.10560335727E+03  0.47000000000E+01 0. -1.
         -5    1    1    2    0  502  0.52761395813E+01  0.24564877783E+02 -0.30129182206E+02  0.39511118559E+02  0.47000000000E+01 0. -1.
        -11    1    1    2    0    0 -0.53539823190E+02 -0.50256464376E+01  0.10547634789E+01  0.53785521429E+02  0.00000000000E+00 0. -1.
         11    1    1    2    0    0  0.11026929026E+02  0.34093910680E+02 -0.53649149299E+02  0.64515262765E+02  0.00000000000E+00 0.  1.
<mgrwt>
<rscale>  0 0.12720560E+03</rscale>
<asrwt>0</asrwt>
<pdfrwt beam="1">  1        2 0.20273722E-01 0.13519233E+03</pdfrwt>
<pdfrwt beam="2">  1       -2 0.20251702E-01 0.13519233E+03</pdfrwt>
<totfact> 0.53552781E+03</totfact>
</mgrwt>
</event>
<event>
 6    1  0.5258538E-006  0.1386024E+03  0.7546771E-02  0.1228723E+00
         -4   -1    0    0    0  501 -0.00000000000E+00  0.00000000000E+00  0.24560908295E+03  0.24560908295E+03  0.00000000000E+00 0.  1.
          4   -1    0    0  501    0  0.00000000000E+00 -0.00000000000E+00 -0.69183822924E+02  0.69183822924E+02  0.00000000000E+00 0. -1.
          5    1    1    2  502    0 -0.67929286335E+02  0.66629744994E+02 -0.23728736283E+01  0.95297593827E+02  0.47000000000E+01 0. -1.
         -5    1    1    2    0  502  0.19676905085E+02 -0.62944225256E+01  0.44956657367E+02  0.49699007940E+02  0.47000000000E+01 0.  1.
        -11    1    1    2    0    0  0.22875642744E+02  0.93857588205E+00  0.29794319754E+01  0.23087939937E+02  0.00000000000E+00 0. -1.
         11    1    1    2    0    0  0.25376738506E+02 -0.61273898350E+02  0.13086204431E+03  0.14670836417E+03  0.00000000000E+00 0.  1.
<mgrwt>
<rscale>  0 0.12914937E+03</rscale>
<asrwt>0</asrwt>
<pdfrwt beam="2">  1        4 0.10643665E-01 0.13860244E+03</pdfrwt>
<pdfrwt beam="1">  1       -4 0.37786012E-01 0.13860244E+03</pdfrwt>
<totfact> 0.77156107E+02</totfact>
</mgrwt>
</event>
<event>
 6    1  0.5258538E-006  0.4836372E+03  0.7546771E-02  0.1018140E+00
          2   -1    0    0  501    0  0.00000000000E+00  0.00000000000E+00  0.10432378604E+04  0.10432378604E+04  0.00000000000E+00 0. -1.
         -2   -1    0    0    0  501 -0.00000000000E+00 -0.00000000000E+00 -0.56052647908E+02  0.56052647908E+02  0.00000000000E+00 0.  1.
          5    1    1    2  502    0  0.75653187131E+02 -0.90901868682E+02  0.71902981760E+03  0.72870606080E+03  0.47000000000E+01 0.  1.
         -5    1    1    2    0  502  0.29295857052E+02 -0.48871326601E+02  0.77542354768E+02  0.96340856271E+02  0.47000000000E+01 0.  1.
        -11    1    1    2    0    0 -0.68682439359E+02  0.57417704401E+02  0.38377237276E+02  0.97400629341E+02  0.00000000000E+00 0.  1.
         11    1    1    2    0    0 -0.36266604824E+02  0.82355490882E+02  0.15223580288E+03  0.17684296193E+03  0.00000000000E+00 0. -1.
<mgrwt>
<rscale>  0 0.48363724E+03</rscale>
<asrwt>0</asrwt>
<pdfrwt beam="1">  1        2 0.16049812E+00 0.48363724E+03</pdfrwt>
<pdfrwt beam="2">  1       -2 0.86234851E-02 0.48363724E+03</pdfrwt>
<totfact> 0.20755274E+03</totfact>
</mgrwt>
</event>
<event>
 6    1  0.5258538E-006  0.1423229E+03  0.7546771E-02  0.1221593E+00
          2   -1    0    0  501    0  0.00000000000E+00  0.00000000000E+00  0.11034761842E+03  0.11034761842E+03  0.00000000000E+00 0. -1.
         -2   -1    0    0    0  501 -0.00000000000E+00 -0.00000000000E+00 -0.14971970868E+03  0.14971970868E+03  0.00000000000E+00 0.  1.
          5    1    1    2  502    0  0.34566160398E+02 -0.90101632911E+02  0.13015287773E+02  0.97491596631E+02  0.47000000000E+01 0. -1.
         -5    1    1    2    0  502  0.11528493742E+02  0.40024264071E+02 -0.15990459945E+02  0.44862375011E+02  0.47000000000E+01 0. -1.
        -11    1    1    2    0    0 -0.18320057318E+02 -0.10973110884E+02  0.20617534082E+02  0.29683604468E+02  0.00000000000E+00 0. -1.
         11    1    1    2    0    0 -0.27774596823E+02  0.61050479723E+02 -0.57014452174E+02  0.88029750993E+02  0.00000000000E+00 0.  1.
<mgrwt>
<rscale>  0 0.13403162E+03</rscale>
<asrwt>0</asrwt>
<pdfrwt beam="1">  1        2 0.16976557E-01 0.14232288E+03</pdfrwt>
<pdfrwt beam="2">  1       -2 0.23033801E-01 0.14232288E+03</pdfrwt>
<totfact> 0.52795078E+03</totfact>
</mgrwt>
</event>
<event>
 6    1  0.5258538E-006  0.1500563E+03  0.7546771E-02  0.1210078E+00
         -1   -1    0    0    0  501 -0.00000000000E+00  0.00000000000E+00  0.84165478103E+02  0.84165478103E+02  0.00000000000E+00 0.  1.
          1   -1    0    0  501    0  0.00000000000E+00 -0.00000000000E+00 -0.32393136706E+03  0.32393136706E+03  0.00000000000E+00 0. -1.
          5    1    1    2  502    0 -0.92630800177E+02 -0.65809225918E+02 -0.16962116634E+03  0.20421740726E+03  0.47000000000E+01 0.  1.
         -5    1    1    2    0  502  0.17788516182E+02  0.29898383076E+02 -0.74071026456E+02  0.81969211163E+02  0.47000000000E+01 0.  1.
        -11    1    1    2    0    0  0.72230666365E+02  0.56329231847E+02  0.22349126336E+02  0.94285391084E+02  0.00000000000E+00 0.  1.
         11    1    1    2    0    0  0.26116176299E+01 -0.20418389005E+02 -0.18422822491E+02  0.27624835651E+02  0.00000000000E+00 0. -1.
<mgrwt>
<rscale>  0 0.14244408E+03</rscale>
<asrwt>0</asrwt>
<pdfrwt beam="2">  1        1 0.49835595E-01 0.15005631E+03</pdfrwt>
<pdfrwt beam="1">  1       -1 0.12948535E-01 0.15005631E+03</pdfrwt>
<totfact> 0.31417136E+03</totfact>
</mgrwt>
</event>
<event>
 6    1  0.5258538E-006  0.1196039E+03  0.7546771E-02  0.1252890E+00
          3   -1    0    0  501    0  0.00000000000E+00  0.00000000000E+00  0.52695255441E+02  0.52695255441E+02  0.00000000000E+00 0. -1.
         -3   -1    0    0    0  501 -0.00000000000E+00 -0.00000000000E+00 -0.30412589061E+03  0.30412589061E+03  0.00000000000E+00 0.  1.
          5    1    1    2  502    0  0.35454987807E+02  0.22459853750E+02 -0.18922782967E+01  0.42274956038E+02  0.47000000000E+01 0. -1.
         -5    1    1    2    0  502 -0.40999942556E+02 -0.61182600449E+02 -0.43415563652E+02  0.85623052121E+02  0.47000000000E+01 0.  1.
        -11    1    1    2    0    0  0.25754389695E+02  0.62612789762E+02 -0.12882555015E+03  0.14553237579E+03  0.00000000000E+00 0.  1.
         11    1    1    2    0    0 -0.20209434947E+02 -0.23890043064E+02 -0.77297243073E+02  0.83390762109E+02  0.00000000000E+00 0. -1.
<mgrwt>
<rscale>  0 0.11425327E+03</rscale>
<asrwt>0</asrwt>
<pdfrwt beam="1">  1        3 0.81069623E-02 0.11960393E+03</pdfrwt>
<pdfrwt beam="2">  1       -3 0.46788599E-01 0.11960393E+03</pdfrwt>
<totfact> 0.10749335E+03</totfact>
</mgrwt>
</event>
<event>
 6    1  0.5258538E-006  0.1440104E+03  0.7546771E-02  0.1217998E+00
         -1   -1    0    0    0  501 -0.00000000000E+00  0.00000000000E+00  0.41880225799E+02  0.41880225799E+02  0.00000000000E+00 0.  1.
          1   -1    0    0  501    0  0.00000000000E+00 -0.00000000000E+00 -0.40545763079E+03  0.40545763079E+03  0.00000000000E+00 0. -1.
          5    1    1    2  502    0  0.44635074355E+02  0.29537390722E+02 -0.98264358201E+02  0.11199429185E+03  0.47000000000E+01 0. -1.
         -5    1    1    2    0  502 -0.37140046262E+01 -0.88211305968E+02 -0.10813017533E+03  0.13967552809E+03  0.47000000000E+01 0. -1.
        -11    1    1    2    0    0  0.10792049002E+02  0.35247378549E+01  0.80790322633E+01  0.13934233417E+02  0.00000000000E+00 0.  1.
         11    1    1    2    0    0 -0.51713118732E+02  0.55149177391E+02 -0.16526190372E+03  0.18173380323E+03  0.00000000000E+00 0. -1.
<mgrwt>
<rscale>  0 0.13658593E+03</rscale>
<asrwt>0</asrwt>
<pdfrwt beam="2">  1        1 0.62378096E-01 0.14401040E+03</pdfrwt>
<pdfrwt beam="1">  1       -1 0.64431118E-02 0.14401040E+03</pdfrwt>
<totfact> 0.68487784E+03</totfact>
</mgrwt>
</event>
<event>
 6    1  0.5258538E-006  0.1187447E+03  0.7546771E-02  0.1256409E+00
          2   -1    0    0  501    0  0.00000000000E+00  0.00000000000E+00  0.42891235188E+03  0.42891235188E+03  0.00000000000E+00 0. -1.
         -2   -1    0    0    0  501 -0.00000000000E+00 -0.00000000000E+00 -0.27931883641E+02  0.27931883641E+02  0.00000000000E+00 0.  1.
          5    1    1    2  502    0  0.26433872080E+02 -0.35944187532E+02  0.26985512216E+03  0.27355915478E+03  0.47000000000E+01 0. -1.
         -5    1    1    2    0  502 -0.94654155104E+01  0.19840497417E+02  0.13704465696E+01  0.22521268889E+02  0.47000000000E+01 0.  1.
        -11    1    1    2    0    0  0.31506440229E+02  0.20505944494E+02  0.91285406942E+02  0.98722718034E+02  0.00000000000E+00 0. -1.
         11    1    1    2    0    0 -0.48474896799E+02 -0.44022543795E+01  0.38469492569E+02  0.62041093815E+02  0.00000000000E+00 0.  1.
<mgrwt>
<rscale>  0 0.11227765E+03</rscale>
<asrwt>0</asrwt>
<pdfrwt beam="1">  1        2 0.65986511E-01 0.11874472E+03</pdfrwt>
<pdfrwt beam="2">  1       -2 0.42972132E-02 0.11874472E+03</pdfrwt>
<totfact> 0.16956036E+04</totfact>
</mgrwt>
</event>
<event>
 6    1  0.5258538E-006  0.1473532E+03  0.7546771E-02  0.1214470E+00
          4   -1    0    0  501    0  0.00000000000E+00  0.00000000000E+00  0.10049290931E+04  0.10049290931E+04  0.00000000000E+00 0. -1.
         -4   -1    0    0    0  501 -0.00000000000E+00 -0.00000000000E+00 -0.18268154224E+02  0.18268154224E+02  0.00000000000E+00 0.  1.
          5    1    1    2  502    0 -0.18207833066E+02 -0.48174562748E+02  0.92718449732E+02  0.10616550570E+03  0.47000000000E+01 0. -1.
         -5    1    1    2    0  502  0.52408734076E+02 -0.21961666481E+02  0.56434053734E+03  0.56721364784E+03  0.47000000000E+01 0. -1.
        -11    1    1    2    0    0 -0.41795713911E+02  0.24789948524E+02  0.64490769579E+02  0.80749505324E+02  0.00000000000E+00 0. -1.
         11    1    1    2    0    0  0.75948129008E+01  0.45346280705E+02  0.26511118218E+03  0.26906858842E+03  0.00000000000E+00 0.  1.
<mgrwt>
<rscale>  0 0.13915516E+03</rscale>
<asrwt>0</asrwt>
<pdfrwt beam="1">  1        4 0.15460443E+00 0.14735322E+03</pdfrwt>
<pdfrwt beam="2">  1       -4 0.28104861E-02 0.14735322E+03</pdfrwt>
<totfact> 0.29828103E+02</totfact>
</mgrwt>
</event>
<event>
 6    1  0.5258538E-006  0.1357652E+03  0.7546771E-02  0.1231833E+00
         -2   -1    0    0    0  501 -0.00000000000E+00  0.00000000000E+00  0.36320240551E+03  0.36320240551E+03  0.00000000000E+00 0.  1.
          2   -1    0    0  501    0  0.00000000000E+00 -0.00000000000E+00 -0.45041818718E+02  0.45041818718E+02  0.00000000000E+00 0. -1.
          5    1    1    2  502    0 -0.53563441836E+02 -0.49931020080E+02  0.68370357534E+02  0.10029329418E+03  0.47000000000E+01 0. -1.
         -5    1    1    2    0  502  0.17373492208E+01  0.61270271065E+02  0.39049706893E+02  0.72828799984E+02  0.47000000000E+01 0. -1.
        -11    1    1    2    0    0 -0.11840843280E+02 -0.33910726142E+02  0.59838532812E+02  0.69791066235E+02  0.00000000000E+00 0. -1.
         11    1    1    2    0    0  0.63666935895E+02  0.22571475157E+02  0.15090198955E+03  0.16533106383E+03  0.00000000000E+00 0.  1.
<mgrwt>
<rscale>  0 0.12709377E+03</rscale>
<asrwt>0</asrwt>
<pdfrwt beam="2">  1        2 0.69295108E-02 0.13576520E+03</pdfrwt>
<pdfrwt beam="1">  1       -2 0.55877291E-01 0.13576520E+03</pdfrwt>
<totfact> 0.30034368E+03</totfact>
</mgrwt>
</event>
<event>
 6    1  0.5258538E-006  0.3780313E+03  0.7546771E-02  0.1051664E+00
         -2   -1    0    0    0  501 -0.00000000000E+00  0.00000000000E+00  0.27415516975E+02  0.27415516975E+02  0.00000000000E+00 0.  1.
          2   -1    0    0  501    0  0.00000000000E+00 -0.00000000000E+00 -0.13031642443E+04  0.13031642443E+04  0.00000000000E+00 0. -1.
          5    1    1    2  502    0  0.12722921277E+03  0.52403003262E+02 -0.79382391785E+03  0.80567477923E+03  0.47000000000E+01 0.  1.
         -5    1    1    2    0  502 -0.18459887533E+02 -0.23043549469E+02 -0.21905567898E+03  0.22108652856E+03  0.47000000000E+01 0.  1.
        -11    1    1    2    0    0 -0.34668408542E+02 -0.62253471706E+02 -0.12403298699E+03  0.14304396231E+03  0.00000000000E+00 0.  1.
         11    1    1    2    0    0 -0.74100916700E+02  0.32894017912E+02 -0.13883614353E+03  0.16077449120E+03  0.00000000000E+00 0. -1.
<mgrwt>
<rscale>  0 0.37803133E+03</rscale>
<asrwt>0</asrwt>
<pdfrwt beam="2">  1        2 0.20048679E+00 0.37803133E+03</pdfrwt>
<pdfrwt beam="1">  1       -2 0.42177723E-02 0.37803133E+03</pdfrwt>
<totfact> 0.44473996E+03</totfact>
</mgrwt>
</event>
<event>
 6    1  0.5258538E-006  0.3448790E+03  0.7546771E-02  0.1064737E+00
         -2   -1    0    0    0  501 -0.00000000000E+00  0.00000000000E+00  0.45251692165E+03  0.45251692165E+03  0.00000000000E+00 0.  1.
          2   -1    0    0  501    0  0.00000000000E+00 -0.00000000000E+00 -0.65711085216E+02  0.65711085216E+02  0.00000000000E+00 0. -1.
          5    1    1    2  502    0 -0.25569488129E+02 -0.26690766194E+02  0.19445523793E+02  0.42028729683E+02  0.47000000000E+01 0. -1.
         -5    1    1    2    0  502  0.37362327767E+02  0.99644225404E+02  0.19228691793E+02  0.10824392722E+03  0.47000000000E+01 0. -1.
        -11    1    1    2    0    0  0.26490179017E+02 -0.40714195869E+02  0.69060964709E+02  0.84432175005E+02  0.00000000000E+00 0. -1.
         11    1    1    2    0    0 -0.38283018656E+02 -0.32239263340E+02  0.27907065614E+03  0.28352317496E+03  0.00000000000E+00 0.  1.
<mgrwt>
<rscale>  0 0.34487898E+03</rscale>
<asrwt>0</asrwt>
<pdfrwt beam="2">  1        2 0.10109398E-01 0.34487898E+03</pdfrwt>
<pdfrwt beam="1">  1       -2 0.69617986E-01 0.34487898E+03</pdfrwt>
<totfact> 0.12262379E+03</totfact>
</mgrwt>
</event>
<event>
 6    1  0.5258538E-006  0.3898497E+03  0.7546771E-02  0.1047352E+00
          1   -1    0    0  501    0  0.00000000000E+00  0.00000000000E+00  0.44651321696E+03  0.44651321696E+03  0.00000000000E+00 0. -1.
         -1   -1    0    0    0  501 -0.00000000000E+00 -0.00000000000E+00 -0.85094244189E+02  0.85094244189E+02  0.00000000000E+00 0.  1.
          5    1    1    2  502    0 -0.35657712004E+02 -0.12966740916E+03  0.19033050540E+03  0.23309418849E+03  0.47000000000E+01 0. -1.
         -5    1    1    2    0  502  0.57482690713E+02 -0.20108761672E+02  0.68934081302E+02  0.92101137846E+02  0.47000000000E+01 0. -1.
        -11    1    1    2    0    0 -0.56637189338E+02  0.81889385945E+02  0.77698226456E+02  0.12629591102E+03  0.00000000000E+00 0. -1.
         11    1    1    2    0    0  0.34812210630E+02  0.67886784883E+02  0.24456159606E+02  0.80116223784E+02  0.00000000000E+00 0.  1.
<mgrwt>
<rscale>  0 0.38984974E+03</rscale>
<asrwt>0</asrwt>
<pdfrwt beam="1">  1        1 0.68694339E-01 0.38984974E+03</pdfrwt>
<pdfrwt beam="2">  1       -1 0.13091423E-01 0.38984974E+03</pdfrwt>
<totfact> 0.21040241E+03</totfact>
</mgrwt>
</event>
<event>
 6    1  0.5258538E-006  0.1270178E+03  0.7546771E-02  0.1246884E+00
          2   -1    0    0  501    0  0.00000000000E+00  0.00000000000E+00  0.11457246838E+03  0.11457246838E+03  0.00000000000E+00 0. -1.
         -2   -1    0    0    0  501 -0.00000000000E+00 -0.00000000000E+00 -0.11171768262E+03  0.11171768262E+03  0.00000000000E+00 0.  1.
          5    1    1    2  502    0 -0.33990498456E+02 -0.39893405086E+02  0.46958196318E+01  0.52829712063E+02  0.47000000000E+01 0.  1.
         -5    1    1    2    0  502  0.40624036267E+02  0.61429113817E+02  0.21454489242E+02  0.76852023107E+02  0.47000000000E+01 0.  1.
        -11    1    1    2    0    0  0.40107557398E+02 -0.23200664142E+02 -0.17282542444E+02  0.49452737542E+02  0.00000000000E+00 0.  1.
         11    1    1    2    0    0 -0.46741095210E+02  0.16649554114E+01 -0.60129806729E+01  0.47155678285E+02  0.00000000000E+00 0. -1.
<mgrwt>
<rscale>  0 0.11773351E+03</rscale>
<asrwt>0</asrwt>
<pdfrwt beam="1">  1        2 0.17626534E-01 0.12701777E+03</pdfrwt>
<pdfrwt beam="2">  1       -2 0.17187336E-01 0.12701777E+03</pdfrwt>
<totfact> 0.82281480E+03</totfact>
</mgrwt>
</event>
<event>
 6    1  0.5258538E-006  0.1448176E+03  0.7546771E-02  0.1223157E+00
         -1   -1    0    0    0  501 -0.00000000000E+00  0.00000000000E+00  0.19351400933E+02  0.19351400933E+02  0.00000000000E+00 0.  1.
          1   -1    0    0  501    0  0.00000000000E+00 -0.00000000000E+00 -0.88868038801E+03  0.88868038801E+03  0.00000000000E+00 0. -1.
          5    1    1    2  502    0 -0.49955416976E+02  0.10208301376E+02 -0.56980601624E+03  0.57210203569E+03  0.47000000000E+01 0. -1.
         -5    1    1    2    0  502 -0.13838845285E+02 -0.45956888511E+02 -0.78083042393E+02  0.91774728274E+02  0.47000000000E+01 0. -1.
        -11    1    1    2    0    0  0.70259329897E+02  0.47280898500E+02 -0.21083132356E+03  0.22720410162E+03  0.00000000000E+00 0. -1.
         11    1    1    2    0    0 -0.64650676355E+01 -0.11532311365E+02 -0.10608604889E+02  0.16950923356E+02  0.00000000000E+00 0.  1.
<mgrwt>
<rscale>  0 0.13294018E+03</rscale>
<asrwt>0</asrwt>
<pdfrwt beam="2">  1        1 0.13672004E+00 0.14481756E+03</pdfrwt>
<pdfrwt beam="1">  1       -1 0.29771391E-02 0.14481756E+03</pdfrwt>
<totfact> 0.72222263E+03</totfact>
</mgrwt>
</event>
<event>
 6    1  0.5258538E-006  0.1635987E+03  0.7546771E-02  0.1195976E+00
          1   -1    0    0  501    0  0.00000000000E+00  0.00000000000E+00  0.97513546886E+02  0.97513546886E+02  0.00000000000E+00 0. -1.
         -1   -1    0    0    0  501 -0.00000000000E+00 -0.00000000000E+00 -0.21889718646E+03  0.21889718646E+03  0.00000000000E+00 0.  1.
          5    1    1    2  502    0  0.72525447335E+01  0.11266707478E+03 -0.21220233647E+02  0.11497329021E+03  0.47000000000E+01 0. -1.
         -5    1    1    2    0  502  0.32398254104E+02 -0.33443286026E+02 -0.33426105902E+02  0.57510823372E+02  0.47000000000E+01 0.  1.
        -11    1    1    2    0    0 -0.28279432966E+02 -0.80706086559E+01  0.16590054920E+02  0.33765233231E+02  0.00000000000E+00 0. -1.
         11    1    1    2    0    0 -0.11371365872E+02 -0.71153180103E+02 -0.83327354942E+02  0.11016138653E+03  0.00000000000E+00 0.  1.
<mgrwt>
<rscale>  0 0.15371929E+03</rscale>
<asrwt>0</asrwt>
<pdfrwt beam="1">  1        1 0.15002084E-01 0.16359874E+03</pdfrwt>
<pdfrwt beam="2">  1       -1 0.33676490E-01 0.16359874E+03</pdfrwt>
<totfact> 0.30353475E+03</totfact>
</mgrwt>
</event>
<event>
 6    1  0.5258538E-006  0.3334270E+03  0.7546771E-02  0.1069631E+00
         -2   -1    0    0    0  501 -0.00000000000E+00  0.00000000000E+00  0.13795367753E+03  0.13795367753E+03  0.00000000000E+00 0.  1.
          2   -1    0    0  501    0  0.00000000000E+00 -0.00000000000E+00 -0.20146896591E+03  0.20146896591E+03  0.00000000000E+00 0. -1.
          5    1    1    2  502    0  0.23936147620E+02  0.25646697172E+02 -0.58824056556E+01  0.35880146809E+02  0.47000000000E+01 0.  1.
         -5    1    1    2    0  502 -0.12704155745E+03  0.13634327903E+02 -0.91177244823E+02  0.15703767761E+03  0.47000000000E+01 0.  1.
        -11    1    1    2    0    0  0.58652935439E+02  0.24162044235E+02  0.38814267507E+01  0.63553416044E+02  0.00000000000E+00 0. -1.
         11    1    1    2    0    0  0.44452474389E+02 -0.63443069310E+02  0.29662935350E+02  0.82951402980E+02  0.00000000000E+00 0.  1.
<mgrwt>
<rscale>  0 0.33342696E+03</rscale>
<asrwt>0</asrwt>
<pdfrwt beam="2">  1        2 0.30995225E-01 0.33342696E+03</pdfrwt>
<pdfrwt beam="1">  1       -2 0.21223643E-01 0.33342696E+03</pdfrwt>
<totfact> 0.32149076E+03</totfact>
</mgrwt>
</event>
<event>
 6    1  0.5258538E-006  0.1621697E+03  0.7546771E-02  0.1193894E+00
         -2   -1    0    0    0  501 -0.00000000000E+00  0.00000000000E+00  0.38250138064E+02  0.38250138064E+02  0.00000000000E+00 0.  1.
          2   -1    0    0  501    0  0.00000000000E+00 -0.00000000000E+00 -0.72414556982E+03  0.72414556982E+03  0.00000000000E+00 0. -1.
          5    1    1    2  502    0 -0.77603707461E+02  0.91013825516E+02 -0.43684968021E+03  0.45295207798E+03  0.47000000000E+01 0. -1.
         -5    1    1    2    0  502  0.39477383417E+02  0.50101299724E+01 -0.95950020892E+02  0.10398106420E+03  0.47000000000E+01 0. -1.
        -11    1    1    2    0    0  0.13548669811E+02 -0.10708296559E+03 -0.10649469691E+03  0.15162931261E+03  0.00000000000E+00 0. -1.
         11    1    1    2    0    0  0.24577654234E+02  0.11059010100E+02 -0.46601033744E+02  0.53833253088E+02  0.00000000000E+00 0.  1.
<mgrwt>
<rscale>  0 0.15548169E+03</rscale>
<asrwt>0</asrwt>
<pdfrwt beam="2">  1        2 0.11140701E+00 0.16216967E+03</pdfrwt>
<pdfrwt beam="1">  1       -2 0.58846367E-02 0.16216967E+03</pdfrwt>
<totfact> 0.59824220E+03</totfact>
</mgrwt>
</event>
<event>
 6    1  0.5258538E-006  0.1561850E+03  0.7546771E-02  0.1201671E+00
         -1   -1    0    0    0  501 -0.00000000000E+00  0.00000000000E+00  0.65159822328E+03  0.65159822328E+03  0.00000000000E+00 0.  1.
          1   -1    0    0  501    0  0.00000000000E+00 -0.00000000000E+00 -0.31388029936E+02  0.31388029936E+02  0.00000000000E+00 0. -1.
          5    1    1    2  502    0  0.51700820018E+02  0.62209111355E+02  0.96706033663E+02  0.12616297109E+03  0.47000000000E+01 0.  1.
         -5    1    1    2    0  502 -0.29354337989E+02  0.28755825144E+02  0.25956167844E+03  0.26283631703E+03  0.47000000000E+01 0.  1.
        -11    1    1    2    0    0  0.14076069202E+02 -0.29918900107E+02  0.18426515218E+03  0.18720823330E+03  0.00000000000E+00 0.  1.
         11    1    1    2    0    0 -0.36422551231E+02 -0.61046036392E+02  0.79677329064E+02  0.10677873180E+03  0.00000000000E+00 0. -1.
<mgrwt>
<rscale>  0 0.14902961E+03</rscale>
<asrwt>0</asrwt>
<pdfrwt beam="2">  1        1 0.48289282E-02 0.15618503E+03</pdfrwt>
<pdfrwt beam="1">  1       -1 0.10024587E+00 0.15618503E+03</pdfrwt>
<totfact> 0.17157126E+03</totfact>
</mgrwt>
</event>
<event>
 6    1  0.5258538E-006  0.3056041E+03  0.7546771E-02  0.1082472E+00
         -4   -1    0    0    0  501 -0.00000000000E+00  0.00000000000E+00  0.81543327140E+02  0.81543327140E+02  0.00000000000E+00 0.  1.
          4   -1    0    0  501    0  0.00000000000E+00 -0.00000000000E+00 -0.28633198925E+03  0.28633198925E+03  0.00000000000E+00 0. -1.
          5    1    1    2  502    0 -0.52318079506E+02  0.92510727080E+02 -0.63917882153E+02  0.12410883017E+03  0.47000000000E+01 0.  1.
         -5    1    1    2    0  502  0.32137304448E+02  0.47023986685E+01 -0.97662656093E+02  0.10302913804E+03  0.47000000000E+01 0.  1.
        -11    1    1    2    0    0 -0.18556851536E+02 -0.58908251591E+02  0.12285786698E+02  0.62972052525E+02  0.00000000000E+00 0.  1.
         11    1    1    2    0    0  0.38737626594E+02 -0.38304874158E+02 -0.55493910564E+02  0.77765295653E+02  0.00000000000E+00 0. -1.
<mgrwt>
<rscale>  0 0.30560408E+03</rscale>
<asrwt>0</asrwt>
<pdfrwt beam="2">  1        4 0.44051075E-01 0.30560408E+03</pdfrwt>
<pdfrwt beam="1">  1       -4 0.12545127E-01 0.30560408E+03</pdfrwt>
<totfact> 0.49012514E+02</totfact>
</mgrwt>
</event>
<event>
 6    1  0.5258538E-006  0.1301053E+03  0.7546771E-02  0.1241598E+00
         -2   -1    0    0    0  501 -0.00000000000E+00  0.00000000000E+00  0.91260741644E+02  0.91260741644E+02  0.00000000000E+00 0.  1.
          2   -1    0    0  501    0  0.00000000000E+00 -0.00000000000E+00 -0.14593445759E+03  0.14593445759E+03  0.00000000000E+00 0. -1.
          5    1    1    2  502    0 -0.53313547045E+02 -0.45411368453E+02 -0.59975259659E+02  0.92323607244E+02  0.47000000000E+01 0.  1.
         -5    1    1    2    0  502  0.17164206240E+02  0.43616073811E+02  0.79960159867E+01  0.47780729821E+02  0.47000000000E+01 0.  1.
        -11    1    1    2    0    0 -0.13778202938E+02 -0.58476731870E+01 -0.34358518707E+02  0.37477219289E+02  0.00000000000E+00 0. -1.
         11    1    1    2    0    0  0.49927543743E+02  0.76429678290E+01  0.31664046431E+02  0.59613642883E+02  0.00000000000E+00 0.  1.
<mgrwt>
<rscale>  0 0.12091327E+03</rscale>
<asrwt>0</asrwt>
<pdfrwt beam="2">  1        2 0.22451455E-01 0.13010528E+03</pdfrwt>
<pdfrwt beam="1">  1       -2 0.14040114E-01 0.13010528E+03</pdfrwt>
<totfact> 0.87363150E+03</totfact>
</mgrwt>
</event>
<event>
 6    1  0.5258538E-006  0.1372555E+03  0.7546771E-02  0.1230412E+00
         -1   -1    0    0    0  501 -0.00000000000E+00  0.00000000000E+00  0.18974232799E+02  0.18974232799E+02  0.00000000000E+00 0.  1.
          1   -1    0    0  501    0  0.00000000000E+00 -0.00000000000E+00 -0.77071783095E+03  0.77071783095E+03  0.00000000000E+00 0. -1.
          5    1    1    2  502    0  0.49967832724E+02 -0.60826712612E+01 -0.43598072112E+03  0.43890211026E+03  0.47000000000E+01 0.  1.
         -5    1    1    2    0  502 -0.71497728074E+01 -0.30954771131E+02 -0.21308615394E+02  0.38541720213E+02  0.47000000000E+01 0.  1.
        -11    1    1    2    0    0  0.21592741635E+02  0.32857570527E+02 -0.11560413065E+03  0.12210725390E+03  0.00000000000E+00 0.  1.
         11    1    1    2    0    0 -0.64410801552E+02  0.41798718654E+01 -0.17885013098E+03  0.19014097938E+03  0.00000000000E+00 0. -1.
<mgrwt>
<rscale>  0 0.12802754E+03</rscale>
<asrwt>0</asrwt>
<pdfrwt beam="2">  1        1 0.11857196E+00 0.13725551E+03</pdfrwt>
<pdfrwt beam="1">  1       -1 0.29191131E-02 0.13725551E+03</pdfrwt>
<totfact> 0.92182516E+03</totfact>
</mgrwt>
</event>
<event>
 6    1  0.5258538E-006  0.1819571E+03  0.7546771E-02  0.1173039E+00
          1   -1    0    0  501    0  0.00000000000E+00  0.00000000000E+00  0.79132399319E+03  0.79132399319E+03  0.00000000000E+00 0. -1.
         -1   -1    0    0    0  501 -0.00000000000E+00 -0.00000000000E+00 -0.62231310018E+02  0.62231310018E+02  0.00000000000E+00 0.  1.
          5    1    1    2  502    0 -0.81224893798E+02  0.33414756552E+02  0.17364795257E+03  0.19465284678E+03  0.47000000000E+01 0.  1.
         -5    1    1    2    0  502 -0.14730700657E+02  0.57563431548E+02  0.48562342591E+03  0.48926755869E+03  0.47000000000E+01 0.  1.
        -11    1    1    2    0    0  0.67327546065E+02 -0.76699548294E+02  0.10964017376E+02  0.10264515987E+03  0.00000000000E+00 0.  1.
         11    1    1    2    0    0  0.28628048389E+02 -0.14278639806E+02  0.58857287314E+02  0.66989737865E+02  0.00000000000E+00 0. -1.
<mgrwt>
<rscale>  0 0.17469427E+03</rscale>
<asrwt>0</asrwt>
<pdfrwt beam="1">  1        1 0.12174215E+00 0.18195706E+03</pdfrwt>
<pdfrwt beam="2">  1       -1 0.95740483E-02 0.18195706E+03</pdfrwt>
<totfact> 0.15240492E+03</totfact>
</mgrwt>
</event>
<event>
 6    1  0.5258538E-006  0.1251956E+03  0.7546771E-02  0.1249299E+00
         -1   -1    0    0    0  501 -0.00000000000E+00  0.00000000000E+00  0.11495346902E+03  0.11495346902E+03  0.00000000000E+00 0. -1.
          1   -1    0    0  501    0  0.00000000000E+00 -0.00000000000E+00 -0.10491768644E+03  0.10491768644E+03  0.00000000000E+00 0.  1.
          5    1    1    2  502    0  0.96902786462E+00 -0.60270785944E+02  0.49296987335E+01  0.60662167641E+02  0.47000000000E+01 0.  1.
         -5    1    1    2    0  502  0.53910091543E+01  0.63414266769E+02 -0.10354466836E+02  0.64650887024E+02  0.47000000000E+01 0.  1.
        -11    1    1    2    0    0  0.95703677713E+01 -0.39480074443E+02 -0.16264495842E+02  0.43758451096E+02  0.00000000000E+00 0.  1.
         11    1    1    2    0    0 -0.15930404790E+02  0.36336593619E+02  0.31725046529E+02  0.50799649702E+02  0.00000000000E+00 0. -1.
<mgrwt>
<rscale>  0 0.11631760E+03</rscale>
<asrwt>0</asrwt>
<pdfrwt beam="2">  1        1 0.16141183E-01 0.12519558E+03</pdfrwt>
<pdfrwt beam="1">  1       -1 0.17685149E-01 0.12519558E+03</pdfrwt>
<totfact> 0.78272466E+03</totfact>
</mgrwt>
</event>
<event>
 6    1  0.5258538E-006  0.1317848E+03  0.7546771E-02  0.1237019E+00
          1   -1    0    0  501    0  0.00000000000E+00  0.00000000000E+00  0.85864650541E+02  0.85864650541E+02  0.00000000000E+00 0. -1.
         -1   -1    0    0    0  501 -0.00000000000E+00 -0.00000000000E+00 -0.15983389683E+03  0.15983389683E+03  0.00000000000E+00 0.  1.
          5    1    1    2  502    0  0.35078209811E+02  0.89465216827E+01 -0.73953262532E+02  0.82472395945E+02  0.47000000000E+01 0. -1.
         -5    1    1    2    0  502 -0.32944867616E+02  0.32718523166E+02  0.31126607140E+02  0.56096539398E+02  0.47000000000E+01 0. -1.
        -11    1    1    2    0    0  0.95494747577E+01  0.29847480162E+01 -0.54494475922E+02  0.55405316486E+02  0.00000000000E+00 0.  1.
         11    1    1    2    0    0 -0.11682816952E+02 -0.44649792865E+02  0.23351885027E+02  0.51724295540E+02  0.00000000000E+00 0. -1.
<mgrwt>
<rscale>  0 0.12376083E+03</rscale>
<asrwt>0</asrwt>
<pdfrwt beam="1">  1        1 0.13209946E-01 0.13178478E+03</pdfrwt>
<pdfrwt beam="2">  1       -1 0.24589830E-01 0.13178478E+03</pdfrwt>
<totfact> 0.59900093E+03</totfact>
</mgrwt>
</event>
<event>
 6    1  0.5258538E-006  0.1276181E+03  0.7546771E-02  0.1245785E+00
         -1   -1    0    0    0  501 -0.00000000000E+00  0.00000000000E+00  0.34670241162E+03  0.34670241162E+03  0.00000000000E+00 0.  1.
          1   -1    0    0  501    0  0.00000000000E+00 -0.00000000000E+00 -0.36082279821E+02  0.36082279821E+02  0.00000000000E+00 0. -1.
          5    1    1    2  502    0 -0.59304651759E+01 -0.50267932177E+02  0.90959731320E+02  0.10420075885E+03  0.47000000000E+01 0. -1.
         -5    1    1    2    0  502  0.12975588587E+02  0.74996918229E+02  0.10958121217E+03  0.13350294267E+03  0.47000000000E+01 0. -1.
        -11    1    1    2    0    0  0.91842352267E+01 -0.56867620911E+02  0.77201497783E+02  0.96324180478E+02  0.00000000000E+00 0.  1.
         11    1    1    2    0    0 -0.16229358638E+02  0.32138634859E+02  0.32877690533E+02  0.48756809444E+02  0.00000000000E+00 0. -1.
<mgrwt>
<rscale>  0 0.11838512E+03</rscale>
<asrwt>0</asrwt>
<pdfrwt beam="2">  1        1 0.55511202E-02 0.12761810E+03</pdfrwt>
<pdfrwt beam="1">  1       -1 0.53338830E-01 0.12761810E+03</pdfrwt>
<totfact> 0.49766444E+03</totfact>
</mgrwt>
</event>
<event>
 6    1  0.5258538E-006  0.1354890E+03  0.7546771E-02  0.1231833E+00
         -4   -1    0    0    0  501 -0.00000000000E+00  0.00000000000E+00  0.27611965515E+02  0.27611965515E+02  0.00000000000E+00 0.  1.
          4   -1    0    0  501    0  0.00000000000E+00 -0.00000000000E+00 -0.60487019694E+03  0.60487019694E+03  0.00000000000E+00 0. -1.
          5    1    1    2  502    0  0.50638673348E+02 -0.36101280969E+02 -0.25860763636E+03  0.26602176097E+03  0.47000000000E+01 0.  1.
         -5    1    1    2    0  502 -0.97704798123E+01  0.68700283350E+02 -0.17716433969E+03  0.19032730878E+03  0.47000000000E+01 0.  1.
        -11    1    1    2    0    0  0.11268742885E+02  0.22401548293E+02 -0.16671304410E+02  0.30112228793E+02  0.00000000000E+00 0.  1.
         11    1    1    2    0    0 -0.52136936421E+02 -0.55000550674E+02 -0.12481495096E+03  0.14602086391E+03  0.00000000000E+00 0. -1.
<mgrwt>
<rscale>  0 0.12709377E+03</rscale>
<asrwt>0</asrwt>
<pdfrwt beam="2">  1        4 0.93056943E-01 0.13548896E+03</pdfrwt>
<pdfrwt beam="1">  1       -4 0.42479952E-02 0.13548896E+03</pdfrwt>
<totfact> 0.52091290E+02</totfact>
</mgrwt>
</event>
<event>
 6    1  0.5258538E-006  0.1294251E+03  0.7546771E-02  0.1244087E+00
          2   -1    0    0  501    0  0.00000000000E+00  0.00000000000E+00  0.17906119198E+04  0.17906119198E+04  0.00000000000E+00 0. -1.
         -2   -1    0    0    0  501 -0.00000000000E+00 -0.00000000000E+00 -0.88794065369E+01  0.88794065369E+01  0.00000000000E+00 0.  1.
          5    1    1    2  502    0  0.53893574662E+02  0.13940417577E+02  0.11213830366E+04  0.11227737339E+04  0.47000000000E+01 0. -1.
         -5    1    1    2    0  502 -0.32704268166E+02 -0.39931976535E+02  0.29573880431E+03  0.30024600294E+03  0.47000000000E+01 0. -1.
        -11    1    1    2    0    0  0.28561755761E+02 -0.91050030543E+01  0.80262096730E+02  0.85677763418E+02  0.00000000000E+00 0. -1.
         11    1    1    2    0    0 -0.49751062257E+02  0.35096562012E+02  0.28434857561E+03  0.29079382612E+03  0.00000000000E+00 0.  1.
<mgrwt>
<rscale>  0 0.11940211E+03</rscale>
<asrwt>0</asrwt>
<pdfrwt beam="1">  1        2 0.27547847E+00 0.12942511E+03</pdfrwt>
<pdfrwt beam="2">  1       -2 0.13660640E-02 0.12942511E+03</pdfrwt>
<totfact> 0.12614239E+04</totfact>
</mgrwt>
</event>
<event>
 6    1  0.5258538E-006  0.2258879E+03  0.7546771E-02  0.1129568E+00
         -2   -1    0    0    0  501 -0.00000000000E+00  0.00000000000E+00  0.14525867631E+03  0.14525867631E+03  0.00000000000E+00 0.  1.
          2   -1    0    0  501    0  0.00000000000E+00 -0.00000000000E+00 -0.87818093349E+02  0.87818093349E+02  0.00000000000E+00 0. -1.
          5    1    1    2  502    0 -0.56456161465E+01  0.98990461406E+00 -0.53067756222E+02  0.53582923057E+02  0.47000000000E+01 0. -1.
         -5    1    1    2    0  502  0.15715901315E+02 -0.29553451223E+02  0.65349935858E+02  0.73573773520E+02  0.47000000000E+01 0.  1.
        -11    1    1    2    0    0 -0.15595851610E+02  0.48234865065E+02  0.61540373962E+02  0.79731113266E+02  0.00000000000E+00 0.  1.
         11    1    1    2    0    0  0.55255664414E+01 -0.19671318456E+02 -0.16381970637E+02  0.26188959816E+02  0.00000000000E+00 0. -1.
<mgrwt>
<rscale>  0 0.22588794E+03</rscale>
<asrwt>0</asrwt>
<pdfrwt beam="2">  1        2 0.13510476E-01 0.22588794E+03</pdfrwt>
<pdfrwt beam="1">  1       -2 0.22347489E-01 0.22588794E+03</pdfrwt>
<totfact> 0.75031523E+03</totfact>
</mgrwt>
</event>
<event>
 6    1  0.5258538E-006  0.1255398E+03  0.7546771E-02  0.1250114E+00
          2   -1    0    0  501    0  0.00000000000E+00  0.00000000000E+00  0.27962321529E+03  0.27962321529E+03  0.00000000000E+00 0. -1.
         -2   -1    0    0    0  501 -0.00000000000E+00 -0.00000000000E+00 -0.59822721247E+02  0.59822721247E+02  0.00000000000E+00 0.  1.
          5    1    1    2  502    0  0.45787009012E+01  0.56058024551E+02  0.18762351554E+03  0.19592891620E+03  0.47000000000E+01 0. -1.
         -5    1    1    2    0  502 -0.59654653176E+01 -0.44442368787E+02  0.26541603341E+02  0.52318807591E+02  0.47000000000E+01 0. -1.
        -11    1    1    2    0    0  0.33157030821E+02  0.25933569858E+01  0.33055554434E+02  0.46891191841E+02  0.00000000000E+00 0. -1.
         11    1    1    2    0    0 -0.31770266405E+02 -0.14209012751E+02 -0.27420179270E+02  0.44307020911E+02  0.00000000000E+00 0.  1.
<mgrwt>
<rscale>  0 0.11584436E+03</rscale>
<asrwt>0</asrwt>
<pdfrwt beam="1">  1        2 0.43018956E-01 0.12553977E+03</pdfrwt>
<pdfrwt beam="2">  1       -2 0.92034957E-02 0.12553977E+03</pdfrwt>
<totfact> 0.84340984E+03</totfact>
</mgrwt>
</event>
<event>
 6    1  0.5258538E-006  0.1324466E+03  0.7546771E-02  0.1238736E+00
         -3   -1    0    0    0  501 -0.00000000000E+00  0.00000000000E+00  0.33944657423E+03  0.33944657423E+03  0.00000000000E+00 0.  1.
          3   -1    0    0  501    0  0.00000000000E+00 -0.00000000000E+00 -0.44648941638E+02  0.44648941638E+02  0.00000000000E+00 0. -1.
          5    1    1    2  502    0  0.72284388278E+02 -0.11442791710E+02  0.22788883146E+02  0.76794488512E+02  0.47000000000E+01 0.  1.
         -5    1    1    2    0  502 -0.32887292445E+02  0.30539824246E+02  0.76187976377E+02  0.88549153659E+02  0.47000000000E+01 0.  1.
        -11    1    1    2    0    0 -0.13698933033E+02 -0.29745450272E+02  0.18659192771E+03  0.18944392327E+03  0.00000000000E+00 0.  1.
         11    1    1    2    0    0 -0.25698162801E+02  0.10648417735E+02  0.92288453636E+01  0.29307950429E+02  0.00000000000E+00 0. -1.
<mgrwt>
<rscale>  0 0.12268283E+03</rscale>
<asrwt>0</asrwt>
<pdfrwt beam="2">  1        3 0.68690682E-02 0.13244660E+03</pdfrwt>
<pdfrwt beam="1">  1       -3 0.52222548E-01 0.13244660E+03</pdfrwt>
<totfact> 0.11487067E+03</totfact>
</mgrwt>
</event>
<event>
 6    1  0.5258538E-006  0.1470002E+03  0.7546771E-02  0.1213821E+00
          1   -1    0    0  501    0  0.00000000000E+00  0.00000000000E+00  0.44012661538E+03  0.44012661538E+03  0.00000000000E+00 0. -1.
         -1   -1    0    0    0  501 -0.00000000000E+00 -0.00000000000E+00 -0.47863035924E+02  0.47863035924E+02  0.00000000000E+00 0.  1.
          5    1    1    2  502    0  0.87876849965E+01  0.94547884668E+02  0.14449896916E+03  0.17296984705E+03  0.47000000000E+01 0. -1.
         -5    1    1    2    0  502 -0.33208584624E+02 -0.21149394465E+02  0.16453232092E+03  0.16924267076E+03  0.47000000000E+01 0. -1.
        -11    1    1    2    0    0 -0.16181000953E+02 -0.71941846808E+02  0.73256858536E+02  0.10394239480E+03  0.00000000000E+00 0.  1.
         11    1    1    2    0    0  0.40601900580E+02 -0.14566433946E+01  0.99754308435E+01  0.41834738690E+02  0.00000000000E+00 0. -1.
<mgrwt>
<rscale>  0 0.13963495E+03</rscale>
<asrwt>0</asrwt>
<pdfrwt beam="1">  1        1 0.67711784E-01 0.14700024E+03</pdfrwt>
<pdfrwt beam="2">  1       -1 0.73635443E-02 0.14700024E+03</pdfrwt>
<totfact> 0.50552974E+03</totfact>
</mgrwt>
</event>
<event>
 6    1  0.5258538E-006  0.1514940E+03  0.7546771E-02  0.1207532E+00
         -2   -1    0    0    0  501 -0.00000000000E+00  0.00000000000E+00  0.40152473337E+02  0.40152473337E+02  0.00000000000E+00 0. -1.
          2   -1    0    0  501    0  0.00000000000E+00 -0.00000000000E+00 -0.47623313331E+03  0.47623313331E+03  0.00000000000E+00 0.  1.
          5    1    1    2  502    0  0.30869169164E+02 -0.42559847506E+02 -0.22914500723E+03  0.23514627482E+03  0.47000000000E+01 0. -1.
         -5    1    1    2    0  502  0.43819040905E+02  0.75691675450E+00 -0.58713860215E+01  0.44466216869E+02  0.47000000000E+01 0. -1.
        -11    1    1    2    0    0 -0.27043811295E+02  0.64831593566E+02 -0.13448153125E+03  0.15172272573E+03  0.00000000000E+00 0.  1.
         11    1    1    2    0    0 -0.47644398774E+02 -0.23028662815E+02 -0.66582735470E+02  0.85050389231E+02  0.00000000000E+00 0. -1.
<mgrwt>
<rscale>  0 0.14439685E+03</rscale>
<asrwt>0</asrwt>
<pdfrwt beam="2">  1        2 0.73266635E-01 0.15149403E+03</pdfrwt>
<pdfrwt beam="1">  1       -2 0.61773036E-02 0.15149403E+03</pdfrwt>
<totfact> 0.89370368E+03</totfact>
</mgrwt>
</event>
<event>
 6    1  0.5258538E-006  0.1604574E+03  0.7546771E-02  0.1195486E+00
          2   -1    0    0  501    0  0.00000000000E+00  0.00000000000E+00  0.13342057450E+04  0.13342057450E+04  0.00000000000E+00 0. -1.
         -2   -1    0    0    0  501 -0.00000000000E+00 -0.00000000000E+00 -0.19537743233E+02  0.19537743233E+02  0.00000000000E+00 0.  1.
          5    1    1    2  502    0 -0.66726882234E+02  0.44026903674E+02  0.77667468646E+03  0.78079222822E+03  0.47000000000E+01 0. -1.
         -5    1    1    2    0  502 -0.36221894061E+02 -0.46999180590E+02  0.18989281588E+03  0.19900331683E+03  0.47000000000E+01 0.  1.
        -11    1    1    2    0    0  0.57240086443E+02  0.34484235525E+02  0.10403921317E+03  0.12365172005E+03  0.00000000000E+00 0. -1.
         11    1    1    2    0    0  0.45708689853E+02 -0.31511958609E+02  0.24406128623E+03  0.25029622311E+03  0.00000000000E+00 0.  1.
<mgrwt>
<rscale>  0 0.15413199E+03</rscale>
<asrwt>0</asrwt>
<pdfrwt beam="1">  1        2 0.20526235E+00 0.16045739E+03</pdfrwt>
<pdfrwt beam="2">  1       -2 0.30058077E-02 0.16045739E+03</pdfrwt>
<totfact> 0.69763386E+03</totfact>
</mgrwt>
</event>
<event>
 6    1  0.5258538E-006  0.2982083E+03  0.7546771E-02  0.1086140E+00
         -2   -1    0    0    0  501 -0.00000000000E+00  0.00000000000E+00  0.61316627358E+02  0.61316627358E+02  0.00000000000E+00 0.  1.
          2   -1    0    0  501    0  0.00000000000E+00 -0.00000000000E+00 -0.36257775723E+03  0.36257775723E+03  0.00000000000E+00 0. -1.
          5    1    1    2  502    0  0.14091106344E+01 -0.15141086468E+02  0.10707330837E+02  0.19182675149E+02  0.47000000000E+01 0.  1.
         -5    1    1    2    0  502  0.74141291701E+02  0.79821715155E+02 -0.20641483937E+03  0.23344723870E+03  0.47000000000E+01 0.  1.
        -11    1    1    2    0    0 -0.59995621692E+02  0.30488707947E+01 -0.72956951705E+02  0.94506544945E+02  0.00000000000E+00 0. -1.
         11    1    1    2    0    0 -0.15554780643E+02 -0.67729499481E+02 -0.32596669636E+02  0.76757925794E+02  0.00000000000E+00 0.  1.
<mgrwt>
<rscale>  0 0.29820828E+03</rscale>
<asrwt>0</asrwt>
<pdfrwt beam="2">  1        2 0.55781193E-01 0.29820828E+03</pdfrwt>
<pdfrwt beam="1">  1       -2 0.94333274E-02 0.29820828E+03</pdfrwt>
<totfact> 0.64590427E+03</totfact>
</mgrwt>
</event>
<event>
 6    1  0.5258538E-006  0.1327809E+03  0.7546771E-02  0.1236615E+00
          2   -1    0    0  501    0  0.00000000000E+00  0.00000000000E+00  0.96853723723E+03  0.96853723723E+03  0.00000000000E+00 0. -1.
         -2   -1    0    0    0  501 -0.00000000000E+00 -0.00000000000E+00 -0.14460066640E+02  0.14460066640E+02  0.00000000000E+00 0.  1.
          5    1    1    2  502    0 -0.45413093957E+02  0.45372264167E+01  0.55079674487E+03  0.55270433297E+03  0.47000000000E+01 0.  1.
         -5    1    1    2    0  502  0.15959133388E+02 -0.38268290515E+02  0.64972696474E+02  0.77218503511E+02  0.47000000000E+01 0.  1.
        -11    1    1    2    0    0  0.35595641630E+02 -0.19998703373E+02  0.20836409886E+03  0.21232662465E+03  0.00000000000E+00 0.  1.
         11    1    1    2    0    0 -0.61416810614E+01  0.53729767471E+02  0.12994363039E+03  0.14074784274E+03  0.00000000000E+00 0. -1.
<mgrwt>
<rscale>  0 0.12401583E+03</rscale>
<asrwt>0</asrwt>
<pdfrwt beam="1">  1        2 0.14900568E+00 0.13278093E+03</pdfrwt>
<pdfrwt beam="2">  1       -2 0.22246264E-02 0.13278093E+03</pdfrwt>
<totfact> 0.17302999E+04</totfact>
</mgrwt>
</event>
<event>
 6    1  0.5258538E-006  0.3707605E+03  0.7546771E-02  0.1055401E+00
          3   -1    0    0  501    0  0.00000000000E+00  0.00000000000E+00  0.22566609899E+03  0.22566609899E+03  0.00000000000E+00 0. -1.
         -3   -1    0    0    0  501 -0.00000000000E+00 -0.00000000000E+00 -0.59725961051E+03  0.59725961051E+03  0.00000000000E+00 0.  1.
          5    1    1    2  502    0  0.69253696312E+02 -0.26851351081E+03 -0.11253398229E+03  0.29930179938E+03  0.47000000000E+01 0.  1.
         -5    1    1    2    0  502  0.80809458800E+02 -0.46635927775E+02 -0.38403469491E+02  0.10100492493E+03  0.47000000000E+01 0.  1.
        -11    1    1    2    0    0 -0.15478796613E+03  0.27470739696E+03 -0.17200806219E+03  0.35917995749E+03  0.00000000000E+00 0.  1.
         11    1    1    2    0    0  0.47248110216E+01  0.40442041627E+02 -0.48647997559E+02  0.63439027708E+02  0.00000000000E+00 0. -1.
<mgrwt>
<rscale>  0 0.36815326E+03</rscale>
<asrwt>0</asrwt>
<pdfrwt beam="1">  1        3 0.34717862E-01 0.37076051E+03</pdfrwt>
<pdfrwt beam="2">  1       -3 0.91886092E-01 0.37076051E+03</pdfrwt>
<totfact> 0.22495947E+01</totfact>
</mgrwt>
</event>
<event>
 6    1  0.5258538E-006  0.2849440E+03  0.7546771E-02  0.1093921E+00
         -1   -1    0    0    0  501 -0.00000000000E+00  0.00000000000E+00  0.54020704855E+02  0.54020704855E+02  0.00000000000E+00 0.  1.
          1   -1    0    0  501    0  0.00000000000E+00 -0.00000000000E+00 -0.15307927343E+04  0.15307927343E+04  0.00000000000E+00 0. -1.
          5    1    1    2  502    0 -0.20494023142E+03  0.66067682010E+02 -0.81263770874E+03  0.84069469651E+03  0.47000000000E+01 0. -1.
         -5    1    1    2    0  502 -0.48416587842E+02 -0.28932734703E+02 -0.94602907232E+02  0.11024095960E+03  0.47000000000E+01 0. -1.
        -11    1    1    2    0    0  0.21380038214E+03 -0.67495362509E+02 -0.50326064949E+03  0.55094238236E+03  0.00000000000E+00 0. -1.
         11    1    1    2    0    0  0.39556437123E+02  0.30360415202E+02 -0.66270763982E+02  0.82935400692E+02  0.00000000000E+00 0.  1.
<mgrwt>
<rscale>  0 0.28326102E+03</rscale>
<asrwt>0</asrwt>
<pdfrwt beam="2">  1        1 0.23550654E+00 0.28494401E+03</pdfrwt>
<pdfrwt beam="1">  1       -1 0.83108788E-02 0.28494401E+03</pdfrwt>
<totfact> 0.55436646E+02</totfact>
</mgrwt>
</event>
<event>
 6    1  0.5258538E-006  0.1290890E+03  0.7546771E-02  0.1243424E+00
         -1   -1    0    0    0  501 -0.00000000000E+00  0.00000000000E+00  0.26789382206E+03  0.26789382206E+03  0.00000000000E+00 0.  1.
          1   -1    0    0  501    0  0.00000000000E+00 -0.00000000000E+00 -0.47207370774E+02  0.47207370774E+02  0.00000000000E+00 0. -1.
          5    1    1    2  502    0 -0.57383971020E+02  0.11213922523E+01  0.53430791078E+01  0.57834385489E+02  0.47000000000E+01 0.  1.
         -5    1    1    2    0  502  0.25248362868E+02 -0.35253496871E+01  0.11763122574E+03  0.12045373878E+03  0.47000000000E+01 0.  1.
        -11    1    1    2    0    0  0.26882138230E+02  0.44143536298E+02  0.67521708983E+02  0.85032242924E+02  0.00000000000E+00 0.  1.
         11    1    1    2    0    0  0.52534699221E+01 -0.41739578864E+02  0.30190437455E+02  0.51780825637E+02  0.00000000000E+00 0. -1.
<mgrwt>
<rscale>  0 0.11980200E+03</rscale>
<asrwt>0</asrwt>
<pdfrwt beam="2">  1        1 0.72626726E-02 0.12908902E+03</pdfrwt>
<pdfrwt beam="1">  1       -1 0.41214433E-01 0.12908902E+03</pdfrwt>
<totfact> 0.55102575E+03</totfact>
</mgrwt>
</event>
<event>
 6    1  0.5258538E-006  0.2916970E+03  0.7546771E-02  0.1089466E+00
          1   -1    0    0  501    0  0.00000000000E+00  0.00000000000E+00  0.59140328768E+02  0.59140328768E+02  0.00000000000E+00 0. -1.
         -1   -1    0    0    0  501 -0.00000000000E+00 -0.00000000000E+00 -0.35968331586E+03  0.35968331586E+03  0.00000000000E+00 0.  1.
          5    1    1    2  502    0  0.12494181591E+02  0.22029355480E+02  0.12794229617E+02  0.28760726486E+02  0.47000000000E+01 0.  1.
         -5    1    1    2    0  502  0.84750163467E+02 -0.24323639439E+02 -0.18629910021E+03  0.20616419277E+03  0.47000000000E+01 0.  1.
        -11    1    1    2    0    0 -0.39578873029E+02 -0.47281394403E+01 -0.11869744093E+03  0.12521152094E+03  0.00000000000E+00 0.  1.
         11    1    1    2    0    0 -0.57665472029E+02  0.70224233987E+01 -0.83406755695E+01  0.58687204429E+02  0.00000000000E+00 0. -1.
<mgrwt>
<rscale>  0 0.29169703E+03</rscale>
<asrwt>0</asrwt>
<pdfrwt beam="1">  1        1 0.90985122E-02 0.29169703E+03</pdfrwt>
<pdfrwt beam="2">  1       -1 0.55335894E-01 0.29169703E+03</pdfrwt>
<totfact> 0.24736047E+03</totfact>
</mgrwt>
</event>
<event>
 6    1  0.5258538E-006  0.3231963E+03  0.7546771E-02  0.1074188E+00
          1   -1    0    0  501    0  0.00000000000E+00  0.00000000000E+00  0.51979866959E+03  0.51979866959E+03  0.00000000000E+00 0. -1.
         -1   -1    0    0    0  501 -0.00000000000E+00 -0.00000000000E+00 -0.50238607297E+02  0.50238607297E+02  0.00000000000E+00 0.  1.
          5    1    1    2  502    0  0.99538566696E+02 -0.43651599422E+02  0.31404306714E+03  0.33235301475E+03  0.47000000000E+01 0. -1.
         -5    1    1    2    0  502  0.61132801061E+01 -0.12134214146E+02 -0.76464314112E+01  0.16284018544E+02  0.47000000000E+01 0.  1.
        -11    1    1    2    0    0 -0.11570654016E+03  0.28339310336E+02  0.14178324513E+03  0.18518533567E+03  0.00000000000E+00 0.  1.
         11    1    1    2    0    0  0.10054693358E+02  0.27446503232E+02  0.21380181431E+02  0.36214907928E+02  0.00000000000E+00 0. -1.
<mgrwt>
<rscale>  0 0.32319629E+03</rscale>
<asrwt>0</asrwt>
<pdfrwt beam="1">  1        1 0.79969022E-01 0.32319629E+03</pdfrwt>
<pdfrwt beam="2">  1       -1 0.77290169E-02 0.32319629E+03</pdfrwt>
<totfact> 0.38951799E+03</totfact>
</mgrwt>
</event>
<event>
 6    1  0.5258538E-006  0.1698211E+03  0.7546771E-02  0.1183315E+00
          2   -1    0    0  501    0  0.00000000000E+00  0.00000000000E+00  0.23584787389E+02  0.23584787389E+02  0.00000000000E+00 0. -1.
         -2   -1    0    0    0  501 -0.00000000000E+00 -0.00000000000E+00 -0.11329059374E+04  0.11329059374E+04  0.00000000000E+00 0.  1.
          5    1    1    2  502    0 -0.67011166742E+01  0.93456997442E+02 -0.63369592297E+03  0.64060262887E+03  0.47000000000E+01 0.  1.
         -5    1    1    2    0  502 -0.42375670733E+02  0.10489931663E+02 -0.65034212223E+02  0.78468305040E+02  0.47000000000E+01 0.  1.
        -11    1    1    2    0    0 -0.17345475182E+02 -0.51135029789E+02 -0.25023650630E+03  0.25599602705E+03  0.00000000000E+00 0.  1.
         11    1    1    2    0    0  0.66422262590E+02 -0.52811899316E+02 -0.16035450851E+03  0.18142376382E+03  0.00000000000E+00 0. -1.
<mgrwt>
<rscale>  0 0.16486141E+03</rscale>
<asrwt>0</asrwt>
<pdfrwt beam="1">  1        2 0.36284297E-02 0.16982110E+03</pdfrwt>
<pdfrwt beam="2">  1       -2 0.17429318E+00 0.16982110E+03</pdfrwt>
<totfact> 0.50729498E+02</totfact>
</mgrwt>
</event>
<event>
 6    1  0.5258538E-006  0.1309505E+03  0.7546771E-02  0.1242400E+00
          1   -1    0    0  501    0  0.00000000000E+00  0.00000000000E+00  0.44438777431E+02  0.44438777431E+02  0.00000000000E+00 0. -1.
         -1   -1    0    0    0  501 -0.00000000000E+00 -0.00000000000E+00 -0.30573794428E+03  0.30573794428E+03  0.00000000000E+00 0.  1.
          5    1    1    2  502    0 -0.75674766490E+01 -0.72310692245E+02 -0.19196068952E+02  0.75343758726E+02  0.47000000000E+01 0.  1.
         -5    1    1    2    0  502  0.97015959571E+01  0.33269489368E+02 -0.85296066839E+02  0.92187249146E+02  0.47000000000E+01 0.  1.
        -11    1    1    2    0    0  0.53575954100E+01  0.28666266776E+02 -0.16492992408E+03  0.16748832358E+03  0.00000000000E+00 0.  1.
         11    1    1    2    0    0 -0.74917147181E+01  0.10374936101E+02  0.81228930171E+01  0.15157390260E+02  0.00000000000E+00 0. -1.
<mgrwt>
<rscale>  0 0.12042359E+03</rscale>
<asrwt>0</asrwt>
<pdfrwt beam="1">  1        1 0.68367352E-02 0.13095050E+03</pdfrwt>
<pdfrwt beam="2">  1       -1 0.47036605E-01 0.13095050E+03</pdfrwt>
<totfact> 0.47292061E+03</totfact>
</mgrwt>
</event>
<event>
 6    1  0.5258538E-006  0.1310468E+03  0.7546771E-02  0.1238968E+00
         -2   -1    0    0    0  501 -0.00000000000E+00  0.00000000000E+00  0.17502036595E+02  0.17502036595E+02  0.00000000000E+00 0. -1.
          2   -1    0    0  501    0  0.00000000000E+00 -0.00000000000E+00 -0.92791826982E+03  0.92791826982E+03  0.00000000000E+00 0.  1.
          5    1    1    2  502    0  0.15396730474E+01 -0.81450794661E+02 -0.56040327876E+03  0.56631310014E+03  0.47000000000E+01 0.  1.
         -5    1    1    2    0  502 -0.12908339944E+01  0.42188912494E+02 -0.14218683456E+03  0.14839392343E+03  0.47000000000E+01 0.  1.
        -11    1    1    2    0    0  0.38148088118E+02 -0.66528481319E+01 -0.62234173138E+02  0.73298221817E+02  0.00000000000E+00 0.  1.
         11    1    1    2    0    0 -0.38396927171E+02  0.45914730299E+02 -0.14559194677E+03  0.15741506103E+03  0.00000000000E+00 0. -1.
<mgrwt>
<rscale>  0 0.12253774E+03</rscale>
<asrwt>0</asrwt>
<pdfrwt beam="2">  1        2 0.14275666E+00 0.13104679E+03</pdfrwt>
<pdfrwt beam="1">  1       -2 0.26926209E-02 0.13104679E+03</pdfrwt>
<totfact> 0.13855742E+04</totfact>
</mgrwt>
</event>
<event>
 6    1  0.5258538E-006  0.1299362E+03  0.7546771E-02  0.1241097E+00
          2   -1    0    0  501    0  0.00000000000E+00  0.00000000000E+00  0.26169451417E+03  0.26169451417E+03  0.00000000000E+00 0.  1.
         -2   -1    0    0    0  501 -0.00000000000E+00 -0.00000000000E+00 -0.50343087258E+02  0.50343087258E+02  0.00000000000E+00 0. -1.
          5    1    1    2  502    0  0.42843449170E+01 -0.14349150564E+02  0.14302795257E+03  0.14388654888E+03  0.47000000000E+01 0. -1.
         -5    1    1    2    0  502 -0.40131260330E+02  0.16190182673E+02 -0.71585577549E+01  0.44113206864E+02  0.47000000000E+01 0. -1.
        -11    1    1    2    0    0 -0.12394709814E+02 -0.12613268786E+02 -0.13500251158E+02  0.22248149635E+02  0.00000000000E+00 0. -1.
         11    1    1    2    0    0  0.48241625228E+02  0.10772236677E+02  0.88982283251E+02  0.10178969604E+03  0.00000000000E+00 0.  1.
<mgrwt>
<rscale>  0 0.12122049E+03</rscale>
<asrwt>0</asrwt>
<pdfrwt beam="1">  1        2 0.40260694E-01 0.12993620E+03</pdfrwt>
<pdfrwt beam="2">  1       -2 0.77450905E-02 0.12993620E+03</pdfrwt>
<totfact> 0.11848692E+04</totfact>
</mgrwt>
</event>
<event>
 6    1  0.5258538E-006  0.1299560E+03  0.7546771E-02  0.1242897E+00
         -1   -1    0    0    0  501 -0.00000000000E+00  0.00000000000E+00  0.10057386247E+02  0.10057386247E+02  0.00000000000E+00 0.  1.
          1   -1    0    0  501    0  0.00000000000E+00 -0.00000000000E+00 -0.13091525717E+04  0.13091525717E+04  0.00000000000E+00 0. -1.
          5    1    1    2  502    0 -0.19265170416E+02  0.65149196525E+01 -0.85925061467E+03  0.85950410108E+03  0.47000000000E+01 0.  1.
         -5    1    1    2    0  502 -0.47911208902E+01  0.19646587186E+02 -0.18479154006E+02  0.27794106574E+02  0.47000000000E+01 0.  1.
        -11    1    1    2    0    0 -0.32986247847E+02 -0.27847170305E+01 -0.13734266533E+03  0.14127581150E+03  0.00000000000E+00 0.  1.
         11    1    1    2    0    0  0.57042539154E+02 -0.23376789808E+02 -0.28402275146E+03  0.29063593880E+03  0.00000000000E+00 0. -1.
<mgrwt>
<rscale>  0 0.12012163E+03</rscale>
<asrwt>0</asrwt>
<pdfrwt beam="2">  1        1 0.20140802E+00 0.12995600E+03</pdfrwt>
<pdfrwt beam="1">  1       -1 0.15472907E-02 0.12995600E+03</pdfrwt>
<totfact> 0.93006872E+03</totfact>
</mgrwt>
</event>
<event>
 6    1  0.8036488E-006  0.1998664E+03  0.7546771E-02  0.1154207E+00
         -3   -1    0    0    0  501 -0.00000000000E+00  0.00000000000E+00  0.19117904299E+03  0.19117904299E+03  0.00000000000E+00 0.  1.
          3   -1    0    0  501    0  0.00000000000E+00 -0.00000000000E+00 -0.18942532940E+03  0.18942532940E+03  0.00000000000E+00 0. -1.
          5    1    1    2  502    0  0.32636198324E+02 -0.82676077913E+02  0.46773655214E+02  0.10055008763E+03  0.47000000000E+01 0.  1.
         -5    1    1    2    0  502 -0.39358547305E+02 -0.73131691423E+02 -0.54536827731E+02  0.99467055427E+02  0.47000000000E+01 0.  1.
        -11    1    1    2    0    0 -0.14222145423E+02  0.61268134974E+02  0.45131127366E+02  0.77413645056E+02  0.00000000000E+00 0.  1.
         11    1    1    2    0    0  0.20944494403E+02  0.94539634363E+02 -0.35614241265E+02  0.10317358427E+03  0.00000000000E+00 0. -1.
<mgrwt>
<rscale>  0 0.19479404E+03</rscale>
<asrwt>0</asrwt>
<pdfrwt beam="2">  1        3 0.29142359E-01 0.19986643E+03</pdfrwt>
<pdfrwt beam="1">  1       -3 0.29412160E-01 0.19986643E+03</pdfrwt>
<totfact> 0.30820450E+02</totfact>
</mgrwt>
</event>
<event>
 6    1  0.5258538E-006  0.1483332E+03  0.7546771E-02  0.1210375E+00
          1   -1    0    0  501    0  0.00000000000E+00  0.00000000000E+00  0.86191818628E+03  0.86191818628E+03  0.00000000000E+00 0. -1.
         -1   -1    0    0    0  501 -0.00000000000E+00 -0.00000000000E+00 -0.24290412196E+02  0.24290412196E+02  0.00000000000E+00 0.  1.
          5    1    1    2  502    0 -0.43863144667E+01  0.20333851561E+02  0.18749592433E+02  0.28396170346E+02  0.47000000000E+01 0.  1.
         -5    1    1    2    0  502  0.46417239129E+02 -0.88248047683E+02  0.57508599236E+03  0.58368507486E+03  0.47000000000E+01 0.  1.
        -11    1    1    2    0    0  0.10138123910E+02  0.50705190629E+01 -0.49128738479E+01  0.12354272517E+02  0.00000000000E+00 0.  1.
         11    1    1    2    0    0 -0.52169048572E+02  0.62843677059E+02  0.24870506314E+03  0.26177308075E+03  0.00000000000E+00 0. -1.
<mgrwt>
<rscale>  0 0.14221812E+03</rscale>
<asrwt>0</asrwt>
<pdfrwt beam="1">  1        1 0.13260277E+00 0.14833324E+03</pdfrwt>
<pdfrwt beam="2">  1       -1 0.37369872E-02 0.14833324E+03</pdfrwt>
<totfact> 0.54400904E+03</totfact>
</mgrwt>
</event>
<event>
 6    1  0.5258538E-006  0.3201329E+03  0.7546771E-02  0.1075588E+00
          2   -1    0    0  501    0  0.00000000000E+00  0.00000000000E+00  0.36792955487E+03  0.36792955487E+03  0.00000000000E+00 0. -1.
         -2   -1    0    0    0  501 -0.00000000000E+00 -0.00000000000E+00 -0.69636333009E+02  0.69636333009E+02  0.00000000000E+00 0.  1.
          5    1    1    2  502    0 -0.41962786457E+02  0.11195248937E+03  0.23242649199E+03  0.26141614239E+03  0.47000000000E+01 0. -1.
         -5    1    1    2    0  502 -0.98054292686E+01 -0.16740731736E+02 -0.42656698808E+01  0.20412850897E+02  0.47000000000E+01 0. -1.
        -11    1    1    2    0    0  0.70812856367E+02 -0.52686686102E+02  0.27148888394E+02  0.92343974683E+02  0.00000000000E+00 0.  1.
         11    1    1    2    0    0 -0.19044640641E+02 -0.42525071530E+02  0.42983511354E+02  0.63392919905E+02  0.00000000000E+00 0. -1.
<mgrwt>
<rscale>  0 0.32013288E+03</rscale>
<asrwt>0</asrwt>
<pdfrwt beam="1">  1        2 0.56604546E-01 0.32013288E+03</pdfrwt>
<pdfrwt beam="2">  1       -2 0.10713282E-01 0.32013288E+03</pdfrwt>
<totfact> 0.52002625E+03</totfact>
</mgrwt>
</event>
<event>
 6    1  0.5258538E-006  0.1403138E+03  0.7546771E-02  0.1223219E+00
          2   -1    0    0  501    0  0.00000000000E+00  0.00000000000E+00  0.19497403166E+03  0.19497403166E+03  0.00000000000E+00 0. -1.
         -2   -1    0    0    0  501 -0.00000000000E+00 -0.00000000000E+00 -0.82286472663E+02  0.82286472663E+02  0.00000000000E+00 0.  1.
          5    1    1    2  502    0 -0.97254738199E+02  0.18600396560E+01  0.70018188785E+02  0.11994407284E+03  0.47000000000E+01 0. -1.
         -5    1    1    2    0  502  0.34065241949E+02  0.66214622711E+01 -0.37716798847E+01  0.35222152700E+02  0.47000000000E+01 0. -1.
        -11    1    1    2    0    0  0.61574950021E+02  0.23411042317E+01 -0.11881182368E+02  0.62754424016E+02  0.00000000000E+00 0.  1.
         11    1    1    2    0    0  0.16145462282E+01 -0.10822606159E+02  0.58322232467E+02  0.59339854765E+02  0.00000000000E+00 0. -1.
<mgrwt>
<rscale>  0 0.13289696E+03</rscale>
<asrwt>0</asrwt>
<pdfrwt beam="1">  1        2 0.29996005E-01 0.14031378E+03</pdfrwt>
<pdfrwt beam="2">  1       -2 0.12659457E-01 0.14031378E+03</pdfrwt>
<totfact> 0.75513905E+03</totfact>
</mgrwt>
</event>
<event>
 6    1  0.5258538E-006  0.1942393E+03  0.7546771E-02  0.1173729E+00
          2   -1    0    0  501    0  0.00000000000E+00  0.00000000000E+00  0.45649805892E+03  0.45649805892E+03  0.00000000000E+00 0. -1.
         -2   -1    0    0    0  501 -0.00000000000E+00 -0.00000000000E+00 -0.19925603285E+03  0.19925603285E+03  0.00000000000E+00 0.  1.
          5    1    1    2  502    0  0.45993140716E+02  0.21480961407E+02  0.41059758880E+03  0.41375025151E+03  0.47000000000E+01 0. -1.
         -5    1    1    2    0  502  0.10394732679E+02  0.40798542264E+02  0.21499819310E+01  0.42417967191E+02  0.47000000000E+01 0.  1.
        -11    1    1    2    0    0 -0.73910256553E+02 -0.16029103613E+02 -0.92129915694E+02  0.11919555173E+03  0.00000000000E+00 0.  1.
         11    1    1    2    0    0  0.17522383158E+02 -0.46250400058E+02 -0.63375628972E+02  0.80390321337E+02  0.00000000000E+00 0. -1.
<mgrwt>
<rscale>  0 0.17401067E+03</rscale>
<asrwt>0</asrwt>
<pdfrwt beam="1">  1        2 0.70230470E-01 0.19423925E+03</pdfrwt>
<pdfrwt beam="2">  1       -2 0.30654774E-01 0.19423925E+03</pdfrwt>
<totfact> 0.68021933E+02</totfact>
</mgrwt>
</event>
<event>
 6    1  0.5258538E-006  0.3982966E+03  0.7546771E-02  0.1090932E+00
         -1   -1    0    0    0  501 -0.00000000000E+00  0.00000000000E+00  0.76855400839E+02  0.76855400839E+02  0.00000000000E+00 0.  1.
          1   -1    0    0  501    0  0.00000000000E+00 -0.00000000000E+00 -0.97275782184E+03  0.97275782184E+03  0.00000000000E+00 0. -1.
          5    1    1    2  502    0 -0.85521531212E+02 -0.49722445478E+02 -0.77120634825E+03  0.77753943660E+03  0.47000000000E+01 0. -1.
         -5    1    1    2    0  502  0.70213137405E+02  0.11075007893E+03 -0.60237217044E+02  0.14438170578E+03  0.47000000000E+01 0.  1.
        -11    1    1    2    0    0  0.38462988043E+02 -0.35694433443E+02  0.24109209792E+01  0.52529102106E+02  0.00000000000E+00 0. -1.
         11    1    1    2    0    0 -0.23154594236E+02 -0.25333200009E+02 -0.66869776684E+02  0.75162978192E+02  0.00000000000E+00 0.  1.
<mgrwt>
<rscale>  0 0.28888729E+03</rscale>
<asrwt>0</asrwt>
<pdfrwt beam="2">  1        1 0.14965506E+00 0.39829661E+03</pdfrwt>
<pdfrwt beam="1">  1       -1 0.11823907E-01 0.39829661E+03</pdfrwt>
<totfact> 0.78352691E+02</totfact>
</mgrwt>
</event>
<event>
 6    1  0.5258538E-006  0.2344984E+03  0.7546771E-02  0.1126628E+00
          2   -1    0    0  501    0  0.00000000000E+00  0.00000000000E+00  0.13597559666E+03  0.13597559666E+03  0.00000000000E+00 0. -1.
         -2   -1    0    0    0  501 -0.00000000000E+00 -0.00000000000E+00 -0.42178967953E+03  0.42178967953E+03  0.00000000000E+00 0.  1.
          5    1    1    2  502    0 -0.50509169232E+02  0.48558415448E+01 -0.25845190075E+02  0.57138596619E+02  0.47000000000E+01 0.  1.
         -5    1    1    2    0  502 -0.55312489049E+02 -0.17268541717E+03 -0.29059092918E+02  0.18370151232E+03  0.47000000000E+01 0.  1.
        -11    1    1    2    0    0  0.28242389479E+02 -0.39880499491E+01 -0.28480469995E+02  0.40307248443E+02  0.00000000000E+00 0. -1.
         11    1    1    2    0    0  0.77579268801E+02  0.17181762558E+03 -0.20242932988E+03  0.27661791880E+03  0.00000000000E+00 0.  1.
<mgrwt>
<rscale>  0 0.23001601E+03</rscale>
<asrwt>0</asrwt>
<pdfrwt beam="1">  1        2 0.20919322E-01 0.23449835E+03</pdfrwt>
<pdfrwt beam="2">  1       -2 0.64890721E-01 0.23449835E+03</pdfrwt>
<totfact> 0.59141546E+02</totfact>
</mgrwt>
</event>
<event>
 6    1  0.5258538E-006  0.2742992E+03  0.7546771E-02  0.1098844E+00
         -2   -1    0    0    0  501 -0.00000000000E+00  0.00000000000E+00  0.49911821335E+02  0.49911821335E+02  0.00000000000E+00 0.  1.
          2   -1    0    0  501    0  0.00000000000E+00 -0.00000000000E+00 -0.37686486027E+03  0.37686486027E+03  0.00000000000E+00 0. -1.
          5    1    1    2  502    0  0.39606027619E+02  0.37829231032E+02 -0.33757891667E+02  0.64508707893E+02  0.47000000000E+01 0.  1.
         -5    1    1    2    0  502  0.29630875321E+01 -0.77394270076E+01 -0.24728591700E+03  0.24746937864E+03  0.47000000000E+01 0.  1.
        -11    1    1    2    0    0  0.15187570575E+02 -0.43367778922E+02 -0.20634548948E+02  0.50370737128E+02  0.00000000000E+00 0. -1.
         11    1    1    2    0    0 -0.57756685726E+02  0.13277974898E+02 -0.25274681320E+02  0.64427857944E+02  0.00000000000E+00 0.  1.
<mgrwt>
<rscale>  0 0.27429919E+03</rscale>
<asrwt>0</asrwt>
<pdfrwt beam="2">  1        2 0.57979210E-01 0.27429919E+03</pdfrwt>
<pdfrwt beam="1">  1       -2 0.76787416E-02 0.27429919E+03</pdfrwt>
<totfact> 0.85339290E+03</totfact>
</mgrwt>
</event>
<event>
 6    1  0.5258538E-006  0.1917986E+03  0.7546771E-02  0.1181001E+00
         -2   -1    0    0    0  501 -0.00000000000E+00  0.00000000000E+00  0.12902535548E+03  0.12902535548E+03  0.00000000000E+00 0.  1.
          2   -1    0    0  501    0  0.00000000000E+00 -0.00000000000E+00 -0.18099247889E+03  0.18099247889E+03  0.00000000000E+00 0. -1.
          5    1    1    2  502    0  0.64786280666E+02 -0.10169193744E+03 -0.85144764759E+02  0.14768288076E+03  0.47000000000E+01 0. -1.
         -5    1    1    2    0  502 -0.80229171062E+00  0.42527392663E+02  0.29556622954E+02  0.52008718107E+02  0.47000000000E+01 0.  1.
        -11    1    1    2    0    0 -0.92398237777E+01 -0.13502906689E+02  0.99094312173E+01  0.19128503850E+02  0.00000000000E+00 0. -1.
         11    1    1    2    0    0 -0.54744165178E+02  0.72667451464E+02 -0.62884128260E+01  0.91197731656E+02  0.00000000000E+00 0.  1.
<mgrwt>
<rscale>  0 0.16701106E+03</rscale>
<asrwt>0</asrwt>
<pdfrwt beam="2">  1        2 0.27844997E-01 0.19179857E+03</pdfrwt>
<pdfrwt beam="1">  1       -2 0.19850055E-01 0.19179857E+03</pdfrwt>
<totfact> 0.39686409E+03</totfact>
</mgrwt>
</event>
<event>
 6    1  0.5258538E-006  0.1413398E+03  0.7546771E-02  0.1222124E+00
         -2   -1    0    0    0  501 -0.00000000000E+00  0.00000000000E+00  0.29776247375E+02  0.29776247375E+02  0.00000000000E+00 0.  1.
          2   -1    0    0  501    0  0.00000000000E+00 -0.00000000000E+00 -0.76782867741E+03  0.76782867741E+03  0.00000000000E+00 0. -1.
          5    1    1    2  502    0 -0.23905937522E+02  0.42512152668E+02 -0.19324346050E+03  0.19935872692E+03  0.47000000000E+01 0.  1.
         -5    1    1    2    0  502 -0.22895497934E+02 -0.89004831908E+02 -0.41955904532E+03  0.42953224144E+03  0.47000000000E+01 0.  1.
        -11    1    1    2    0    0  0.63031808406E+02  0.63520331386E+02 -0.10058821479E+03  0.13463220389E+03  0.00000000000E+00 0. -1.
         11    1    1    2    0    0 -0.16230372950E+02 -0.17027652146E+02 -0.24661709426E+02  0.34081752530E+02  0.00000000000E+00 0.  1.
<mgrwt>
<rscale>  0 0.13365997E+03</rscale>
<asrwt>0</asrwt>
<pdfrwt beam="2">  1        2 0.11812748E+00 0.14133980E+03</pdfrwt>
<pdfrwt beam="1">  1       -2 0.45809614E-02 0.14133980E+03</pdfrwt>
<totfact> 0.80716028E+03</totfact>
</mgrwt>
</event>
<event>
 6    1  0.5258538E-006  0.1290085E+03  0.7546771E-02  0.1246735E+00
          2   -1    0    0  501    0  0.00000000000E+00  0.00000000000E+00  0.10273629541E+04  0.10273629541E+04  0.00000000000E+00 0. -1.
         -2   -1    0    0    0  501 -0.00000000000E+00 -0.00000000000E+00 -0.14602567869E+02  0.14602567869E+02  0.00000000000E+00 0.  1.
          5    1    1    2  502    0  0.46295383643E+02  0.46049772689E+02  0.25756933328E+03  0.26575909309E+03  0.47000000000E+01 0.  1.
         -5    1    1    2    0  502 -0.44823178047E+02 -0.14192986039E+02  0.55270452600E+03  0.55472059742E+03  0.47000000000E+01 0.  1.
        -11    1    1    2    0    0  0.15422641272E+02  0.23790273330E+02  0.41010468843E+02  0.49856729974E+02  0.00000000000E+00 0.  1.
         11    1    1    2    0    0 -0.16894846868E+02 -0.55647059980E+02  0.16147605810E+03  0.17162910148E+03  0.00000000000E+00 0. -1.
<mgrwt>
<rscale>  0 0.11782113E+03</rscale>
<asrwt>0</asrwt>
<pdfrwt beam="1">  1        2 0.15805578E+00 0.12900851E+03</pdfrwt>
<pdfrwt beam="2">  1       -2 0.22465497E-02 0.12900851E+03</pdfrwt>
<totfact> 0.15701146E+04</totfact>
</mgrwt>
</event>
<event>
 6    1  0.5258538E-006  0.1709041E+03  0.7546771E-02  0.1180132E+00
          1   -1    0    0  501    0  0.00000000000E+00  0.00000000000E+00  0.17538542406E+04  0.17538542406E+04  0.00000000000E+00 0. -1.
         -1   -1    0    0    0  501 -0.00000000000E+00 -0.00000000000E+00 -0.22000962223E+02  0.22000962223E+02  0.00000000000E+00 0.  1.
          5    1    1    2  502    0  0.48045481886E+02  0.91912186558E+02  0.11746308322E+04  0.11792098627E+04  0.47000000000E+01 0. -1.
         -5    1    1    2    0  502 -0.31391830849E+02  0.37298718435E+02  0.19562444127E+03  0.20166222617E+03  0.47000000000E+01 0.  1.
        -11    1    1    2    0    0 -0.25610417638E+02 -0.33471854803E+02  0.21883707946E+03  0.22285853338E+03  0.00000000000E+00 0. -1.
         11    1    1    2    0    0  0.89567666005E+01 -0.95739050190E+02  0.14276092548E+03  0.17212458059E+03  0.00000000000E+00 0.  1.
<mgrwt>
<rscale>  0 0.16782838E+03</rscale>
<asrwt>0</asrwt>
<pdfrwt beam="1">  1        1 0.26982362E+00 0.17090410E+03</pdfrwt>
<pdfrwt beam="2">  1       -1 0.33847648E-02 0.17090410E+03</pdfrwt>
<totfact> 0.15443000E+03</totfact>
</mgrwt>
</event>
<event>
 6    1  0.5258538E-006  0.1379754E+03  0.7546771E-02  0.1228347E+00
          1   -1    0    0  501    0  0.00000000000E+00  0.00000000000E+00  0.41929777963E+03  0.41929777963E+03  0.00000000000E+00 0. -1.
         -1   -1    0    0    0  501 -0.00000000000E+00 -0.00000000000E+00 -0.42752988075E+02  0.42752988075E+02  0.00000000000E+00 0.  1.
          5    1    1    2  502    0  0.13710281786E+02  0.24230155923E+02  0.29623081338E+03  0.29757328019E+03  0.47000000000E+01 0. -1.
         -5    1    1    2    0  502  0.29808922584E+02  0.14722121227E+02  0.52557235290E+01  0.33985663872E+02  0.47000000000E+01 0. -1.
        -11    1    1    2    0    0 -0.58707089028E+02  0.62135076356E+01  0.39383228350E+02  0.70965968284E+02  0.00000000000E+00 0.  1.
         11    1    1    2    0    0  0.15187884657E+02 -0.45165784785E+02  0.35675026292E+02  0.59525855362E+02  0.00000000000E+00 0. -1.
<mgrwt>
<rscale>  0 0.12940095E+03</rscale>
<asrwt>0</asrwt>
<pdfrwt beam="1">  1        1 0.64507348E-01 0.13797537E+03</pdfrwt>
<pdfrwt beam="2">  1       -1 0.65773831E-02 0.13797537E+03</pdfrwt>
<totfact> 0.63478798E+03</totfact>
</mgrwt>
</event>
<event>
 6    1  0.5258538E-006  0.1335828E+03  0.7546771E-02  0.1235339E+00
         -1   -1    0    0    0  501 -0.00000000000E+00  0.00000000000E+00  0.60650864291E+02  0.60650864291E+02  0.00000000000E+00 0.  1.
          1   -1    0    0  501    0  0.00000000000E+00 -0.00000000000E+00 -0.22868173535E+03  0.22868173535E+03  0.00000000000E+00 0. -1.
          5    1    1    2  502    0  0.30492658154E+02  0.45073568838E+02 -0.11061300313E+02  0.55730343384E+02  0.47000000000E+01 0.  1.
         -5    1    1    2    0  502 -0.65281025856E+02 -0.13370266429E+02 -0.88459506997E+02  0.11084922525E+03  0.47000000000E+01 0.  1.
        -11    1    1    2    0    0  0.37963257596E+01  0.30692815259E+02 -0.12484841099E+02  0.33351645463E+02  0.00000000000E+00 0.  1.
         11    1    1    2    0    0  0.30992041942E+02 -0.62396117668E+02 -0.56025222653E+02  0.89401385543E+02  0.00000000000E+00 0. -1.
<mgrwt>
<rscale>  0 0.12482734E+03</rscale>
<asrwt>0</asrwt>
<pdfrwt beam="2">  1        1 0.35181805E-01 0.13358279E+03</pdfrwt>
<pdfrwt beam="1">  1       -1 0.93309022E-02 0.13358279E+03</pdfrwt>
<totfact> 0.79485256E+03</totfact>
</mgrwt>
</event>
<event>
 6    1  0.5258538E-006  0.1469839E+03  0.7546771E-02  0.1213947E+00
         -2   -1    0    0    0  501 -0.00000000000E+00  0.00000000000E+00  0.44121235131E+03  0.44121235131E+03  0.00000000000E+00 0.  1.
          2   -1    0    0  501    0  0.00000000000E+00 -0.00000000000E+00 -0.45916018040E+02  0.45916018040E+02  0.00000000000E+00 0. -1.
          5    1    1    2  502    0  0.40519472623E+02 -0.51956522869E+01  0.54476301461E+02  0.68253790263E+02  0.47000000000E+01 0. -1.
         -5    1    1    2    0  502 -0.68360358105E+02  0.77326240102E+02  0.75618624702E+02  0.12803418438E+03  0.47000000000E+01 0. -1.
        -11    1    1    2    0    0  0.17016536871E+02 -0.93620102265E+02  0.21791888097E+03  0.23778756225E+03  0.00000000000E+00 0.  1.
         11    1    1    2    0    0  0.10824348611E+02  0.21489514450E+02  0.47282526135E+02  0.53052832459E+02  0.00000000000E+00 0. -1.
<mgrwt>
<rscale>  0 0.13954152E+03</rscale>
<asrwt>0</asrwt>
<pdfrwt beam="2">  1        2 0.70640031E-02 0.14698394E+03</pdfrwt>
<pdfrwt beam="1">  1       -2 0.67878820E-01 0.14698394E+03</pdfrwt>
<totfact> 0.19694930E+03</totfact>
</mgrwt>
</event>
<event>
 6    1  0.5258538E-006  0.2323789E+03  0.7546771E-02  0.1127900E+00
          1   -1    0    0  501    0  0.00000000000E+00  0.00000000000E+00  0.13596152527E+04  0.13596152527E+04  0.00000000000E+00 0. -1.
         -1   -1    0    0    0  501 -0.00000000000E+00 -0.00000000000E+00 -0.40192905589E+02  0.40192905589E+02  0.00000000000E+00 0.  1.
          5    1    1    2  502    0  0.78595024212E+02 -0.12841008000E+03  0.80609736023E+03  0.82004961474E+03  0.47000000000E+01 0.  1.
         -5    1    1    2    0  502  0.45490161970E+02 -0.23208582787E+02  0.72806703327E+02  0.89055596121E+02  0.47000000000E+01 0.  1.
        -11    1    1    2    0    0 -0.27440489470E+02  0.30658565147E+02  0.27162877806E+02  0.49302636947E+02  0.00000000000E+00 0.  1.
         11    1    1    2    0    0 -0.96644696713E+02  0.12096009764E+03  0.41335540572E+03  0.44140031044E+03  0.00000000000E+00 0. -1.
<mgrwt>
<rscale>  0 0.22821829E+03</rscale>
<asrwt>0</asrwt>
<pdfrwt beam="1">  1        1 0.20917154E+00 0.23237885E+03</pdfrwt>
<pdfrwt beam="2">  1       -1 0.61835250E-02 0.23237885E+03</pdfrwt>
<totfact> 0.11372079E+03</totfact>
</mgrwt>
</event>
<event>
 6    1  0.5567161E-006  0.3440442E+03  0.7546771E-02  0.1065086E+00
          1   -1    0    0  501    0  0.00000000000E+00  0.00000000000E+00  0.30971485059E+03  0.30971485059E+03  0.00000000000E+00 0. -1.
         -1   -1    0    0    0  501 -0.00000000000E+00 -0.00000000000E+00 -0.95544679515E+02  0.95544679515E+02  0.00000000000E+00 0.  1.
          5    1    1    2  502    0 -0.16367388260E+02  0.14578500851E+02 -0.44967065662E+01  0.22863386789E+02  0.47000000000E+01 0. -1.
         -5    1    1    2    0  502  0.13892938596E+03  0.81951369220E+01  0.16306398295E+03  0.21443061136E+03  0.47000000000E+01 0. -1.
        -11    1    1    2    0    0 -0.29426727487E+02 -0.50625757931E+02  0.60924441222E+01  0.58872893016E+02  0.00000000000E+00 0.  1.
         11    1    1    2    0    0 -0.93135270217E+02  0.27852120158E+02  0.49510450575E+02  0.10909263894E+03  0.00000000000E+00 0. -1.
<mgrwt>
<rscale>  0 0.34404422E+03</rscale>
<asrwt>0</asrwt>
<pdfrwt beam="1">  1        1 0.47648438E-01 0.34404422E+03</pdfrwt>
<pdfrwt beam="2">  1       -1 0.14699182E-01 0.34404422E+03</pdfrwt>
<totfact> 0.28004200E+03</totfact>
</mgrwt>
</event>
<event>
 6    1  0.5258538E-006  0.1438883E+03  0.7546771E-02  0.1213492E+00
         -2   -1    0    0    0  501 -0.00000000000E+00  0.00000000000E+00  0.50976206708E+02  0.50976206708E+02  0.00000000000E+00 0.  1.
          2   -1    0    0  501    0  0.00000000000E+00 -0.00000000000E+00 -0.36439867199E+03  0.36439867199E+03  0.00000000000E+00 0. -1.
          5    1    1    2  502    0 -0.40360233315E+02  0.69205070136E+01 -0.16235178580E+03  0.16750234089E+03  0.47000000000E+01 0. -1.
         -5    1    1    2    0  502 -0.32987373414E+02  0.45819274091E+02 -0.10872760386E+02  0.57687776880E+02  0.47000000000E+01 0.  1.
        -11    1    1    2    0    0  0.55173700646E+02  0.15280846956E+02 -0.52092603632E+02  0.77403364783E+02  0.00000000000E+00 0.  1.
         11    1    1    2    0    0  0.18173906083E+02 -0.68020628061E+02 -0.88105315471E+02  0.11278139615E+03  0.00000000000E+00 0. -1.
<mgrwt>
<rscale>  0 0.13987924E+03</rscale>
<asrwt>0</asrwt>
<pdfrwt beam="2">  1        2 0.56061336E-01 0.14388831E+03</pdfrwt>
<pdfrwt beam="1">  1       -2 0.78424931E-02 0.14388831E+03</pdfrwt>
<totfact> 0.82414413E+03</totfact>
</mgrwt>
</event>
<event>
 6    1  0.5258538E-006  0.2669600E+03  0.7546771E-02  0.1103032E+00
          2   -1    0    0  501    0  0.00000000000E+00  0.00000000000E+00  0.10738391481E+03  0.10738391481E+03  0.00000000000E+00 0. -1.
         -2   -1    0    0    0  501 -0.00000000000E+00 -0.00000000000E+00 -0.16591791950E+03  0.16591791950E+03  0.00000000000E+00 0.  1.
          5    1    1    2  502    0 -0.43898045139E+02  0.96179260719E+02 -0.41157730272E+02  0.11354971299E+03  0.47000000000E+01 0.  1.
         -5    1    1    2    0  502  0.46853804512E+01 -0.28065930182E+02  0.20724240011E+02  0.35513847313E+02  0.47000000000E+01 0.  1.
        -11    1    1    2    0    0 -0.19822561122E+02 -0.52584087677E+02 -0.10173213981E+02  0.57109670713E+02  0.00000000000E+00 0.  1.
         11    1    1    2    0    0  0.59035225810E+02 -0.15529242860E+02 -0.27927300450E+02  0.67128603297E+02  0.00000000000E+00 0. -1.
<mgrwt>
<rscale>  0 0.26696004E+03</rscale>
<asrwt>0</asrwt>
<pdfrwt beam="1">  1        2 0.16520602E-01 0.26696004E+03</pdfrwt>
<pdfrwt beam="2">  1       -2 0.25525834E-01 0.26696004E+03</pdfrwt>
<totfact> 0.47199382E+03</totfact>
</mgrwt>
</event>
<event>
 6    1  0.5258538E-006  0.1353286E+03  0.7546771E-02  0.1232318E+00
         -2   -1    0    0    0  501 -0.00000000000E+00  0.00000000000E+00  0.26061347307E+02  0.26061347307E+02  0.00000000000E+00 0. -1.
          2   -1    0    0  501    0  0.00000000000E+00 -0.00000000000E+00 -0.57416440669E+03  0.57416440669E+03  0.00000000000E+00 0.  1.
          5    1    1    2  502    0  0.80030181080E+02 -0.34221469875E+02 -0.17465864629E+03  0.19520161784E+03  0.47000000000E+01 0.  1.
         -5    1    1    2    0  502 -0.29733815316E+02  0.21672236272E+02 -0.19391996794E+03  0.19743563398E+03  0.47000000000E+01 0.  1.
        -11    1    1    2    0    0 -0.30045745192E+02  0.88347780191E+01 -0.18389380771E+03  0.18654150375E+03  0.00000000000E+00 0.  1.
         11    1    1    2    0    0 -0.20250620571E+02  0.37144555831E+01  0.43693625556E+01  0.21046998431E+02  0.00000000000E+00 0. -1.
<mgrwt>
<rscale>  0 0.12677704E+03</rscale>
<asrwt>0</asrwt>
<pdfrwt beam="2">  1        2 0.88332985E-01 0.13532855E+03</pdfrwt>
<pdfrwt beam="1">  1       -2 0.40094381E-02 0.13532855E+03</pdfrwt>
<totfact> 0.13802732E+04</totfact>
</mgrwt>
</event>
<event>
 6    1  0.5258538E-006  0.2526058E+03  0.7546771E-02  0.1114046E+00
         -1   -1    0    0    0  501 -0.00000000000E+00  0.00000000000E+00  0.53265246733E+02  0.53265246733E+02  0.00000000000E+00 0.  1.
          1   -1    0    0  501    0  0.00000000000E+00 -0.00000000000E+00 -0.13964599600E+04  0.13964599600E+04  0.00000000000E+00 0. -1.
          5    1    1    2  502    0 -0.25585516356E+01 -0.25862238386E+02 -0.13067769675E+03  0.13331973593E+03  0.47000000000E+01 0. -1.
         -5    1    1    2    0  502  0.22143827192E+03  0.42482211784E+02 -0.87439445817E+03  0.90301019101E+03  0.47000000000E+01 0. -1.
        -11    1    1    2    0    0 -0.84526643869E+02  0.63187310192E+01 -0.60560111264E+02  0.10417392650E+03  0.00000000000E+00 0.  1.
         11    1    1    2    0    0 -0.13435307642E+03 -0.22938704417E+02 -0.27756244709E+03  0.30922135331E+03  0.00000000000E+00 0. -1.
<mgrwt>
<rscale>  0 0.24883105E+03</rscale>
<asrwt>0</asrwt>
<pdfrwt beam="2">  1        1 0.21483997E+00 0.25260578E+03</pdfrwt>
<pdfrwt beam="1">  1       -1 0.81946541E-02 0.25260578E+03</pdfrwt>
<totfact> 0.69867411E+02</totfact>
</mgrwt>
</event>
<event>
 6    1  0.5258538E-006  0.1620173E+03  0.7546771E-02  0.1194175E+00
          1   -1    0    0  501    0  0.00000000000E+00  0.00000000000E+00  0.72181810100E+03  0.72181810100E+03  0.00000000000E+00 0. -1.
         -1   -1    0    0    0  501 -0.00000000000E+00 -0.00000000000E+00 -0.33145301358E+02  0.33145301358E+02  0.00000000000E+00 0.  1.
          5    1    1    2  502    0 -0.91643232781E+02 -0.65589057875E+02  0.27521051049E+03  0.29742784287E+03  0.47000000000E+01 0.  1.
         -5    1    1    2    0  502  0.37740403561E+02 -0.22261154574E+02  0.19483856644E+03  0.19975999108E+03  0.47000000000E+01 0.  1.
        -11    1    1    2    0    0  0.66663732151E+02  0.34390179702E+02  0.16373369593E+03  0.18009847536E+03  0.00000000000E+00 0.  1.
         11    1    1    2    0    0 -0.12760902931E+02  0.53460032748E+02  0.54890026785E+02  0.77677093055E+02  0.00000000000E+00 0. -1.
<mgrwt>
<rscale>  0 0.15524280E+03</rscale>
<asrwt>0</asrwt>
<pdfrwt beam="1">  1        1 0.11104893E+00 0.16201731E+03</pdfrwt>
<pdfrwt beam="2">  1       -1 0.50992777E-02 0.16201731E+03</pdfrwt>
<totfact> 0.45063421E+03</totfact>
</mgrwt>
</event>
<event>
 6    1  0.5258538E-006  0.1434493E+03  0.7546771E-02  0.1217549E+00
         -4   -1    0    0    0  501 -0.00000000000E+00  0.00000000000E+00  0.71423502116E+03  0.71423502116E+03  0.00000000000E+00 0.  1.
          4   -1    0    0  501    0  0.00000000000E+00 -0.00000000000E+00 -0.25175410406E+02  0.25175410406E+02  0.00000000000E+00 0. -1.
          5    1    1    2  502    0 -0.50377779452E+02  0.26468528460E+02  0.45319075124E+02  0.72900015305E+02  0.47000000000E+01 0. -1.
         -5    1    1    2    0  502 -0.16794836747E+02 -0.47507593009E+02  0.25432403552E+03  0.25931032177E+03  0.47000000000E+01 0. -1.
        -11    1    1    2    0    0 -0.24723620625E+02  0.68724215749E+01  0.98359469063E+02  0.10165172281E+03  0.00000000000E+00 0.  1.
         11    1    1    2    0    0  0.91896236824E+02  0.14166642974E+02  0.29105703105E+03  0.30554837169E+03  0.00000000000E+00 0. -1.
<mgrwt>
<rscale>  0 0.13690917E+03</rscale>
<asrwt>0</asrwt>
<pdfrwt beam="2">  1        4 0.38731406E-02 0.14344934E+03</pdfrwt>
<pdfrwt beam="1">  1       -4 0.10988230E+00 0.14344934E+03</pdfrwt>
<totfact> 0.41474454E+02</totfact>
</mgrwt>
</event>
<event>
 6    1  0.5258538E-006  0.1277950E+03  0.7546771E-02  0.1239131E+00
         -1   -1    0    0    0  501 -0.00000000000E+00  0.00000000000E+00  0.29512151860E+02  0.29512151860E+02  0.00000000000E+00 0.  1.
          1   -1    0    0  501    0  0.00000000000E+00 -0.00000000000E+00 -0.20095352107E+04  0.20095352107E+04  0.00000000000E+00 0. -1.
          5    1    1    2  502    0  0.50987400423E+02 -0.59555545264E+02 -0.11704462224E+04  0.11730784405E+04  0.47000000000E+01 0. -1.
         -5    1    1    2    0  502  0.42513936846E+01  0.48844440646E+02 -0.73104206712E+03  0.73269942516E+03  0.47000000000E+01 0.  1.
        -11    1    1    2    0    0 -0.20765882839E+02 -0.22348442147E+02 -0.79859414599E+02  0.85488015865E+02  0.00000000000E+00 0. -1.
         11    1    1    2    0    0 -0.34472911268E+02  0.33059546766E+02  0.13246453150E+01  0.47781481024E+02  0.00000000000E+00 0.  1.
<mgrwt>
<rscale>  0 0.12243626E+03</rscale>
<asrwt>0</asrwt>
<pdfrwt beam="2">  1        1 0.30915933E+00 0.12779498E+03</pdfrwt>
<pdfrwt beam="1">  1       -1 0.45403301E-02 0.12779498E+03</pdfrwt>
<totfact> 0.69239269E+02</totfact>
</mgrwt>
</event>
<event>
 6    1  0.5258538E-006  0.1933792E+03  0.7546771E-02  0.1160084E+00
         -2   -1    0    0    0  501 -0.00000000000E+00  0.00000000000E+00  0.21794505294E+03  0.21794505294E+03  0.00000000000E+00 0.  1.
          2   -1    0    0  501    0  0.00000000000E+00 -0.00000000000E+00 -0.15914951318E+03  0.15914951318E+03  0.00000000000E+00 0. -1.
          5    1    1    2  502    0 -0.47919054609E+02  0.37681143215E+02 -0.62215267401E+02  0.87229202945E+02  0.47000000000E+01 0.  1.
         -5    1    1    2    0  502 -0.75459976818E+02  0.43241263362E+02  0.60687652292E+02  0.10615599888E+03  0.47000000000E+01 0.  1.
        -11    1    1    2    0    0  0.74298534617E+02 -0.28344768536E+02 -0.13478702353E+02  0.80655896044E+02  0.00000000000E+00 0.  1.
         11    1    1    2    0    0  0.49080496811E+02 -0.52577638040E+02  0.73801857216E+02  0.10305346825E+03  0.00000000000E+00 0. -1.
<mgrwt>
<rscale>  0 0.18821167E+03</rscale>
<asrwt>0</asrwt>
<pdfrwt beam="2">  1        2 0.24484541E-01 0.19337917E+03</pdfrwt>
<pdfrwt beam="1">  1       -2 0.33530008E-01 0.19337917E+03</pdfrwt>
<totfact> 0.18101581E+03</totfact>
</mgrwt>
</event>
<event>
 6    1  0.5258538E-006  0.1431173E+03  0.7546771E-02  0.1219389E+00
          2   -1    0    0  501    0  0.00000000000E+00  0.00000000000E+00  0.16863329745E+04  0.16863329745E+04  0.00000000000E+00 0. -1.
         -2   -1    0    0    0  501 -0.00000000000E+00 -0.00000000000E+00 -0.15750263178E+02  0.15750263178E+02  0.00000000000E+00 0.  1.
          5    1    1    2  502    0  0.29266605002E+02 -0.45181915847E+00  0.12912766307E+04  0.12916168802E+04  0.47000000000E+01 0. -1.
         -5    1    1    2    0  502  0.40112247246E+02 -0.61747232950E+01  0.11729552354E+03  0.12420728412E+03  0.47000000000E+01 0. -1.
        -11    1    1    2    0    0 -0.34171785265E+01 -0.15816166206E+02  0.11144345025E+01  0.16219438547E+02  0.00000000000E+00 0.  1.
         11    1    1    2    0    0 -0.65961673721E+02  0.22442708659E+02  0.26089612259E+03  0.27003963479E+03  0.00000000000E+00 0. -1.
<mgrwt>
<rscale>  0 0.13559040E+03</rscale>
<asrwt>0</asrwt>
<pdfrwt beam="1">  1        2 0.25943570E+00 0.14311726E+03</pdfrwt>
<pdfrwt beam="2">  1       -2 0.24231187E-02 0.14311726E+03</pdfrwt>
<totfact> 0.62386920E+03</totfact>
</mgrwt>
</event>
<event>
 6    1  0.5258538E-006  0.1281872E+03  0.7546771E-02  0.1245791E+00
          2   -1    0    0  501    0  0.00000000000E+00  0.00000000000E+00  0.47113963108E+03  0.47113963108E+03  0.00000000000E+00 0. -1.
         -2   -1    0    0    0  501 -0.00000000000E+00 -0.00000000000E+00 -0.28087162590E+02  0.28087162590E+02  0.00000000000E+00 0.  1.
          5    1    1    2  502    0  0.49166180937E+02  0.21941747792E+02  0.58361056933E+02  0.79541540156E+02  0.47000000000E+01 0. -1.
         -5    1    1    2    0  502 -0.42230654809E+02  0.56123192284E+01  0.26253378639E+03  0.26600940835E+03  0.47000000000E+01 0. -1.
        -11    1    1    2    0    0 -0.20978202084E+02  0.73021009656E+01  0.11277757068E+03  0.11494427384E+03  0.00000000000E+00 0. -1.
         11    1    1    2    0    0  0.14042675956E+02 -0.34856167986E+02  0.93800544838E+01  0.38731571318E+02  0.00000000000E+00 0.  1.
<mgrwt>
<rscale>  0 0.11838170E+03</rscale>
<asrwt>0</asrwt>
<pdfrwt beam="1">  1        2 0.72483014E-01 0.12818720E+03</pdfrwt>
<pdfrwt beam="2">  1       -2 0.43211023E-02 0.12818720E+03</pdfrwt>
<totfact> 0.15297688E+04</totfact>
</mgrwt>
</event>
<event>
 6    1  0.5258538E-006  0.1637833E+03  0.7546771E-02  0.1191475E+00
         -4   -1    0    0    0  501 -0.00000000000E+00  0.00000000000E+00  0.18249369722E+03  0.18249369722E+03  0.00000000000E+00 0.  1.
          4   -1    0    0  501    0  0.00000000000E+00 -0.00000000000E+00 -0.14374598801E+03  0.14374598801E+03  0.00000000000E+00 0. -1.
          5    1    1    2  502    0  0.30222870600E+02 -0.20888030958E+02 -0.47698423428E+02  0.60390076521E+02  0.47000000000E+01 0.  1.
         -5    1    1    2    0  502  0.43683538663E+02  0.96978346501E+02  0.12300334513E+02  0.10717480800E+03  0.47000000000E+01 0.  1.
        -11    1    1    2    0    0 -0.37572286835E+02  0.15374827257E+02  0.31642241308E+02  0.51471287979E+02  0.00000000000E+00 0.  1.
         11    1    1    2    0    0 -0.36334122428E+02 -0.91465142800E+02  0.42503556816E+02  0.10720351273E+03  0.00000000000E+00 0. -1.
<mgrwt>
<rscale>  0 0.15756349E+03</rscale>
<asrwt>0</asrwt>
<pdfrwt beam="2">  1        4 0.22114767E-01 0.16378329E+03</pdfrwt>
<pdfrwt beam="1">  1       -4 0.28075953E-01 0.16378329E+03</pdfrwt>
<totfact> 0.38953038E+02</totfact>
</mgrwt>
</event>
<event>
 6    1  0.5258538E-006  0.1287196E+03  0.7546771E-02  0.1244043E+00
         -2   -1    0    0    0  501 -0.00000000000E+00  0.00000000000E+00  0.31484877052E+02  0.31484877052E+02  0.00000000000E+00 0.  1.
          2   -1    0    0  501    0  0.00000000000E+00 -0.00000000000E+00 -0.67520750210E+03  0.67520750210E+03  0.00000000000E+00 0. -1.
          5    1    1    2  502    0  0.69603862878E+01 -0.76879933277E+02 -0.31202617398E+03  0.32146756347E+03  0.47000000000E+01 0. -1.
         -5    1    1    2    0  502  0.73383427249E+01  0.49671411628E+02 -0.26270335991E+03  0.26749999199E+03  0.47000000000E+01 0. -1.
        -11    1    1    2    0    0 -0.30451307471E+02  0.55211088809E+02 -0.46412592812E+02  0.78292242437E+02  0.00000000000E+00 0.  1.
         11    1    1    2    0    0  0.16152578459E+02 -0.28002567161E+02 -0.22580498348E+02  0.39432581251E+02  0.00000000000E+00 0. -1.
<mgrwt>
<rscale>  0 0.11942860E+03</rscale>
<asrwt>0</asrwt>
<pdfrwt beam="2">  1        2 0.10387808E+00 0.12871963E+03</pdfrwt>
<pdfrwt beam="1">  1       -2 0.48438271E-02 0.12871963E+03</pdfrwt>
<totfact> 0.86142590E+03</totfact>
</mgrwt>
</event>
<event>
 6    1  0.5258538E-006  0.1294306E+03  0.7546771E-02  0.1242426E+00
          1   -1    0    0  501    0  0.00000000000E+00  0.00000000000E+00  0.56759296143E+03  0.56759296143E+03  0.00000000000E+00 0. -1.
         -1   -1    0    0    0  501 -0.00000000000E+00 -0.00000000000E+00 -0.32829835873E+02  0.32829835873E+02  0.00000000000E+00 0.  1.
          5    1    1    2  502    0  0.46100862993E+02  0.93643954219E+01  0.21104673918E+03  0.21627713146E+03  0.47000000000E+01 0.  1.
         -5    1    1    2    0  502 -0.76853188532E+02 -0.22863622721E+02  0.24934543116E+03  0.26196257724E+03  0.47000000000E+01 0.  1.
        -11    1    1    2    0    0  0.54593808244E+02 -0.34910477597E+01  0.16188576839E+02  0.57050340341E+02  0.00000000000E+00 0.  1.
         11    1    1    2    0    0 -0.23841482704E+02  0.16990275059E+02  0.58182378369E+02  0.65132748266E+02  0.00000000000E+00 0. -1.
<mgrwt>
<rscale>  0 0.12040794E+03</rscale>
<asrwt>0</asrwt>
<pdfrwt beam="1">  1        1 0.87321987E-01 0.12943055E+03</pdfrwt>
<pdfrwt beam="2">  1       -1 0.50507444E-02 0.12943055E+03</pdfrwt>
<totfact> 0.63187273E+03</totfact>
</mgrwt>
</event>
<event>
 6    1  0.5258538E-006  0.1637653E+03  0.7546771E-02  0.1191378E+00
          1   -1    0    0  501    0  0.00000000000E+00  0.00000000000E+00  0.11739511911E+03  0.11739511911E+03  0.00000000000E+00 0. -1.
         -1   -1    0    0    0  501 -0.00000000000E+00 -0.00000000000E+00 -0.23999785880E+03  0.23999785880E+03  0.00000000000E+00 0.  1.
          5    1    1    2  502    0  0.28698952121E+02  0.20126062991E+02  0.65204107160E+02  0.74177852860E+02  0.47000000000E+01 0.  1.
         -5    1    1    2    0  502  0.54615457424E+02  0.45094369138E+02 -0.55160604597E+02  0.89895120096E+02  0.47000000000E+01 0.  1.
        -11    1    1    2    0    0  0.18470221081E+01  0.17568115254E+02 -0.37721381817E+01  0.18063199902E+02  0.00000000000E+00 0. -1.
         11    1    1    2    0    0 -0.85161431653E+02 -0.82788547383E+02 -0.12887410406E+03  0.17525680505E+03  0.00000000000E+00 0.  1.
<mgrwt>
<rscale>  0 0.15764786E+03</rscale>
<asrwt>0</asrwt>
<pdfrwt beam="1">  1        1 0.18060788E-01 0.16376528E+03</pdfrwt>
<pdfrwt beam="2">  1       -1 0.36922747E-01 0.16376528E+03</pdfrwt>
<totfact> 0.20369568E+03</totfact>
</mgrwt>
</event>
<event>
 6    1  0.5258538E-006  0.1501351E+03  0.7546771E-02  0.1206388E+00
          2   -1    0    0  501    0  0.00000000000E+00  0.00000000000E+00  0.12847674555E+04  0.12847674555E+04  0.00000000000E+00 0. -1.
         -2   -1    0    0    0  501 -0.00000000000E+00 -0.00000000000E+00 -0.23755315337E+02  0.23755315337E+02  0.00000000000E+00 0.  1.
          5    1    1    2  502    0  0.20969676455E+02  0.56958444443E+01  0.25806304558E+02  0.34062080522E+02  0.47000000000E+01 0. -1.
         -5    1    1    2    0  502  0.14385884434E+02  0.69578743549E+02  0.10178671157E+04  0.10203546984E+04  0.47000000000E+01 0. -1.
        -11    1    1    2    0    0 -0.47821208663E+02 -0.90876002306E+02  0.13636758753E+03  0.17070862521E+03  0.00000000000E+00 0.  1.
         11    1    1    2    0    0  0.12465647775E+02  0.15601414312E+02  0.80971132360E+02  0.83397366737E+02  0.00000000000E+00 0. -1.
<mgrwt>
<rscale>  0 0.14528578E+03</rscale>
<asrwt>0</asrwt>
<pdfrwt beam="1">  1        2 0.19765648E+00 0.15013506E+03</pdfrwt>
<pdfrwt beam="2">  1       -2 0.36546649E-02 0.15013506E+03</pdfrwt>
<totfact> 0.55437976E+03</totfact>
</mgrwt>
</event>
<event>
 6    1  0.5258538E-006  0.1381872E+03  0.7546771E-02  0.1225576E+00
         -1   -1    0    0    0  501 -0.00000000000E+00  0.00000000000E+00  0.69730533741E+02  0.69730533741E+02  0.00000000000E+00 0.  1.
          1   -1    0    0  501    0  0.00000000000E+00 -0.00000000000E+00 -0.23459669155E+03  0.23459669155E+03  0.00000000000E+00 0. -1.
          5    1    1    2  502    0  0.39163643071E+02  0.12320010068E+02 -0.14605000662E+03  0.15178362237E+03  0.47000000000E+01 0.  1.
         -5    1    1    2    0  502  0.17725867390E+02  0.30073190758E+01  0.25529218896E+02  0.31576595133E+02  0.47000000000E+01 0.  1.
        -11    1    1    2    0    0 -0.11355844731E+02  0.38758994001E+02 -0.69383351372E+01  0.40979938018E+02  0.00000000000E+00 0.  1.
         11    1    1    2    0    0 -0.45533665731E+02 -0.54086323145E+02 -0.37407034946E+02  0.79987069765E+02  0.00000000000E+00 0. -1.
<mgrwt>
<rscale>  0 0.13127530E+03</rscale>
<asrwt>0</asrwt>
<pdfrwt beam="2">  1        1 0.36091799E-01 0.13818722E+03</pdfrwt>
<pdfrwt beam="1">  1       -1 0.10727774E-01 0.13818722E+03</pdfrwt>
<totfact> 0.62382634E+03</totfact>
</mgrwt>
</event>
<event>
 6    1  0.5258538E-006  0.1613382E+03  0.7546771E-02  0.1219625E+00
         -2   -1    0    0    0  501 -0.00000000000E+00  0.00000000000E+00  0.17161288879E+02  0.17161288879E+02  0.00000000000E+00 0.  1.
          2   -1    0    0  501    0  0.00000000000E+00 -0.00000000000E+00 -0.98212642347E+03  0.98212642347E+03  0.00000000000E+00 0. -1.
          5    1    1    2  502    0  0.37311896022E+02 -0.36319657788E+02 -0.79098316494E+03  0.79270912215E+03  0.47000000000E+01 0. -1.
         -5    1    1    2    0  502 -0.78231209480E+01 -0.17721832049E+02 -0.65541926095E+01  0.20983612494E+02  0.47000000000E+01 0.  1.
        -11    1    1    2    0    0 -0.84202844491E+01 -0.95146647385E+01 -0.20309580283E+02  0.23956399699E+02  0.00000000000E+00 0. -1.
         11    1    1    2    0    0 -0.21068490625E+02  0.63556154575E+02 -0.14711819676E+03  0.16163857801E+03  0.00000000000E+00 0.  1.
<mgrwt>
<rscale>  0 0.13542204E+03</rscale>
<asrwt>0</asrwt>
<pdfrwt beam="2">  1        2 0.15109641E+00 0.16133825E+03</pdfrwt>
<pdfrwt beam="1">  1       -2 0.26401977E-02 0.16133825E+03</pdfrwt>
<totfact> 0.13383304E+04</totfact>
</mgrwt>
</event>
<event>
 6    1  0.5258538E-006  0.1252891E+03  0.7546771E-02  0.1251571E+00
          1   -1    0    0  501    0  0.00000000000E+00  0.00000000000E+00  0.10027353979E+04  0.10027353979E+04  0.00000000000E+00 0. -1.
         -1   -1    0    0    0  501 -0.00000000000E+00 -0.00000000000E+00 -0.11583414558E+02  0.11583414558E+02  0.00000000000E+00 0.  1.
          5    1    1    2  502    0 -0.26005697758E+02 -0.51641245172E+02  0.23874899101E+03  0.24569551324E+03  0.47000000000E+01 0.  1.
         -5    1    1    2    0  502  0.33685225139E+02  0.55445894726E+02  0.39489328640E+03  0.40021461652E+03  0.47000000000E+01 0.  1.
        -11    1    1    2    0    0 -0.29093748356E+01 -0.46080678274E+02  0.19929431674E+03  0.20457301400E+03  0.00000000000E+00 0. -1.
         11    1    1    2    0    0 -0.47701525460E+01  0.42276028720E+02  0.15821538923E+03  0.16383566873E+03  0.00000000000E+00 0.  1.
<mgrwt>
<rscale>  0 0.11500565E+03</rscale>
<asrwt>0</asrwt>
<pdfrwt beam="1">  1        1 0.15426692E+00 0.12528911E+03</pdfrwt>
<pdfrwt beam="2">  1       -1 0.17820646E-02 0.12528911E+03</pdfrwt>
<totfact> 0.12355698E+04</totfact>
</mgrwt>
</event>
<event>
 6    1  0.5258538E-006  0.1320141E+03  0.7546771E-02  0.1237205E+00
         -2   -1    0    0    0  501 -0.00000000000E+00  0.00000000000E+00  0.29082658706E+03  0.29082658706E+03  0.00000000000E+00 0.  1.
          2   -1    0    0  501    0  0.00000000000E+00 -0.00000000000E+00 -0.62720452223E+02  0.62720452223E+02  0.00000000000E+00 0. -1.
          5    1    1    2  502    0  0.59644753188E+02  0.41063620548E+02  0.88222662670E+01  0.73100204497E+02  0.47000000000E+01 0.  1.
         -5    1    1    2    0  502 -0.19194044986E+02 -0.53965883198E+02  0.28146313003E+02  0.63992443678E+02  0.47000000000E+01 0.  1.
        -11    1    1    2    0    0 -0.24555686021E+02  0.53001101344E+02  0.10714201000E+03  0.12203076975E+03  0.00000000000E+00 0. -1.
         11    1    1    2    0    0 -0.15895022181E+02 -0.40098838694E+02  0.83995545577E+02  0.94423621365E+02  0.00000000000E+00 0.  1.
<mgrwt>
<rscale>  0 0.12364301E+03</rscale>
<asrwt>0</asrwt>
<pdfrwt beam="2">  1        2 0.96493005E-02 0.13201408E+03</pdfrwt>
<pdfrwt beam="1">  1       -2 0.44742551E-01 0.13201408E+03</pdfrwt>
<totfact> 0.30741332E+03</totfact>
</mgrwt>
</event>
<event>
 6    1  0.5258538E-006  0.1790834E+03  0.7546771E-02  0.1174463E+00
          2   -1    0    0  501    0  0.00000000000E+00  0.00000000000E+00  0.13216618773E+04  0.13216618773E+04  0.00000000000E+00 0. -1.
         -2   -1    0    0    0  501 -0.00000000000E+00 -0.00000000000E+00 -0.21474257902E+02  0.21474257902E+02  0.00000000000E+00 0.  1.
          5    1    1    2  502    0 -0.20916805611E+02  0.60063397723E+02  0.25308168979E+03  0.26099340262E+03  0.47000000000E+01 0.  1.
         -5    1    1    2    0  502 -0.10624481519E+03 -0.43419889610E+02  0.39181099083E+03  0.40830281667E+03  0.47000000000E+01 0.  1.
        -11    1    1    2    0    0  0.70708746050E+02  0.35600456088E+02  0.29596650296E+03  0.30637116398E+03  0.00000000000E+00 0. -1.
         11    1    1    2    0    0  0.56452874747E+02 -0.52243964202E+02  0.35932843584E+03  0.36746875196E+03  0.00000000000E+00 0.  1.
<mgrwt>
<rscale>  0 0.17328696E+03</rscale>
<asrwt>0</asrwt>
<pdfrwt beam="1">  1        2 0.20333253E+00 0.17908339E+03</pdfrwt>
<pdfrwt beam="2">  1       -2 0.33037330E-02 0.17908339E+03</pdfrwt>
<totfact> 0.61823694E+03</totfact>
</mgrwt>
</event>
<event>
 6    1  0.5258538E-006  0.3074613E+03  0.7546771E-02  0.1081569E+00
         -1   -1    0    0    0  501 -0.00000000000E+00  0.00000000000E+00  0.26085577902E+02  0.26085577902E+02  0.00000000000E+00 0.  1.
          1   -1    0    0  501    0  0.00000000000E+00 -0.00000000000E+00 -0.90598400031E+03  0.90598400031E+03  0.00000000000E+00 0. -1.
          5    1    1    2  502    0  0.26327994525E+02 -0.20850036717E+02 -0.33198620558E+02  0.47456566814E+02  0.47000000000E+01 0.  1.
         -5    1    1    2    0  502 -0.82471323627E+02 -0.72474696211E+02 -0.45667961111E+03  0.46971529463E+03  0.47000000000E+01 0.  1.
        -11    1    1    2    0    0  0.35541729577E+02  0.31696786795E+02 -0.51284565061E+02  0.69985766038E+02  0.00000000000E+00 0.  1.
         11    1    1    2    0    0  0.20601599525E+02  0.61627946134E+02 -0.33873562568E+03  0.34491195073E+03  0.00000000000E+00 0. -1.
<mgrwt>
<rscale>  0 0.30746132E+03</rscale>
<asrwt>0</asrwt>
<pdfrwt beam="2">  1        1 0.13938212E+00 0.30746132E+03</pdfrwt>
<pdfrwt beam="1">  1       -1 0.40131669E-02 0.30746132E+03</pdfrwt>
<totfact> 0.46305866E+03</totfact>
</mgrwt>
</event>
<event>
 6    1  0.5258538E-006  0.3560713E+03  0.7546771E-02  0.1060150E+00
          2   -1    0    0  501    0  0.00000000000E+00  0.00000000000E+00  0.84436970490E+03  0.84436970490E+03  0.00000000000E+00 0. -1.
         -2   -1    0    0    0  501 -0.00000000000E+00 -0.00000000000E+00 -0.37538888978E+02  0.37538888978E+02  0.00000000000E+00 0.  1.
          5    1    1    2  502    0 -0.31059357280E+02  0.11523509384E+02  0.31783847300E+03  0.31959483703E+03  0.47000000000E+01 0.  1.
         -5    1    1    2    0  502  0.96419944815E+02  0.45030469063E+02  0.38341481912E+03  0.39793663116E+03  0.47000000000E+01 0.  1.
        -11    1    1    2    0    0 -0.64710602835E+02  0.27780434867E+01  0.69175902636E+02  0.94765421702E+02  0.00000000000E+00 0.  1.
         11    1    1    2    0    0 -0.64998470066E+00 -0.59332021934E+02  0.36401621174E+02  0.69611703980E+02  0.00000000000E+00 0. -1.
<mgrwt>
<rscale>  0 0.35607134E+03</rscale>
<asrwt>0</asrwt>
<pdfrwt beam="1">  1        2 0.12990302E+00 0.35607134E+03</pdfrwt>
<pdfrwt beam="2">  1       -2 0.57752143E-02 0.35607134E+03</pdfrwt>
<totfact> 0.52146106E+03</totfact>
</mgrwt>
</event>
<event>
 6    1  0.5258538E-006  0.1335646E+03  0.7546771E-02  0.1235538E+00
          1   -1    0    0  501    0  0.00000000000E+00  0.00000000000E+00  0.99784410050E+02  0.99784410050E+02  0.00000000000E+00 0. -1.
         -1   -1    0    0    0  501 -0.00000000000E+00 -0.00000000000E+00 -0.14003891283E+03  0.14003891283E+03  0.00000000000E+00 0.  1.
          5    1    1    2  502    0 -0.64919355501E+02 -0.33378778909E+02 -0.12269307255E+02  0.74170691655E+02  0.47000000000E+01 0. -1.
         -5    1    1    2    0  502  0.58060960785E+02 -0.13219797524E+02  0.22027944558E+01  0.59772740587E+02  0.47000000000E+01 0. -1.
        -11    1    1    2    0    0 -0.41407815893E+02  0.16713956765E+02 -0.15135388743E+02  0.47149162879E+02  0.00000000000E+00 0.  1.
         11    1    1    2    0    0  0.48266210609E+02  0.29884619668E+02 -0.15052601238E+02  0.58730727760E+02  0.00000000000E+00 0. -1.
<mgrwt>
<rscale>  0 0.12470079E+03</rscale>
<asrwt>0</asrwt>
<pdfrwt beam="1">  1        1 0.15351448E-01 0.13356462E+03</pdfrwt>
<pdfrwt beam="2">  1       -1 0.21544448E-01 0.13356462E+03</pdfrwt>
<totfact> 0.61178774E+03</totfact>
</mgrwt>
</event>
<event>
 6    1  0.5258538E-006  0.1305368E+03  0.7546771E-02  0.1233481E+00
          2   -1    0    0  501    0  0.00000000000E+00  0.00000000000E+00  0.18776205446E+03  0.18776205446E+03  0.00000000000E+00 0. -1.
         -2   -1    0    0    0  501 -0.00000000000E+00 -0.00000000000E+00 -0.17280823093E+03  0.17280823093E+03  0.00000000000E+00 0.  1.
          5    1    1    2  502    0  0.12701529631E+02  0.60900118262E+02  0.50254232234E+02  0.80110742830E+02  0.47000000000E+01 0. -1.
         -5    1    1    2    0  502 -0.63353079010E+02 -0.17167269898E+02  0.89984904887E+02  0.11147959851E+03  0.47000000000E+01 0.  1.
        -11    1    1    2    0    0  0.33528218771E+02 -0.68934334366E+02 -0.61447828224E+02  0.98244183044E+02  0.00000000000E+00 0.  1.
         11    1    1    2    0    0  0.17123330607E+02  0.25201486002E+02 -0.63837485363E+02  0.70735761007E+02  0.00000000000E+00 0. -1.
<mgrwt>
<rscale>  0 0.12602174E+03</rscale>
<asrwt>0</asrwt>
<pdfrwt beam="1">  1        2 0.28886470E-01 0.13053675E+03</pdfrwt>
<pdfrwt beam="2">  1       -2 0.26585882E-01 0.13053675E+03</pdfrwt>
<totfact> 0.22579729E+03</totfact>
</mgrwt>
</event>
<event>
 6    1  0.5258538E-006  0.1316869E+03  0.7546771E-02  0.1238783E+00
          1   -1    0    0  501    0  0.00000000000E+00  0.00000000000E+00  0.55673439721E+02  0.55673439721E+02  0.00000000000E+00 0. -1.
         -1   -1    0    0    0  501 -0.00000000000E+00 -0.00000000000E+00 -0.33607354806E+03  0.33607354806E+03  0.00000000000E+00 0.  1.
          5    1    1    2  502    0  0.72038200228E+02  0.20697931894E+00 -0.42522522593E+02  0.83784247088E+02  0.47000000000E+01 0. -1.
         -5    1    1    2    0  502 -0.46247848458E+02  0.32206161098E+02 -0.73409596260E+01  0.57027011038E+02  0.47000000000E+01 0. -1.
        -11    1    1    2    0    0 -0.40581701335E+02  0.18872583758E+02 -0.87872863995E+02  0.98613838418E+02  0.00000000000E+00 0.  1.
         11    1    1    2    0    0  0.14791349565E+02 -0.51285724175E+02 -0.14266376212E+03  0.15232189123E+03  0.00000000000E+00 0. -1.
<mgrwt>
<rscale>  0 0.12265345E+03</rscale>
<asrwt>0</asrwt>
<pdfrwt beam="1">  1        1 0.85651446E-02 0.13168691E+03</pdfrwt>
<pdfrwt beam="2">  1       -1 0.51703622E-01 0.13168691E+03</pdfrwt>
<totfact> 0.29430434E+03</totfact>
</mgrwt>
</event>
<event>
 6    1  0.5258538E-006  0.3626957E+03  0.7546771E-02  0.1057522E+00
         -1   -1    0    0    0  501 -0.00000000000E+00  0.00000000000E+00  0.14408015314E+03  0.14408015314E+03  0.00000000000E+00 0.  1.
          1   -1    0    0  501    0  0.00000000000E+00 -0.00000000000E+00 -0.22825514647E+03  0.22825514647E+03  0.00000000000E+00 0. -1.
          5    1    1    2  502    0  0.12736926996E+02  0.49779623639E+00 -0.73761808744E+02  0.75002476890E+02  0.47000000000E+01 0. -1.
         -5    1    1    2    0  502  0.80105948756E+02  0.10297543515E+03 -0.13274384057E+02  0.13122195907E+03  0.47000000000E+01 0. -1.
        -11    1    1    2    0    0 -0.41032229130E+02 -0.31869940825E+02  0.44503716539E+02  0.68409924290E+02  0.00000000000E+00 0.  1.
         11    1    1    2    0    0 -0.51810646621E+02 -0.71603290566E+02 -0.41642517071E+02  0.97700939357E+02  0.00000000000E+00 0. -1.
<mgrwt>
<rscale>  0 0.36269567E+03</rscale>
<asrwt>0</asrwt>
<pdfrwt beam="2">  1        1 0.35116176E-01 0.36269567E+03</pdfrwt>
<pdfrwt beam="1">  1       -1 0.22166177E-01 0.36269567E+03</pdfrwt>
<totfact> 0.21180216E+03</totfact>
</mgrwt>
</event>
<event>
 6    1  0.5258538E-006  0.2832436E+03  0.7546771E-02  0.1093930E+00
          1   -1    0    0  501    0  0.00000000000E+00  0.00000000000E+00  0.40726835257E+03  0.40726835257E+03  0.00000000000E+00 0. -1.
         -1   -1    0    0    0  501 -0.00000000000E+00 -0.00000000000E+00 -0.49246958531E+02  0.49246958531E+02  0.00000000000E+00 0.  1.
          5    1    1    2  502    0  0.30138650041E+02 -0.13470082317E+02  0.59902054322E+01  0.33878516866E+02  0.47000000000E+01 0.  1.
         -5    1    1    2    0  502 -0.97386626436E+02 -0.44746718759E+02  0.15500625284E+03  0.18850849389E+03  0.47000000000E+01 0.  1.
        -11    1    1    2    0    0  0.64320943274E+02  0.45769055651E+01  0.14784863695E+03  0.16129894995E+03  0.00000000000E+00 0. -1.
         11    1    1    2    0    0  0.29270331214E+01  0.53639895511E+02  0.49176298818E+02  0.72829350394E+02  0.00000000000E+00 0.  1.
<mgrwt>
<rscale>  0 0.28324355E+03</rscale>
<asrwt>0</asrwt>
<pdfrwt beam="1">  1        1 0.62656667E-01 0.28324355E+03</pdfrwt>
<pdfrwt beam="2">  1       -1 0.75764554E-02 0.28324355E+03</pdfrwt>
<totfact> 0.55168486E+03</totfact>
</mgrwt>
</event>
<event>
 6    1  0.5258538E-006  0.1341584E+03  0.7546771E-02  0.1234052E+00
          2   -1    0    0  501    0  0.00000000000E+00  0.00000000000E+00  0.13669492577E+03  0.13669492577E+03  0.00000000000E+00 0. -1.
         -2   -1    0    0    0  501 -0.00000000000E+00 -0.00000000000E+00 -0.10498771406E+03  0.10498771406E+03  0.00000000000E+00 0.  1.
          5    1    1    2  502    0  0.17563938917E+02 -0.67982913601E+02 -0.17530106791E+02  0.72522845615E+02  0.47000000000E+01 0. -1.
         -5    1    1    2    0  502 -0.34142997045E+02  0.22173101387E+02  0.51599840627E+02  0.65894037857E+02  0.47000000000E+01 0. -1.
        -11    1    1    2    0    0 -0.34039322737E+02  0.50475399382E+01  0.12474856437E+02  0.36602939704E+02  0.00000000000E+00 0. -1.
         11    1    1    2    0    0  0.50618380864E+02  0.40762272276E+02 -0.14837378563E+02  0.66662816660E+02  0.00000000000E+00 0.  1.
<mgrwt>
<rscale>  0 0.12565338E+03</rscale>
<asrwt>0</asrwt>
<pdfrwt beam="1">  1        2 0.21029989E-01 0.13415844E+03</pdfrwt>
<pdfrwt beam="2">  1       -2 0.16151956E-01 0.13415844E+03</pdfrwt>
<totfact> 0.74939586E+03</totfact>
</mgrwt>
</event>
<event>
 6    1  0.5258538E-006  0.1421049E+03  0.7546771E-02  0.1220916E+00
         -2   -1    0    0    0  501 -0.00000000000E+00  0.00000000000E+00  0.26215275435E+02  0.26215275435E+02  0.00000000000E+00 0.  1.
          2   -1    0    0  501    0  0.00000000000E+00 -0.00000000000E+00 -0.62584360394E+03  0.62584360394E+03  0.00000000000E+00 0. -1.
          5    1    1    2  502    0 -0.33941333326E+02 -0.28235551441E+02 -0.16499981981E+03  0.17086922195E+03  0.47000000000E+01 0. -1.
         -5    1    1    2    0  502  0.90913146592E+02 -0.80596928758E+01 -0.16959636173E+03  0.19265299060E+03  0.47000000000E+01 0. -1.
        -11    1    1    2    0    0 -0.56122960174E+02  0.22251903180E+02 -0.26752136485E+03  0.27424918323E+03  0.00000000000E+00 0. -1.
         11    1    1    2    0    0 -0.84885309208E+00  0.14043341137E+02  0.24892178833E+01  0.14287483597E+02  0.00000000000E+00 0.  1.
<mgrwt>
<rscale>  0 0.13450768E+03</rscale>
<asrwt>0</asrwt>
<pdfrwt beam="2">  1        2 0.96283623E-01 0.14210487E+03</pdfrwt>
<pdfrwt beam="1">  1       -2 0.40331196E-02 0.14210487E+03</pdfrwt>
<totfact> 0.12446772E+04</totfact>
</mgrwt>
</event>
<event>
 6    1  0.5258538E-006  0.2146757E+03  0.7546771E-02  0.1141484E+00
          1   -1    0    0  501    0  0.00000000000E+00  0.00000000000E+00  0.91760179642E+03  0.91760179642E+03  0.00000000000E+00 0. -1.
         -1   -1    0    0    0  501 -0.00000000000E+00 -0.00000000000E+00 -0.57377287137E+02  0.57377287137E+02  0.00000000000E+00 0.  1.
          5    1    1    2  502    0 -0.66511428189E+02 -0.19691078824E+02  0.13121928048E+03  0.14849948900E+03  0.47000000000E+01 0.  1.
         -5    1    1    2    0  502 -0.18414851247E+02 -0.13278943600E+03  0.52910837929E+03  0.54584788000E+03  0.47000000000E+01 0.  1.
        -11    1    1    2    0    0  0.33812919899E+02  0.73917136950E+02  0.30088709984E+02  0.86674028148E+02  0.00000000000E+00 0.  1.
         11    1    1    2    0    0  0.51113359537E+02  0.78563377876E+02  0.16980813952E+03  0.19395768640E+03  0.00000000000E+00 0. -1.
<mgrwt>
<rscale>  0 0.21010418E+03</rscale>
<asrwt>0</asrwt>
<pdfrwt beam="1">  1        1 0.14116950E+00 0.21467569E+03</pdfrwt>
<pdfrwt beam="2">  1       -1 0.88272756E-02 0.21467569E+03</pdfrwt>
<totfact> 0.13687406E+03</totfact>
</mgrwt>
</event>
<event>
 6    1  0.5258538E-006  0.3574222E+03  0.7546771E-02  0.1059609E+00
          2   -1    0    0  501    0  0.00000000000E+00  0.00000000000E+00  0.24960357953E+03  0.24960357953E+03  0.00000000000E+00 0.  1.
         -2   -1    0    0    0  501 -0.00000000000E+00 -0.00000000000E+00 -0.12795353980E+03  0.12795353980E+03  0.00000000000E+00 0. -1.
          5    1    1    2  502    0  0.14134071338E+02 -0.26144229159E+02  0.36743930819E+02  0.47492095584E+02  0.47000000000E+01 0.  1.
         -5    1    1    2    0  502 -0.47067041954E+02  0.12135830084E+03  0.13247486151E+03  0.18578165290E+03  0.47000000000E+01 0.  1.
        -11    1    1    2    0    0 -0.17132043708E+02 -0.37247689048E+02  0.16727920009E+02  0.44280024490E+02  0.00000000000E+00 0.  1.
         11    1    1    2    0    0  0.50065014324E+02 -0.57966382632E+02 -0.64296672602E+02  0.10000334636E+03  0.00000000000E+00 0. -1.
<mgrwt>
<rscale>  0 0.35742222E+03</rscale>
<asrwt>0</asrwt>
<pdfrwt beam="1">  1        2 0.38400551E-01 0.35742222E+03</pdfrwt>
<pdfrwt beam="2">  1       -2 0.19685160E-01 0.35742222E+03</pdfrwt>
<totfact> 0.28987627E+03</totfact>
</mgrwt>
</event>
<event>
 6    1  0.5258538E-006  0.3428521E+03  0.7546771E-02  0.1065588E+00
          3   -1    0    0  501    0  0.00000000000E+00  0.00000000000E+00  0.87869389295E+02  0.87869389295E+02  0.00000000000E+00 0. -1.
         -3   -1    0    0    0  501 -0.00000000000E+00 -0.00000000000E+00 -0.33443840953E+03  0.33443840953E+03  0.00000000000E+00 0.  1.
          5    1    1    2  502    0 -0.80499504865E+01 -0.22604480640E+02  0.30300338471E+02  0.38935392116E+02  0.47000000000E+01 0. -1.
         -5    1    1    2    0  502 -0.10906348218E+03  0.23721052991E+02 -0.86685917956E+02  0.14140038852E+03  0.47000000000E+01 0. -1.
        -11    1    1    2    0    0  0.45262741639E+02  0.40804910168E+02 -0.49398189044E+02  0.78447036625E+02  0.00000000000E+00 0. -1.
         11    1    1    2    0    0  0.71850691031E+02 -0.41921482520E+02 -0.14078525170E+03  0.16352498156E+03  0.00000000000E+00 0.  1.
<mgrwt>
<rscale>  0 0.34285215E+03</rscale>
<asrwt>0</asrwt>
<pdfrwt beam="1">  1        3 0.13518367E-01 0.34285215E+03</pdfrwt>
<pdfrwt beam="2">  1       -3 0.51452064E-01 0.34285215E+03</pdfrwt>
<totfact> 0.43276543E+02</totfact>
</mgrwt>
</event>
<event>
 6    1  0.5258538E-006  0.1336572E+03  0.7546771E-02  0.1234663E+00
          1   -1    0    0  501    0  0.00000000000E+00  0.00000000000E+00  0.14767077921E+03  0.14767077921E+03  0.00000000000E+00 0. -1.
         -1   -1    0    0    0  501 -0.00000000000E+00 -0.00000000000E+00 -0.96330723336E+02  0.96330723336E+02  0.00000000000E+00 0.  1.
          5    1    1    2  502    0 -0.34501171553E+02  0.29316729286E+02 -0.49181084291E+01  0.45782958020E+02  0.47000000000E+01 0.  1.
         -5    1    1    2    0  502  0.40730909473E+02 -0.76212134443E+02  0.19105959679E+02  0.88625188960E+02  0.47000000000E+01 0.  1.
        -11    1    1    2    0    0 -0.40089058878E+02  0.32612724813E+02  0.48764142162E+02  0.71053951489E+02  0.00000000000E+00 0. -1.
         11    1    1    2    0    0  0.33859320958E+02  0.14282680345E+02 -0.11611937535E+02  0.38539404081E+02  0.00000000000E+00 0.  1.
<mgrwt>
<rscale>  0 0.12526021E+03</rscale>
<asrwt>0</asrwt>
<pdfrwt beam="1">  1        1 0.22718581E-01 0.13365723E+03</pdfrwt>
<pdfrwt beam="2">  1       -1 0.14820111E-01 0.13365723E+03</pdfrwt>
<totfact> 0.67238259E+03</totfact>
</mgrwt>
</event>
<event>
 6    1  0.5258538E-006  0.1348934E+03  0.7546771E-02  0.1230694E+00
         -2   -1    0    0    0  501 -0.00000000000E+00  0.00000000000E+00  0.26573731892E+02  0.26573731892E+02  0.00000000000E+00 0.  1.
          2   -1    0    0  501    0  0.00000000000E+00 -0.00000000000E+00 -0.66804379840E+03  0.66804379840E+03  0.00000000000E+00 0. -1.
          5    1    1    2  502    0  0.36715694903E+02  0.13170899424E+02 -0.16407482207E+03  0.16871322438E+03  0.47000000000E+01 0.  1.
         -5    1    1    2    0  502 -0.90685412779E+02 -0.28199699730E+02 -0.32513350325E+03  0.33875205106E+03  0.47000000000E+01 0.  1.
        -11    1    1    2    0    0  0.31786922132E+02  0.27299247831E+02 -0.10573491996E+02  0.43214072751E+02  0.00000000000E+00 0.  1.
         11    1    1    2    0    0  0.22182795745E+02 -0.12270447525E+02 -0.14168824918E+03  0.14393818210E+03  0.00000000000E+00 0. -1.
<mgrwt>
<rscale>  0 0.12784171E+03</rscale>
<asrwt>0</asrwt>
<pdfrwt beam="2">  1        2 0.10277597E+00 0.13489337E+03</pdfrwt>
<pdfrwt beam="1">  1       -2 0.40882664E-02 0.13489337E+03</pdfrwt>
<totfact> 0.11268012E+04</totfact>
</mgrwt>
</event>
<event>
 6    1  0.5258538E-006  0.1541147E+03  0.7546771E-02  0.1200181E+00
          1   -1    0    0  501    0  0.00000000000E+00  0.00000000000E+00  0.35293120913E+03  0.35293120913E+03  0.00000000000E+00 0. -1.
         -1   -1    0    0    0  501 -0.00000000000E+00 -0.00000000000E+00 -0.60943704036E+02  0.60943704036E+02  0.00000000000E+00 0.  1.
          5    1    1    2  502    0 -0.38747152796E+02  0.21925117229E+02  0.64667015239E+02  0.78650908928E+02  0.47000000000E+01 0. -1.
         -5    1    1    2    0  502  0.72233872719E+02  0.78139333204E+02  0.86337198691E+02  0.13711196023E+03  0.47000000000E+01 0.  1.
        -11    1    1    2    0    0  0.90156488841E+01 -0.20110553870E+02 -0.82698641910E+01  0.23539476534E+02  0.00000000000E+00 0.  1.
         11    1    1    2    0    0 -0.42502368806E+02 -0.79953896563E+02  0.14925315535E+03  0.17457256747E+03  0.00000000000E+00 0. -1.
<mgrwt>
<rscale>  0 0.15023812E+03</rscale>
<asrwt>0</asrwt>
<pdfrwt beam="1">  1        1 0.54297108E-01 0.15411471E+03</pdfrwt>
<pdfrwt beam="2">  1       -1 0.93759547E-02 0.15411471E+03</pdfrwt>
<totfact> 0.46456330E+03</totfact>
</mgrwt>
</event>
<event>
 6    1  0.5258538E-006  0.1254775E+03  0.7546771E-02  0.1249984E+00
          2   -1    0    0  501    0  0.00000000000E+00  0.00000000000E+00  0.70834166978E+03  0.70834166978E+03  0.00000000000E+00 0.  1.
         -2   -1    0    0    0  501 -0.00000000000E+00 -0.00000000000E+00 -0.45977760300E+02  0.45977760300E+02  0.00000000000E+00 0. -1.
          5    1    1    2  502    0 -0.31226095100E+01  0.35080009443E+02  0.56250098344E+02  0.66532107410E+02  0.47000000000E+01 0.  1.
         -5    1    1    2    0  502  0.69664119738E+01 -0.44396899884E+02  0.59385512303E+03  0.59557166887E+03  0.47000000000E+01 0.  1.
        -11    1    1    2    0    0  0.22604547335E+02  0.36799219320E+02  0.27435888900E+02  0.51165184476E+02  0.00000000000E+00 0.  1.
         11    1    1    2    0    0 -0.26448349798E+02 -0.27482328880E+02 -0.15177200792E+02  0.41050469322E+02  0.00000000000E+00 0. -1.
<mgrwt>
<rscale>  0 0.11591983E+03</rscale>
<asrwt>0</asrwt>
<pdfrwt beam="1">  1        2 0.10897563E+00 0.12547753E+03</pdfrwt>
<pdfrwt beam="2">  1       -2 0.70735021E-02 0.12547753E+03</pdfrwt>
<totfact> 0.45860799E+03</totfact>
</mgrwt>
</event>
<event>
 6    1  0.5258538E-006  0.1578233E+03  0.7546771E-02  0.1199282E+00
         -1   -1    0    0    0  501 -0.00000000000E+00  0.00000000000E+00  0.12615292456E+03  0.12615292456E+03  0.00000000000E+00 0.  1.
          1   -1    0    0  501    0  0.00000000000E+00 -0.00000000000E+00 -0.25389964570E+03  0.25389964570E+03  0.00000000000E+00 0. -1.
          5    1    1    2  502    0 -0.92653855264E+01 -0.43850534774E+02 -0.27960490386E+02  0.53033911712E+02  0.47000000000E+01 0. -1.
         -5    1    1    2    0  502 -0.84174566035E+02  0.67353174850E+02 -0.15073846803E+03  0.18538064482E+03  0.47000000000E+01 0. -1.
        -11    1    1    2    0    0  0.10199944485E+02 -0.31947522799E+02  0.47181374755E+02  0.57885794495E+02  0.00000000000E+00 0.  1.
         11    1    1    2    0    0  0.83240007076E+02  0.84448827230E+01  0.37708625142E+01  0.83752219232E+02  0.00000000000E+00 0. -1.
<mgrwt>
<rscale>  0 0.15097323E+03</rscale>
<asrwt>0</asrwt>
<pdfrwt beam="2">  1        1 0.39061484E-01 0.15782327E+03</pdfrwt>
<pdfrwt beam="1">  1       -1 0.19408142E-01 0.15782327E+03</pdfrwt>
<totfact> 0.22482307E+03</totfact>
</mgrwt>
</event>
<event>
 6    1  0.5258538E-006  0.1472095E+03  0.7546771E-02  0.1214574E+00
         -2   -1    0    0    0  501 -0.00000000000E+00  0.00000000000E+00  0.46178881401E+02  0.46178881401E+02  0.00000000000E+00 0.  1.
          2   -1    0    0  501    0  0.00000000000E+00 -0.00000000000E+00 -0.42334722361E+03  0.42334722361E+03  0.00000000000E+00 0. -1.
          5    1    1    2  502    0 -0.15746603237E+02  0.64671717537E+02 -0.10045534965E+03  0.12059748685E+03  0.47000000000E+01 0. -1.
         -5    1    1    2    0  502 -0.60337706759E+02 -0.48697630006E+02 -0.18300052924E+03  0.19880488356E+03  0.47000000000E+01 0. -1.
        -11    1    1    2    0    0 -0.23683471220E+01  0.25848400315E+02 -0.35030073590E+02  0.43598794968E+02  0.00000000000E+00 0.  1.
         11    1    1    2    0    0  0.78452657118E+02 -0.41822487846E+02 -0.58682389732E+02  0.10652493963E+03  0.00000000000E+00 0. -1.
<mgrwt>
<rscale>  0 0.13907847E+03</rscale>
<asrwt>0</asrwt>
<pdfrwt beam="2">  1        2 0.65130342E-01 0.14720951E+03</pdfrwt>
<pdfrwt beam="1">  1       -2 0.71044434E-02 0.14720951E+03</pdfrwt>
<totfact> 0.81851208E+03</totfact>
</mgrwt>
</event>
<event>
 6    1  0.5258538E-006  0.1367595E+03  0.7546771E-02  0.1230440E+00
          3   -1    0    0  501    0  0.00000000000E+00  0.00000000000E+00  0.10053112706E+03  0.10053112706E+03  0.00000000000E+00 0. -1.
         -3   -1    0    0    0  501 -0.00000000000E+00 -0.00000000000E+00 -0.14550410882E+03  0.14550410882E+03  0.00000000000E+00 0.  1.
          5    1    1    2  502    0 -0.27349679647E+02  0.79279023275E+02  0.12927877751E+02  0.84984637031E+02  0.47000000000E+01 0. -1.
         -5    1    1    2    0  502  0.24641192330E+02 -0.23858989905E+02 -0.42712324992E+02  0.54980655370E+02  0.47000000000E+01 0. -1.
        -11    1    1    2    0    0 -0.11087646166E+02  0.12604403339E+02  0.21725137840E+02  0.27455208890E+02  0.00000000000E+00 0.  1.
         11    1    1    2    0    0  0.13796133483E+02 -0.68024436708E+02 -0.36913672360E+02  0.78614734596E+02  0.00000000000E+00 0. -1.
<mgrwt>
<rscale>  0 0.12800932E+03</rscale>
<asrwt>0</asrwt>
<pdfrwt beam="1">  1        3 0.15466327E-01 0.13675953E+03</pdfrwt>
<pdfrwt beam="2">  1       -3 0.22385247E-01 0.13675953E+03</pdfrwt>
<totfact> 0.14865232E+03</totfact>
</mgrwt>
</event>
