<event>
 7    1  0.3001243E-009  0.9325602E+02  0.7561462E-02  0.1295153E+00
         -2   -1    0    0    0  501 -0.00000000000E+00  0.00000000000E+00  0.15889118321E+03  0.15889118321E+03  0.00000000000E+00 0.  1.
          2   -1    0    0  501    0  0.00000000000E+00 -0.00000000000E+00 -0.14176194877E+03  0.14176194877E+03  0.00000000000E+00 0. -1.
         25    2    1    2    0    0  0.28206222860E+02  0.79857989740E+02 -0.50090521029E+02  0.15915480860E+03  0.12509317835E+03 0.  0.
          5    1    3    3  502    0  0.27596645663E+02  0.14287978765E+02  0.37994844329E+02  0.49262579963E+02  0.41800000000E+01 0. -1.
         -5    1    3    3    0  502  0.60957719657E+00  0.65570010975E+02 -0.88085365358E+02  0.10989222863E+03  0.41800000000E+01 0. -1.
        -11    1    1    2    0    0 -0.26471614284E+02 -0.31866222616E+02  0.81476546852E+02  0.91403666193E+02  0.00000000000E+00 0.  1.
         11    1    1    2    0    0 -0.17346085752E+01 -0.47991767124E+02 -0.14256791389E+02  0.50094657193E+02  0.00000000000E+00 0. -1.
</event>
<event>
 7    1  0.3001243E-009  0.7625896E+02  0.7561462E-02  0.1340016E+00
         -4   -1    0    0    0  501 -0.00000000000E+00  0.00000000000E+00  0.53166229571E+03  0.53166229571E+03  0.00000000000E+00 0.  1.
          4   -1    0    0  501    0  0.00000000000E+00 -0.00000000000E+00 -0.24149959970E+02  0.24149959970E+02  0.00000000000E+00 0. -1.
         25    2    1    2    0    0 -0.32887478522E+02  0.16608138297E+02  0.31102137035E+03  0.33725312652E+03  0.12509181440E+03 0.  0.
          5    1    3    3  502    0  0.16119743744E+02  0.16655633548E+02  0.12334768941E+01  0.23584955639E+02  0.41800000000E+01 0.  1.
         -5    1    3    3    0  502 -0.49007222266E+02 -0.47495250632E-01  0.30978789345E+03  0.31366817088E+03  0.41800000000E+01 0.  1.
        -11    1    1    2    0    0 -0.13656299965E+02 -0.28620076413E+02  0.24774348791E+02  0.40241417230E+02  0.00000000000E+00 0.  1.
         11    1    1    2    0    0  0.46543778487E+02  0.12011938116E+02  0.17171661660E+03  0.17831771193E+03  0.00000000000E+00 0. -1.
</event>
<event>
 7    1  0.3001243E-009  0.1243896E+03  0.7561462E-02  0.1236026E+00
          1   -1    0    0  501    0  0.00000000000E+00  0.00000000000E+00  0.59053292816E+03  0.59053292816E+03  0.00000000000E+00 0.  1.
         -1   -1    0    0    0  501 -0.00000000000E+00 -0.00000000000E+00 -0.30720535941E+02  0.30720535941E+02  0.00000000000E+00 0. -1.
         25    2    1    2    0    0  0.60103169551E+02  0.45710508455E+02  0.37012941377E+03  0.39792556944E+03  0.12508850589E+03 0.  0.
          5    1    3    3  502    0 -0.38844105005E+01  0.73062108436E+02  0.14864143090E+03  0.16572539852E+03  0.41800000000E+01 0. -1.
         -5    1    3    3    0  502  0.63987580052E+02 -0.27351599982E+02  0.22148798287E+03  0.23220017093E+03  0.41800000000E+01 0. -1.
        -11    1    1    2    0    0 -0.57663350875E+02  0.22992176351E+01  0.15091185859E+03  0.16156960574E+03  0.00000000000E+00 0.  1.
         11    1    1    2    0    0 -0.24398186757E+01 -0.48009726090E+02  0.38771119851E+02  0.61758288908E+02  0.00000000000E+00 0. -1.
</event>
<event>
 7    1  0.3001243E-009  0.7879269E+02  0.7561462E-02  0.1332513E+00
         -1   -1    0    0    0  501 -0.00000000000E+00  0.00000000000E+00  0.47032185423E+02  0.47032185423E+02  0.00000000000E+00 0.  1.
          1   -1    0    0  501    0  0.00000000000E+00 -0.00000000000E+00 -0.36628455263E+03  0.36628455263E+03  0.00000000000E+00 0. -1.
         25    2    1    2    0    0 -0.54010940350E+02 -0.51932668916E+02 -0.17502624063E+03  0.22780669065E+03  0.12509004603E+03 0.  0.
          5    1    3    3  502    0 -0.14149411764E+02 -0.33418337976E+02 -0.17973211967E+03  0.18340692028E+03  0.41800000000E+01 0.  1.
         -5    1    3    3    0  502 -0.39861528586E+02 -0.18514330939E+02  0.47058790321E+01  0.44399770369E+02  0.41800000000E+01 0.  1.
        -11    1    1    2    0    0  0.45572804251E+02  0.33273695692E+02 -0.20399212188E+02  0.60001226406E+02  0.00000000000E+00 0.  1.
         11    1    1    2    0    0  0.84381360988E+01  0.18658973223E+02 -0.12382691439E+03  0.12550882100E+03  0.00000000000E+00 0. -1.
</event>
<event>
 7    1  0.3001243E-009  0.7708908E+02  0.7561462E-02  0.1337521E+00
         -2   -1    0    0    0  501 -0.00000000000E+00  0.00000000000E+00  0.34260622034E+02  0.34260622034E+02  0.00000000000E+00 0.  1.
          2   -1    0    0  501    0  0.00000000000E+00 -0.00000000000E+00 -0.44198776280E+03  0.44198776280E+03  0.00000000000E+00 0. -1.
         25    2    1    2    0    0 -0.49203395773E+02  0.13283079257E+02 -0.27732531743E+03  0.30844813965E+03  0.12503403063E+03 0.  0.
          5    1    3    3  502    0 -0.50462059456E+02  0.19066878440E+02 -0.28937373087E+03  0.29438850830E+03  0.41800000000E+01 0.  1.
         -5    1    3    3    0  502  0.12586636831E+01 -0.57837991826E+01  0.12048413444E+02  0.14059631353E+02  0.41800000000E+01 0.  1.
        -11    1    1    2    0    0 -0.64881410546E+01  0.24619603973E+02 -0.79179836109E+02  0.83172515414E+02  0.00000000000E+00 0. -1.
         11    1    1    2    0    0  0.55691536827E+02 -0.37902683230E+02 -0.51221987223E+02  0.84627729766E+02  0.00000000000E+00 0.  1.
</event>
<event>
 7    1  0.3001243E-009  0.1598352E+03  0.7561462E-02  0.1188883E+00
         -1   -1    0    0    0  501 -0.00000000000E+00  0.00000000000E+00  0.16091436177E+04  0.16091436177E+04  0.00000000000E+00 0.  1.
          1   -1    0    0  501    0  0.00000000000E+00 -0.00000000000E+00 -0.23628623594E+02  0.23628623594E+02  0.00000000000E+00 0. -1.
         25    2    1    2    0    0  0.32220550683E+02  0.11207218945E+03  0.12963165960E+04  0.13075481633E+04  0.12508853979E+03 0.  0.
          5    1    3    3  502    0 -0.48240563872E+02  0.43983757738E+02  0.47352793211E+03  0.47802499709E+03  0.41800000000E+01 0. -1.
         -5    1    3    3    0  502  0.80461114555E+02  0.68088431713E+02  0.82278866391E+03  0.82952316625E+03  0.41800000000E+01 0. -1.
        -11    1    1    2    0    0 -0.62473409684E+02 -0.51127649161E+02  0.15884307900E+03  0.17817992921E+03  0.00000000000E+00 0.  1.
         11    1    1    2    0    0  0.30252859001E+02 -0.60944540291E+02  0.13035531911E+03  0.14704414878E+03  0.00000000000E+00 0. -1.
</event>
<event>
 7    1  0.3001243E-009  0.9391347E+02  0.7561462E-02  0.1293642E+00
         -2   -1    0    0    0  501 -0.00000000000E+00  0.00000000000E+00  0.38474958617E+03  0.38474958617E+03  0.00000000000E+00 0.  1.
          2   -1    0    0  501    0  0.00000000000E+00 -0.00000000000E+00 -0.41861612137E+02  0.41861612137E+02  0.00000000000E+00 0. -1.
         25    2    1    2    0    0 -0.53036693661E+02 -0.21225545398E+02  0.18007351580E+03  0.22657769868E+03  0.12509023860E+03 0.  0.
          5    1    3    3  502    0 -0.84235997731E+02  0.11686422269E+02  0.14844367475E+03  0.17112940353E+03  0.41800000000E+01 0. -1.
         -5    1    3    3    0  502  0.31199304069E+02 -0.32911967667E+02  0.31629841054E+02  0.55448295151E+02  0.41800000000E+01 0. -1.
        -11    1    1    2    0    0  0.29785735735E+02  0.11261607280E+02  0.17061569173E+03  0.17356188555E+03  0.00000000000E+00 0.  1.
         11    1    1    2    0    0  0.23250957926E+02  0.99639381179E+01 -0.78012335039E+01  0.26471614071E+02  0.00000000000E+00 0. -1.
</event>
<event>
 7    1  0.3001243E-009  0.1098693E+03  0.7561462E-02  0.1260812E+00
          2   -1    0    0  501    0  0.00000000000E+00  0.00000000000E+00  0.29141291628E+02  0.29141291628E+02  0.00000000000E+00 0. -1.
         -2   -1    0    0    0  501 -0.00000000000E+00 -0.00000000000E+00 -0.46323728055E+03  0.46323728055E+03  0.00000000000E+00 0.  1.
         25    2    1    2    0    0  0.22967163566E+02 -0.38643710278E+02 -0.26830842317E+03  0.29943839159E+03  0.12511240333E+03 0.  0.
          5    1    3    3  502    0  0.47912236917E+02 -0.74238399181E+02 -0.19472279685E+03  0.21387230389E+03  0.41800000000E+01 0.  1.
         -5    1    3    3    0  502 -0.24945073351E+02  0.35594688903E+02 -0.73585626325E+02  0.85566087700E+02  0.41800000000E+01 0.  1.
        -11    1    1    2    0    0 -0.29400198555E+02  0.59188772310E+02 -0.76499330795E+02  0.10109317511E+03  0.00000000000E+00 0. -1.
         11    1    1    2    0    0  0.64330349888E+01 -0.20545062032E+02 -0.89288234954E+02  0.91847005473E+02  0.00000000000E+00 0.  1.
</event>
<event>
 7    1  0.3001243E-009  0.1355952E+03  0.7561462E-02  0.1219382E+00
         -3   -1    0    0    0  501 -0.00000000000E+00  0.00000000000E+00  0.21863151517E+03  0.21863151517E+03  0.00000000000E+00 0.  1.
          3   -1    0    0  501    0  0.00000000000E+00 -0.00000000000E+00 -0.10037900124E+03  0.10037900124E+03  0.00000000000E+00 0. -1.
         25    2    1    2    0    0  0.14351780259E+01 -0.98409004291E+02  0.90128046557E+02  0.18291280362E+03  0.12509051559E+03 0.  0.
          5    1    3    3  502    0  0.21088872395E+02  0.19605628014E+02  0.47757311715E+02  0.55922753964E+02  0.41800000000E+01 0. -1.
         -5    1    3    3    0  502 -0.19653694369E+02 -0.11801463230E+03  0.42370734842E+02  0.12699004966E+03  0.41800000000E+01 0. -1.
        -11    1    1    2    0    0 -0.37093158791E+02  0.49958372430E+02  0.41079943360E+02  0.74560734649E+02  0.00000000000E+00 0.  1.
         11    1    1    2    0    0  0.35657980765E+02  0.48450631861E+02 -0.12955475985E+02  0.61536978135E+02  0.00000000000E+00 0. -1.
</event>
<event>
 7    1  0.3001243E-009  0.8415699E+02  0.7561462E-02  0.1317652E+00
         -1   -1    0    0    0  501 -0.00000000000E+00  0.00000000000E+00  0.13840743175E+02  0.13840743175E+02  0.00000000000E+00 0.  1.
          1   -1    0    0  501    0  0.00000000000E+00 -0.00000000000E+00 -0.68876800351E+03  0.68876800351E+03  0.00000000000E+00 0. -1.
         25    2    1    2    0    0  0.10722711693E+02 -0.30212733885E+02 -0.45535573831E+03  0.47331194853E+03  0.12509023294E+03 0.  0.
          5    1    3    3  502    0  0.47347514847E+02 -0.44356859046E+02 -0.40039706822E+03  0.40564097765E+03  0.41800000000E+01 0.  1.
         -5    1    3    3    0  502 -0.36624803155E+02  0.14144125160E+02 -0.54958670084E+02  0.67670970882E+02  0.41800000000E+01 0.  1.
        -11    1    1    2    0    0 -0.32185526587E+01  0.46118225597E+02 -0.12900382120E+03  0.13703735147E+03  0.00000000000E+00 0.  1.
         11    1    1    2    0    0 -0.75041590340E+01 -0.15905491711E+02 -0.90567700831E+02  0.92259446688E+02  0.00000000000E+00 0. -1.
</event>
<event>
 7    1  0.3001243E-009  0.1064618E+03  0.7561462E-02  0.1267266E+00
         -1   -1    0    0    0  501 -0.00000000000E+00  0.00000000000E+00  0.19248154990E+02  0.19248154990E+02  0.00000000000E+00 0.  1.
          1   -1    0    0  501    0  0.00000000000E+00 -0.00000000000E+00 -0.80431663988E+03  0.80431663988E+03  0.00000000000E+00 0. -1.
         25    2    1    2    0    0 -0.40756346770E+02 -0.44742202769E+02 -0.42114103381E+03  0.44347580833E+03  0.12509227675E+03 0.  0.
          5    1    3    3  502    0  0.43823831598E+02 -0.20516150786E+02 -0.11305483778E+03  0.12304596460E+03  0.41800000000E+01 0.  1.
         -5    1    3    3    0  502 -0.84580178368E+02 -0.24226051983E+02 -0.30808619603E+03  0.32042984372E+03  0.41800000000E+01 0.  1.
        -11    1    1    2    0    0  0.83539965340E+01 -0.97728417440E+01 -0.24468422353E+01  0.13087579255E+02  0.00000000000E+00 0.  1.
         11    1    1    2    0    0  0.32402350236E+02  0.54515044513E+02 -0.36148060885E+03  0.36700140729E+03  0.00000000000E+00 0. -1.
</event>
<event>
 7    1  0.3001243E-009  0.1077696E+03  0.7561462E-02  0.1264757E+00
          1   -1    0    0  501    0  0.00000000000E+00  0.00000000000E+00  0.52306874457E+03  0.52306874457E+03  0.00000000000E+00 0. -1.
         -1   -1    0    0    0  501 -0.00000000000E+00 -0.00000000000E+00 -0.38887922278E+02  0.38887922278E+02  0.00000000000E+00 0.  1.
         25    2    1    2    0    0  0.82243442330E+02 -0.33655808779E+02  0.21494727064E+03  0.26409591203E+03  0.12509046455E+03 0.  0.
          5    1    3    3  502    0  0.23503334806E+02 -0.43555990752E+01  0.19334842666E+03  0.19486524698E+03  0.41800000000E+01 0.  1.
         -5    1    3    3    0  502  0.58740107524E+02 -0.29300209703E+02  0.21598843984E+02  0.69230665041E+02  0.41800000000E+01 0.  1.
        -11    1    1    2    0    0 -0.10103622382E+03  0.34283813513E+02  0.24471000764E+03  0.26695821064E+03  0.00000000000E+00 0. -1.
         11    1    1    2    0    0  0.18792781485E+02 -0.62800473487E+00  0.24523544012E+02  0.30902544180E+02  0.00000000000E+00 0.  1.
</event>
<event>
 7    1  0.3001243E-009  0.1020667E+03  0.7561462E-02  0.1276009E+00
          1   -1    0    0  501    0  0.00000000000E+00  0.00000000000E+00  0.59871200490E+03  0.59871200490E+03  0.00000000000E+00 0. -1.
         -1   -1    0    0    0  501 -0.00000000000E+00 -0.00000000000E+00 -0.22743824735E+02  0.22743824735E+02  0.00000000000E+00 0.  1.
         25    2    1    2    0    0  0.27372091876E+02 -0.29952582319E+02  0.29139612109E+03  0.31969810430E+03  0.12509512342E+03 0.  0.
          5    1    3    3  502    0  0.41651098565E+02 -0.73189472960E+02  0.21076553894E+03  0.22700462059E+03  0.41800000000E+01 0.  1.
         -5    1    3    3    0  502 -0.14279006689E+02  0.43236890641E+02  0.80630582154E+02  0.92693483713E+02  0.41800000000E+01 0.  1.
        -11    1    1    2    0    0  0.18666164955E+02 -0.87570291075E+00  0.91292302508E+01  0.20797485778E+02  0.00000000000E+00 0.  1.
         11    1    1    2    0    0 -0.46038256831E+02  0.30828285230E+02  0.27544282882E+03  0.28096023955E+03  0.00000000000E+00 0. -1.
</event>
<event>
 7    1  0.3001243E-009  0.1195799E+03  0.7561462E-02  0.1243792E+00
          2   -1    0    0  501    0  0.00000000000E+00  0.00000000000E+00  0.62245884419E+03  0.62245884419E+03  0.00000000000E+00 0. -1.
         -2   -1    0    0    0  501 -0.00000000000E+00 -0.00000000000E+00 -0.27171640580E+02  0.27171640580E+02  0.00000000000E+00 0.  1.
         25    2    1    2    0    0 -0.43664828560E+02 -0.56065991541E+02  0.34850910039E+03  0.37703606384E+03  0.12509031825E+03 0.  0.
          5    1    3    3  502    0 -0.45940484268E+01 -0.82879451221E+02  0.28975119793E+03  0.30143546211E+03  0.41800000000E+01 0.  1.
         -5    1    3    3    0  502 -0.39070780133E+02  0.26813459680E+02  0.58757902460E+02  0.75600601729E+02  0.41800000000E+01 0.  1.
        -11    1    1    2    0    0  0.68067549738E+02  0.36748463834E+02  0.21325555642E+03  0.22685143435E+03  0.00000000000E+00 0. -1.
         11    1    1    2    0    0 -0.24402721177E+02  0.19317527707E+02  0.33522546798E+02  0.45742986581E+02  0.00000000000E+00 0.  1.
</event>
<event>
 7    1  0.3001243E-009  0.1322579E+03  0.7561462E-02  0.1224143E+00
          1   -1    0    0  501    0  0.00000000000E+00  0.00000000000E+00  0.54887330018E+03  0.54887330018E+03  0.00000000000E+00 0. -1.
         -1   -1    0    0    0  501 -0.00000000000E+00 -0.00000000000E+00 -0.41269630910E+02  0.41269630910E+02  0.00000000000E+00 0.  1.
         25    2    1    2    0    0 -0.84931298404E+02 -0.65292888235E+01  0.39985525911E+03  0.42753743558E+03  0.12509226002E+03 0.  0.
          5    1    3    3  502    0 -0.18886462136E+02  0.53137342754E+02  0.10183975468E+03  0.11648640985E+03  0.41800000000E+01 0. -1.
         -5    1    3    3    0  502 -0.66044836267E+02 -0.59666631577E+02  0.29801550443E+03  0.31105102572E+03  0.41800000000E+01 0. -1.
        -11    1    1    2    0    0  0.84523712687E+02  0.34206491165E+02  0.66196267289E+02  0.11267780548E+03  0.00000000000E+00 0.  1.
         11    1    1    2    0    0  0.40758571655E+00 -0.27677202341E+02  0.41552142871E+02  0.49927690040E+02  0.00000000000E+00 0. -1.
</event>
<event>
 7    1  0.3001243E-009  0.1105297E+03  0.7561462E-02  0.1259592E+00
          2   -1    0    0  501    0  0.00000000000E+00  0.00000000000E+00  0.18305530612E+03  0.18305530612E+03  0.00000000000E+00 0.  1.
         -2   -1    0    0    0  501 -0.00000000000E+00 -0.00000000000E+00 -0.86022085231E+02  0.86022085231E+02  0.00000000000E+00 0. -1.
         25    2    1    2    0    0 -0.35407540276E+02  0.27737631577E+02  0.80637147552E+01  0.13317532440E+03  0.12509026108E+03 0.  0.
          5    1    3    3  502    0 -0.76756421561E+02 -0.74636081889E+01 -0.42069357300E+01  0.77346133752E+02  0.41800000000E+01 0.  1.
         -5    1    3    3    0  502  0.41348881285E+02  0.35201239766E+02  0.12270650485E+02  0.55829190644E+02  0.41800000000E+01 0.  1.
        -11    1    1    2    0    0  0.15916308685E+01 -0.49256064513E+02  0.14566345935E+02  0.51389411497E+02  0.00000000000E+00 0. -1.
         11    1    1    2    0    0  0.33815909407E+02  0.21518432937E+02  0.74403160203E+02  0.84512655462E+02  0.00000000000E+00 0.  1.
</event>
<event>
 7    1  0.3001243E-009  0.1219692E+03  0.7561462E-02  0.1239883E+00
         -2   -1    0    0    0  501 -0.00000000000E+00  0.00000000000E+00  0.18220412509E+03  0.18220412509E+03  0.00000000000E+00 0.  1.
          2   -1    0    0  501    0  0.00000000000E+00 -0.00000000000E+00 -0.10225551731E+03  0.10225551731E+03  0.00000000000E+00 0. -1.
         25    2    1    2    0    0  0.65833972759E+02 -0.47315241745E+02  0.28723599678E+02  0.15180565341E+03  0.12508823749E+03 0.  0.
          5    1    3    3  502    0  0.10055563272E+03 -0.46116036850E+02  0.35306904179E+02  0.11619885545E+03  0.41800000000E+01 0. -1.
         -5    1    3    3    0  502 -0.34721659958E+02 -0.11992048954E+01 -0.65833045007E+01  0.35606797957E+02  0.41800000000E+01 0. -1.
        -11    1    1    2    0    0  0.97922452245E+01  0.96726532565E+01  0.46001016463E+02  0.48016057764E+02  0.00000000000E+00 0.  1.
         11    1    1    2    0    0 -0.75626217983E+02  0.37642588488E+02  0.52239916352E+01  0.84637931232E+02  0.00000000000E+00 0. -1.
</event>
<event>
 7    1  0.3001243E-009  0.1026880E+03  0.7561462E-02  0.1274743E+00
         -2   -1    0    0    0  501 -0.00000000000E+00  0.00000000000E+00  0.75951165980E+03  0.75951165980E+03  0.00000000000E+00 0.  1.
          2   -1    0    0  501    0  0.00000000000E+00 -0.00000000000E+00 -0.26535356064E+02  0.26535356064E+02  0.00000000000E+00 0. -1.
         25    2    1    2    0    0  0.93977239149E+01 -0.26716495201E+02  0.63985417169E+03  0.65258221345E+03  0.12509234972E+03 0.  0.
          5    1    3    3  502    0  0.32969647543E+02  0.42100276136E+02  0.32588431486E+03  0.33026881473E+03  0.41800000000E+01 0.  1.
         -5    1    3    3    0  502 -0.23571923628E+02 -0.68816771338E+02  0.31396985682E+03  0.32231339872E+03  0.41800000000E+01 0.  1.
        -11    1    1    2    0    0  0.21710564045E+02 -0.15327543482E+02 -0.96739915277E-01  0.26576146051E+02  0.00000000000E+00 0. -1.
         11    1    1    2    0    0 -0.31108287960E+02  0.42044038683E+02  0.93218871967E+02  0.10688865636E+03  0.00000000000E+00 0.  1.
</event>
<event>
 7    1  0.3001243E-009  0.1419555E+03  0.7561462E-02  0.1210722E+00
         -1   -1    0    0    0  501 -0.00000000000E+00  0.00000000000E+00  0.27971708021E+02  0.27971708021E+02  0.00000000000E+00 0.  1.
          1   -1    0    0  501    0  0.00000000000E+00 -0.00000000000E+00 -0.80250931994E+03  0.80250931994E+03  0.00000000000E+00 0. -1.
         25    2    1    2    0    0 -0.91678260217E+02 -0.39056791344E+02 -0.54016542041E+03  0.56334473429E+03  0.12509305297E+03 0.  0.
          5    1    3    3  502    0  0.30051579894E+02  0.15214138629E+01 -0.78905705745E+02  0.84551729453E+02  0.41800000000E+01 0. -1.
         -5    1    3    3    0  502 -0.12172984011E+03 -0.40578205207E+02 -0.46125971466E+03  0.47879300484E+03  0.41800000000E+01 0. -1.
        -11    1    1    2    0    0  0.62297207417E+02 -0.14590476486E+02 -0.14859273709E+03  0.16178264917E+03  0.00000000000E+00 0. -1.
         11    1    1    2    0    0  0.29381052800E+02  0.53647267830E+02 -0.85779454421E+02  0.10535364450E+03  0.00000000000E+00 0.  1.
</event>
<event>
 7    1  0.3001243E-009  0.6302886E+02  0.7561462E-02  0.1385543E+00
         -2   -1    0    0    0  501 -0.00000000000E+00  0.00000000000E+00  0.16189676317E+02  0.16189676317E+02  0.00000000000E+00 0.  1.
          2   -1    0    0  501    0  0.00000000000E+00 -0.00000000000E+00 -0.15536901302E+04  0.15536901302E+04  0.00000000000E+00 0. -1.
         25    2    1    2    0    0  0.30998236246E+02 -0.13239907777E+02 -0.13797598607E+04  0.13858285470E+04  0.12508917886E+03 0.  0.
          5    1    3    3  502    0  0.16852845770E+01 -0.22574148849E+02 -0.43563158844E+02  0.49271224754E+02  0.41800000000E+01 0. -1.
         -5    1    3    3    0  502  0.29312951669E+02  0.93342410718E+01 -0.13361967019E+04  0.13365573223E+04  0.41800000000E+01 0. -1.
        -11    1    1    2    0    0  0.97196270850E+01  0.27249888435E+02 -0.10718734120E+02  0.30853181870E+02  0.00000000000E+00 0.  1.
         11    1    1    2    0    0 -0.40717863331E+02 -0.14009980657E+02 -0.14702185899E+03  0.15319807758E+03  0.00000000000E+00 0. -1.
</event>
<event>
 7    1  0.3001243E-009  0.9596217E+02  0.7561462E-02  0.1289024E+00
         -2   -1    0    0    0  501 -0.00000000000E+00  0.00000000000E+00  0.24257027027E+02  0.24257027027E+02  0.00000000000E+00 0.  1.
          2   -1    0    0  501    0  0.00000000000E+00 -0.00000000000E+00 -0.46059025751E+03  0.46059025751E+03  0.00000000000E+00 0. -1.
         25    2    1    2    0    0 -0.61246145308E+01  0.19037074014E+01 -0.30043407613E+03  0.32549616123E+03  0.12508389931E+03 0.  0.
          5    1    3    3  502    0  0.59207874659E+02 -0.41643055166E+01 -0.14232320731E+03  0.15426043433E+03  0.41800000000E+01 0. -1.
         -5    1    3    3    0  502 -0.65332489189E+02  0.60680129179E+01 -0.15811086883E+03  0.17123572689E+03  0.41800000000E+01 0. -1.
        -11    1    1    2    0    0  0.29701614724E+02 -0.20967190509E+02 -0.24356914362E+02  0.43761493031E+02  0.00000000000E+00 0.  1.
         11    1    1    2    0    0 -0.23577000194E+02  0.19063483108E+02 -0.11154223999E+03  0.11558963028E+03  0.00000000000E+00 0. -1.
</event>
<event>
 7    1  0.3001243E-009  0.1164573E+03  0.7561462E-02  0.1249059E+00
         -3   -1    0    0    0  501 -0.00000000000E+00  0.00000000000E+00  0.92050751723E+02  0.92050751723E+02  0.00000000000E+00 0.  1.
          3   -1    0    0  501    0  0.00000000000E+00 -0.00000000000E+00 -0.19707686327E+03  0.19707686327E+03  0.00000000000E+00 0. -1.
         25    2    1    2    0    0 -0.20953399381E+02  0.58862758389E+02 -0.10245854096E+02  0.14020152132E+03  0.12509044641E+03 0.  0.
          5    1    3    3  502    0 -0.71102873386E+02  0.26539234327E+02 -0.22249202749E+02  0.79198794090E+02  0.41800000000E+01 0. -1.
         -5    1    3    3    0  502  0.50149474005E+02  0.32323524062E+02  0.12003348653E+02  0.61002727231E+02  0.41800000000E+01 0. -1.
        -11    1    1    2    0    0 -0.24562241436E+02 -0.41807591551E+02 -0.75574711127E+01  0.49074369943E+02  0.00000000000E+00 0.  1.
         11    1    1    2    0    0  0.45515640817E+02 -0.17055166838E+02 -0.87222786334E+02  0.99851723725E+02  0.00000000000E+00 0. -1.
</event>
<event>
 7    1  0.3001243E-009  0.8543039E+02  0.7561462E-02  0.1314311E+00
         -1   -1    0    0    0  501 -0.00000000000E+00  0.00000000000E+00  0.60938360272E+03  0.60938360272E+03  0.00000000000E+00 0.  1.
          1   -1    0    0  501    0  0.00000000000E+00 -0.00000000000E+00 -0.25927469211E+02  0.25927469211E+02  0.00000000000E+00 0. -1.
         25    2    1    2    0    0  0.60290670176E+02  0.44115724363E+01  0.28482989276E+03  0.31690738339E+03  0.12509114659E+03 0.  0.
          5    1    3    3  502    0 -0.84485967136E+01  0.27545729532E+00 -0.10215907375E+02  0.13902943093E+02  0.41800000000E+01 0.  1.
         -5    1    3    3    0  502  0.68739266890E+02  0.41361151410E+01  0.29504580014E+03  0.30300444029E+03  0.41800000000E+01 0.  1.
        -11    1    1    2    0    0 -0.19187790982E+02  0.32142726616E+02  0.21549245324E+03  0.21871973757E+03  0.00000000000E+00 0.  1.
         11    1    1    2    0    0 -0.41102879194E+02 -0.36554299052E+02  0.83133787508E+02  0.99683950978E+02  0.00000000000E+00 0. -1.
</event>
<event>
 7    1  0.3001243E-009  0.1222908E+03  0.7561462E-02  0.1239365E+00
         -2   -1    0    0    0  501 -0.00000000000E+00  0.00000000000E+00  0.28712037506E+02  0.28712037506E+02  0.00000000000E+00 0.  1.
          2   -1    0    0  501    0  0.00000000000E+00 -0.00000000000E+00 -0.89714922521E+03  0.89714922521E+03  0.00000000000E+00 0. -1.
         25    2    1    2    0    0  0.63114986961E+02  0.46451130321E+02 -0.72093180920E+03  0.73588795272E+03  0.12508875392E+03 0.  0.
          5    1    3    3  502    0  0.73052432568E+02  0.74976152521E+02 -0.65398545317E+03  0.66232358158E+03  0.41800000000E+01 0.  1.
         -5    1    3    3    0  502 -0.99374456067E+01 -0.28525022200E+02 -0.66946356028E+02  0.73564371146E+02  0.41800000000E+01 0.  1.
        -11    1    1    2    0    0 -0.12944636518E+02  0.21356295391E+02 -0.67338818861E+01  0.25865036877E+02  0.00000000000E+00 0.  1.
         11    1    1    2    0    0 -0.50170350443E+02 -0.67807425711E+02 -0.14077149662E+03  0.16410827312E+03  0.00000000000E+00 0. -1.
</event>
<event>
 7    1  0.4422496E-009  0.1163170E+03  0.7561462E-02  0.1249300E+00
          1   -1    0    0  501    0  0.00000000000E+00  0.00000000000E+00  0.58181963952E+02  0.58181963952E+02  0.00000000000E+00 0. -1.
         -1   -1    0    0    0  501 -0.00000000000E+00 -0.00000000000E+00 -0.36759952419E+03  0.36759952419E+03  0.00000000000E+00 0.  1.
         25    2    1    2    0    0  0.20166058490E+02  0.86270416201E+02 -0.10837595738E+03  0.18773378655E+03  0.12509744940E+03 0.  0.
          5    1    3    3  502    0 -0.12957501080E+02  0.10272661442E+03 -0.10914839933E+03  0.15050415151E+03  0.41800000000E+01 0. -1.
         -5    1    3    3    0  502  0.33123559570E+02 -0.16456198219E+02  0.77244195781E+00  0.37229635037E+02  0.41800000000E+01 0. -1.
        -11    1    1    2    0    0  0.36919565151E+01 -0.35491561975E+02 -0.17045017356E+03  0.17414517846E+03  0.00000000000E+00 0.  1.
         11    1    1    2    0    0 -0.23858015005E+02 -0.50778854226E+02 -0.30591429305E+02  0.63902523138E+02  0.00000000000E+00 0. -1.
</event>
<event>
 7    1  0.3001243E-009  0.1053903E+03  0.7561462E-02  0.1269352E+00
         -2   -1    0    0    0  501 -0.00000000000E+00  0.00000000000E+00  0.25894351403E+02  0.25894351403E+02  0.00000000000E+00 0. -1.
          2   -1    0    0  501    0  0.00000000000E+00 -0.00000000000E+00 -0.48842785673E+03  0.48842785673E+03  0.00000000000E+00 0.  1.
         25    2    1    2    0    0 -0.12329701833E+02  0.25868801994E+02 -0.22934110398E+03  0.26280415602E+03  0.12508983165E+03 0.  0.
          5    1    3    3  502    0  0.50703908703E+02  0.84046162686E+01 -0.49853233152E+02  0.71724062825E+02  0.41800000000E+01 0. -1.
         -5    1    3    3    0  502 -0.63033610536E+02  0.17464185725E+02 -0.17948787083E+03  0.19108009319E+03  0.41800000000E+01 0. -1.
        -11    1    1    2    0    0 -0.13399553593E+02 -0.53949070030E+02 -0.12449863964E+03  0.13634500895E+03  0.00000000000E+00 0. -1.
         11    1    1    2    0    0  0.25729255426E+02  0.28080268036E+02 -0.10869376171E+03  0.11517304316E+03  0.00000000000E+00 0.  1.
</event>
<event>
 7    1  0.3001243E-009  0.1621626E+03  0.7561462E-02  0.1186277E+00
          2   -1    0    0  501    0  0.00000000000E+00  0.00000000000E+00  0.11175340283E+04  0.11175340283E+04  0.00000000000E+00 0. -1.
         -2   -1    0    0    0  501 -0.00000000000E+00 -0.00000000000E+00 -0.35876699991E+02  0.35876699991E+02  0.00000000000E+00 0.  1.
         25    2    1    2    0    0  0.95126446777E+02 -0.91329615979E+02  0.88862080784E+03  0.90701893653E+03  0.12508505695E+03 0.  0.
          5    1    3    3  502    0 -0.17374198253E+02 -0.56059120964E+02  0.20432069475E+03  0.21262386157E+03  0.41800000000E+01 0.  1.
         -5    1    3    3    0  502  0.11250064503E+03 -0.35270495016E+02  0.68430011309E+03  0.69439507496E+03  0.41800000000E+01 0.  1.
        -11    1    1    2    0    0 -0.53293327145E+02  0.74914819272E+01  0.10419630030E+03  0.11727391021E+03  0.00000000000E+00 0. -1.
         11    1    1    2    0    0 -0.41833119632E+02  0.83838134052E+02  0.88840220218E+02  0.12911788160E+03  0.00000000000E+00 0.  1.
</event>
<event>
 7    1  0.3001243E-009  0.1155078E+03  0.7561462E-02  0.1250697E+00
          1   -1    0    0  501    0  0.00000000000E+00  0.00000000000E+00  0.41455687312E+02  0.41455687312E+02  0.00000000000E+00 0. -1.
         -1   -1    0    0    0  501 -0.00000000000E+00 -0.00000000000E+00 -0.51230596449E+03  0.51230596449E+03  0.00000000000E+00 0.  1.
         25    2    1    2    0    0 -0.27159699114E+01  0.97700817135E+02 -0.24584194205E+03  0.29264085606E+03  0.12509030340E+03 0.  0.
          5    1    3    3  502    0 -0.12630667969E+02  0.39305427723E+02 -0.18604290117E+01  0.41537742090E+02  0.41800000000E+01 0.  1.
         -5    1    3    3    0  502  0.99146980572E+01  0.58395389411E+02 -0.24398151304E+03  0.25110311397E+03  0.41800000000E+01 0.  1.
        -11    1    1    2    0    0  0.60835223189E+01  0.15623844997E+02 -0.15158658615E+02  0.22603068538E+02  0.00000000000E+00 0.  1.
         11    1    1    2    0    0 -0.33675524075E+01 -0.11332466213E+03 -0.20984967651E+03  0.23851772720E+03  0.00000000000E+00 0. -1.
</event>
<event>
 7    1  0.3001243E-009  0.2245121E+03  0.7561462E-02  0.1130563E+00
         -1   -1    0    0    0  501 -0.00000000000E+00  0.00000000000E+00  0.39990523126E+03  0.39990523126E+03  0.00000000000E+00 0.  1.
          1   -1    0    0  501    0  0.00000000000E+00 -0.00000000000E+00 -0.14538541352E+03  0.14538541352E+03  0.00000000000E+00 0. -1.
         25    2    1    2    0    0  0.74939094719E+02 -0.19948040910E+03  0.10085542665E+03  0.26688060379E+03  0.12508052630E+03 0.  0.
          5    1    3    3  502    0 -0.64155915074E+01 -0.81005416438E+01 -0.22462141683E+02  0.25075860868E+02  0.41800000000E+01 0.  1.
         -5    1    3    3    0  502  0.81354686226E+02 -0.19137986746E+03  0.12331756833E+03  0.24180474292E+03  0.41800000000E+01 0.  1.
        -11    1    1    2    0    0 -0.55762641735E+02  0.38498569336E+02  0.28126389001E+02  0.73366925876E+02  0.00000000000E+00 0.  1.
         11    1    1    2    0    0 -0.19176452984E+02  0.16098183977E+03  0.12553800209E+03  0.20504311511E+03  0.00000000000E+00 0. -1.
</event>
<event>
 7    1  0.3001243E-009  0.1416255E+03  0.7561462E-02  0.1211158E+00
          2   -1    0    0  501    0  0.00000000000E+00  0.00000000000E+00  0.10346728147E+03  0.10346728147E+03  0.00000000000E+00 0. -1.
         -2   -1    0    0    0  501 -0.00000000000E+00 -0.00000000000E+00 -0.24234958266E+03  0.24234958266E+03  0.00000000000E+00 0.  1.
         25    2    1    2    0    0 -0.47350241117E+02 -0.78477044644E+02 -0.15082468092E+03  0.21632547845E+03  0.12509171188E+03 0.  0.
          5    1    3    3  502    0  0.51776008652E+00  0.33214145775E+02 -0.33452480786E+02  0.47328515990E+02  0.41800000000E+01 0.  1.
         -5    1    3    3    0  502 -0.47868001204E+02 -0.11169119042E+03 -0.11737220013E+03  0.16899696246E+03  0.41800000000E+01 0.  1.
        -11    1    1    2    0    0 -0.13761988979E+02  0.63887374653E+02  0.13091910582E+02  0.66651234822E+02  0.00000000000E+00 0.  1.
         11    1    1    2    0    0  0.61112230096E+02  0.14589669992E+02 -0.11495308545E+01  0.62840150851E+02  0.00000000000E+00 0. -1.
</event>
<event>
 7    1  0.3001243E-009  0.1413135E+03  0.7561462E-02  0.1211572E+00
          2   -1    0    0  501    0  0.00000000000E+00  0.00000000000E+00  0.20554959803E+04  0.20554959803E+04  0.00000000000E+00 0. -1.
         -2   -1    0    0    0  501 -0.00000000000E+00 -0.00000000000E+00 -0.18360961910E+02  0.18360961910E+02  0.00000000000E+00 0.  1.
         25    2    1    2    0    0  0.11793606752E+03  0.44433236281E+02  0.15984635430E+04  0.16082965411E+04  0.12509531189E+03 0.  0.
          5    1    3    3  502    0  0.12245499125E+03  0.38166082600E+02  0.83689909557E+03  0.84668142964E+03  0.41800000000E+01 0.  1.
         -5    1    3    3    0  502 -0.45189237278E+01  0.62671536811E+01  0.76156444748E+03  0.76161511143E+03  0.41800000000E+01 0.  1.
        -11    1    1    2    0    0 -0.43365152007E+02  0.19250502878E+02  0.73759135314E+02  0.87701358666E+02  0.00000000000E+00 0.  1.
         11    1    1    2    0    0 -0.74570915511E+02 -0.63683739159E+02  0.36491233999E+03  0.37785904244E+03  0.00000000000E+00 0. -1.
</event>
<event>
 7    1  0.3001243E-009  0.5034332E+02  0.7561462E-02  0.1443499E+00
          2   -1    0    0  501    0  0.00000000000E+00  0.00000000000E+00  0.24469600091E+03  0.24469600091E+03  0.00000000000E+00 0. -1.
         -2   -1    0    0    0  501 -0.00000000000E+00 -0.00000000000E+00 -0.57303077138E+02  0.57303077138E+02  0.00000000000E+00 0.  1.
         25    2    1    2    0    0 -0.16642239470E+02 -0.53669469563E+01  0.49328401836E+02  0.13559870728E+03  0.12509176605E+03 0.  0.
          5    1    3    3  502    0 -0.10194197639E+02 -0.74569928499E+01  0.91611359743E+02  0.92572361112E+02  0.41800000000E+01 0. -1.
         -5    1    3    3    0  502 -0.64480418315E+01  0.20900458936E+01 -0.42282957907E+02  0.43026346169E+02  0.41800000000E+01 0. -1.
        -11    1    1    2    0    0 -0.28653146627E+02 -0.11788755810E+02  0.15566075424E+02  0.34673913527E+02  0.00000000000E+00 0.  1.
         11    1    1    2    0    0  0.45295386098E+02  0.17155702766E+02  0.12249844651E+03  0.13172645724E+03  0.00000000000E+00 0. -1.
</event>
<event>
 7    1  0.3001243E-009  0.1134379E+03  0.7561462E-02  0.1254333E+00
         -1   -1    0    0    0  501 -0.00000000000E+00  0.00000000000E+00  0.25291258234E+02  0.25291258234E+02  0.00000000000E+00 0.  1.
          1   -1    0    0  501    0  0.00000000000E+00 -0.00000000000E+00 -0.52693995517E+03  0.52693995517E+03  0.00000000000E+00 0. -1.
         25    2    1    2    0    0 -0.20253810695E+02 -0.26185733345E+02 -0.30802433896E+03  0.33409906172E+03  0.12508908894E+03 0.  0.
          5    1    3    3  502    0  0.29774304734E+02 -0.59804855885E+02 -0.19114564034E+03  0.20252717899E+03  0.41800000000E+01 0. -1.
         -5    1    3    3    0  502 -0.50028115428E+02  0.33619122539E+02 -0.11687869863E+03  0.13157188273E+03  0.41800000000E+01 0. -1.
        -11    1    1    2    0    0 -0.36009012625E+02 -0.30053341425E+01 -0.56495806156E+02  0.67063083263E+02  0.00000000000E+00 0.  1.
         11    1    1    2    0    0  0.56262823320E+02  0.29191067488E+02 -0.13712855182E+03  0.15106906842E+03  0.00000000000E+00 0. -1.
</event>
<event>
 7    1  0.3001243E-009  0.1159933E+03  0.7561462E-02  0.1249857E+00
          1   -1    0    0  501    0  0.00000000000E+00  0.00000000000E+00  0.54498143452E+02  0.54498143452E+02  0.00000000000E+00 0. -1.
         -1   -1    0    0    0  501 -0.00000000000E+00 -0.00000000000E+00 -0.30609208384E+03  0.30609208384E+03  0.00000000000E+00 0.  1.
         25    2    1    2    0    0 -0.28507341021E+02 -0.53716210090E+02 -0.18877801473E+03  0.23448369318E+03  0.12508942323E+03 0.  0.
          5    1    3    3  502    0  0.28400361004E+02  0.17541137735E+02 -0.12348949467E+02  0.35836308001E+02  0.41800000000E+01 0.  1.
         -5    1    3    3    0  502 -0.56907702025E+02 -0.71257347824E+02 -0.17642906526E+03  0.19864738518E+03  0.41800000000E+01 0.  1.
        -11    1    1    2    0    0 -0.28542934888E+02  0.38656680522E+02 -0.15552652476E+02  0.50506663719E+02  0.00000000000E+00 0. -1.
         11    1    1    2    0    0  0.57050275909E+02  0.15059529568E+02 -0.47263273188E+02  0.75599870401E+02  0.00000000000E+00 0.  1.
</event>
<event>
 7    1  0.3001243E-009  0.1876154E+03  0.7561462E-02  0.1160630E+00
         -1   -1    0    0    0  501 -0.00000000000E+00  0.00000000000E+00  0.31964964343E+03  0.31964964343E+03  0.00000000000E+00 0.  1.
          1   -1    0    0  501    0  0.00000000000E+00 -0.00000000000E+00 -0.13787103537E+03  0.13787103537E+03  0.00000000000E+00 0. -1.
         25    2    1    2    0    0  0.42419333331E+02 -0.17438109311E+03  0.10264278120E+03  0.24164280329E+03  0.12509012100E+03 0.  0.
          5    1    3    3  502    0  0.21769758118E+02 -0.16775455975E+03  0.12487760382E+03  0.21030312176E+03  0.41800000000E+01 0.  1.
         -5    1    3    3    0  502  0.20649575214E+02 -0.66265333669E+01 -0.22234822627E+02  0.31339681527E+02  0.41800000000E+01 0.  1.
        -11    1    1    2    0    0 -0.38725349749E+02  0.74331725342E+02  0.79843710785E+02  0.11575783454E+03  0.00000000000E+00 0. -1.
         11    1    1    2    0    0 -0.36939835828E+01  0.10004936777E+03 -0.70788392587E+00  0.10012004098E+03  0.00000000000E+00 0.  1.
</event>
<event>
 7    1  0.3001243E-009  0.1226861E+03  0.7561462E-02  0.1238730E+00
          2   -1    0    0  501    0  0.00000000000E+00  0.00000000000E+00  0.39630541209E+03  0.39630541209E+03  0.00000000000E+00 0. -1.
         -2   -1    0    0    0  501 -0.00000000000E+00 -0.00000000000E+00 -0.56210888693E+02  0.56210888693E+02  0.00000000000E+00 0.  1.
         25    2    1    2    0    0 -0.49992761795E+02 -0.48434567964E+02  0.29708609587E+03  0.32977274419E+03  0.12507889847E+03 0.  0.
          5    1    3    3  502    0 -0.75476059555E+02 -0.68143323521E+02  0.16593923785E+03  0.19466240306E+03  0.41800000000E+01 0.  1.
         -5    1    3    3    0  502  0.25483297760E+02  0.19708755557E+02  0.13114685802E+03  0.13511034113E+03  0.41800000000E+01 0.  1.
        -11    1    1    2    0    0  0.74826950945E+02  0.40254491642E+02  0.18610856263E+02  0.86981955922E+02  0.00000000000E+00 0.  1.
         11    1    1    2    0    0 -0.24834189150E+02  0.81800763219E+01  0.24397571258E+02  0.35761600673E+02  0.00000000000E+00 0. -1.
</event>
<event>
 7    1  0.3001243E-009  0.9973586E+02  0.7561462E-02  0.1280852E+00
         -2   -1    0    0    0  501 -0.00000000000E+00  0.00000000000E+00  0.14414798485E+03  0.14414798485E+03  0.00000000000E+00 0.  1.
          2   -1    0    0  501    0  0.00000000000E+00 -0.00000000000E+00 -0.15280062048E+03  0.15280062048E+03  0.00000000000E+00 0. -1.
         25    2    1    2    0    0  0.26256579321E+02 -0.26307458632E+00 -0.10249803982E+03  0.16383803357E+03  0.12509027104E+03 0.  0.
          5    1    3    3  502    0 -0.16391023832E+02  0.42858805648E+02 -0.16770090026E+01  0.46106698462E+02  0.41800000000E+01 0. -1.
         -5    1    3    3    0  502  0.42647603154E+02 -0.43121880235E+02 -0.10082103082E+03  0.11773133510E+03  0.41800000000E+01 0. -1.
        -11    1    1    2    0    0 -0.42059673769E+02 -0.34510943820E+02  0.42090495090E+02  0.68786853234E+02  0.00000000000E+00 0.  1.
         11    1    1    2    0    0  0.15803094448E+02  0.34774018407E+02  0.51754909094E+02  0.64323718531E+02  0.00000000000E+00 0. -1.
</event>
<event>
 7    1  0.5657540E-009  0.1019565E+03  0.7561462E-02  0.1276235E+00
         -1   -1    0    0    0  501 -0.00000000000E+00  0.00000000000E+00  0.27124150319E+02  0.27124150319E+02  0.00000000000E+00 0.  1.
          1   -1    0    0  501    0  0.00000000000E+00 -0.00000000000E+00 -0.83224802598E+03  0.83224802598E+03  0.00000000000E+00 0. -1.
         25    2    1    2    0    0 -0.91930353667E+02 -0.70015763363E+01 -0.57060889569E+03  0.59138665776E+03  0.12507379881E+03 0.  0.
          5    1    3    3  502    0 -0.11641565542E+02  0.22594117370E+02 -0.39655525251E+03  0.39739094212E+03  0.41800000000E+01 0.  1.
         -5    1    3    3    0  502 -0.80288788125E+02 -0.29595693706E+02 -0.17405364318E+03  0.19399571564E+03  0.41800000000E+01 0.  1.
        -11    1    1    2    0    0  0.39452542507E+02 -0.60141065496E+00 -0.15089666898E+02  0.42244086594E+02  0.00000000000E+00 0.  1.
         11    1    1    2    0    0  0.52477811160E+02  0.76029869913E+01 -0.21942531308E+03  0.22574143194E+03  0.00000000000E+00 0. -1.
</event>
<event>
 7    1  0.3001243E-009  0.7740404E+02  0.7561462E-02  0.1336584E+00
         -1   -1    0    0    0  501 -0.00000000000E+00  0.00000000000E+00  0.50145510686E+02  0.50145510686E+02  0.00000000000E+00 0.  1.
          1   -1    0    0  501    0  0.00000000000E+00 -0.00000000000E+00 -0.26434880521E+03  0.26434880521E+03  0.00000000000E+00 0. -1.
         25    2    1    2    0    0  0.31616176513E+02  0.13092162549E+02 -0.14952106678E+03  0.19792451811E+03  0.12508628270E+03 0.  0.
          5    1    3    3  502    0  0.79252133524E+01  0.42335238054E+02 -0.15384190946E+03  0.15981203614E+03  0.41800000000E+01 0.  1.
         -5    1    3    3    0  502  0.23690963160E+02 -0.29243075505E+02  0.43208426837E+01  0.38112481970E+02  0.41800000000E+01 0.  1.
        -11    1    1    2    0    0 -0.38481790432E+00 -0.35327906754E+02  0.63079907444E+01  0.35888714489E+02  0.00000000000E+00 0.  1.
         11    1    1    2    0    0 -0.31231358608E+02  0.22235744205E+02 -0.70990218483E+02  0.80681083292E+02  0.00000000000E+00 0. -1.
</event>
<event>
 7    1  0.3001243E-009  0.1114079E+03  0.7561462E-02  0.1257985E+00
          2   -1    0    0  501    0  0.00000000000E+00  0.00000000000E+00  0.51534408508E+03  0.51534408508E+03  0.00000000000E+00 0. -1.
         -2   -1    0    0    0  501 -0.00000000000E+00 -0.00000000000E+00 -0.40712260354E+02  0.40712260354E+02  0.00000000000E+00 0.  1.
         25    2    1    2    0    0 -0.38508820209E+02  0.69127730189E+02  0.35588076344E+03  0.38544835136E+03  0.12513089732E+03 0.  0.
          5    1    3    3  502    0  0.30842548259E+01 -0.32324554770E+02  0.13369070584E+03  0.13764107925E+03  0.41800000000E+01 0.  1.
         -5    1    3    3    0  502 -0.41593075035E+02  0.10145228496E+03  0.22219005761E+03  0.24780727211E+03  0.41800000000E+01 0.  1.
        -11    1    1    2    0    0  0.13552971058E+02 -0.38653633157E+02 -0.45082490700E+01  0.41208138643E+02  0.00000000000E+00 0.  1.
         11    1    1    2    0    0  0.24955849152E+02 -0.30474097031E+02  0.12325931035E+03  0.12939985543E+03  0.00000000000E+00 0. -1.
</event>
<event>
 7    1  0.3001243E-009  0.1344030E+03  0.7561462E-02  0.1221065E+00
          1   -1    0    0  501    0  0.00000000000E+00  0.00000000000E+00  0.16592179897E+03  0.16592179897E+03  0.00000000000E+00 0. -1.
         -1   -1    0    0    0  501 -0.00000000000E+00 -0.00000000000E+00 -0.12684591574E+03  0.12684591574E+03  0.00000000000E+00 0.  1.
         25    2    1    2    0    0 -0.45203435153E+02  0.30493541345E+02 -0.32844497680E+02  0.14035459980E+03  0.12508975195E+03 0.  0.
          5    1    3    3  502    0  0.20814071982E+02  0.59374126007E+02 -0.24686322814E+02  0.67715576979E+02  0.41800000000E+01 0.  1.
         -5    1    3    3    0  502 -0.66017507135E+02 -0.28880584662E+02 -0.81581748667E+01  0.72639022818E+02  0.41800000000E+01 0.  1.
        -11    1    1    2    0    0 -0.27057514077E+01 -0.70867186964E+02  0.29841068920E+02  0.76941332671E+02  0.00000000000E+00 0.  1.
         11    1    1    2    0    0  0.47909186561E+02  0.40373645618E+02  0.42079311987E+02  0.75471782242E+02  0.00000000000E+00 0. -1.
</event>
<event>
 7    1  0.3001243E-009  0.1415663E+03  0.7561462E-02  0.1211237E+00
         -1   -1    0    0    0  501 -0.00000000000E+00  0.00000000000E+00  0.17325973992E+03  0.17325973992E+03  0.00000000000E+00 0.  1.
          1   -1    0    0  501    0  0.00000000000E+00 -0.00000000000E+00 -0.12781444998E+03  0.12781444998E+03  0.00000000000E+00 0. -1.
         25    2    1    2    0    0  0.95446048127E+02 -0.11907398793E+02  0.58512215647E+02  0.16829388522E+03  0.12508964055E+03 0.  0.
          5    1    3    3  502    0  0.50121466651E+01 -0.53506411607E+02  0.39596566354E+02  0.66883616561E+02  0.41800000000E+01 0.  1.
         -5    1    3    3    0  502  0.90433901462E+02  0.41599012814E+02  0.18915649293E+02  0.10141026866E+03  0.41800000000E+01 0.  1.
        -11    1    1    2    0    0 -0.30578569403E+02  0.46829244916E+02  0.71559192012E+01  0.56384698862E+02  0.00000000000E+00 0. -1.
         11    1    1    2    0    0 -0.64867478723E+02 -0.34921846123E+02 -0.20222844907E+02  0.76395605821E+02  0.00000000000E+00 0.  1.
</event>
<event>
 7    1  0.3001243E-009  0.5713593E+02  0.7561462E-02  0.1410260E+00
         -1   -1    0    0    0  501 -0.00000000000E+00  0.00000000000E+00  0.28923741658E+03  0.28923741658E+03  0.00000000000E+00 0.  1.
          1   -1    0    0  501    0  0.00000000000E+00 -0.00000000000E+00 -0.40824655888E+02  0.40824655888E+02  0.00000000000E+00 0. -1.
         25    2    1    2    0    0  0.27302734632E+01 -0.11213438785E+02  0.14923435434E+03  0.19506664450E+03  0.12508760002E+03 0.  0.
          5    1    3    3  502    0  0.27686439688E+02 -0.16535490003E+02  0.16269671049E+03  0.16591459664E+03  0.41800000000E+01 0.  1.
         -5    1    3    3    0  502 -0.24956166224E+02  0.53220512187E+01 -0.13462356150E+02  0.29152047868E+02  0.41800000000E+01 0.  1.
        -11    1    1    2    0    0  0.13239717368E+02  0.29068231822E+02 -0.10355760576E+01  0.31958170082E+02  0.00000000000E+00 0. -1.
         11    1    1    2    0    0 -0.15969990831E+02 -0.17854793038E+02  0.10021398241E+03  0.10303725789E+03  0.00000000000E+00 0.  1.
</event>
<event>
 7    1  0.3001243E-009  0.1301436E+03  0.7561462E-02  0.1227243E+00
          1   -1    0    0  501    0  0.00000000000E+00  0.00000000000E+00  0.12937735528E+03  0.12937735528E+03  0.00000000000E+00 0. -1.
         -1   -1    0    0    0  501 -0.00000000000E+00 -0.00000000000E+00 -0.28331742819E+03  0.28331742819E+03  0.00000000000E+00 0.  1.
         25    2    1    2    0    0  0.83860145399E+02  0.44849121115E+02 -0.21533227716E+03  0.26655790754E+03  0.12506462662E+03 0.  0.
          5    1    3    3  502    0  0.18270952272E+02  0.63063081092E+02 -0.36664306447E+02  0.75316158034E+02  0.41800000000E+01 0.  1.
         -5    1    3    3    0  502  0.65589193127E+02 -0.18213959977E+02 -0.17866797072E+03  0.19124174950E+03  0.41800000000E+01 0.  1.
        -11    1    1    2    0    0 -0.81452784697E+02 -0.68331049112E-01  0.60183840649E+02  0.10127514739E+03  0.00000000000E+00 0. -1.
         11    1    1    2    0    0 -0.24073607028E+01 -0.44780790066E+02  0.12083636058E+01  0.44861728534E+02  0.00000000000E+00 0.  1.
</event>
<event>
 7    1  0.3001243E-009  0.7763049E+02  0.7561462E-02  0.1335913E+00
         -2   -1    0    0    0  501 -0.00000000000E+00  0.00000000000E+00  0.16445413289E+02  0.16445413289E+02  0.00000000000E+00 0.  1.
          2   -1    0    0  501    0  0.00000000000E+00 -0.00000000000E+00 -0.97508121302E+03  0.97508121302E+03  0.00000000000E+00 0. -1.
         25    2    1    2    0    0 -0.38461963493E+02 -0.35078246854E+01 -0.72832637283E+03  0.73999931258E+03  0.12509216518E+03 0.  0.
          5    1    3    3  502    0  0.55015844816E+01  0.24598146504E+02 -0.28731587243E+02  0.38448832866E+02  0.41800000000E+01 0.  1.
         -5    1    3    3    0  502 -0.43963547975E+02 -0.28105971190E+02 -0.69959478558E+03  0.70155047971E+03  0.41800000000E+01 0.  1.
        -11    1    1    2    0    0  0.44303607386E+01  0.32412416058E+02 -0.24343967690E+02  0.40777709277E+02  0.00000000000E+00 0.  1.
         11    1    1    2    0    0  0.34031602754E+02 -0.28904591372E+02 -0.20596545922E+03  0.21074960446E+03  0.00000000000E+00 0. -1.
</event>
<event>
 7    1  0.3001243E-009  0.1179148E+03  0.7561462E-02  0.1246577E+00
         -1   -1    0    0    0  501 -0.00000000000E+00  0.00000000000E+00  0.28307667007E+03  0.28307667007E+03  0.00000000000E+00 0.  1.
          1   -1    0    0  501    0  0.00000000000E+00 -0.00000000000E+00 -0.99710526429E+02  0.99710526429E+02  0.00000000000E+00 0. -1.
         25    2    1    2    0    0  0.10327941490E+03  0.34248063988E+00  0.13500281624E+02  0.16277827101E+03  0.12509097919E+03 0.  0.
          5    1    3    3  502    0  0.11113997069E+03 -0.70028720899E+00  0.52337701493E+02  0.12291985553E+03  0.41800000000E+01 0.  1.
         -5    1    3    3    0  502 -0.78605557891E+01  0.10427678489E+01 -0.38837419869E+02  0.39858415475E+02  0.41800000000E+01 0.  1.
        -11    1    1    2    0    0 -0.28337291289E+02  0.23699088230E+02  0.12295606149E+03  0.12838552067E+03  0.00000000000E+00 0.  1.
         11    1    1    2    0    0 -0.74942123610E+02 -0.24041568870E+02  0.46909800521E+02  0.91623404815E+02  0.00000000000E+00 0. -1.
</event>
<event>
 7    1  0.3001243E-009  0.1157635E+03  0.7561462E-02  0.1250254E+00
         -1   -1    0    0    0  501 -0.00000000000E+00  0.00000000000E+00  0.71479583941E+02  0.71479583941E+02  0.00000000000E+00 0.  1.
          1   -1    0    0  501    0  0.00000000000E+00 -0.00000000000E+00 -0.41724413755E+03  0.41724413755E+03  0.00000000000E+00 0. -1.
         25    2    1    2    0    0  0.83157985412E+02 -0.18575234747E+02 -0.32958250692E+03  0.36267427533E+03  0.12509081193E+03 0.  0.
          5    1    3    3  502    0 -0.45299902878E+01  0.30519702464E+02 -0.19623691276E+02  0.36804003991E+02  0.41800000000E+01 0. -1.
         -5    1    3    3    0  502  0.87687975700E+02 -0.49094937211E+02 -0.30995881565E+03  0.32587027134E+03  0.41800000000E+01 0. -1.
        -11    1    1    2    0    0 -0.83961091723E+02  0.29395320236E+02  0.17499915913E+02  0.90663095205E+02  0.00000000000E+00 0.  1.
         11    1    1    2    0    0  0.80310631105E+00 -0.10820085488E+02 -0.33681962600E+02  0.35386350961E+02  0.00000000000E+00 0. -1.
</event>
<event>
 7    1  0.3001243E-009  0.1059314E+03  0.7561462E-02  0.1268295E+00
          2   -1    0    0  501    0  0.00000000000E+00  0.00000000000E+00  0.92247273404E+02  0.92247273404E+02  0.00000000000E+00 0. -1.
         -2   -1    0    0    0  501 -0.00000000000E+00 -0.00000000000E+00 -0.13977195126E+03  0.13977195126E+03  0.00000000000E+00 0.  1.
         25    2    1    2    0    0  0.10256944331E+02  0.28268300936E+02 -0.38136882311E+02  0.13418197300E+03  0.12508428494E+03 0.  0.
          5    1    3    3  502    0 -0.48169305667E+02  0.28185357854E+02  0.11815237199E+02  0.57199376185E+02  0.41800000000E+01 0.  1.
         -5    1    3    3    0  502  0.58426249999E+02  0.82943081505E-01 -0.49952119510E+02  0.76982596812E+02  0.41800000000E+01 0.  1.
        -11    1    1    2    0    0  0.41300725187E+02 -0.16242222505E+02 -0.25092353942E+01  0.44450601291E+02  0.00000000000E+00 0.  1.
         11    1    1    2    0    0 -0.51557669518E+02 -0.12026078431E+02 -0.68785601500E+01  0.53386650375E+02  0.00000000000E+00 0. -1.
</event>
<event>
 7    1  0.3001243E-009  0.9164715E+02  0.7561462E-02  0.1298911E+00
          3   -1    0    0  501    0  0.00000000000E+00  0.00000000000E+00  0.52817619298E+02  0.52817619298E+02  0.00000000000E+00 0. -1.
         -3   -1    0    0    0  501 -0.00000000000E+00 -0.00000000000E+00 -0.27408721312E+03  0.27408721312E+03  0.00000000000E+00 0.  1.
         25    2    1    2    0    0  0.47336587924E+02 -0.13864655477E+02 -0.11029791864E+03  0.17391413371E+03  0.12509002286E+03 0.  0.
          5    1    3    3  502    0 -0.94251662420E+01  0.11743879489E+02 -0.11040219691E+03  0.11150277999E+03  0.41800000000E+01 0. -1.
         -5    1    3    3    0  502  0.56761754166E+02 -0.25608534965E+02  0.10427826572E+00  0.62411353719E+02  0.41800000000E+01 0. -1.
        -11    1    1    2    0    0  0.96622158925E+01 -0.31156838067E+02 -0.36815912968E+02  0.49188600528E+02  0.00000000000E+00 0. -1.
         11    1    1    2    0    0 -0.56998803816E+02  0.45021493543E+02 -0.74155762219E+02  0.10380209818E+03  0.00000000000E+00 0.  1.
</event>
<event>
 7    1  0.3001243E-009  0.7445682E+02  0.7561462E-02  0.1345561E+00
          2   -1    0    0  501    0  0.00000000000E+00  0.00000000000E+00  0.33924120198E+03  0.33924120198E+03  0.00000000000E+00 0.  1.
         -2   -1    0    0    0  501 -0.00000000000E+00 -0.00000000000E+00 -0.66714457149E+02  0.66714457149E+02  0.00000000000E+00 0. -1.
         25    2    1    2    0    0  0.25248912117E+02  0.49648659526E+01  0.28289978084E+03  0.31039047854E+03  0.12509118957E+03 0.  0.
          5    1    3    3  502    0  0.39301549803E+02  0.12374255668E+02  0.28967535129E+03  0.29262094177E+03  0.41800000000E+01 0.  1.
         -5    1    3    3    0  502 -0.14052637686E+02 -0.74093897158E+01 -0.67755704465E+01  0.17769536763E+02  0.41800000000E+01 0.  1.
        -11    1    1    2    0    0  0.83698796749E+00  0.39505779130E+02  0.89336306278E+01  0.40511935151E+02  0.00000000000E+00 0.  1.
         11    1    1    2    0    0 -0.26085900084E+02 -0.44470645082E+02 -0.19306666637E+02  0.55053245443E+02  0.00000000000E+00 0. -1.
</event>
<event>
 7    1  0.3001243E-009  0.8089639E+02  0.7561462E-02  0.1326527E+00
          1   -1    0    0  501    0  0.00000000000E+00  0.00000000000E+00  0.73313998144E+02  0.73313998144E+02  0.00000000000E+00 0. -1.
         -1   -1    0    0    0  501 -0.00000000000E+00 -0.00000000000E+00 -0.18778792657E+03  0.18778792657E+03  0.00000000000E+00 0.  1.
         25    2    1    2    0    0 -0.10400258804E+02  0.40651663198E+02 -0.53117988486E+02  0.14223332000E+03  0.12509226000E+03 0.  0.
          5    1    3    3  502    0  0.41929628949E+02  0.38296155625E+02  0.12370199688E+02  0.58268203677E+02  0.41800000000E+01 0. -1.
         -5    1    3    3    0  502 -0.52329887753E+02  0.23555075724E+01 -0.65488188174E+02  0.83965116319E+02  0.41800000000E+01 0. -1.
        -11    1    1    2    0    0 -0.94807438491E+01 -0.25802247741E+02 -0.82065884688E+02  0.86547385414E+02  0.00000000000E+00 0.  1.
         11    1    1    2    0    0  0.19881002653E+02 -0.14849415457E+02  0.20709944748E+02  0.32321219305E+02  0.00000000000E+00 0. -1.
</event>
<event>
 7    1  0.3001243E-009  0.1055552E+03  0.7561462E-02  0.1269030E+00
         -2   -1    0    0    0  501 -0.00000000000E+00  0.00000000000E+00  0.55507022525E+02  0.55507022525E+02  0.00000000000E+00 0.  1.
          2   -1    0    0  501    0  0.00000000000E+00 -0.00000000000E+00 -0.32856512550E+03  0.32856512550E+03  0.00000000000E+00 0. -1.
         25    2    1    2    0    0 -0.79070782160E+01  0.66520075606E+02 -0.86499218347E+02  0.16618520210E+03  0.12509182339E+03 0.  0.
          5    1    3    3  502    0 -0.49904330283E+02  0.44528260911E+02 -0.96567251814E+02  0.11754111929E+03  0.41800000000E+01 0. -1.
         -5    1    3    3    0  502  0.41997252067E+02  0.21991814695E+02  0.10068033467E+02  0.48644082813E+02  0.41800000000E+01 0. -1.
        -11    1    1    2    0    0  0.19569647615E+01 -0.80911002834E+02 -0.94064843022E+02  0.12409115514E+03  0.00000000000E+00 0.  1.
         11    1    1    2    0    0  0.59501134545E+01  0.14390927228E+02 -0.92494041606E+02  0.93795790787E+02  0.00000000000E+00 0. -1.
</event>
<event>
 7    1  0.3001243E-009  0.1107697E+03  0.7561462E-02  0.1259151E+00
         -2   -1    0    0    0  501 -0.00000000000E+00  0.00000000000E+00  0.39363727878E+02  0.39363727878E+02  0.00000000000E+00 0.  1.
          2   -1    0    0  501    0  0.00000000000E+00 -0.00000000000E+00 -0.39668996155E+03  0.39668996155E+03  0.00000000000E+00 0. -1.
         25    2    1    2    0    0 -0.66747867443E+00  0.46980228971E+02 -0.22782948694E+03  0.26411914539E+03  0.12508021588E+03 0.  0.
          5    1    3    3  502    0 -0.61390209042E+02  0.10009168574E+02 -0.10248182631E+03  0.11995390092E+03  0.41800000000E+01 0. -1.
         -5    1    3    3    0  502  0.60722730368E+02  0.36971060397E+02 -0.12534766063E+03  0.14416524448E+03  0.41800000000E+01 0. -1.
        -11    1    1    2    0    0 -0.23409458779E+02 -0.57216935057E+02 -0.29363302495E+02  0.68439637280E+02  0.00000000000E+00 0.  1.
         11    1    1    2    0    0  0.24076937454E+02  0.10236706086E+02 -0.10013344424E+03  0.10349490676E+03  0.00000000000E+00 0. -1.
</event>
<event>
 7    1  0.3001243E-009  0.1289694E+03  0.7561462E-02  0.1228993E+00
         -2   -1    0    0    0  501 -0.00000000000E+00  0.00000000000E+00  0.10196082780E+02  0.10196082780E+02  0.00000000000E+00 0.  1.
          2   -1    0    0  501    0  0.00000000000E+00 -0.00000000000E+00 -0.31131065818E+04  0.31131065818E+04  0.00000000000E+00 0. -1.
         25    2    1    2    0    0  0.82226804643E+02  0.57813729596E+01 -0.26445088605E+04  0.26487487387E+04  0.12509234803E+03 0.  0.
          5    1    3    3  502    0  0.40025634190E+02  0.59844918906E+02 -0.18020325189E+04  0.18034750171E+04  0.41800000000E+01 0. -1.
         -5    1    3    3    0  502  0.42201170453E+02 -0.54063545946E+02 -0.84247634157E+03  0.84527372152E+03  0.41800000000E+01 0. -1.
        -11    1    1    2    0    0 -0.61770526927E+02 -0.42568348826E+02 -0.21931347440E+03  0.23178883142E+03  0.00000000000E+00 0. -1.
         11    1    1    2    0    0 -0.20456277716E+02  0.36786975867E+02 -0.23908816412E+03  0.24276509452E+03  0.00000000000E+00 0.  1.
</event>
<event>
 7    1  0.3001243E-009  0.1147912E+03  0.7561462E-02  0.1251946E+00
         -2   -1    0    0    0  501 -0.00000000000E+00  0.00000000000E+00  0.63820931041E+03  0.63820931041E+03  0.00000000000E+00 0.  1.
          2   -1    0    0  501    0  0.00000000000E+00 -0.00000000000E+00 -0.53264046085E+02  0.53264046085E+02  0.00000000000E+00 0. -1.
         25    2    1    2    0    0 -0.31738640896E+02  0.67846824811E+02  0.55103129316E+03  0.56999385115E+03  0.12508785448E+03 0.  0.
          5    1    3    3  502    0  0.44041028372E+02  0.12628886754E+01  0.14539090722E+03  0.15197761470E+03  0.41800000000E+01 0.  1.
         -5    1    3    3    0  502 -0.75779669268E+02  0.66583936136E+02  0.40564038594E+03  0.41801623644E+03  0.41800000000E+01 0.  1.
        -11    1    1    2    0    0 -0.62495895448E+01 -0.30345843661E+02 -0.26565426804E+02  0.40812369427E+02  0.00000000000E+00 0. -1.
         11    1    1    2    0    0  0.37988230440E+02 -0.37500981150E+02  0.60479397970E+02  0.80667135924E+02  0.00000000000E+00 0.  1.
</event>
<event>
 7    1  0.3001243E-009  0.1721223E+03  0.7561462E-02  0.1175653E+00
          1   -1    0    0  501    0  0.00000000000E+00  0.00000000000E+00  0.21028319720E+03  0.21028319720E+03  0.00000000000E+00 0. -1.
         -1   -1    0    0    0  501 -0.00000000000E+00 -0.00000000000E+00 -0.16151654279E+03  0.16151654279E+03  0.00000000000E+00 0.  1.
         25    2    1    2    0    0  0.41190916584E+02 -0.12815232495E+03 -0.36617334177E+02  0.18737354788E+03  0.12509319439E+03 0.  0.
          5    1    3    3  502    0 -0.42883034299E+02 -0.30383612591E+02  0.18267111412E+01  0.52753462620E+02  0.41800000000E+01 0. -1.
         -5    1    3    3    0  502  0.84073950883E+02 -0.97768712362E+02 -0.38444045319E+02  0.13462008526E+03  0.41800000000E+01 0. -1.
        -11    1    1    2    0    0  0.22276591765E+02  0.79434372418E+02  0.53325420046E+02  0.98232715961E+02  0.00000000000E+00 0. -1.
         11    1    1    2    0    0 -0.63467508348E+02  0.48717952535E+02  0.32058568537E+02  0.86193476155E+02  0.00000000000E+00 0.  1.
</event>
<event>
 7    1  0.3001243E-009  0.2764928E+03  0.7561462E-02  0.1097620E+00
          1   -1    0    0  501    0  0.00000000000E+00  0.00000000000E+00  0.66447364169E+03  0.66447364169E+03  0.00000000000E+00 0. -1.
         -1   -1    0    0    0  501 -0.00000000000E+00 -0.00000000000E+00 -0.12576103777E+03  0.12576103777E+03  0.00000000000E+00 0.  1.
         25    2    1    2    0    0  0.23685379999E+03  0.12287407812E+03  0.23950707762E+03  0.37974743946E+03  0.12508683346E+03 0.  0.
          5    1    3    3  502    0  0.20606035528E+03  0.57897553453E+02  0.13592920687E+03  0.25358867955E+03  0.41800000000E+01 0. -1.
         -5    1    3    3    0  502  0.30793444709E+02  0.64976524671E+02  0.10357787074E+03  0.12615875991E+03  0.41800000000E+01 0. -1.
        -11    1    1    2    0    0 -0.32989870377E+02 -0.15107057971E+02  0.97821487355E+02  0.10433406987E+03  0.00000000000E+00 0. -1.
         11    1    1    2    0    0 -0.20386392961E+03 -0.10776702015E+03  0.20138403895E+03  0.30615317012E+03  0.00000000000E+00 0.  1.
</event>
<event>
 7    1  0.3001243E-009  0.1286202E+03  0.7561462E-02  0.1229518E+00
         -2   -1    0    0    0  501 -0.00000000000E+00  0.00000000000E+00  0.13214063777E+02  0.13214063777E+02  0.00000000000E+00 0.  1.
          2   -1    0    0  501    0  0.00000000000E+00 -0.00000000000E+00 -0.15140472615E+04  0.15140472615E+04  0.00000000000E+00 0. -1.
         25    2    1    2    0    0  0.16314358467E+02  0.82078406119E+02 -0.92577215710E+03  0.93792914060E+03  0.12511579788E+03 0.  0.
          5    1    3    3  502    0 -0.32847085047E+02  0.70427432223E+02 -0.29398142524E+03  0.30410771939E+03  0.41800000000E+01 0. -1.
         -5    1    3    3    0  502  0.49161443514E+02  0.11650973896E+02 -0.63179073186E+03  0.63382142121E+03  0.41800000000E+01 0. -1.
        -11    1    1    2    0    0  0.12148436584E+02  0.19641352195E+02 -0.91546395104E+02  0.94414562881E+02  0.00000000000E+00 0. -1.
         11    1    1    2    0    0 -0.28462795051E+02 -0.10171975831E+03 -0.48351464547E+03  0.49491762175E+03  0.00000000000E+00 0.  1.
</event>
<event>
 7    1  0.3001243E-009  0.1448199E+03  0.7561462E-02  0.1206987E+00
          2   -1    0    0  501    0  0.00000000000E+00  0.00000000000E+00  0.12330316392E+03  0.12330316392E+03  0.00000000000E+00 0. -1.
         -2   -1    0    0    0  501 -0.00000000000E+00 -0.00000000000E+00 -0.17970670279E+03  0.17970670279E+03  0.00000000000E+00 0.  1.
         25    2    1    2    0    0 -0.47307454990E+02  0.90130493740E+02 -0.50362563806E+02  0.16895390537E+03  0.12509009996E+03 0.  0.
          5    1    3    3  502    0  0.40264116003E+02  0.26227395543E+02  0.24431129514E+01  0.48296133544E+02  0.41800000000E+01 0.  1.
         -5    1    3    3    0  502 -0.87571570993E+02  0.63903098197E+02 -0.52805676757E+02  0.12065777183E+03  0.41800000000E+01 0.  1.
        -11    1    1    2    0    0 -0.18157347781E+02 -0.56444741195E+02 -0.10842007086E+02  0.60276423291E+02  0.00000000000E+00 0.  1.
         11    1    1    2    0    0  0.65464802771E+02 -0.33685752545E+02  0.48010320239E+01  0.73779538050E+02  0.00000000000E+00 0. -1.
</event>
<event>
 7    1  0.3001243E-009  0.9831022E+02  0.7561462E-02  0.1283890E+00
          1   -1    0    0  501    0  0.00000000000E+00  0.00000000000E+00  0.44133583383E+02  0.44133583383E+02  0.00000000000E+00 0. -1.
         -1   -1    0    0    0  501 -0.00000000000E+00 -0.00000000000E+00 -0.61190973931E+03  0.61190973931E+03  0.00000000000E+00 0.  1.
         25    2    1    2    0    0  0.81137572078E+02 -0.13790886921E+02 -0.12112002562E+03  0.19259100703E+03  0.12509093180E+03 0.  0.
          5    1    3    3  502    0  0.47914308380E+02 -0.27973007752E+01  0.16193843741E+02  0.50826359443E+02  0.41800000000E+01 0. -1.
         -5    1    3    3    0  502  0.33223263699E+02 -0.10993586146E+02 -0.13731386936E+03  0.14176464759E+03  0.41800000000E+01 0. -1.
        -11    1    1    2    0    0 -0.53691128378E+02 -0.30010491861E+02 -0.14667020146E+03  0.15904563774E+03  0.00000000000E+00 0.  1.
         11    1    1    2    0    0 -0.27446443701E+02  0.43801378782E+02 -0.29998592884E+03  0.30440667791E+03  0.00000000000E+00 0. -1.
</event>
<event>
 7    1  0.3001243E-009  0.1120625E+03  0.7561462E-02  0.1256797E+00
          1   -1    0    0  501    0  0.00000000000E+00  0.00000000000E+00  0.32530416835E+03  0.32530416835E+03  0.00000000000E+00 0. -1.
         -1   -1    0    0    0  501 -0.00000000000E+00 -0.00000000000E+00 -0.66935419914E+02  0.66935419914E+02  0.00000000000E+00 0.  1.
         25    2    1    2    0    0 -0.39929896668E+02  0.38057532516E+02  0.24992617250E+03  0.28487789636E+03  0.12509816827E+03 0.  0.
          5    1    3    3  502    0 -0.56756178630E+02 -0.27559925810E+02  0.16128939637E+03  0.17324132043E+03  0.41800000000E+01 0.  1.
         -5    1    3    3    0  502  0.16826281962E+02  0.65617458326E+02  0.88636776123E+02  0.11163657592E+03  0.41800000000E+01 0.  1.
        -11    1    1    2    0    0  0.24681389567E+02 -0.60813500324E+02 -0.19264144449E+02  0.68400000541E+02  0.00000000000E+00 0. -1.
         11    1    1    2    0    0  0.15248507101E+02  0.22755967808E+02  0.27706720390E+02  0.38961691370E+02  0.00000000000E+00 0.  1.
</event>
<event>
 7    1  0.3001243E-009  0.1271229E+03  0.7561462E-02  0.1231788E+00
          1   -1    0    0  501    0  0.00000000000E+00  0.00000000000E+00  0.19892378407E+03  0.19892378407E+03  0.00000000000E+00 0. -1.
         -1   -1    0    0    0  501 -0.00000000000E+00 -0.00000000000E+00 -0.10617434650E+03  0.10617434650E+03  0.00000000000E+00 0.  1.
         25    2    1    2    0    0  0.40149718005E+02 -0.87716568242E+02  0.38740581026E+02  0.16264866572E+03  0.12509020602E+03 0.  0.
          5    1    3    3  502    0 -0.35989405938E+01  0.21353025582E+02  0.39290201912E+02  0.45056591540E+02  0.41800000000E+01 0. -1.
         -5    1    3    3    0  502  0.43748658599E+02 -0.10906959382E+03 -0.54962088632E+00  0.11759207418E+03  0.41800000000E+01 0. -1.
        -11    1    1    2    0    0  0.15132473630E+02  0.35355573802E+02 -0.13429782410E+02  0.40735333712E+02  0.00000000000E+00 0.  1.
         11    1    1    2    0    0 -0.55282191636E+02  0.52360994440E+02  0.67438638954E+02  0.10171413115E+03  0.00000000000E+00 0. -1.
</event>
<event>
 7    1  0.3001243E-009  0.9389552E+02  0.7561462E-02  0.1293683E+00
          2   -1    0    0  501    0  0.00000000000E+00  0.00000000000E+00  0.20196254058E+03  0.20196254058E+03  0.00000000000E+00 0. -1.
         -2   -1    0    0    0  501 -0.00000000000E+00 -0.00000000000E+00 -0.67716504035E+02  0.67716504035E+02  0.00000000000E+00 0.  1.
         25    2    1    2    0    0 -0.36570368217E+02 -0.93929625481E+01  0.51579757361E+02  0.14047891132E+03  0.12509289979E+03 0.  0.
          5    1    3    3  502    0  0.43621505357E+02 -0.22519784378E+02  0.20944471847E+02  0.53536153383E+02  0.41800000000E+01 0.  1.
         -5    1    3    3    0  502 -0.80191873575E+02  0.13126821830E+02  0.30635285514E+02  0.86942757934E+02  0.41800000000E+01 0.  1.
        -11    1    1    2    0    0  0.95208362878E+01 -0.16922532212E+02  0.88860194451E+02  0.90956872077E+02  0.00000000000E+00 0. -1.
         11    1    1    2    0    0  0.27049531930E+02  0.26315494760E+02 -0.61939152713E+01  0.38243261216E+02  0.00000000000E+00 0.  1.
</event>
<event>
 7    1  0.3001243E-009  0.1161737E+03  0.7561462E-02  0.1249546E+00
          1   -1    0    0  501    0  0.00000000000E+00  0.00000000000E+00  0.72214731849E+03  0.72214731849E+03  0.00000000000E+00 0. -1.
         -1   -1    0    0    0  501 -0.00000000000E+00 -0.00000000000E+00 -0.24754016806E+02  0.24754016806E+02  0.00000000000E+00 0.  1.
         25    2    1    2    0    0 -0.45319886868E+02 -0.44644293221E+01  0.55947493638E+03  0.57509472634E+03  0.12509163263E+03 0.  0.
          5    1    3    3  502    0  0.34862432100E+02  0.27102670771E+02  0.24588091119E+03  0.24984963242E+03  0.41800000000E+01 0.  1.
         -5    1    3    3    0  502 -0.80182318969E+02 -0.31567100093E+02  0.31359402519E+03  0.32524509392E+03  0.41800000000E+01 0.  1.
        -11    1    1    2    0    0  0.64069481746E+02 -0.23334982581E+02  0.82471942102E+02  0.10700953760E+03  0.00000000000E+00 0.  1.
         11    1    1    2    0    0 -0.18749594877E+02  0.27799411903E+02  0.55446423205E+02  0.64797071357E+02  0.00000000000E+00 0. -1.
</event>
<event>
 6    1  0.3001243E-009  0.1018525E+03  0.7561462E-02  0.1276448E+00
         -1   -1    0    0    0  501 -0.00000000000E+00  0.00000000000E+00  0.87514837429E+02  0.87514837429E+02  0.00000000000E+00 0. -1.
          1   -1    0    0  501    0  0.00000000000E+00 -0.00000000000E+00 -0.21808671096E+03  0.21808671096E+03  0.00000000000E+00 0.  1.
          5    1    1    2  502    0  0.11088101609E+02 -0.52869301397E+02 -0.97073049085E+02  0.11116995226E+03  0.41800000000E+01 0. -1.
         -5    1    1    2    0  502  0.18224093329E+02 -0.26076923250E+02  0.38838570964E+02  0.50378869562E+02  0.41800000000E+01 0. -1.
        -11    1    1    2    0    0  0.33586129355E+01 -0.16352178148E+02 -0.30899062580E+02  0.35120166278E+02  0.00000000000E+00 0.  1.
         11    1    1    2    0    0 -0.32670807873E+02  0.95298402795E+02 -0.41438332828E+02  0.10893256028E+03  0.00000000000E+00 0. -1.
</event>
<event>
 7    1  0.3860513E-009  0.1143581E+03  0.7561462E-02  0.1252706E+00
          2   -1    0    0  501    0  0.00000000000E+00  0.00000000000E+00  0.75006799673E+03  0.75006799673E+03  0.00000000000E+00 0. -1.
         -2   -1    0    0    0  501 -0.00000000000E+00 -0.00000000000E+00 -0.21280485947E+02  0.21280485947E+02  0.00000000000E+00 0.  1.
         25    2    1    2    0    0 -0.48294884578E+02  0.38271297241E+02  0.34696508943E+03  0.37394004965E+03  0.12509715978E+03 0.  0.
          5    1    3    3  502    0 -0.67683476611E+02  0.65637840869E+02  0.17640953157E+03  0.20006792444E+03  0.41800000000E+01 0. -1.
         -5    1    3    3    0  502  0.19388592033E+02 -0.27366543628E+02  0.17055555785E+03  0.17387212521E+03  0.41800000000E+01 0. -1.
        -11    1    1    2    0    0  0.51685116998E+01 -0.54290836053E+02  0.12327182420E+03  0.13479670261E+03  0.00000000000E+00 0.  1.
         11    1    1    2    0    0  0.43126372878E+02  0.16019538812E+02  0.25855059715E+03  0.26261173041E+03  0.00000000000E+00 0. -1.
</event>
<event>
 7    1  0.3145974E-009  0.9115347E+02  0.7561462E-02  0.1300082E+00
         -1   -1    0    0    0  501 -0.00000000000E+00  0.00000000000E+00  0.66790813492E+02  0.66790813492E+02  0.00000000000E+00 0.  1.
          1   -1    0    0  501    0  0.00000000000E+00 -0.00000000000E+00 -0.20522233948E+03  0.20522233948E+03  0.00000000000E+00 0. -1.
         25    2    1    2    0    0 -0.26324439660E+02  0.96588654763E+01 -0.38373831960E+02  0.13381198733E+03  0.12508727820E+03 0.  0.
          5    1    3    3  502    0 -0.38285327627E+02 -0.37286441356E+02  0.20555597997E+02  0.57411236091E+02  0.41800000000E+01 0. -1.
         -5    1    3    3    0  502  0.11960887967E+02  0.46945306832E+02 -0.58929429957E+02  0.76400751237E+02  0.41800000000E+01 0. -1.
        -11    1    1    2    0    0  0.15920603361E+02 -0.42628517473E+02 -0.17600643241E+02  0.48789740272E+02  0.00000000000E+00 0.  1.
         11    1    1    2    0    0  0.10403836299E+02  0.32969651997E+02 -0.82457050783E+02  0.89411425368E+02  0.00000000000E+00 0. -1.
</event>
<event>
 7    1  0.3001243E-009  0.2052341E+03  0.7561462E-02  0.1145397E+00
          2   -1    0    0  501    0  0.00000000000E+00  0.00000000000E+00  0.16520247579E+04  0.16520247579E+04  0.00000000000E+00 0. -1.
         -2   -1    0    0    0  501 -0.00000000000E+00 -0.00000000000E+00 -0.31549118867E+02  0.31549118867E+02  0.00000000000E+00 0.  1.
         25    2    1    2    0    0 -0.95187508846E+02  0.16189587219E+03  0.11174423694E+04  0.11400005440E+04  0.12511137537E+03 0.  0.
          5    1    3    3  502    0 -0.11862632635E+03  0.15687842687E+03  0.90289436586E+03  0.92407724483E+03  0.41800000000E+01 0. -1.
         -5    1    3    3    0  502  0.23438817505E+02  0.50174453168E+01  0.21454800352E+03  0.21592329920E+03  0.41800000000E+01 0. -1.
        -11    1    1    2    0    0  0.57919521100E+02 -0.74225701491E+02  0.14346137311E+03  0.17159630317E+03  0.00000000000E+00 0.  1.
         11    1    1    2    0    0  0.37267987746E+02 -0.87670170696E+02  0.35957189657E+03  0.37197702959E+03  0.00000000000E+00 0. -1.
</event>
<event>
 7    1  0.3001243E-009  0.2413870E+03  0.7561462E-02  0.1118872E+00
         -2   -1    0    0    0  501 -0.00000000000E+00  0.00000000000E+00  0.28245526908E+03  0.28245526908E+03  0.00000000000E+00 0. -1.
          2   -1    0    0  501    0  0.00000000000E+00 -0.00000000000E+00 -0.22471906672E+03  0.22471906672E+03  0.00000000000E+00 0.  1.
         25    2    1    2    0    0 -0.37767617938E+02  0.21929098664E+03  0.73560646267E+02  0.26565748343E+03  0.12509116690E+03 0.  0.
          5    1    3    3  502    0 -0.75837805291E+02  0.10705716362E+03  0.65755521773E+02  0.14681236337E+03  0.41800000000E+01 0.  1.
         -5    1    3    3    0  502  0.38070187353E+02  0.11223382301E+03  0.78051244942E+01  0.11884512006E+03  0.41800000000E+01 0.  1.
        -11    1    1    2    0    0 -0.18480122028E+02 -0.90758472924E+02  0.23987286452E+02  0.95676565726E+02  0.00000000000E+00 0. -1.
         11    1    1    2    0    0  0.56247739966E+02 -0.12853251371E+03 -0.39811730360E+02  0.14584028664E+03  0.00000000000E+00 0.  1.
</event>
<event>
 7    1  0.3001243E-009  0.1019589E+03  0.7561462E-02  0.1276230E+00
         -2   -1    0    0    0  501 -0.00000000000E+00  0.00000000000E+00  0.40554482963E+02  0.40554482963E+02  0.00000000000E+00 0.  1.
          2   -1    0    0  501    0  0.00000000000E+00 -0.00000000000E+00 -0.36798136409E+03  0.36798136409E+03  0.00000000000E+00 0. -1.
         25    2    1    2    0    0  0.43587185201E+02 -0.21255612876E+02 -0.18377739330E+03  0.22753784631E+03  0.12509075674E+03 0.  0.
          5    1    3    3  502    0  0.32683538608E+02 -0.57840734586E+02 -0.17625211066E+03  0.18840393623E+03  0.41800000000E+01 0. -1.
         -5    1    3    3    0  502  0.10903646593E+02  0.36585121710E+02 -0.75252826426E+01  0.39133910083E+02  0.41800000000E+01 0. -1.
        -11    1    1    2    0    0 -0.69917882652E+02  0.11448835305E+02 -0.60286374656E+02  0.93027055815E+02  0.00000000000E+00 0. -1.
         11    1    1    2    0    0  0.26330697451E+02  0.98067775711E+01 -0.83363113168E+02  0.87970944929E+02  0.00000000000E+00 0.  1.
</event>
<event>
 7    1  0.3001243E-009  0.4789931E+03  0.7561462E-02  0.1019412E+00
         -2   -1    0    0    0  501 -0.00000000000E+00  0.00000000000E+00  0.65422126836E+03  0.65422126836E+03  0.00000000000E+00 0.  1.
          2   -1    0    0  501    0  0.00000000000E+00 -0.00000000000E+00 -0.44444264966E+03  0.44444264966E+03  0.00000000000E+00 0. -1.
         25    2    1    2    0    0 -0.72104687036E+02 -0.46122598788E+03  0.35679035452E+03  0.60072867113E+03  0.12508829463E+03 0.  0.
          5    1    3    3  502    0 -0.57940580419E+02 -0.67937954088E+02  0.74998242753E+02  0.11668284056E+03  0.41800000000E+01 0.  1.
         -5    1    3    3    0  502 -0.14164106617E+02 -0.39328803379E+03  0.28179211176E+03  0.48404583057E+03  0.41800000000E+01 0.  1.
        -11    1    1    2    0    0 -0.18217791107E+02  0.14568249740E+03 -0.32993147217E+02  0.15047865537E+03  0.00000000000E+00 0.  1.
         11    1    1    2    0    0  0.90322478143E+02  0.31554349048E+03 -0.11401858860E+03  0.34745659152E+03  0.00000000000E+00 0. -1.
</event>
<event>
 7    1  0.3001243E-009  0.8859613E+02  0.7561462E-02  0.1306287E+00
          1   -1    0    0  501    0  0.00000000000E+00  0.00000000000E+00  0.57210168261E+02  0.57210168261E+02  0.00000000000E+00 0. -1.
         -1   -1    0    0    0  501 -0.00000000000E+00 -0.00000000000E+00 -0.21594577517E+03  0.21594577517E+03  0.00000000000E+00 0.  1.
         25    2    1    2    0    0  0.23401287190E+02 -0.24775950457E+02 -0.10099836299E+03  0.16434650449E+03  0.12509051222E+03 0.  0.
          5    1    3    3  502    0  0.20703650202E+02 -0.52942227616E+02 -0.11801909634E+03  0.13106296234E+03  0.41800000000E+01 0.  1.
         -5    1    3    3    0  502  0.26976369878E+01  0.28166277159E+02  0.17020733346E+02  0.33283542148E+02  0.41800000000E+01 0.  1.
        -11    1    1    2    0    0  0.19041385089E+02  0.41743606028E+02 -0.22537118524E+02  0.51117753293E+02  0.00000000000E+00 0. -1.
         11    1    1    2    0    0 -0.42442672279E+02 -0.16967655571E+02 -0.35200125398E+02  0.57691685656E+02  0.00000000000E+00 0.  1.
</event>
<event>
 7    1  0.3001243E-009  0.1004724E+03  0.7561462E-02  0.1279306E+00
          1   -1    0    0  501    0  0.00000000000E+00  0.00000000000E+00  0.72708373853E+03  0.72708373853E+03  0.00000000000E+00 0. -1.
         -1   -1    0    0    0  501 -0.00000000000E+00 -0.00000000000E+00 -0.25908900822E+02  0.25908900822E+02  0.00000000000E+00 0.  1.
         25    2    1    2    0    0 -0.31021326214E+02  0.49725179524E+02  0.55290275952E+03  0.56989801559E+03  0.12508945010E+03 0.  0.
          5    1    3    3  502    0 -0.56518122438E+02  0.62499037820E+02  0.21798088962E+03  0.23373824790E+03  0.41800000000E+01 0.  1.
         -5    1    3    3    0  502  0.25496796224E+02 -0.12773858296E+02  0.33492186990E+03  0.33615976769E+03  0.41800000000E+01 0.  1.
        -11    1    1    2    0    0 -0.15554493189E+02 -0.35971721779E+02  0.16254129989E+02  0.42427629769E+02  0.00000000000E+00 0.  1.
         11    1    1    2    0    0  0.46575819403E+02 -0.13753457745E+02  0.13201794819E+03  0.14066699399E+03  0.00000000000E+00 0. -1.
</event>
<event>
 7    1  0.3001243E-009  0.7380600E+02  0.7561462E-02  0.1347609E+00
          2   -1    0    0  501    0  0.00000000000E+00  0.00000000000E+00  0.32290823993E+03  0.32290823993E+03  0.00000000000E+00 0. -1.
         -2   -1    0    0    0  501 -0.00000000000E+00 -0.00000000000E+00 -0.42725772895E+02  0.42725772895E+02  0.00000000000E+00 0.  1.
         25    2    1    2    0    0 -0.46760972082E+02  0.23492519371E+02  0.14655665465E+03  0.19965290863E+03  0.12507575275E+03 0.  0.
          5    1    3    3  502    0 -0.14905328419E+02  0.13425329228E+01  0.15817474182E+03  0.15893612729E+03  0.41800000000E+01 0.  1.
         -5    1    3    3    0  502 -0.31855643664E+02  0.22149986449E+02 -0.11618087170E+02  0.40716781336E+02  0.41800000000E+01 0.  1.
        -11    1    1    2    0    0  0.28132555967E+02  0.27145499642E+02  0.84096853283E+02  0.92739417661E+02  0.00000000000E+00 0. -1.
         11    1    1    2    0    0  0.18628416116E+02 -0.50638019013E+02  0.49528959108E+02  0.73241686538E+02  0.00000000000E+00 0.  1.
</event>
<event>
 7    1  0.3001243E-009  0.9546384E+02  0.7561462E-02  0.1290135E+00
         -1   -1    0    0    0  501 -0.00000000000E+00  0.00000000000E+00  0.13666991439E+03  0.13666991439E+03  0.00000000000E+00 0.  1.
          1   -1    0    0  501    0  0.00000000000E+00 -0.00000000000E+00 -0.12719243546E+03  0.12719243546E+03  0.00000000000E+00 0. -1.
         25    2    1    2    0    0 -0.76934553496E+01  0.22884873571E+01 -0.69566989114E+02  0.14335918609E+03  0.12509142190E+03 0.  0.
          5    1    3    3  502    0  0.34349516118E+02 -0.31175815448E+02 -0.75940992904E+02  0.89086068101E+02  0.41800000000E+01 0. -1.
         -5    1    3    3    0  502 -0.42042971467E+02  0.33464302805E+02  0.63740037903E+01  0.54273117990E+02  0.41800000000E+01 0. -1.
        -11    1    1    2    0    0 -0.54921578745E+01  0.42967333194E+02  0.31558666874E+02  0.53593889342E+02  0.00000000000E+00 0.  1.
         11    1    1    2    0    0  0.13185613224E+02 -0.45255820551E+02  0.47485801172E+02  0.66909274415E+02  0.00000000000E+00 0. -1.
</event>
<event>
 7    1  0.3001243E-009  0.1117326E+03  0.7561462E-02  0.1257395E+00
         -1   -1    0    0    0  501 -0.00000000000E+00  0.00000000000E+00  0.66850404866E+02  0.66850404866E+02  0.00000000000E+00 0.  1.
          1   -1    0    0  501    0  0.00000000000E+00 -0.00000000000E+00 -0.26730388876E+03  0.26730388876E+03  0.00000000000E+00 0. -1.
         25    2    1    2    0    0 -0.24052049749E+02  0.40738730772E+02 -0.32628353448E+02  0.13766041180E+03  0.12509050422E+03 0.  0.
          5    1    3    3  502    0 -0.29025320636E+02  0.84117323300E+02 -0.14754093868E+02  0.90295896933E+02  0.41800000000E+01 0. -1.
         -5    1    3    3    0  502  0.49732708872E+01 -0.43378592527E+02 -0.17874259580E+02  0.47364514866E+02  0.41800000000E+01 0. -1.
        -11    1    1    2    0    0  0.31045786320E+02 -0.61348305411E+02 -0.15858699965E+03  0.17285048997E+03  0.00000000000E+00 0. -1.
         11    1    1    2    0    0 -0.69937365716E+01  0.20609574639E+02 -0.92381308013E+01  0.23643391862E+02  0.00000000000E+00 0.  1.
</event>
<event>
 7    1  0.3001243E-009  0.1201828E+03  0.7561462E-02  0.1242796E+00
          1   -1    0    0  501    0  0.00000000000E+00  0.00000000000E+00  0.85530708339E+03  0.85530708339E+03  0.00000000000E+00 0. -1.
         -1   -1    0    0    0  501 -0.00000000000E+00 -0.00000000000E+00 -0.19900335260E+02  0.19900335260E+02  0.00000000000E+00 0.  1.
         25    2    1    2    0    0  0.66536541611E+02 -0.53537237217E+01  0.53909725326E+03  0.55743240882E+03  0.12509703513E+03 0.  0.
          5    1    3    3  502    0  0.90636850783E+02 -0.30499542548E+02  0.47314753069E+03  0.48273317580E+03  0.41800000000E+01 0. -1.
         -5    1    3    3    0  502 -0.24100309172E+02  0.25145818826E+02  0.65949722568E+02  0.74699233018E+02  0.41800000000E+01 0. -1.
        -11    1    1    2    0    0  0.41095390645E+01 -0.30197885142E+02  0.45271960688E+02  0.54574270521E+02  0.00000000000E+00 0.  1.
         11    1    1    2    0    0 -0.70646080675E+02  0.35551608864E+02  0.25103753418E+03  0.26320073931E+03  0.00000000000E+00 0. -1.
</event>
<event>
 7    1  0.3001243E-009  0.1423532E+03  0.7561462E-02  0.1210197E+00
          1   -1    0    0  501    0  0.00000000000E+00  0.00000000000E+00  0.47515405550E+02  0.47515405550E+02  0.00000000000E+00 0. -1.
         -1   -1    0    0    0  501 -0.00000000000E+00 -0.00000000000E+00 -0.58821987616E+03  0.58821987616E+03  0.00000000000E+00 0.  1.
         25    2    1    2    0    0 -0.89567596383E+02 -0.71911676016E+02 -0.39083700936E+03  0.42614002604E+03  0.12509240759E+03 0.  0.
          5    1    3    3  502    0 -0.31699765344E+02 -0.85270717998E+02 -0.13083798176E+03  0.15941148121E+03  0.41800000000E+01 0. -1.
         -5    1    3    3    0  502 -0.57867831039E+02  0.13359041982E+02 -0.25999902760E+03  0.26672854483E+03  0.41800000000E+01 0. -1.
        -11    1    1    2    0    0  0.71128393837E+02  0.12916500874E+02 -0.12196397435E+03  0.14177903739E+03  0.00000000000E+00 0.  1.
         11    1    1    2    0    0  0.18439202545E+02  0.58995175142E+02 -0.27903486897E+02  0.67816218278E+02  0.00000000000E+00 0. -1.
</event>
<event>
 7    1  0.3001243E-009  0.1042068E+03  0.7561462E-02  0.1271690E+00
          1   -1    0    0  501    0  0.00000000000E+00  0.00000000000E+00  0.75712284174E+03  0.75712284174E+03  0.00000000000E+00 0. -1.
         -1   -1    0    0    0  501 -0.00000000000E+00 -0.00000000000E+00 -0.26240223070E+02  0.26240223070E+02  0.00000000000E+00 0.  1.
         25    2    1    2    0    0  0.16379863646E+02 -0.24877368253E+02  0.63241212303E+03  0.64535162190E+03  0.12508572721E+03 0.  0.
          5    1    3    3  502    0 -0.46583953157E+02 -0.14091499928E+02  0.43697474716E+03  0.43969652843E+03  0.41800000000E+01 0.  1.
         -5    1    3    3    0  502  0.62963816803E+02 -0.10785868325E+02  0.19543737587E+03  0.20565509347E+03  0.41800000000E+01 0.  1.
        -11    1    1    2    0    0 -0.41080057808E+02 -0.18949677350E+02  0.36085136942E+02  0.57868804457E+02  0.00000000000E+00 0. -1.
         11    1    1    2    0    0  0.24700194161E+02  0.43827045604E+02  0.62385358698E+02  0.80142638451E+02  0.00000000000E+00 0.  1.
</event>
<event>
 7    1  0.3001243E-009  0.1326250E+03  0.7561462E-02  0.1223612E+00
          2   -1    0    0  501    0  0.00000000000E+00  0.00000000000E+00  0.89356241615E+02  0.89356241615E+02  0.00000000000E+00 0. -1.
         -2   -1    0    0    0  501 -0.00000000000E+00 -0.00000000000E+00 -0.24313669566E+03  0.24313669566E+03  0.00000000000E+00 0.  1.
         25    2    1    2    0    0  0.47687503902E+01  0.88535778116E+02 -0.31526378155E+02  0.15653357347E+03  0.12509005603E+03 0.  0.
          5    1    3    3  502    0 -0.51195027158E+02  0.47398021270E+02 -0.48299767152E+02  0.84957890351E+02  0.41800000000E+01 0. -1.
         -5    1    3    3    0  502  0.55963777548E+02  0.41137756846E+02  0.16773388997E+02  0.71575683120E+02  0.41800000000E+01 0. -1.
        -11    1    1    2    0    0  0.42200292901E+02 -0.45731464890E+02 -0.50753022033E+02  0.80300067543E+02  0.00000000000E+00 0.  1.
         11    1    1    2    0    0 -0.46969043292E+02 -0.42804313226E+02 -0.71501053859E+02  0.95659296262E+02  0.00000000000E+00 0. -1.
</event>
<event>
 7    1  0.3255012E-009  0.6933470E+02  0.7561462E-02  0.1362370E+00
          1   -1    0    0  501    0  0.00000000000E+00  0.00000000000E+00  0.14829904435E+03  0.14829904435E+03  0.00000000000E+00 0. -1.
         -1   -1    0    0    0  501 -0.00000000000E+00 -0.00000000000E+00 -0.10702775117E+03  0.10702775117E+03  0.00000000000E+00 0.  1.
         25    2    1    2    0    0  0.37087882038E+02 -0.36025453093E+02 -0.15189472824E+02  0.13620622303E+03  0.12509224934E+03 0.  0.
          5    1    3    3  502    0  0.44136719057E+02  0.43492649256E+01  0.44965767510E+02  0.63295803354E+02  0.41800000000E+01 0.  1.
         -5    1    3    3    0  502 -0.70488370194E+01 -0.40374718018E+02 -0.60155240333E+02  0.72910419680E+02  0.41800000000E+01 0.  1.
        -11    1    1    2    0    0 -0.19729299063E+02  0.26763124181E+02 -0.20916409658E+02  0.39281118243E+02  0.00000000000E+00 0.  1.
         11    1    1    2    0    0 -0.17358582974E+02  0.92623289121E+01  0.77377175659E+02  0.79839454236E+02  0.00000000000E+00 0. -1.
</event>
<event>
 7    1  0.3001243E-009  0.9965474E+02  0.7561462E-02  0.1281024E+00
          1   -1    0    0  501    0  0.00000000000E+00  0.00000000000E+00  0.32671152664E+02  0.32671152664E+02  0.00000000000E+00 0. -1.
         -1   -1    0    0    0  501 -0.00000000000E+00 -0.00000000000E+00 -0.40070192631E+03  0.40070192631E+03  0.00000000000E+00 0.  1.
         25    2    1    2    0    0  0.68721962479E+01 -0.33055581878E+02 -0.32009170299E+03  0.34532295650E+03  0.12509735165E+03 0.  0.
          5    1    3    3  502    0  0.64554571245E+02 -0.78043438159E+01 -0.18702983922E+03  0.19805512770E+03  0.41800000000E+01 0.  1.
         -5    1    3    3    0  502 -0.57682374997E+02 -0.25251238062E+02 -0.13306186377E+03  0.14726782880E+03  0.41800000000E+01 0.  1.
        -11    1    1    2    0    0 -0.24965080410E+02  0.43499156985E+02 -0.22059640959E+02  0.54791054539E+02  0.00000000000E+00 0. -1.
         11    1    1    2    0    0  0.18092884162E+02 -0.10443575107E+02 -0.25879429701E+02  0.33259067936E+02  0.00000000000E+00 0.  1.
</event>
<event>
 7    1  0.3083932E-009  0.1114673E+03  0.7561462E-02  0.1257877E+00
         -1   -1    0    0    0  501 -0.00000000000E+00  0.00000000000E+00  0.17363120679E+03  0.17363120679E+03  0.00000000000E+00 0.  1.
          1   -1    0    0  501    0  0.00000000000E+00 -0.00000000000E+00 -0.12443227285E+03  0.12443227285E+03  0.00000000000E+00 0. -1.
         25    2    1    2    0    0 -0.26269532502E+02 -0.74764693465E+02  0.86068591626E+02  0.17127598669E+03  0.12509122041E+03 0.  0.
          5    1    3    3  502    0  0.25602990070E+02 -0.85586679224E+02  0.30779656317E+02  0.94580401798E+02  0.41800000000E+01 0.  1.
         -5    1    3    3    0  502 -0.51872522573E+02  0.10821985759E+02  0.55288935309E+02  0.76695584889E+02  0.41800000000E+01 0.  1.
        -11    1    1    2    0    0  0.12591276897E+02  0.18049046665E+02  0.30536095247E+02  0.37639891769E+02  0.00000000000E+00 0.  1.
         11    1    1    2    0    0  0.13678255605E+02  0.56715646800E+02 -0.67405752929E+02  0.89147601181E+02  0.00000000000E+00 0. -1.
</event>
<event>
 7    1  0.3001243E-009  0.8517359E+02  0.7561462E-02  0.1314979E+00
         -1   -1    0    0    0  501 -0.00000000000E+00  0.00000000000E+00  0.13530692269E+03  0.13530692269E+03  0.00000000000E+00 0.  1.
          1   -1    0    0  501    0  0.00000000000E+00 -0.00000000000E+00 -0.74244126312E+02  0.74244126312E+02  0.00000000000E+00 0. -1.
         25    2    1    2    0    0 -0.49550185674E+01  0.12413574467E+02  0.26934442539E+02  0.12865222448E+03  0.12508909476E+03 0.  0.
          5    1    3    3  502    0 -0.78192528108E+01 -0.54614896918E+02  0.26692653796E+02  0.61432058785E+02  0.41800000000E+01 0.  1.
         -5    1    3    3    0  502  0.28642342434E+01  0.67028471385E+02  0.24178874281E+00  0.67220165693E+02  0.41800000000E+01 0.  1.
        -11    1    1    2    0    0  0.11955149969E+01 -0.29893744322E+02 -0.11376218209E+02  0.32007554521E+02  0.00000000000E+00 0. -1.
         11    1    1    2    0    0  0.37595035705E+01  0.17480169855E+02  0.45504572049E+02  0.48891270004E+02  0.00000000000E+00 0.  1.
</event>
<event>
 7    1  0.3001243E-009  0.9610171E+02  0.7561462E-02  0.1288714E+00
          1   -1    0    0  501    0  0.00000000000E+00  0.00000000000E+00  0.63691412541E+02  0.63691412541E+02  0.00000000000E+00 0. -1.
         -1   -1    0    0    0  501 -0.00000000000E+00 -0.00000000000E+00 -0.20437552371E+03  0.20437552371E+03  0.00000000000E+00 0.  1.
         25    2    1    2    0    0  0.13763547594E+02 -0.28205125487E+02 -0.55120617084E+02  0.14025129537E+03  0.12508868486E+03 0.  0.
          5    1    3    3  502    0 -0.11858018703E+02  0.33601552971E+02 -0.63256267536E+02  0.72722106352E+02  0.41800000000E+01 0. -1.
         -5    1    3    3    0  502  0.25621566297E+02 -0.61806678458E+02  0.81356504523E+01  0.67529189021E+02  0.41800000000E+01 0. -1.
        -11    1    1    2    0    0 -0.12985709284E+02 -0.29159003178E+02 -0.11055734882E+02  0.33780251416E+02  0.00000000000E+00 0. -1.
         11    1    1    2    0    0 -0.77783830975E+00  0.57364128664E+02 -0.74507759202E+02  0.94035389462E+02  0.00000000000E+00 0.  1.
</event>
<event>
 7    1  0.3001243E-009  0.1253726E+03  0.7561462E-02  0.1234488E+00
         -1   -1    0    0    0  501 -0.00000000000E+00  0.00000000000E+00  0.12467624907E+03  0.12467624907E+03  0.00000000000E+00 0.  1.
          1   -1    0    0  501    0  0.00000000000E+00 -0.00000000000E+00 -0.15827302903E+03  0.15827302903E+03  0.00000000000E+00 0. -1.
         25    2    1    2    0    0  0.53710425507E+02 -0.68198021368E+02 -0.46116307847E+02  0.15909198422E+03  0.12509102952E+03 0.  0.
          5    1    3    3  502    0  0.55487001719E+02  0.55095805327E+01 -0.62068553434E+02  0.83541250666E+02  0.41800000000E+01 0.  1.
         -5    1    3    3    0  502 -0.17765762112E+01 -0.73707601900E+02  0.15952245587E+02  0.75550733552E+02  0.41800000000E+01 0.  1.
        -11    1    1    2    0    0  0.32924743323E+01  0.63717671968E+02  0.18331605059E+02  0.66383957793E+02  0.00000000000E+00 0. -1.
         11    1    1    2    0    0 -0.57002899840E+02  0.44803493994E+01 -0.58120771703E+01  0.57473336095E+02  0.00000000000E+00 0.  1.
</event>
<event>
 7    1  0.3001243E-009  0.1455042E+03  0.7561462E-02  0.1206109E+00
         -2   -1    0    0    0  501 -0.00000000000E+00  0.00000000000E+00  0.55377330743E+02  0.55377330743E+02  0.00000000000E+00 0. -1.
          2   -1    0    0  501    0  0.00000000000E+00 -0.00000000000E+00 -0.44543912446E+03  0.44543912446E+03  0.00000000000E+00 0.  1.
         25    2    1    2    0    0  0.69708318040E+02 -0.88886834801E+02 -0.22277289732E+03  0.27934736309E+03  0.12508823477E+03 0.  0.
          5    1    3    3  502    0  0.90028401221E+02 -0.45520125811E+02 -0.80374670955E+02  0.12905330299E+03  0.41800000000E+01 0. -1.
         -5    1    3    3    0  502 -0.20320083181E+02 -0.43366708990E+02 -0.14239822637E+03  0.15029406010E+03  0.41800000000E+01 0. -1.
        -11    1    1    2    0    0 -0.31778748144E+02 -0.12167378008E+02 -0.61768804811E+02  0.70521763797E+02  0.00000000000E+00 0.  1.
         11    1    1    2    0    0 -0.37929569896E+02  0.10105421281E+03 -0.10552009158E+03  0.15094732832E+03  0.00000000000E+00 0. -1.
</event>
<event>
 7    1  0.3001243E-009  0.9462478E+02  0.7561462E-02  0.1292023E+00
          2   -1    0    0  501    0  0.00000000000E+00  0.00000000000E+00  0.10853569057E+03  0.10853569057E+03  0.00000000000E+00 0.  1.
         -2   -1    0    0    0  501 -0.00000000000E+00 -0.00000000000E+00 -0.12936111784E+03  0.12936111784E+03  0.00000000000E+00 0. -1.
         25    2    1    2    0    0 -0.32655249306E+02 -0.23144683881E+02  0.16765501511E+02  0.13240229027E+03  0.12508893927E+03 0.  0.
          5    1    3    3  502    0  0.44178832596E+02 -0.58177507083E+01  0.27908885946E+02  0.52744609086E+02  0.41800000000E+01 0.  1.
         -5    1    3    3    0  502 -0.76834081902E+02 -0.17326933172E+02 -0.11143384435E+02  0.79657681183E+02  0.41800000000E+01 0.  1.
        -11    1    1    2    0    0 -0.77749667620E+01  0.23950676901E+02  0.22027297257E+02  0.33455744747E+02  0.00000000000E+00 0.  1.
         11    1    1    2    0    0  0.40430216068E+02 -0.80599302024E+00 -0.59618226040E+02  0.72038773394E+02  0.00000000000E+00 0. -1.
</event>
<event>
 7    1  0.3001243E-009  0.2444814E+03  0.7561462E-02  0.1116843E+00
          1   -1    0    0  501    0  0.00000000000E+00  0.00000000000E+00  0.51678697707E+03  0.51678697707E+03  0.00000000000E+00 0. -1.
         -1   -1    0    0    0  501 -0.00000000000E+00 -0.00000000000E+00 -0.13577535050E+03  0.13577535050E+03  0.00000000000E+00 0.  1.
         25    2    1    2    0    0 -0.23073525202E+03 -0.75700232366E+02  0.21610943671E+03  0.34831783475E+03  0.12511092543E+03 0.  0.
          5    1    3    3  502    0 -0.17629131444E+03 -0.66023787779E+02  0.86242254261E+02  0.20710617306E+03  0.41800000000E+01 0. -1.
         -5    1    3    3    0  502 -0.54443937583E+02 -0.96764445864E+01  0.12986718245E+03  0.14121166169E+03  0.41800000000E+01 0. -1.
        -11    1    1    2    0    0  0.12479694296E+03  0.23034540990E+02  0.42053569877E+02  0.13369132279E+03  0.00000000000E+00 0. -1.
         11    1    1    2    0    0  0.10593830907E+03  0.52665691376E+02  0.12284861999E+03  0.17055317003E+03  0.00000000000E+00 0.  1.
</event>
<event>
 7    1  0.3001243E-009  0.3336209E+03  0.7561462E-02  0.1069546E+00
         -2   -1    0    0    0  501 -0.00000000000E+00  0.00000000000E+00  0.83653386101E+02  0.83653386101E+02  0.00000000000E+00 0.  1.
          2   -1    0    0  501    0  0.00000000000E+00 -0.00000000000E+00 -0.14128113897E+04  0.14128113897E+04  0.00000000000E+00 0. -1.
         25    2    1    2    0    0 -0.12356749883E+03 -0.30154147893E+03 -0.67157895348E+03  0.75687650338E+03  0.12509020873E+03 0.  0.
          5    1    3    3  502    0 -0.13896531082E+03 -0.24156748611E+03 -0.60352047599E+03  0.66477112249E+03  0.41800000000E+01 0. -1.
         -5    1    3    3    0  502  0.15397811998E+02 -0.59973992826E+02 -0.68058477488E+02  0.92105380885E+02  0.41800000000E+01 0. -1.
        -11    1    1    2    0    0  0.12043662895E+03  0.28153470383E+03 -0.64896718623E+03  0.71758287317E+03  0.00000000000E+00 0. -1.
         11    1    1    2    0    0  0.31308698710E+01  0.20006775103E+02 -0.86118638571E+01  0.22005399230E+02  0.00000000000E+00 0.  1.
</event>
<event>
 7    1  0.3001243E-009  0.1300426E+03  0.7561462E-02  0.1227393E+00
         -2   -1    0    0    0  501 -0.00000000000E+00  0.00000000000E+00  0.12247137826E+02  0.12247137826E+02  0.00000000000E+00 0.  1.
          2   -1    0    0  501    0  0.00000000000E+00 -0.00000000000E+00 -0.24656733580E+04  0.24656733580E+04  0.00000000000E+00 0. -1.
         25    2    1    2    0    0  0.66282917646E+02  0.40008054850E+02 -0.21025297660E+04  0.21076700947E+04  0.12509093450E+03 0.  0.
          5    1    3    3  502    0  0.10090729667E+03  0.25385831154E+02 -0.12616281677E+04  0.12659185712E+04  0.41800000000E+01 0.  1.
         -5    1    3    3    0  502 -0.34624379022E+02  0.14622223697E+02 -0.84090159826E+03  0.84175152355E+03  0.41800000000E+01 0.  1.
        -11    1    1    2    0    0 -0.63082418350E+02 -0.66376343133E+02 -0.27026772509E+03  0.28535916607E+03  0.00000000000E+00 0.  1.
         11    1    1    2    0    0 -0.32004992968E+01  0.26368288283E+02 -0.80628729121E+02  0.84891235015E+02  0.00000000000E+00 0. -1.
</event>
<event>
 7    1  0.3001243E-009  0.1408182E+03  0.7561462E-02  0.1212232E+00
          2   -1    0    0  501    0  0.00000000000E+00  0.00000000000E+00  0.16836562500E+03  0.16836562500E+03  0.00000000000E+00 0.  1.
         -2   -1    0    0    0  501 -0.00000000000E+00 -0.00000000000E+00 -0.15968898087E+03  0.15968898087E+03  0.00000000000E+00 0. -1.
         25    2    1    2    0    0  0.11754469294E+03 -0.26110027377E+01  0.38278396379E+02  0.17588486970E+03  0.12508668828E+03 0.  0.
          5    1    3    3  502    0  0.78079220743E+02 -0.37291971799E+02  0.72568336255E+02  0.11300748515E+03  0.41800000000E+01 0.  1.
         -5    1    3    3    0  502  0.39465472202E+02  0.34680969061E+02 -0.34289939876E+02  0.62877384550E+02  0.41800000000E+01 0.  1.
        -11    1    1    2    0    0  0.46511603661E+01 -0.17814778144E+02  0.11417263962E+02  0.21664568527E+02  0.00000000000E+00 0.  1.
         11    1    1    2    0    0 -0.12219585331E+03  0.20425780882E+02 -0.41019016209E+02  0.13050516764E+03  0.00000000000E+00 0. -1.
</event>
<event>
 7    1  0.3001243E-009  0.8709517E+02  0.7561462E-02  0.1310043E+00
         -2   -1    0    0    0  501 -0.00000000000E+00  0.00000000000E+00  0.23784850803E+03  0.23784850803E+03  0.00000000000E+00 0.  1.
          2   -1    0    0  501    0  0.00000000000E+00 -0.00000000000E+00 -0.64363121602E+02  0.64363121602E+02  0.00000000000E+00 0. -1.
         25    2    1    2    0    0  0.36717527204E+02 -0.40712436398E+02  0.63946709582E+02  0.15080608209E+03  0.12509042109E+03 0.  0.
          5    1    3    3  502    0 -0.17057630350E+02  0.44307922709E+01 -0.29033068972E+02  0.34219675148E+02  0.41800000000E+01 0. -1.
         -5    1    3    3    0  502  0.53775157554E+02 -0.45143228669E+02  0.92979778554E+02  0.11658640695E+03  0.41800000000E+01 0. -1.
        -11    1    1    2    0    0 -0.12196822221E+02  0.55689085932E+02  0.25243418587E+02  0.62347950618E+02  0.00000000000E+00 0. -1.
         11    1    1    2    0    0 -0.24520704984E+02 -0.14976649534E+02  0.84295258256E+02  0.89057596917E+02  0.00000000000E+00 0.  1.
</event>
<event>
 7    1  0.3001243E-009  0.9662112E+02  0.7561462E-02  0.1287566E+00
          1   -1    0    0  501    0  0.00000000000E+00  0.00000000000E+00  0.27790576841E+03  0.27790576841E+03  0.00000000000E+00 0. -1.
         -1   -1    0    0    0  501 -0.00000000000E+00 -0.00000000000E+00 -0.97596810459E+02  0.97596810459E+02  0.00000000000E+00 0.  1.
         25    2    1    2    0    0  0.73959118788E+02 -0.32046065280E+02  0.20226363317E+03  0.25110879623E+03  0.12509256047E+03 0.  0.
          5    1    3    3  502    0  0.24509146087E+02 -0.10155567124E+02  0.19446534627E+03  0.19631117412E+03  0.41800000000E+01 0. -1.
         -5    1    3    3    0  502  0.49449972701E+02 -0.21890498157E+02  0.77982869032E+01  0.54797622104E+02  0.41800000000E+01 0. -1.
        -11    1    1    2    0    0 -0.36273918994E+02 -0.24800653298E+02  0.15484454808E+02  0.46590105644E+02  0.00000000000E+00 0. -1.
         11    1    1    2    0    0 -0.37685199794E+02  0.56846718578E+02 -0.37439130032E+02  0.77803676996E+02  0.00000000000E+00 0.  1.
</event>
<event>
 7    1  0.3001243E-009  0.1156671E+03  0.7561462E-02  0.1250421E+00
          2   -1    0    0  501    0  0.00000000000E+00  0.00000000000E+00  0.18481674540E+04  0.18481674540E+04  0.00000000000E+00 0. -1.
         -2   -1    0    0    0  501 -0.00000000000E+00 -0.00000000000E+00 -0.18494537812E+02  0.18494537812E+02  0.00000000000E+00 0.  1.
         25    2    1    2    0    0  0.91598756939E+02 -0.43038858833E+02  0.15242763429E+04  0.15327451031E+04  0.12508599454E+03 0.  0.
          5    1    3    3  502    0  0.81797775876E+02 -0.20367827880E+02  0.14755038841E+04  0.14779157313E+04  0.41800000000E+01 0.  1.
         -5    1    3    3    0  502  0.98009810634E+01 -0.22671030954E+02  0.48772458794E+02  0.54829371792E+02  0.41800000000E+01 0.  1.
        -11    1    1    2    0    0 -0.23570962347E+02 -0.18646265861E+02  0.25744608942E+02  0.39573455574E+02  0.00000000000E+00 0.  1.
         11    1    1    2    0    0 -0.68027794593E+02  0.61685124694E+02  0.27965196434E+03  0.29434343309E+03  0.00000000000E+00 0. -1.
</event>
<event>
 7    1  0.3001243E-009  0.1556521E+03  0.7561462E-02  0.1193695E+00
         -1   -1    0    0    0  501 -0.00000000000E+00  0.00000000000E+00  0.53520965886E+02  0.53520965886E+02  0.00000000000E+00 0.  1.
          1   -1    0    0  501    0  0.00000000000E+00 -0.00000000000E+00 -0.52435096855E+03  0.52435096855E+03  0.00000000000E+00 0. -1.
         25    2    1    2    0    0  0.89210555576E+02  0.88462931431E+02 -0.27691447035E+03  0.32880513020E+03  0.12508787428E+03 0.  0.
          5    1    3    3  502    0  0.96003485402E+02  0.10901472393E+03 -0.26831612452E+03  0.30514241645E+03  0.41800000000E+01 0. -1.
         -5    1    3    3    0  502 -0.67929298257E+01 -0.20551792501E+02 -0.85983458312E+01  0.23662713743E+02  0.41800000000E+01 0. -1.
        -11    1    1    2    0    0 -0.19102980904E+02  0.11156039936E+02 -0.26175131881E+01  0.22276276209E+02  0.00000000000E+00 0.  1.
         11    1    1    2    0    0 -0.70107574673E+02 -0.99618971366E+02 -0.19129801913E+03  0.22679052803E+03  0.00000000000E+00 0. -1.
</event>
<event>
 7    1  0.3557376E-009  0.1635491E+03  0.7561462E-02  0.1184747E+00
          2   -1    0    0  501    0  0.00000000000E+00  0.00000000000E+00  0.36014904024E+03  0.36014904024E+03  0.00000000000E+00 0. -1.
         -2   -1    0    0    0  501 -0.00000000000E+00 -0.00000000000E+00 -0.93329707123E+02  0.93329707123E+02  0.00000000000E+00 0.  1.
         25    2    1    2    0    0 -0.10394352688E+03  0.94671313774E+02  0.85395535423E+02  0.20665385250E+03  0.12508598183E+03 0.  0.
          5    1    3    3  502    0 -0.90599427865E+01 -0.26524725588E+02 -0.39806129503E+01  0.28617500070E+02  0.41800000000E+01 0.  1.
         -5    1    3    3    0  502 -0.94883584093E+02  0.12119603936E+03  0.89376148373E+02  0.17803635243E+03  0.41800000000E+01 0.  1.
        -11    1    1    2    0    0  0.48014474721E+02 -0.66875190061E+02  0.38567607066E+02  0.90912821666E+02  0.00000000000E+00 0.  1.
         11    1    1    2    0    0  0.55929052158E+02 -0.27796123713E+02  0.14285619063E+03  0.15591207320E+03  0.00000000000E+00 0. -1.
</event>
<event>
 7    1  0.3001243E-009  0.1112140E+03  0.7561462E-02  0.1258338E+00
         -2   -1    0    0    0  501 -0.00000000000E+00  0.00000000000E+00  0.11848853982E+02  0.11848853982E+02  0.00000000000E+00 0.  1.
          2   -1    0    0  501    0  0.00000000000E+00 -0.00000000000E+00 -0.20690845303E+04  0.20690845303E+04  0.00000000000E+00 0. -1.
         25    2    1    2    0    0 -0.90107821196E+02 -0.24142102895E+02 -0.15173769729E+04  0.15253795413E+04  0.12509039328E+03 0.  0.
          5    1    3    3  502    0 -0.28284350065E+02  0.93765201996E+01 -0.11956972825E+04  0.11960758284E+04  0.41800000000E+01 0.  1.
         -5    1    3    3    0  502 -0.61823471131E+02 -0.33518623095E+02 -0.32167969042E+03  0.32930371287E+03  0.41800000000E+01 0.  1.
        -11    1    1    2    0    0  0.64794748286E+02 -0.22690713602E+02 -0.40110797239E+03  0.40694082298E+03  0.00000000000E+00 0. -1.
         11    1    1    2    0    0  0.25313072910E+02  0.46832816497E+02 -0.13875073104E+03  0.14861302004E+03  0.00000000000E+00 0.  1.
</event>
<event>
 7    1  0.3001243E-009  0.1333460E+03  0.7561462E-02  0.1222574E+00
          3   -1    0    0  501    0  0.00000000000E+00  0.00000000000E+00  0.11952683476E+03  0.11952683476E+03  0.00000000000E+00 0. -1.
         -3   -1    0    0    0  501 -0.00000000000E+00 -0.00000000000E+00 -0.15534712606E+03  0.15534712606E+03  0.00000000000E+00 0.  1.
         25    2    1    2    0    0  0.65968499270E+02  0.47749093035E+02 -0.29664876630E+02  0.15218871091E+03  0.12509828153E+03 0.  0.
          5    1    3    3  502    0  0.99824017642E+02  0.15098243955E+02 -0.11928896848E+02  0.10174754272E+03  0.41800000000E+01 0.  1.
         -5    1    3    3    0  502 -0.33855518372E+02  0.32650849080E+02 -0.17735979783E+02  0.50441168194E+02  0.41800000000E+01 0.  1.
        -11    1    1    2    0    0 -0.27896205319E+02 -0.69281225712E+02 -0.19063149469E+02  0.77081062364E+02  0.00000000000E+00 0. -1.
         11    1    1    2    0    0 -0.38072293951E+02  0.21532132677E+02  0.12907734793E+02  0.45604187547E+02  0.00000000000E+00 0.  1.
</event>
<event>
 7    1  0.3001243E-009  0.9652455E+02  0.7561462E-02  0.1287779E+00
          1   -1    0    0  501    0  0.00000000000E+00  0.00000000000E+00  0.88788274910E+03  0.88788274910E+03  0.00000000000E+00 0. -1.
         -1   -1    0    0    0  501 -0.00000000000E+00 -0.00000000000E+00 -0.19457104035E+02  0.19457104035E+02  0.00000000000E+00 0.  1.
         25    2    1    2    0    0  0.50645928530E+01  0.70070590582E+02  0.43200318083E+03  0.45520300660E+03  0.12508993249E+03 0.  0.
          5    1    3    3  502    0  0.27556786352E+02  0.47664166628E+02  0.41554814149E+03  0.41920040500E+03  0.41800000000E+01 0.  1.
         -5    1    3    3    0  502 -0.22492193499E+02  0.22406423954E+02  0.16455039337E+02  0.36002601606E+02  0.41800000000E+01 0.  1.
        -11    1    1    2    0    0  0.35341490422E+02 -0.48493524029E+02  0.34159798237E+03  0.34682823469E+03  0.00000000000E+00 0. -1.
         11    1    1    2    0    0 -0.40406083275E+02 -0.21577066553E+02  0.94824481869E+02  0.10530861184E+03  0.00000000000E+00 0.  1.
</event>
<event>
 7    1  0.3001243E-009  0.3565832E+03  0.7561462E-02  0.1059945E+00
          1   -1    0    0  501    0  0.00000000000E+00  0.00000000000E+00  0.18314459422E+03  0.18314459422E+03  0.00000000000E+00 0. -1.
         -1   -1    0    0    0  501 -0.00000000000E+00 -0.00000000000E+00 -0.72449875827E+03  0.72449875827E+03  0.00000000000E+00 0.  1.
         25    2    1    2    0    0  0.21417145045E+03 -0.27257474160E+03 -0.30460317653E+03  0.47812366200E+03  0.12511091506E+03 0.  0.
          5    1    3    3  502    0  0.11839545327E+03 -0.68853565726E+02 -0.73569120122E+02  0.15552551142E+03  0.41800000000E+01 0. -1.
         -5    1    3    3    0  502  0.95775997178E+02 -0.20372117588E+03 -0.23103405641E+03  0.32259815058E+03  0.41800000000E+01 0. -1.
        -11    1    1    2    0    0 -0.18471594447E+03  0.19787062855E+03 -0.21672178733E+03  0.34675798317E+03  0.00000000000E+00 0.  1.
         11    1    1    2    0    0 -0.29455505975E+02  0.74704113047E+02 -0.20029200179E+02  0.82761707318E+02  0.00000000000E+00 0. -1.
</event>
<event>
 7    1  0.3001243E-009  0.1166735E+03  0.7561462E-02  0.1248688E+00
         -2   -1    0    0    0  501 -0.00000000000E+00  0.00000000000E+00  0.28895895706E+03  0.28895895706E+03  0.00000000000E+00 0.  1.
          2   -1    0    0  501    0  0.00000000000E+00 -0.00000000000E+00 -0.80015381231E+02  0.80015381231E+02  0.00000000000E+00 0. -1.
         25    2    1    2    0    0  0.79091944251E+02 -0.14422546621E+02  0.28684422030E+02  0.15144116506E+03  0.12509230556E+03 0.  0.
          5    1    3    3  502    0  0.79504623326E+02 -0.54253304071E+02  0.47238897518E+02  0.10730047517E+03  0.41800000000E+01 0.  1.
         -5    1    3    3    0  502 -0.41267907563E+00  0.39830757450E+02 -0.18554475488E+02  0.44140689887E+02  0.41800000000E+01 0.  1.
        -11    1    1    2    0    0 -0.17664702351E+02  0.28873681980E+02  0.13676618549E+03  0.14089258573E+03  0.00000000000E+00 0.  1.
         11    1    1    2    0    0 -0.61427241900E+02 -0.14451135359E+02  0.43492968306E+02  0.76640587502E+02  0.00000000000E+00 0. -1.
</event>
<event>
 7    1  0.3001243E-009  0.1112890E+03  0.7561462E-02  0.1258201E+00
         -1   -1    0    0    0  501 -0.00000000000E+00  0.00000000000E+00  0.23733193538E+02  0.23733193538E+02  0.00000000000E+00 0.  1.
          1   -1    0    0  501    0  0.00000000000E+00 -0.00000000000E+00 -0.91606251786E+03  0.91606251786E+03  0.00000000000E+00 0. -1.
         25    2    1    2    0    0 -0.17172628265E+02  0.35597202321E+02 -0.77157838793E+03  0.78265066802E+03  0.12508716745E+03 0.  0.
          5    1    3    3  502    0 -0.57968138330E+02 -0.13337586056E+02 -0.50620077610E+03  0.50970078908E+03  0.41800000000E+01 0. -1.
         -5    1    3    3    0  502  0.40795510065E+02  0.48934788378E+02 -0.26537761183E+03  0.27294987894E+03  0.41800000000E+01 0. -1.
        -11    1    1    2    0    0  0.52662240918E+01 -0.66125197761E+02 -0.92830070850E+02  0.11409512237E+03  0.00000000000E+00 0. -1.
         11    1    1    2    0    0  0.11906404173E+02  0.30527995439E+02 -0.27920865547E+02  0.43049921007E+02  0.00000000000E+00 0.  1.
</event>
<event>
 7    1  0.3001243E-009  0.1728729E+03  0.7561462E-02  0.1174885E+00
         -1   -1    0    0    0  501 -0.00000000000E+00  0.00000000000E+00  0.39655740974E+02  0.39655740974E+02  0.00000000000E+00 0.  1.
          1   -1    0    0  501    0  0.00000000000E+00 -0.00000000000E+00 -0.95196283533E+03  0.95196283533E+03  0.00000000000E+00 0. -1.
         25    2    1    2    0    0  0.11187084029E+02 -0.13990666303E+03 -0.27703976227E+03  0.33480860264E+03  0.12508695101E+03 0.  0.
          5    1    3    3  502    0  0.55859204812E+02 -0.33679570902E+02 -0.14777522318E+03  0.16158450806E+03  0.41800000000E+01 0. -1.
         -5    1    3    3    0  502 -0.44672120783E+02 -0.10622709213E+03 -0.12926453908E+03  0.17322409457E+03  0.41800000000E+01 0. -1.
        -11    1    1    2    0    0  0.35391102149E+02  0.90481228733E+02 -0.41963990687E+03  0.43074010064E+03  0.00000000000E+00 0.  1.
         11    1    1    2    0    0 -0.46578186177E+02  0.49425434295E+02 -0.21562742522E+03  0.22606987303E+03  0.00000000000E+00 0. -1.
</event>
<event>
 7    1  0.3001243E-009  0.1094452E+03  0.7561462E-02  0.1261601E+00
         -2   -1    0    0    0  501 -0.00000000000E+00  0.00000000000E+00  0.17452653776E+03  0.17452653776E+03  0.00000000000E+00 0.  1.
          2   -1    0    0  501    0  0.00000000000E+00 -0.00000000000E+00 -0.10191420771E+03  0.10191420771E+03  0.00000000000E+00 0. -1.
         25    2    1    2    0    0 -0.59195520646E+02  0.45480390298E+02  0.49811537228E+02  0.15395151644E+03  0.12508918661E+03 0.  0.
          5    1    3    3  502    0 -0.40850748945E+02  0.88308360412E+02  0.23128124763E+02  0.10009761617E+03  0.41800000000E+01 0. -1.
         -5    1    3    3    0  502 -0.18344771700E+02 -0.42827970114E+02  0.26683412465E+02  0.53853900264E+02  0.41800000000E+01 0. -1.
        -11    1    1    2    0    0  0.96197601449E+01 -0.59009184557E+01 -0.34934705957E+02  0.36712318153E+02  0.00000000000E+00 0. -1.
         11    1    1    2    0    0  0.49575760501E+02 -0.39579471842E+02  0.57735498781E+02  0.85776910880E+02  0.00000000000E+00 0.  1.
</event>
<event>
 7    1  0.3001243E-009  0.1085245E+03  0.7561462E-02  0.1263327E+00
          2   -1    0    0  501    0  0.00000000000E+00  0.00000000000E+00  0.25910629978E+02  0.25910629978E+02  0.00000000000E+00 0. -1.
         -2   -1    0    0    0  501 -0.00000000000E+00 -0.00000000000E+00 -0.46498118843E+03  0.46498118843E+03  0.00000000000E+00 0.  1.
         25    2    1    2    0    0  0.87614843971E+01 -0.48930420531E+01 -0.22652538210E+03  0.25896403828E+03  0.12509164207E+03 0.  0.
          5    1    3    3  502    0 -0.67395223933E+01  0.58423491255E+02 -0.89633752171E+02  0.10728656682E+03  0.41800000000E+01 0.  1.
         -5    1    3    3    0  502  0.15501006790E+02 -0.63316533308E+02 -0.13689162993E+03  0.15167747146E+03  0.41800000000E+01 0.  1.
        -11    1    1    2    0    0  0.36182684652E+02 -0.20051367438E+02 -0.98484805921E+02  0.10681994665E+03  0.00000000000E+00 0.  1.
         11    1    1    2    0    0 -0.44944169049E+02  0.24944409492E+02 -0.11406037043E+03  0.12510783348E+03  0.00000000000E+00 0. -1.
</event>
<event>
 7    1  0.3001243E-009  0.1305156E+03  0.7561462E-02  0.1226693E+00
          1   -1    0    0  501    0  0.00000000000E+00  0.00000000000E+00  0.11378327218E+03  0.11378327218E+03  0.00000000000E+00 0. -1.
         -1   -1    0    0    0  501 -0.00000000000E+00 -0.00000000000E+00 -0.24563508973E+03  0.24563508973E+03  0.00000000000E+00 0.  1.
         25    2    1    2    0    0  0.11858223454E+03  0.55799461507E+01 -0.11521665596E+03  0.20740552957E+03  0.12509713720E+03 0.  0.
          5    1    3    3  502    0  0.63803082829E+02  0.36151535131E+02  0.29961170957E+01  0.73513372855E+02  0.41800000000E+01 0. -1.
         -5    1    3    3    0  502  0.54779151714E+02 -0.30571588980E+02 -0.11821277306E+03  0.13389215671E+03  0.41800000000E+01 0. -1.
        -11    1    1    2    0    0 -0.10177044508E+03 -0.18583655186E+02 -0.48062961297E+02  0.11407288889E+03  0.00000000000E+00 0.  1.
         11    1    1    2    0    0 -0.16811789462E+02  0.13003709035E+02  0.31427799714E+02  0.37939943443E+02  0.00000000000E+00 0. -1.
</event>
<event>
 7    1  0.3001243E-009  0.1203895E+03  0.7561462E-02  0.1242456E+00
          2   -1    0    0  501    0  0.00000000000E+00  0.00000000000E+00  0.16868872794E+03  0.16868872794E+03  0.00000000000E+00 0. -1.
         -2   -1    0    0    0  501 -0.00000000000E+00 -0.00000000000E+00 -0.23547728756E+03  0.23547728756E+03  0.00000000000E+00 0.  1.
         25    2    1    2    0    0 -0.50073279295E+02 -0.10110983191E+03  0.89450062502E+02  0.19073207739E+03  0.12508749041E+03 0.  0.
          5    1    3    3  502    0 -0.57426126703E+02 -0.50379447608E+02  0.11112959955E+03  0.13491889810E+03  0.41800000000E+01 0. -1.
         -5    1    3    3    0  502  0.73528474079E+01 -0.50730384298E+02 -0.21679537044E+02  0.55813179290E+02  0.41800000000E+01 0. -1.
        -11    1    1    2    0    0  0.25505533958E+02  0.49661950838E+02 -0.10322230065E+02  0.56774906931E+02  0.00000000000E+00 0. -1.
         11    1    1    2    0    0  0.24567745337E+02  0.51447881068E+02 -0.14591639206E+03  0.15665903118E+03  0.00000000000E+00 0.  1.
</event>
<event>
 7    1  0.3001243E-009  0.7429298E+02  0.7561462E-02  0.1346075E+00
         -2   -1    0    0    0  501 -0.00000000000E+00  0.00000000000E+00  0.10483505536E+03  0.10483505536E+03  0.00000000000E+00 0.  1.
          2   -1    0    0  501    0  0.00000000000E+00 -0.00000000000E+00 -0.23380948897E+03  0.23380948897E+03  0.00000000000E+00 0. -1.
         25    2    1    2    0    0 -0.16621214392E+02 -0.42954290226E+02  0.42178775039E+02  0.13982028850E+03  0.12509727494E+03 0.  0.
          5    1    3    3  502    0 -0.23615648998E+02  0.24524179432E+02  0.60392082927E+02  0.69453656021E+02  0.41800000000E+01 0. -1.
         -5    1    3    3    0  502  0.69944346056E+01 -0.67478469657E+02 -0.18213307888E+02  0.70366632483E+02  0.41800000000E+01 0. -1.
        -11    1    1    2    0    0  0.89873670856E+01  0.29589283510E+02 -0.17892791902E+03  0.18158055697E+03  0.00000000000E+00 0. -1.
         11    1    1    2    0    0  0.76338473067E+01  0.13365006715E+02  0.77747103603E+01  0.17243698860E+02  0.00000000000E+00 0.  1.
</event>
<event>
 7    1  0.3001243E-009  0.1095089E+03  0.7561462E-02  0.1261482E+00
          1   -1    0    0  501    0  0.00000000000E+00  0.00000000000E+00  0.17055924249E+03  0.17055924249E+03  0.00000000000E+00 0. -1.
         -1   -1    0    0    0  501 -0.00000000000E+00 -0.00000000000E+00 -0.85723687625E+02  0.85723687625E+02  0.00000000000E+00 0.  1.
         25    2    1    2    0    0  0.33111711295E+02  0.43437652341E+02  0.46332108312E+02  0.14413663400E+03  0.12508193289E+03 0.  0.
          5    1    3    3  502    0  0.68724215203E+02  0.16761848259E+00  0.53890980232E+02  0.87434295340E+02  0.41800000000E+01 0.  1.
         -5    1    3    3    0  502 -0.35612503908E+02  0.43270033858E+02 -0.75588719205E+01  0.56702338659E+02  0.41800000000E+01 0.  1.
        -11    1    1    2    0    0  0.25087919450E+02 -0.14436769788E+02 -0.10429070543E+02  0.30766695250E+02  0.00000000000E+00 0.  1.
         11    1    1    2    0    0 -0.58199630744E+02 -0.29000882553E+02  0.48932517096E+02  0.81379600865E+02  0.00000000000E+00 0. -1.
</event>
<event>
 7    1  0.3001243E-009  0.1550705E+03  0.7561462E-02  0.1194377E+00
         -1   -1    0    0    0  501 -0.00000000000E+00  0.00000000000E+00  0.46938191779E+03  0.46938191779E+03  0.00000000000E+00 0.  1.
          1   -1    0    0  501    0  0.00000000000E+00 -0.00000000000E+00 -0.55003299869E+02  0.55003299869E+02  0.00000000000E+00 0. -1.
         25    2    1    2    0    0  0.10036675485E+03 -0.37398363909E+02  0.23684771179E+03  0.28847318682E+03  0.12509123803E+03 0.  0.
          5    1    3    3  502    0  0.53115467487E+02  0.38911727589E+02  0.14833988243E+03  0.16235014182E+03  0.41800000000E+01 0.  1.
         -5    1    3    3    0  502  0.47251287368E+02 -0.76310091498E+02  0.88507829361E+02  0.12612304500E+03  0.41800000000E+01 0.  1.
        -11    1    1    2    0    0 -0.60481746701E+02 -0.36282113555E+02  0.67610990390E+02  0.97701993171E+02  0.00000000000E+00 0. -1.
         11    1    1    2    0    0 -0.39885008154E+02  0.73680477464E+02  0.10991991574E+03  0.13821003766E+03  0.00000000000E+00 0.  1.
</event>
<event>
 7    1  0.3001243E-009  0.1367288E+03  0.7561462E-02  0.1217800E+00
         -1   -1    0    0    0  501 -0.00000000000E+00  0.00000000000E+00  0.36316003338E+02  0.36316003338E+02  0.00000000000E+00 0.  1.
          1   -1    0    0  501    0  0.00000000000E+00 -0.00000000000E+00 -0.62802939111E+03  0.62802939111E+03  0.00000000000E+00 0. -1.
         25    2    1    2    0    0  0.81436908612E+02  0.59722864431E+02 -0.25858489926E+03  0.30448332902E+03  0.12508060164E+03 0.  0.
          5    1    3    3  502    0  0.10560164697E+03  0.68141118025E+02 -0.24458532563E+03  0.27501704260E+03  0.41800000000E+01 0. -1.
         -5    1    3    3    0  502 -0.24164738358E+02 -0.84182535947E+01 -0.13999573631E+02  0.29466286419E+02  0.41800000000E+01 0. -1.
        -11    1    1    2    0    0 -0.79832246657E+02 -0.20361622885E+02 -0.28988422476E+03  0.30136464135E+03  0.00000000000E+00 0. -1.
         11    1    1    2    0    0 -0.16046619547E+01 -0.39361241546E+02 -0.43244263757E+02  0.58497424079E+02  0.00000000000E+00 0.  1.
</event>
<event>
 7    1  0.3001243E-009  0.2153979E+03  0.7561462E-02  0.1137361E+00
          3   -1    0    0  501    0  0.00000000000E+00  0.00000000000E+00  0.14385168571E+03  0.14385168571E+03  0.00000000000E+00 0. -1.
         -3   -1    0    0    0  501 -0.00000000000E+00 -0.00000000000E+00 -0.40639169820E+03  0.40639169820E+03  0.00000000000E+00 0.  1.
         25    2    1    2    0    0 -0.15287217116E+03  0.13240223602E+03 -0.50443753871E+02  0.24309389112E+03  0.12509921972E+03 0.  0.
          5    1    3    3  502    0 -0.27933470645E+02  0.24349991093E+01 -0.55904832790E+02  0.62681980921E+02  0.41800000000E+01 0.  1.
         -5    1    3    3    0  502 -0.12493870052E+03  0.12996723691E+03  0.54610789195E+01  0.18041191020E+03  0.41800000000E+01 0.  1.
        -11    1    1    2    0    0  0.15159051690E+03 -0.83245175310E+02 -0.16255494525E+03  0.23734690698E+03  0.00000000000E+00 0.  1.
         11    1    1    2    0    0  0.12816542627E+01 -0.49157060712E+02 -0.49541313373E+02  0.69802585814E+02  0.00000000000E+00 0. -1.
</event>
<event>
 7    1  0.3001243E-009  0.1645916E+03  0.7561462E-02  0.1183608E+00
         -1   -1    0    0    0  501 -0.00000000000E+00  0.00000000000E+00  0.26673631289E+03  0.26673631289E+03  0.00000000000E+00 0.  1.
          1   -1    0    0  501    0  0.00000000000E+00 -0.00000000000E+00 -0.14777007815E+03  0.14777007815E+03  0.00000000000E+00 0. -1.
         25    2    1    2    0    0  0.13123420825E+03  0.44737460639E+02  0.15659928622E+03  0.24371001938E+03  0.12508948519E+03 0.  0.
          5    1    3    3  502    0  0.12964756844E+03  0.67375983088E+02  0.86354742657E+02  0.16977228596E+03  0.41800000000E+01 0. -1.
         -5    1    3    3    0  502  0.15866398070E+01 -0.22638522449E+02  0.70244543560E+02  0.73937733428E+02  0.41800000000E+01 0. -1.
        -11    1    1    2    0    0 -0.12771629823E+03 -0.62247397139E+02 -0.48215906583E+02  0.15003654532E+03  0.00000000000E+00 0. -1.
         11    1    1    2    0    0 -0.35179100210E+01  0.17509936501E+02  0.10582855111E+02  0.20759826335E+02  0.00000000000E+00 0.  1.
</event>
<event>
 7    1  0.3001243E-009  0.2963044E+03  0.7561462E-02  0.1087103E+00
         -1   -1    0    0    0  501 -0.00000000000E+00  0.00000000000E+00  0.20802784842E+03  0.20802784842E+03  0.00000000000E+00 0.  1.
          1   -1    0    0  501    0  0.00000000000E+00 -0.00000000000E+00 -0.45773708566E+03  0.45773708566E+03  0.00000000000E+00 0. -1.
         25    2    1    2    0    0 -0.55161010649E+02  0.28434937918E+03 -0.13126164104E+03  0.34172343473E+03  0.12509188981E+03 0.  0.
          5    1    3    3  502    0 -0.75253383212E+02  0.15975380890E+03 -0.12286757309E+03  0.21517031408E+03  0.41800000000E+01 0.  1.
         -5    1    3    3    0  502  0.20092372564E+02  0.12459557028E+03 -0.83940679445E+01  0.12655312065E+03  0.41800000000E+01 0.  1.
        -11    1    1    2    0    0  0.23625859308E+02 -0.10894962715E+03 -0.90626231729E+02  0.14367086122E+03  0.00000000000E+00 0. -1.
         11    1    1    2    0    0  0.31535151341E+02 -0.17539975203E+03 -0.27821364473E+02  0.18037063814E+03  0.00000000000E+00 0.  1.
</event>
<event>
 7    1  0.3001243E-009  0.1822600E+03  0.7561462E-02  0.1165634E+00
          1   -1    0    0  501    0  0.00000000000E+00  0.00000000000E+00  0.32594987864E+03  0.32594987864E+03  0.00000000000E+00 0. -1.
         -1   -1    0    0    0  501 -0.00000000000E+00 -0.00000000000E+00 -0.20637410386E+03  0.20637410386E+03  0.00000000000E+00 0.  1.
         25    2    1    2    0    0  0.16200316317E+03  0.19047854725E+02  0.23605414205E+03  0.31301372478E+03  0.12509271872E+03 0.  0.
          5    1    3    3  502    0 -0.15016850249E+01  0.36449207231E+02  0.71352243381E+02  0.80245964391E+02  0.41800000000E+01 0.  1.
         -5    1    3    3    0  502  0.16350484819E+03 -0.17401352506E+02  0.16470189867E+03  0.23276776039E+03  0.41800000000E+01 0.  1.
        -11    1    1    2    0    0 -0.53959253681E+02 -0.10193985676E+02 -0.93595173917E+02  0.10851532142E+03  0.00000000000E+00 0.  1.
         11    1    1    2    0    0 -0.10804390949E+03 -0.88538690487E+01 -0.22883193353E+02  0.11079493631E+03  0.00000000000E+00 0. -1.
</event>
<event>
 7    1  0.3001243E-009  0.1328256E+03  0.7561462E-02  0.1223322E+00
          3   -1    0    0  501    0  0.00000000000E+00  0.00000000000E+00  0.22790215130E+03  0.22790215130E+03  0.00000000000E+00 0. -1.
         -3   -1    0    0    0  501 -0.00000000000E+00 -0.00000000000E+00 -0.83695127325E+02  0.83695127325E+02  0.00000000000E+00 0.  1.
         25    2    1    2    0    0 -0.22952623456E+02  0.76847582068E+02  0.10982348199E+03  0.18477475864E+03  0.12509252752E+03 0.  0.
          5    1    3    3  502    0  0.10553035263E+01 -0.32216829041E+02  0.77363075282E+01  0.33411982778E+02  0.41800000000E+01 0. -1.
         -5    1    3    3    0  502 -0.24007926982E+02  0.10906441111E+03  0.10208717446E+03  0.15136277587E+03  0.41800000000E+01 0. -1.
        -11    1    1    2    0    0  0.13129917109E+02 -0.97575972633E+02  0.22519552183E+02  0.10099799696E+03  0.00000000000E+00 0.  1.
         11    1    1    2    0    0  0.98227063470E+01  0.20728390565E+02  0.11863989801E+02  0.25824523023E+02  0.00000000000E+00 0. -1.
</event>
<event>
 7    1  0.3001243E-009  0.1423943E+03  0.7561462E-02  0.1210143E+00
          2   -1    0    0  501    0  0.00000000000E+00  0.00000000000E+00  0.66556431035E+02  0.66556431035E+02  0.00000000000E+00 0. -1.
         -2   -1    0    0    0  501 -0.00000000000E+00 -0.00000000000E+00 -0.40572290554E+03  0.40572290554E+03  0.00000000000E+00 0.  1.
         25    2    1    2    0    0  0.88566581542E+02  0.81374149823E+02 -0.21205455127E+03  0.27400821824E+03  0.12509028469E+03 0.  0.
          5    1    3    3  502    0  0.50501307291E+02 -0.20616711281E+02 -0.31487274676E+02  0.63121721211E+02  0.41800000000E+01 0.  1.
         -5    1    3    3    0  502  0.38065274250E+02  0.10199086110E+03 -0.18056727659E+03  0.21088649703E+03  0.41800000000E+01 0.  1.
        -11    1    1    2    0    0 -0.26456266856E+02 -0.33679771213E+02  0.65816847551E+01  0.43331046827E+02  0.00000000000E+00 0. -1.
         11    1    1    2    0    0 -0.62110314686E+02 -0.47694378610E+02 -0.13369360799E+03  0.15494007151E+03  0.00000000000E+00 0.  1.
</event>
<event>
 7    1  0.3001243E-009  0.1583851E+03  0.7561462E-02  0.1190532E+00
         -2   -1    0    0    0  501 -0.00000000000E+00  0.00000000000E+00  0.90228981058E+03  0.90228981058E+03  0.00000000000E+00 0.  1.
          2   -1    0    0  501    0  0.00000000000E+00 -0.00000000000E+00 -0.31146581832E+02  0.31146581832E+02  0.00000000000E+00 0. -1.
         25    2    1    2    0    0 -0.12560086385E+03  0.21063934567E+01  0.41382872444E+03  0.45020130755E+03  0.12508793008E+03 0.  0.
          5    1    3    3  502    0 -0.13681230165E+03 -0.24951374384E+02  0.27427266626E+03  0.30754372831E+03  0.41800000000E+01 0. -1.
         -5    1    3    3    0  502  0.11211437800E+02  0.27057767841E+02  0.13955605819E+03  0.14265757924E+03  0.41800000000E+01 0. -1.
        -11    1    1    2    0    0  0.27126676391E+02  0.33708717813E+02  0.21377618676E+03  0.21811096317E+03  0.00000000000E+00 0. -1.
         11    1    1    2    0    0  0.98474187461E+02 -0.35815111270E+02  0.24353831754E+03  0.26512412169E+03  0.00000000000E+00 0.  1.
</event>
<event>
 7    1  0.3001243E-009  0.1734601E+03  0.7561462E-02  0.1174287E+00
          1   -1    0    0  501    0  0.00000000000E+00  0.00000000000E+00  0.22974079737E+03  0.22974079737E+03  0.00000000000E+00 0. -1.
         -1   -1    0    0    0  501 -0.00000000000E+00 -0.00000000000E+00 -0.14193471459E+03  0.14193471459E+03  0.00000000000E+00 0.  1.
         25    2    1    2    0    0  0.57861987400E+02 -0.13215880293E+03  0.52668914229E+02  0.19808158333E+03  0.12509332657E+03 0.  0.
          5    1    3    3  502    0 -0.36413557559E+02 -0.52027772739E+02  0.36128892910E+02  0.73182003342E+02  0.41800000000E+01 0.  1.
         -5    1    3    3    0  502  0.94275544959E+02 -0.80131030188E+02  0.16540021319E+02  0.12489957999E+03  0.41800000000E+01 0.  1.
        -11    1    1    2    0    0 -0.46518659675E+02  0.13876291848E+03  0.49158002207E+02  0.15438796075E+03  0.00000000000E+00 0. -1.
         11    1    1    2    0    0 -0.11343327725E+02 -0.66041155492E+01 -0.14020833658E+02  0.19205967888E+02  0.00000000000E+00 0.  1.
</event>
<event>
 7    1  0.3001243E-009  0.6829031E+02  0.7561462E-02  0.1366005E+00
         -4   -1    0    0    0  501 -0.00000000000E+00  0.00000000000E+00  0.90622743393E+02  0.90622743393E+02  0.00000000000E+00 0.  1.
          4   -1    0    0  501    0  0.00000000000E+00 -0.00000000000E+00 -0.19555945293E+03  0.19555945293E+03  0.00000000000E+00 0. -1.
         25    2    1    2    0    0 -0.31893545998E+02  0.28288367820E+02 -0.12712281487E+03  0.18336985292E+03  0.12508742091E+03 0.  0.
          5    1    3    3  502    0  0.63664081069E+01  0.10788754133E+02 -0.13886405002E+03  0.13949059164E+03  0.41800000000E+01 0.  1.
         -5    1    3    3    0  502 -0.38259954105E+02  0.17499613687E+02  0.11741235154E+02  0.43879261278E+02  0.41800000000E+01 0.  1.
        -11    1    1    2    0    0  0.27364995684E+02  0.19176255825E+02 -0.20174326304E+02  0.39033001653E+02  0.00000000000E+00 0. -1.
         11    1    1    2    0    0  0.45285503149E+01 -0.47464623646E+02  0.42360431635E+02  0.63779341751E+02  0.00000000000E+00 0.  1.
</event>
<event>
 7    1  0.3001243E-009  0.1398893E+03  0.7561462E-02  0.1213478E+00
         -2   -1    0    0    0  501 -0.00000000000E+00  0.00000000000E+00  0.31219750187E+02  0.31219750187E+02  0.00000000000E+00 0.  1.
          2   -1    0    0  501    0  0.00000000000E+00 -0.00000000000E+00 -0.76400579459E+03  0.76400579459E+03  0.00000000000E+00 0. -1.
         25    2    1    2    0    0 -0.83271573029E+02  0.44438549376E+02 -0.31907428643E+03  0.35547867731E+03  0.12509096777E+03 0.  0.
          5    1    3    3  502    0  0.15419615160E+02 -0.94059732552E+01 -0.15754820144E+03  0.15863525787E+03  0.41800000000E+01 0.  1.
         -5    1    3    3    0  502 -0.98691188189E+02  0.53844522631E+02 -0.16152608499E+03  0.19684341944E+03  0.41800000000E+01 0.  1.
        -11    1    1    2    0    0  0.34748540982E+01 -0.65990208816E+02 -0.16946513791E+03  0.18189341724E+03  0.00000000000E+00 0. -1.
         11    1    1    2    0    0  0.79796718930E+02  0.21551659440E+02 -0.24424662007E+03  0.25785345022E+03  0.00000000000E+00 0.  1.
</event>
<event>
 7    1  0.3001243E-009  0.9265396E+02  0.7561462E-02  0.1296549E+00
         -1   -1    0    0    0  501 -0.00000000000E+00  0.00000000000E+00  0.32670189510E+02  0.32670189510E+02  0.00000000000E+00 0.  1.
          1   -1    0    0  501    0  0.00000000000E+00 -0.00000000000E+00 -0.62130057665E+03  0.62130057665E+03  0.00000000000E+00 0. -1.
         25    2    1    2    0    0  0.13338695723E+02  0.22867036822E+02 -0.53235579633E+03  0.54749622172E+03  0.12509435132E+03 0.  0.
          5    1    3    3  502    0  0.41636217278E+02 -0.39994291598E+02 -0.21047113065E+03  0.21828579246E+03  0.41800000000E+01 0. -1.
         -5    1    3    3    0  502 -0.28297521555E+02  0.62861328420E+02 -0.32188466568E+03  0.32921042927E+03  0.41800000000E+01 0. -1.
        -11    1    1    2    0    0 -0.21340820100E+02 -0.36656995388E+02  0.54123872996E+01  0.42760494030E+02  0.00000000000E+00 0.  1.
         11    1    1    2    0    0  0.80021243767E+01  0.13789958565E+02 -0.61686978110E+02  0.63714050413E+02  0.00000000000E+00 0. -1.
</event>
<event>
 7    1  0.3001243E-009  0.1196584E+03  0.7561462E-02  0.1243662E+00
          1   -1    0    0  501    0  0.00000000000E+00  0.00000000000E+00  0.43768504610E+03  0.43768504610E+03  0.00000000000E+00 0. -1.
         -1   -1    0    0    0  501 -0.00000000000E+00 -0.00000000000E+00 -0.59447935432E+02  0.59447935432E+02  0.00000000000E+00 0.  1.
         25    2    1    2    0    0  0.71835327989E+02  0.67616152193E+02  0.30292450215E+03  0.34226150498E+03  0.12508966946E+03 0.  0.
          5    1    3    3  502    0 -0.21780071305E+02  0.32573655874E+02  0.24486067569E+02  0.46394552137E+02  0.41800000000E+01 0. -1.
         -5    1    3    3    0  502  0.93615399295E+02  0.35042496319E+02  0.27843843458E+03  0.29586695284E+03  0.41800000000E+01 0. -1.
        -11    1    1    2    0    0 -0.55963086900E+02 -0.43005526779E+02 -0.36301206490E+01  0.70671919493E+02  0.00000000000E+00 0.  1.
         11    1    1    2    0    0 -0.15872241089E+02 -0.24610625414E+02  0.78942729173E+02  0.84199557064E+02  0.00000000000E+00 0. -1.
</event>
<event>
 7    1  0.3001243E-009  0.9891690E+02  0.7561462E-02  0.1282590E+00
         -1   -1    0    0    0  501 -0.00000000000E+00  0.00000000000E+00  0.17528925272E+03  0.17528925272E+03  0.00000000000E+00 0.  1.
          1   -1    0    0  501    0  0.00000000000E+00 -0.00000000000E+00 -0.88599353593E+02  0.88599353593E+02  0.00000000000E+00 0. -1.
         25    2    1    2    0    0  0.55973905770E+02  0.10338397273E+02  0.27455917496E+02  0.14014907825E+03  0.12509187082E+03 0.  0.
          5    1    3    3  502    0  0.60511013229E+01  0.40282893373E+02  0.60518377449E+02  0.73070334164E+02  0.41800000000E+01 0. -1.
         -5    1    3    3    0  502  0.49922804447E+02 -0.29944496100E+02 -0.33062459953E+02  0.67078744090E+02  0.41800000000E+01 0. -1.
        -11    1    1    2    0    0 -0.24446663946E+02  0.35368411467E+02  0.52420924830E+02  0.67797619928E+02  0.00000000000E+00 0.  1.
         11    1    1    2    0    0 -0.31527241824E+02 -0.45706808740E+02  0.68130567992E+01  0.55941908129E+02  0.00000000000E+00 0. -1.
</event>
<event>
 7    1  0.3001243E-009  0.1316374E+03  0.7561462E-02  0.1225046E+00
         -1   -1    0    0    0  501 -0.00000000000E+00  0.00000000000E+00  0.19030086447E+02  0.19030086447E+02  0.00000000000E+00 0.  1.
          1   -1    0    0  501    0  0.00000000000E+00 -0.00000000000E+00 -0.18917829058E+04  0.18917829058E+04  0.00000000000E+00 0. -1.
         25    2    1    2    0    0  0.49718836024E+02  0.79021290697E+02 -0.16017946678E+04  0.16093818827E+04  0.12509020525E+03 0.  0.
          5    1    3    3  502    0  0.76980953852E+02  0.53680841181E+01 -0.75741619985E+03  0.76134857705E+03  0.41800000000E+01 0. -1.
         -5    1    3    3    0  502 -0.27262117828E+02  0.73653206579E+02 -0.84437846795E+03  0.84803330562E+03  0.41800000000E+01 0. -1.
        -11    1    1    2    0    0  0.37537746153E+01 -0.42328432423E+02 -0.30306709850E+02  0.52194670966E+02  0.00000000000E+00 0.  1.
         11    1    1    2    0    0 -0.53472610640E+02 -0.36692858273E+02 -0.24065144175E+03  0.24923643866E+03  0.00000000000E+00 0. -1.
</event>
<event>
 7    1  0.3001243E-009  0.1590223E+03  0.7561462E-02  0.1189805E+00
         -1   -1    0    0    0  501 -0.00000000000E+00  0.00000000000E+00  0.20833924129E+03  0.20833924129E+03  0.00000000000E+00 0.  1.
          1   -1    0    0  501    0  0.00000000000E+00 -0.00000000000E+00 -0.14515741266E+03  0.14515741266E+03  0.00000000000E+00 0. -1.
         25    2    1    2    0    0  0.48380378412E+02  0.10573381917E+03  0.10463242826E+03  0.20029049207E+03  0.12509210461E+03 0.  0.
          5    1    3    3  502    0  0.88857438987E+02  0.51158098824E+02  0.66145782386E+02  0.12208821592E+03  0.41800000000E+01 0. -1.
         -5    1    3    3    0  502 -0.40477060575E+02  0.54575720343E+02  0.38486645879E+02  0.78202276148E+02  0.41800000000E+01 0. -1.
        -11    1    1    2    0    0  0.12853530043E+02 -0.79839196504E+02 -0.19411153703E+02  0.83164315791E+02  0.00000000000E+00 0. -1.
         11    1    1    2    0    0 -0.61233908455E+02 -0.25894622663E+02 -0.22039445927E+02  0.70041846094E+02  0.00000000000E+00 0.  1.
</event>
<event>
 7    1  0.3001243E-009  0.9765854E+02  0.7561462E-02  0.1285298E+00
          1   -1    0    0  501    0  0.00000000000E+00  0.00000000000E+00  0.39320471107E+02  0.39320471107E+02  0.00000000000E+00 0. -1.
         -1   -1    0    0    0  501 -0.00000000000E+00 -0.00000000000E+00 -0.46304470379E+03  0.46304470379E+03  0.00000000000E+00 0.  1.
         25    2    1    2    0    0  0.78813868545E+02 -0.13956406199E+02 -0.22268448568E+03  0.26765841872E+03  0.12508493834E+03 0.  0.
          5    1    3    3  502    0  0.62810183027E+01  0.72594286479E+01 -0.18090048026E+03  0.18120321921E+03  0.41800000000E+01 0.  1.
         -5    1    3    3    0  502  0.72532850242E+02 -0.21215834847E+02 -0.41784005418E+02  0.86455199504E+02  0.41800000000E+01 0.  1.
        -11    1    1    2    0    0 -0.65350815115E+01 -0.25836859479E+02 -0.13620144950E+02  0.29929232308E+02  0.00000000000E+00 0.  1.
         11    1    1    2    0    0 -0.72278787034E+02  0.39793265678E+02 -0.18741960206E+03  0.20477752387E+03  0.00000000000E+00 0. -1.
</event>
<event>
 7    1  0.3001243E-009  0.9042122E+02  0.7561462E-02  0.1301835E+00
         -2   -1    0    0    0  501 -0.00000000000E+00  0.00000000000E+00  0.11550851513E+03  0.11550851513E+03  0.00000000000E+00 0.  1.
          2   -1    0    0  501    0  0.00000000000E+00 -0.00000000000E+00 -0.13959840562E+03  0.13959840562E+03  0.00000000000E+00 0. -1.
         25    2    1    2    0    0 -0.45510042763E+02 -0.12676025349E+02  0.35082388139E+02  0.13823783545E+03  0.12508828715E+03 0.  0.
          5    1    3    3  502    0  0.14078197941E+02 -0.18584682136E+02  0.66424710150E+02  0.70521632042E+02  0.41800000000E+01 0. -1.
         -5    1    3    3    0  502 -0.59588240703E+02  0.59086567867E+01 -0.31342322011E+02  0.67716203410E+02  0.41800000000E+01 0. -1.
        -11    1    1    2    0    0  0.44311582368E+02  0.45949381386E+02 -0.53082597306E+02  0.83021829168E+02  0.00000000000E+00 0. -1.
         11    1    1    2    0    0  0.11984603946E+01 -0.33273356036E+02 -0.60896813178E+01  0.33847256134E+02  0.00000000000E+00 0.  1.
</event>
<event>
 7    1  0.3001243E-009  0.1160736E+03  0.7561462E-02  0.1249719E+00
          1   -1    0    0  501    0  0.00000000000E+00  0.00000000000E+00  0.28954742712E+03  0.28954742712E+03  0.00000000000E+00 0. -1.
         -1   -1    0    0    0  501 -0.00000000000E+00 -0.00000000000E+00 -0.64744214565E+02  0.64744214565E+02  0.00000000000E+00 0.  1.
         25    2    1    2    0    0  0.73508659817E+01  0.76803490567E+02  0.15906739445E+03  0.21654709184E+03  0.12504957263E+03 0.  0.
          5    1    3    3  502    0  0.60329833698E+02  0.98720051889E+01  0.71990738754E+02  0.94537210594E+02  0.41800000000E+01 0.  1.
         -5    1    3    3    0  502 -0.52978967717E+02  0.66931485378E+02  0.87076655697E+02  0.12200988125E+03  0.41800000000E+01 0.  1.
        -11    1    1    2    0    0 -0.22354236017E+02 -0.46506860569E+02 -0.11998108590E+02  0.52976924766E+02  0.00000000000E+00 0.  1.
         11    1    1    2    0    0  0.15003370035E+02 -0.30296629998E+02  0.77733926696E+02  0.84767625077E+02  0.00000000000E+00 0. -1.
</event>
<event>
 7    1  0.3001243E-009  0.8737178E+02  0.7561462E-02  0.1309344E+00
         -2   -1    0    0    0  501 -0.00000000000E+00  0.00000000000E+00  0.28923485155E+03  0.28923485155E+03  0.00000000000E+00 0.  1.
          2   -1    0    0  501    0  0.00000000000E+00 -0.00000000000E+00 -0.90100109295E+02  0.90100109295E+02  0.00000000000E+00 0. -1.
         25    2    1    2    0    0  0.29654561629E+02 -0.71107209357E+02  0.21347838225E+03  0.25914424882E+03  0.12508834383E+03 0.  0.
          5    1    3    3  502    0  0.12891509877E+02 -0.19817613879E+02 -0.12295835154E+02  0.26973854172E+02  0.41800000000E+01 0. -1.
         -5    1    3    3    0  502  0.16763051752E+02 -0.51289595478E+02  0.22577421740E+03  0.23217039465E+03  0.41800000000E+01 0. -1.
        -11    1    1    2    0    0 -0.64737950304E+01 -0.10192263102E+02 -0.31670121622E+02  0.33893787820E+02  0.00000000000E+00 0. -1.
         11    1    1    2    0    0 -0.23180766599E+02  0.81299472459E+02  0.17326481634E+02  0.86296924209E+02  0.00000000000E+00 0.  1.
</event>
<event>
 7    1  0.3001243E-009  0.1202796E+03  0.7561462E-02  0.1242636E+00
          2   -1    0    0  501    0  0.00000000000E+00  0.00000000000E+00  0.14608173831E+03  0.14608173831E+03  0.00000000000E+00 0.  1.
         -2   -1    0    0    0  501 -0.00000000000E+00 -0.00000000000E+00 -0.15064640623E+03  0.15064640623E+03  0.00000000000E+00 0. -1.
         25    2    1    2    0    0 -0.36658582385E+02 -0.94077694643E+02  0.12896649268E+02  0.16127150882E+03  0.12509081382E+03 0.  0.
          5    1    3    3  502    0 -0.44535354816E+02 -0.84801898781E+00 -0.34320621252E+02  0.56387005666E+02  0.41800000000E+01 0.  1.
         -5    1    3    3    0  502  0.78767724308E+01 -0.93229675656E+02  0.47217270521E+02  0.10488450316E+03  0.41800000000E+01 0.  1.
        -11    1    1    2    0    0  0.16352814801E+02  0.62642181086E+02  0.32972825146E+02  0.72654419007E+02  0.00000000000E+00 0.  1.
         11    1    1    2    0    0  0.20305767584E+02  0.31435513557E+02 -0.50434142334E+02  0.62802216703E+02  0.00000000000E+00 0. -1.
</event>
<event>
 7    1  0.3861960E-009  0.1234651E+03  0.7561462E-02  0.1237488E+00
          1   -1    0    0  501    0  0.00000000000E+00  0.00000000000E+00  0.85308077632E+02  0.85308077632E+02  0.00000000000E+00 0. -1.
         -1   -1    0    0    0  501 -0.00000000000E+00 -0.00000000000E+00 -0.24905083606E+03  0.24905083606E+03  0.00000000000E+00 0.  1.
         25    2    1    2    0    0 -0.96790837191E+02  0.50348340265E+00 -0.84224407845E+02  0.17919326114E+03  0.12509098410E+03 0.  0.
          5    1    3    3  502    0  0.83667704472E+01 -0.13698897623E+02 -0.70132927029E+02  0.72067763234E+02  0.41800000000E+01 0.  1.
         -5    1    3    3    0  502 -0.10515760764E+03  0.14202381026E+02 -0.14091480816E+02  0.10712549791E+03  0.41800000000E+01 0.  1.
        -11    1    1    2    0    0  0.91680872606E+01  0.29998705090E+02 -0.47683038065E+02  0.57075811428E+02  0.00000000000E+00 0. -1.
         11    1    1    2    0    0  0.87622749930E+02 -0.30502188493E+02 -0.31835312521E+02  0.98089841123E+02  0.00000000000E+00 0.  1.
</event>
<event>
 7    1  0.3001243E-009  0.1414674E+03  0.7561462E-02  0.1211368E+00
          1   -1    0    0  501    0  0.00000000000E+00  0.00000000000E+00  0.17585194580E+03  0.17585194580E+03  0.00000000000E+00 0. -1.
         -1   -1    0    0    0  501 -0.00000000000E+00 -0.00000000000E+00 -0.13211735214E+03  0.13211735214E+03  0.00000000000E+00 0.  1.
         25    2    1    2    0    0 -0.87907544739E+02 -0.47340086987E+02 -0.14333217804E+02  0.16069452282E+03  0.12509383787E+03 0.  0.
          5    1    3    3  502    0 -0.35738303309E+02 -0.80074819883E+02 -0.36543452353E+02  0.95089954319E+02  0.41800000000E+01 0. -1.
         -5    1    3    3    0  502 -0.52169241431E+02  0.32734732896E+02  0.22210234548E+02  0.65604568499E+02  0.41800000000E+01 0. -1.
        -11    1    1    2    0    0  0.92763832173E+02  0.72644742359E+01  0.28767252895E+02  0.97393305645E+02  0.00000000000E+00 0.  1.
         11    1    1    2    0    0 -0.48562874337E+01  0.40075612751E+02  0.29300558570E+02  0.49881469480E+02  0.00000000000E+00 0. -1.
</event>
<event>
 7    1  0.3001243E-009  0.1669116E+03  0.7561462E-02  0.1181107E+00
         -2   -1    0    0    0  501 -0.00000000000E+00  0.00000000000E+00  0.40630634432E+02  0.40630634432E+02  0.00000000000E+00 0.  1.
          2   -1    0    0  501    0  0.00000000000E+00 -0.00000000000E+00 -0.87905819211E+03  0.87905819211E+03  0.00000000000E+00 0. -1.
         25    2    1    2    0    0  0.11004576252E+03  0.10754779529E+03 -0.44367209571E+03  0.48596602090E+03  0.12506577004E+03 0.  0.
          5    1    3    3  502    0  0.29995266673E+02  0.28097937510E+02 -0.30210271985E+03  0.30491430904E+03  0.41800000000E+01 0. -1.
         -5    1    3    3    0  502  0.80050495846E+02  0.79449857784E+02 -0.14156937586E+03  0.18105171186E+03  0.41800000000E+01 0. -1.
        -11    1    1    2    0    0 -0.16479589830E+02 -0.80617460147E+02 -0.18457160978E+03  0.20208273280E+03  0.00000000000E+00 0.  1.
         11    1    1    2    0    0 -0.93566172688E+02 -0.26930335146E+02 -0.21018385219E+03  0.23164007284E+03  0.00000000000E+00 0. -1.
</event>
<event>
 7    1  0.3001243E-009  0.1201776E+03  0.7561462E-02  0.1242804E+00
          2   -1    0    0  501    0  0.00000000000E+00  0.00000000000E+00  0.25198308236E+03  0.25198308236E+03  0.00000000000E+00 0. -1.
         -2   -1    0    0    0  501 -0.00000000000E+00 -0.00000000000E+00 -0.74321905901E+02  0.74321905901E+02  0.00000000000E+00 0.  1.
         25    2    1    2    0    0  0.10702041834E+02 -0.77785446834E+02  0.64051880399E+02  0.16098378037E+03  0.12509206498E+03 0.  0.
          5    1    3    3  502    0 -0.55295755245E+02 -0.31687619405E+02  0.11884549058E+02  0.64964918825E+02  0.41800000000E+01 0.  1.
         -5    1    3    3    0  502  0.65997797079E+02 -0.46097827429E+02  0.52167331341E+02  0.96018861543E+02  0.41800000000E+01 0.  1.
        -11    1    1    2    0    0  0.21313731519E+02  0.46306004876E+02  0.93788057441E+01  0.51831295913E+02  0.00000000000E+00 0.  1.
         11    1    1    2    0    0 -0.32015773353E+02  0.31479441958E+02  0.10423049031E+03  0.11348991198E+03  0.00000000000E+00 0. -1.
</event>
<event>
 7    1  0.3001243E-009  0.1291650E+03  0.7561462E-02  0.1228700E+00
         -1   -1    0    0    0  501 -0.00000000000E+00  0.00000000000E+00  0.26744871735E+02  0.26744871735E+02  0.00000000000E+00 0.  1.
          1   -1    0    0  501    0  0.00000000000E+00 -0.00000000000E+00 -0.71483808568E+03  0.71483808568E+03  0.00000000000E+00 0. -1.
         25    2    1    2    0    0  0.42159731885E+02 -0.62946705333E+02 -0.26750048574E+03  0.30486764923E+03  0.12509213794E+03 0.  0.
          5    1    3    3  502    0 -0.32112025391E+02 -0.58366831152E+02 -0.16620939200E+03  0.17911142773E+03  0.41800000000E+01 0.  1.
         -5    1    3    3    0  502  0.74271757277E+02 -0.45798741803E+01 -0.10129109374E+03  0.12575622151E+03  0.41800000000E+01 0.  1.
        -11    1    1    2    0    0  0.27389785577E+02  0.28175282034E+02 -0.12249674364E+03  0.12864485638E+03  0.00000000000E+00 0. -1.
         11    1    1    2    0    0 -0.69549517463E+02  0.34771423299E+02 -0.29809598457E+03  0.30807045180E+03  0.00000000000E+00 0.  1.
</event>
<event>
 7    1  0.3001243E-009  0.1194804E+03  0.7561462E-02  0.1243957E+00
          1   -1    0    0  501    0  0.00000000000E+00  0.00000000000E+00  0.10335052265E+03  0.10335052265E+03  0.00000000000E+00 0. -1.
         -1   -1    0    0    0  501 -0.00000000000E+00 -0.00000000000E+00 -0.14470692121E+03  0.14470692121E+03  0.00000000000E+00 0.  1.
         25    2    1    2    0    0  0.45737317032E+02 -0.27567633611E+02 -0.42002402449E+01  0.13607623852E+03  0.12508886473E+03 0.  0.
          5    1    3    3  502    0  0.74204699554E+02 -0.56389938531E+02  0.78013169628E+01  0.93618884579E+02  0.41800000000E+01 0. -1.
         -5    1    3    3    0  502 -0.28467382522E+02  0.28822304920E+02 -0.12001557208E+02  0.42457353944E+02  0.41800000000E+01 0. -1.
        -11    1    1    2    0    0  0.25476233753E+02  0.21737854398E+02 -0.17931669710E+02  0.37988387418E+02  0.00000000000E+00 0.  1.
         11    1    1    2    0    0 -0.71213550785E+02  0.58297792135E+01 -0.19224488601E+02  0.73992817915E+02  0.00000000000E+00 0. -1.
</event>
<event>
 7    1  0.3001243E-009  0.3034571E+03  0.7561462E-02  0.1083525E+00
          2   -1    0    0  501    0  0.00000000000E+00  0.00000000000E+00  0.29741301558E+04  0.29741301558E+04  0.00000000000E+00 0. -1.
         -2   -1    0    0    0  501 -0.00000000000E+00 -0.00000000000E+00 -0.40216533769E+02  0.40216533769E+02  0.00000000000E+00 0.  1.
         25    2    1    2    0    0  0.29570905428E+03 -0.20828420028E+02  0.21036921468E+04  0.21281554634E+04  0.12508940813E+03 0.  0.
          5    1    3    3  502    0  0.19291234961E+02  0.13559717475E+00  0.52032635477E+03  0.52070064145E+03  0.41800000000E+01 0.  1.
         -5    1    3    3    0  502  0.27641781932E+03 -0.20964017203E+02  0.15833657920E+04  0.16074548219E+04  0.41800000000E+01 0.  1.
        -11    1    1    2    0    0 -0.25495766260E+03  0.50001318106E+02  0.69268649487E+03  0.73980951717E+03  0.00000000000E+00 0.  1.
         11    1    1    2    0    0 -0.40751391680E+02 -0.29172898078E+02  0.13753498045E+03  0.14638170908E+03  0.00000000000E+00 0. -1.
</event>
<event>
 7    1  0.3001243E-009  0.1000582E+03  0.7561462E-02  0.1280174E+00
         -1   -1    0    0    0  501 -0.00000000000E+00  0.00000000000E+00  0.93941319957E+02  0.93941319957E+02  0.00000000000E+00 0.  1.
          1   -1    0    0  501    0  0.00000000000E+00 -0.00000000000E+00 -0.15766703240E+03  0.15766703240E+03  0.00000000000E+00 0. -1.
         25    2    1    2    0    0 -0.14280855624E+02  0.55138666166E+01 -0.90472480507E+02  0.15513462977E+03  0.12508852090E+03 0.  0.
          5    1    3    3  502    0 -0.27514703898E+02 -0.46313316635E+02 -0.50597217752E+01  0.54268364751E+02  0.41800000000E+01 0.  1.
         -5    1    3    3    0  502  0.13233848274E+02  0.51827183251E+02 -0.85412758731E+02  0.10086626501E+03  0.41800000000E+01 0.  1.
        -11    1    1    2    0    0  0.49236531660E+02 -0.21825441168E+02  0.19137572580E+02  0.57156212404E+02  0.00000000000E+00 0.  1.
         11    1    1    2    0    0 -0.34955676035E+02  0.16311574552E+02  0.76091954841E+01  0.39317510188E+02  0.00000000000E+00 0. -1.
</event>
<event>
 7    1  0.3001243E-009  0.9812105E+02  0.7561462E-02  0.1284297E+00
          1   -1    0    0  501    0  0.00000000000E+00  0.00000000000E+00  0.35274602040E+02  0.35274602040E+02  0.00000000000E+00 0. -1.
         -1   -1    0    0    0  501 -0.00000000000E+00 -0.00000000000E+00 -0.54020761322E+03  0.54020761322E+03  0.00000000000E+00 0.  1.
         25    2    1    2    0    0 -0.17466142137E+02  0.56268152500E+02 -0.41577227508E+03  0.43816154364E+03  0.12509109679E+03 0.  0.
          5    1    3    3  502    0 -0.26203839382E+02  0.92781374708E+02 -0.34095314605E+03  0.35434664510E+03  0.41800000000E+01 0. -1.
         -5    1    3    3    0  502  0.87376972452E+01 -0.36513222208E+02 -0.74819129034E+02  0.83814898548E+02  0.41800000000E+01 0. -1.
        -11    1    1    2    0    0  0.20099213658E+02 -0.33663868238E+02 -0.10332624498E+03  0.11051491898E+03  0.00000000000E+00 0.  1.
         11    1    1    2    0    0 -0.26330715204E+01 -0.22604284261E+02  0.14165508884E+02  0.26805752639E+02  0.00000000000E+00 0. -1.
</event>
<event>
 7    1  0.3001243E-009  0.2163231E+03  0.7561462E-02  0.1136654E+00
         -1   -1    0    0    0  501 -0.00000000000E+00  0.00000000000E+00  0.24381973602E+03  0.24381973602E+03  0.00000000000E+00 0.  1.
          1   -1    0    0  501    0  0.00000000000E+00 -0.00000000000E+00 -0.25097180150E+03  0.25097180150E+03  0.00000000000E+00 0. -1.
         25    2    1    2    0    0 -0.14916465805E+03  0.12375157766E+03 -0.11228265838E+03  0.25655339543E+03  0.12509077163E+03 0.  0.
          5    1    3    3  502    0 -0.14908837048E+03  0.53947282212E+02 -0.61411078328E+02  0.17007775990E+03  0.41800000000E+01 0.  1.
         -5    1    3    3    0  502 -0.76287567049E-01  0.69804295451E+02 -0.50871580050E+02  0.86475635528E+02  0.41800000000E+01 0.  1.
        -11    1    1    2    0    0  0.55884397960E+02 -0.87940454639E+02  0.88989679825E+02  0.13702464236E+03  0.00000000000E+00 0.  1.
         11    1    1    2    0    0  0.93280260089E+02 -0.35811123024E+02  0.16140913066E+02  0.10121349974E+03  0.00000000000E+00 0. -1.
</event>
<event>
 7    1  0.3001243E-009  0.1055340E+03  0.7561462E-02  0.1269071E+00
         -2   -1    0    0    0  501 -0.00000000000E+00  0.00000000000E+00  0.14248234390E+02  0.14248234390E+02  0.00000000000E+00 0. -1.
          2   -1    0    0  501    0  0.00000000000E+00 -0.00000000000E+00 -0.13491315441E+04  0.13491315441E+04  0.00000000000E+00 0.  1.
         25    2    1    2    0    0  0.45132217049E+02 -0.23174958090E+02 -0.10716037015E+04  0.10800733337E+04  0.12509963056E+03 0.  0.
          5    1    3    3  502    0  0.73344233569E+02 -0.31338702568E+02 -0.99049391394E+03  0.99370878874E+03  0.41800000000E+01 0.  1.
         -5    1    3    3    0  502 -0.28212016520E+02  0.81637444778E+01 -0.81109787528E+02  0.86364544999E+02  0.41800000000E+01 0.  1.
        -11    1    1    2    0    0 -0.63927585875E+02 -0.87135951475E+01 -0.13224764045E+03  0.14714653030E+03  0.00000000000E+00 0. -1.
         11    1    1    2    0    0  0.18795368826E+02  0.31888553238E+02 -0.13103196779E+03  0.13615991444E+03  0.00000000000E+00 0.  1.
</event>
<event>
 7    1  0.3001243E-009  0.1207857E+03  0.7561462E-02  0.1241806E+00
         -1   -1    0    0    0  501 -0.00000000000E+00  0.00000000000E+00  0.29032278714E+02  0.29032278714E+02  0.00000000000E+00 0.  1.
          1   -1    0    0  501    0  0.00000000000E+00 -0.00000000000E+00 -0.54966328427E+03  0.54966328427E+03  0.00000000000E+00 0. -1.
         25    2    1    2    0    0  0.36749367925E+02 -0.25795374496E+02 -0.22603757061E+03  0.26222004720E+03  0.12510176833E+03 0.  0.
          5    1    3    3  502    0 -0.18151928355E+02  0.38792555312E+02 -0.11262936044E+03  0.12057031179E+03  0.41800000000E+01 0.  1.
         -5    1    3    3    0  502  0.54901296280E+02 -0.64587929809E+02 -0.11340821016E+03  0.14164973541E+03  0.41800000000E+01 0.  1.
        -11    1    1    2    0    0 -0.66554511705E+02 -0.97655567253E+01 -0.14483147108E+03  0.15969040090E+03  0.00000000000E+00 0.  1.
         11    1    1    2    0    0  0.29805143780E+02  0.35560931222E+02 -0.14976196388E+03  0.15678511489E+03  0.00000000000E+00 0. -1.
</event>
<event>
 7    1  0.3001243E-009  0.1572759E+03  0.7561462E-02  0.1191807E+00
         -1   -1    0    0    0  501 -0.00000000000E+00  0.00000000000E+00  0.21174535534E+03  0.21174535534E+03  0.00000000000E+00 0.  1.
          1   -1    0    0  501    0  0.00000000000E+00 -0.00000000000E+00 -0.17140794782E+03  0.17140794782E+03  0.00000000000E+00 0. -1.
         25    2    1    2    0    0  0.64213258331E+02 -0.12692458907E+03  0.87111540484E+02  0.20849282441E+03  0.12509054117E+03 0.  0.
          5    1    3    3  502    0  0.57090300939E+02 -0.67522668666E+02  0.11268313055E+03  0.14329540661E+03  0.41800000000E+01 0.  1.
         -5    1    3    3    0  502  0.71229573918E+01 -0.59401920401E+02 -0.25571590064E+02  0.65197417800E+02  0.41800000000E+01 0.  1.
        -11    1    1    2    0    0  0.17435617516E+02  0.53428173074E+02 -0.26160731278E+01  0.56262014492E+02  0.00000000000E+00 0.  1.
         11    1    1    2    0    0 -0.81648875847E+02  0.73496415994E+02 -0.44158059837E+02  0.11839846426E+03  0.00000000000E+00 0. -1.
</event>
<event>
 7    1  0.3001243E-009  0.1575551E+03  0.7561462E-02  0.1191485E+00
          1   -1    0    0  501    0  0.00000000000E+00  0.00000000000E+00  0.95555702818E+03  0.95555702818E+03  0.00000000000E+00 0. -1.
         -1   -1    0    0    0  501 -0.00000000000E+00 -0.00000000000E+00 -0.28738032502E+02  0.28738032502E+02  0.00000000000E+00 0.  1.
         25    2    1    2    0    0 -0.11527640781E+03 -0.38758409788E+02  0.47745167188E+03  0.50832952065E+03  0.12509171860E+03 0.  0.
          5    1    3    3  502    0 -0.11483524826E+03  0.13828881251E+02  0.26047692790E+03  0.28503346219E+03  0.41800000000E+01 0. -1.
         -5    1    3    3    0  502 -0.44115954678E+00 -0.52587291039E+02  0.21697474398E+03  0.22329605846E+03  0.41800000000E+01 0. -1.
        -11    1    1    2    0    0  0.89704590276E+02  0.64379666542E+02  0.24941179123E+03  0.27275977817E+03  0.00000000000E+00 0. -1.
         11    1    1    2    0    0  0.25571817532E+02 -0.25621256754E+02  0.19995553256E+03  0.20320576185E+03  0.00000000000E+00 0.  1.
</event>
<event>
 7    1  0.3001243E-009  0.1377405E+03  0.7561462E-02  0.1216402E+00
         -1   -1    0    0    0  501 -0.00000000000E+00  0.00000000000E+00  0.11687072478E+02  0.11687072478E+02  0.00000000000E+00 0.  1.
          1   -1    0    0  501    0  0.00000000000E+00 -0.00000000000E+00 -0.24708920530E+04  0.24708920530E+04  0.00000000000E+00 0. -1.
         25    2    1    2    0    0 -0.20514382348E+02  0.92868025805E+02 -0.19651072538E+04  0.19713780927E+04  0.12505900765E+03 0.  0.
          5    1    3    3  502    0 -0.62497596094E+02  0.14222606689E+02 -0.10378521402E+04  0.10398378573E+04  0.41800000000E+01 0.  1.
         -5    1    3    3    0  502  0.41983213747E+02  0.78645419117E+02 -0.92725511358E+03  0.93154023544E+03  0.41800000000E+01 0.  1.
        -11    1    1    2    0    0 -0.28464590249E+02 -0.46711691885E+02 -0.31820738273E+03  0.32287482634E+03  0.00000000000E+00 0. -1.
         11    1    1    2    0    0  0.48978972596E+02 -0.46156333920E+02 -0.17589034396E+03  0.18832620640E+03  0.00000000000E+00 0.  1.
</event>
<event>
 7    1  0.3001243E-009  0.1996616E+03  0.7561462E-02  0.1150025E+00
         -2   -1    0    0    0  501 -0.00000000000E+00  0.00000000000E+00  0.71431940908E+02  0.71431940908E+02  0.00000000000E+00 0.  1.
          2   -1    0    0  501    0  0.00000000000E+00 -0.00000000000E+00 -0.10075839082E+04  0.10075839082E+04  0.00000000000E+00 0. -1.
         25    2    1    2    0    0  0.10993122065E+02 -0.18905048107E+03 -0.16813761039E+03  0.28246224180E+03  0.12511486277E+03 0.  0.
          5    1    3    3  502    0 -0.18342566065E+02 -0.55851299564E+02 -0.12689087438E+03  0.13990919839E+03  0.41800000000E+01 0. -1.
         -5    1    3    3    0  502  0.29335688130E+02 -0.13319918151E+03 -0.41246736008E+02  0.14255304340E+03  0.41800000000E+01 0. -1.
        -11    1    1    2    0    0  0.32739000916E+02  0.82115336831E+02 -0.23297615989E+03  0.24918399186E+03  0.00000000000E+00 0.  1.
         11    1    1    2    0    0 -0.43732122981E+02  0.10693514424E+03 -0.53503819698E+03  0.54736961542E+03  0.00000000000E+00 0. -1.
</event>
<event>
 7    1  0.3001243E-009  0.1389375E+03  0.7561462E-02  0.1214766E+00
          1   -1    0    0  501    0  0.00000000000E+00  0.00000000000E+00  0.24692178949E+03  0.24692178949E+03  0.00000000000E+00 0. -1.
         -1   -1    0    0    0  501 -0.00000000000E+00 -0.00000000000E+00 -0.93906572263E+02  0.93906572263E+02  0.00000000000E+00 0.  1.
         25    2    1    2    0    0 -0.10557327846E+03 -0.18648284168E+02  0.99856170349E+02  0.19264374528E+03  0.12508749823E+03 0.  0.
          5    1    3    3  502    0 -0.48174277193E+02 -0.68535711766E+02  0.75024120816E+02  0.11253442084E+03  0.41800000000E+01 0.  1.
         -5    1    3    3    0  502 -0.57399001263E+02  0.49887427598E+02  0.24832049534E+02  0.80109324441E+02  0.41800000000E+01 0.  1.
        -11    1    1    2    0    0  0.16371160178E+02  0.23339717411E+02 -0.18227951175E+02  0.33838077641E+02  0.00000000000E+00 0.  1.
         11    1    1    2    0    0  0.89202118278E+02 -0.46914332438E+01  0.71386998054E+02  0.11434653883E+03  0.00000000000E+00 0. -1.
</event>
<event>
 7    1  0.3001243E-009  0.1142144E+03  0.7561462E-02  0.1252959E+00
         -2   -1    0    0    0  501 -0.00000000000E+00  0.00000000000E+00  0.19744582477E+02  0.19744582477E+02  0.00000000000E+00 0. -1.
          2   -1    0    0  501    0  0.00000000000E+00 -0.00000000000E+00 -0.70161580204E+03  0.70161580204E+03  0.00000000000E+00 0.  1.
         25    2    1    2    0    0  0.27676430786E+02  0.35070804566E+02 -0.36588303510E+03  0.38924790815E+03  0.12509033723E+03 0.  0.
          5    1    3    3  502    0 -0.36640110450E+02  0.48288347404E+02 -0.23540981887E+03  0.24312448953E+03  0.41800000000E+01 0.  1.
         -5    1    3    3    0  502  0.64316541236E+02 -0.13217542838E+02 -0.13047321624E+03  0.14612341862E+03  0.41800000000E+01 0.  1.
        -11    1    1    2    0    0 -0.35514614537E+02 -0.63297918731E+02 -0.23710991112E+03  0.24796980525E+03  0.00000000000E+00 0.  1.
         11    1    1    2    0    0  0.78381837512E+01  0.28227114165E+02 -0.78878273339E+02  0.84142671122E+02  0.00000000000E+00 0. -1.
</event>
<event>
 7    1  0.3001243E-009  0.6094106E+02  0.7561462E-02  0.1393924E+00
         -2   -1    0    0    0  501 -0.00000000000E+00  0.00000000000E+00  0.31563480724E+02  0.31563480724E+02  0.00000000000E+00 0. -1.
          2   -1    0    0  501    0  0.00000000000E+00 -0.00000000000E+00 -0.39675407348E+03  0.39675407348E+03  0.00000000000E+00 0.  1.
         25    2    1    2    0    0  0.68671650635E+01  0.29174615373E+02 -0.19625274532E+03  0.23465005397E+03  0.12508873507E+03 0.  0.
          5    1    3    3  502    0  0.64502514040E+01  0.16757020205E+02 -0.21276765676E+03  0.21356486517E+03  0.41800000000E+01 0. -1.
         -5    1    3    3    0  502  0.41691365954E+00  0.12417595168E+02  0.16514911442E+02  0.21085188799E+02  0.41800000000E+01 0. -1.
        -11    1    1    2    0    0 -0.27404796367E+02  0.22033875361E+02 -0.39061561332E+02  0.52557778692E+02  0.00000000000E+00 0. -1.
         11    1    1    2    0    0  0.20537631304E+02 -0.51208490734E+02 -0.12987628610E+03  0.14110972154E+03  0.00000000000E+00 0.  1.
</event>
<event>
 7    1  0.3001243E-009  0.2215536E+03  0.7561462E-02  0.1132730E+00
         -2   -1    0    0    0  501 -0.00000000000E+00  0.00000000000E+00  0.77140561743E+03  0.77140561743E+03  0.00000000000E+00 0. -1.
          2   -1    0    0  501    0  0.00000000000E+00 -0.00000000000E+00 -0.77554065582E+02  0.77554065582E+02  0.00000000000E+00 0.  1.
         25    2    1    2    0    0  0.93965002273E+02  0.19178487069E+03  0.27651151851E+03  0.37111492281E+03  0.12512716645E+03 0.  0.
          5    1    3    3  502    0  0.89054609762E+02  0.10915329661E+03  0.24460725352E+03  0.28230364248E+03  0.41800000000E+01 0. -1.
         -5    1    3    3    0  502  0.49103925114E+01  0.82631574078E+02  0.31904264991E+02  0.88811280330E+02  0.41800000000E+01 0. -1.
        -11    1    1    2    0    0 -0.94285286944E+02 -0.14785895929E+03  0.25367802326E+03  0.30839021817E+03  0.00000000000E+00 0.  1.
         11    1    1    2    0    0  0.32028467083E+00 -0.43925911396E+02  0.16366201007E+03  0.16945454203E+03  0.00000000000E+00 0. -1.
</event>
<event>
 7    1  0.3001243E-009  0.8189898E+02  0.7561462E-02  0.1323747E+00
          2   -1    0    0  501    0  0.00000000000E+00  0.00000000000E+00  0.29615971855E+02  0.29615971855E+02  0.00000000000E+00 0. -1.
         -2   -1    0    0    0  501 -0.00000000000E+00 -0.00000000000E+00 -0.45202616762E+03  0.45202616762E+03  0.00000000000E+00 0.  1.
         25    2    1    2    0    0 -0.31397532344E+02  0.10501107478E+02 -0.28062351184E+03  0.30902087980E+03  0.12509304722E+03 0.  0.
          5    1    3    3  502    0  0.22169870502E+02  0.41347678790E+02 -0.44124217612E+02  0.64541092951E+02  0.41800000000E+01 0. -1.
         -5    1    3    3    0  502 -0.53567402846E+02 -0.30846571311E+02 -0.23649929423E+03  0.24447978685E+03  0.41800000000E+01 0. -1.
        -11    1    1    2    0    0 -0.15836762003E+01  0.13726207690E+02  0.89271516028E+01  0.16450253602E+02  0.00000000000E+00 0. -1.
         11    1    1    2    0    0  0.32981208544E+02 -0.24227315168E+02 -0.15071383553E+03  0.15617100607E+03  0.00000000000E+00 0.  1.
</event>
<event>
 7    1  0.3001243E-009  0.1545135E+03  0.7561462E-02  0.1195034E+00
         -2   -1    0    0    0  501 -0.00000000000E+00  0.00000000000E+00  0.79844871330E+02  0.79844871330E+02  0.00000000000E+00 0.  1.
          2   -1    0    0  501    0  0.00000000000E+00 -0.00000000000E+00 -0.34514374278E+03  0.34514374278E+03  0.00000000000E+00 0. -1.
         25    2    1    2    0    0  0.12399812315E+03  0.28469801195E+01 -0.17550372180E+03  0.24866388585E+03  0.12509409227E+03 0.  0.
          5    1    3    3  502    0  0.14027152947E+03  0.24216819622E+02 -0.16844989056E+03  0.22057967803E+03  0.41800000000E+01 0.  1.
         -5    1    3    3    0  502 -0.16273406320E+02 -0.21369839503E+02 -0.70538312402E+01  0.28084207818E+02  0.41800000000E+01 0.  1.
        -11    1    1    2    0    0 -0.70299893885E+01 -0.20015043766E+02 -0.45274926041E+02  0.49998416533E+02  0.00000000000E+00 0. -1.
         11    1    1    2    0    0 -0.11696813376E+03  0.17168063647E+02 -0.44520223609E+02  0.12632631173E+03  0.00000000000E+00 0.  1.
</event>
<event>
 7    1  0.3001243E-009  0.8359129E+02  0.7561462E-02  0.1319158E+00
          2   -1    0    0  501    0  0.00000000000E+00  0.00000000000E+00  0.31981302260E+03  0.31981302260E+03  0.00000000000E+00 0.  1.
         -2   -1    0    0    0  501 -0.00000000000E+00 -0.00000000000E+00 -0.50745667644E+02  0.50745667644E+02  0.00000000000E+00 0. -1.
         25    2    1    2    0    0  0.40729235964E+02 -0.12282611500E+02  0.22044957293E+03  0.25701106634E+03  0.12508773246E+03 0.  0.
          5    1    3    3  502    0  0.33836784632E+00 -0.39919838226E+02  0.19969123435E+03  0.20368546697E+03  0.41800000000E+01 0. -1.
         -5    1    3    3    0  502  0.40390868117E+02  0.27637226726E+02  0.20758338572E+02  0.53325599375E+02  0.41800000000E+01 0. -1.
        -11    1    1    2    0    0  0.63127265219E+01 -0.19932516020E+02 -0.16763090627E+02  0.26798449926E+02  0.00000000000E+00 0. -1.
         11    1    1    2    0    0 -0.47041962486E+02  0.32215127520E+02  0.65380872652E+02  0.86749173969E+02  0.00000000000E+00 0.  1.
</event>
<event>
 7    1  0.3001243E-009  0.1125908E+03  0.7561462E-02  0.1255846E+00
          1   -1    0    0  501    0  0.00000000000E+00  0.00000000000E+00  0.11115815620E+03  0.11115815620E+03  0.00000000000E+00 0. -1.
         -1   -1    0    0    0  501 -0.00000000000E+00 -0.00000000000E+00 -0.11782725509E+03  0.11782725509E+03  0.00000000000E+00 0.  1.
         25    2    1    2    0    0  0.21422884000E+02 -0.27180731497E+02  0.28775462834E+01  0.12982374138E+03  0.12509273133E+03 0.  0.
          5    1    3    3  502    0  0.46382648727E+02  0.36017020788E+02 -0.12136745496E+02  0.60111137742E+02  0.41800000000E+01 0.  1.
         -5    1    3    3    0  502 -0.24959764727E+02 -0.63197752284E+02  0.15014291780E+02  0.69712603643E+02  0.41800000000E+01 0.  1.
        -11    1    1    2    0    0  0.15080501959E+02  0.51965497493E+02 -0.44990933396E+00  0.54111337883E+02  0.00000000000E+00 0. -1.
         11    1    1    2    0    0 -0.36503385959E+02 -0.24784765997E+02 -0.90967358430E+01  0.45050332019E+02  0.00000000000E+00 0.  1.
</event>
<event>
 7    1  0.3001243E-009  0.1173736E+03  0.7561462E-02  0.1247494E+00
         -3   -1    0    0    0  501 -0.00000000000E+00  0.00000000000E+00  0.17045279082E+02  0.17045279082E+02  0.00000000000E+00 0.  1.
          3   -1    0    0  501    0  0.00000000000E+00 -0.00000000000E+00 -0.13272076205E+04  0.13272076205E+04  0.00000000000E+00 0. -1.
         25    2    1    2    0    0 -0.54017038471E+02  0.21060418084E+02 -0.10905113973E+04  0.10991981852E+04  0.12514056545E+03 0.  0.
          5    1    3    3  502    0 -0.55499787773E+02  0.67985138734E+02 -0.81039195999E+03  0.81514097354E+03  0.41800000000E+01 0. -1.
         -5    1    3    3    0  502  0.14827493020E+01 -0.46924720650E+02 -0.28011943727E+03  0.28405721165E+03  0.41800000000E+01 0. -1.
        -11    1    1    2    0    0  0.16600625588E+02 -0.49849879849E+02 -0.66262900402E+02  0.84565733371E+02  0.00000000000E+00 0.  1.
         11    1    1    2    0    0  0.37416412882E+02  0.28789461765E+02 -0.15338804380E+03  0.16048898107E+03  0.00000000000E+00 0. -1.
</event>
<event>
 7    1  0.3001243E-009  0.1214585E+03  0.7561462E-02  0.1240710E+00
          2   -1    0    0  501    0  0.00000000000E+00  0.00000000000E+00  0.94501843205E+02  0.94501843205E+02  0.00000000000E+00 0. -1.
         -2   -1    0    0    0  501 -0.00000000000E+00 -0.00000000000E+00 -0.19528281769E+03  0.19528281769E+03  0.00000000000E+00 0.  1.
         25    2    1    2    0    0 -0.28638155390E+02 -0.67408910851E+02 -0.91970290147E+02  0.17166913953E+03  0.12509058314E+03 0.  0.
          5    1    3    3  502    0  0.31511564490E+02 -0.62594547641E+02 -0.85811176457E+02  0.11086968249E+03  0.41800000000E+01 0.  1.
         -5    1    3    3    0  502 -0.60149719879E+02 -0.48143632101E+01 -0.61591136896E+01  0.60799457038E+02  0.41800000000E+01 0.  1.
        -11    1    1    2    0    0  0.52931797850E+02  0.15886721087E+02 -0.22272876705E+02  0.59583925410E+02  0.00000000000E+00 0. -1.
         11    1    1    2    0    0 -0.24293642460E+02  0.51522189764E+02  0.13462192365E+02  0.58531595957E+02  0.00000000000E+00 0.  1.
</event>
<event>
 7    1  0.3001243E-009  0.1335512E+03  0.7561462E-02  0.1222280E+00
          2   -1    0    0  501    0  0.00000000000E+00  0.00000000000E+00  0.24250781699E+03  0.24250781699E+03  0.00000000000E+00 0. -1.
         -2   -1    0    0    0  501 -0.00000000000E+00 -0.00000000000E+00 -0.10776408176E+03  0.10776408176E+03  0.00000000000E+00 0.  1.
         25    2    1    2    0    0 -0.54011925570E+02  0.69049343697E+02 -0.10887311830E+02  0.15314670401E+03  0.12510107682E+03 0.  0.
          5    1    3    3  502    0 -0.21591801874E+02  0.10050332110E+03 -0.24549819017E+02  0.10576998380E+03  0.41800000000E+01 0.  1.
         -5    1    3    3    0  502 -0.32420123696E+02 -0.31453977400E+02  0.13662507187E+02  0.47376720205E+02  0.41800000000E+01 0.  1.
        -11    1    1    2    0    0  0.72273932572E+02 -0.35187747614E+02  0.51581247033E+02  0.95510857796E+02  0.00000000000E+00 0.  1.
         11    1    1    2    0    0 -0.18262007001E+02 -0.33861596084E+02  0.94049800019E+02  0.10161433694E+03  0.00000000000E+00 0. -1.
</event>
<event>
 7    1  0.3001243E-009  0.8027929E+02  0.7561462E-02  0.1328261E+00
          1   -1    0    0  501    0  0.00000000000E+00  0.00000000000E+00  0.35392436692E+03  0.35392436692E+03  0.00000000000E+00 0. -1.
         -1   -1    0    0    0  501 -0.00000000000E+00 -0.00000000000E+00 -0.42519791963E+02  0.42519791963E+02  0.00000000000E+00 0.  1.
         25    2    1    2    0    0  0.30953490827E+02  0.13850289988E+02  0.94426661669E+02  0.16035358781E+03  0.12508768749E+03 0.  0.
          5    1    3    3  502    0  0.29754947067E+02 -0.42846949206E+02  0.26637153720E+01  0.52400245331E+02  0.41800000000E+01 0.  1.
         -5    1    3    3    0  502  0.11985437607E+01  0.56697239194E+02  0.91762946297E+02  0.10795334248E+03  0.41800000000E+01 0.  1.
        -11    1    1    2    0    0 -0.36722590405E+02 -0.39753977347E+00  0.21832399213E+03  0.22139121984E+03  0.00000000000E+00 0. -1.
         11    1    1    2    0    0  0.57690995773E+01 -0.13452750215E+02 -0.13460788430E+01  0.14699351228E+02  0.00000000000E+00 0.  1.
</event>
<event>
 7    1  0.3017884E-009  0.6801506E+02  0.7561462E-02  0.1366976E+00
         -2   -1    0    0    0  501 -0.00000000000E+00  0.00000000000E+00  0.11872715481E+02  0.11872715481E+02  0.00000000000E+00 0.  1.
          2   -1    0    0  501    0  0.00000000000E+00 -0.00000000000E+00 -0.14870241155E+04  0.14870241155E+04  0.00000000000E+00 0. -1.
         25    2    1    2    0    0  0.57433114103E+01 -0.85265882266E+01 -0.12434944788E+04  0.12498130007E+04  0.12509328352E+03 0.  0.
          5    1    3    3  502    0 -0.45481206000E+01 -0.25885410883E+02 -0.54602828354E+02  0.60742745755E+02  0.41800000000E+01 0.  1.
         -5    1    3    3    0  502  0.10291432010E+02  0.17358822656E+02 -0.11888916504E+04  0.11890702549E+04  0.41800000000E+01 0.  1.
        -11    1    1    2    0    0  0.13146522361E+01  0.48348675049E+02 -0.95528574798E+02  0.10707488638E+03  0.00000000000E+00 0. -1.
         11    1    1    2    0    0 -0.70579636464E+01 -0.39822086822E+02 -0.13612834642E+03  0.14200894390E+03  0.00000000000E+00 0.  1.
</event>
<event>
 7    1  0.3001243E-009  0.9328273E+02  0.7561462E-02  0.1295091E+00
          3   -1    0    0  501    0  0.00000000000E+00  0.00000000000E+00  0.24930364992E+03  0.24930364992E+03  0.00000000000E+00 0. -1.
         -3   -1    0    0    0  501 -0.00000000000E+00 -0.00000000000E+00 -0.58970221819E+02  0.58970221819E+02  0.00000000000E+00 0.  1.
         25    2    1    2    0    0 -0.17148188345E+02 -0.32414716854E+02  0.31329655158E+02  0.13406718369E+03  0.12509071996E+03 0.  0.
          5    1    3    3  502    0 -0.94083567731E+01 -0.79722495083E+02  0.85780492319E+01  0.80840885250E+02  0.41800000000E+01 0. -1.
         -5    1    3    3    0  502 -0.77398315716E+01  0.47307778230E+02  0.22751605926E+02  0.53226298444E+02  0.41800000000E+01 0. -1.
        -11    1    1    2    0    0  0.11593125597E+02 -0.99849445772E+01  0.80013595352E+01  0.17266193377E+02  0.00000000000E+00 0.  1.
         11    1    1    2    0    0  0.55550627475E+01  0.42399661431E+02  0.15100241341E+03  0.15694049467E+03  0.00000000000E+00 0. -1.
</event>
<event>
 7    1  0.3001243E-009  0.1220840E+03  0.7561462E-02  0.1239698E+00
          1   -1    0    0  501    0  0.00000000000E+00  0.00000000000E+00  0.64593698167E+02  0.64593698167E+02  0.00000000000E+00 0. -1.
         -1   -1    0    0    0  501 -0.00000000000E+00 -0.00000000000E+00 -0.44734493408E+03  0.44734493408E+03  0.00000000000E+00 0.  1.
         25    2    1    2    0    0  0.40022039045E+02 -0.66713323750E+02 -0.36149448539E+03  0.39035640869E+03  0.12508969447E+03 0.  0.
          5    1    3    3  502    0  0.70303416976E+02 -0.68709447929E+02 -0.16994585526E+03  0.19637368661E+03  0.41800000000E+01 0.  1.
         -5    1    3    3    0  502 -0.30281377931E+02  0.19961241787E+01 -0.19154863013E+03  0.19398272208E+03  0.41800000000E+01 0.  1.
        -11    1    1    2    0    0 -0.62719180432E+02  0.24734641937E+02 -0.28715936577E+02  0.73280987434E+02  0.00000000000E+00 0.  1.
         11    1    1    2    0    0  0.22697141387E+02  0.41978681813E+02  0.74591860574E+01  0.48301236118E+02  0.00000000000E+00 0. -1.
</event>
<event>
 7    1  0.3001243E-009  0.1007658E+03  0.7561462E-02  0.1278694E+00
         -1   -1    0    0    0  501 -0.00000000000E+00  0.00000000000E+00  0.18400409899E+02  0.18400409899E+02  0.00000000000E+00 0.  1.
          1   -1    0    0  501    0  0.00000000000E+00 -0.00000000000E+00 -0.10223557912E+04  0.10223557912E+04  0.00000000000E+00 0. -1.
         25    2    1    2    0    0 -0.11509623477E+02  0.26332976956E+02 -0.84538161068E+03  0.85506817536E+03  0.12508245172E+03 0.  0.
          5    1    3    3  502    0 -0.41870626212E+02 -0.24325442702E+02 -0.16219797939E+03  0.16932375326E+03  0.41800000000E+01 0.  1.
         -5    1    3    3    0  502  0.30361002736E+02  0.50658419658E+02 -0.68318363129E+03  0.68574442210E+03  0.41800000000E+01 0.  1.
        -11    1    1    2    0    0  0.30335510304E+02 -0.53005842447E+02 -0.80357085956E+02  0.10093128248E+03  0.00000000000E+00 0.  1.
         11    1    1    2    0    0 -0.18825886827E+02  0.26672865491E+02 -0.78216684650E+02  0.84756743248E+02  0.00000000000E+00 0. -1.
</event>
<event>
 7    1  0.3001243E-009  0.9491496E+02  0.7561462E-02  0.1291368E+00
         -1   -1    0    0    0  501 -0.00000000000E+00  0.00000000000E+00  0.55016035723E+03  0.55016035723E+03  0.00000000000E+00 0.  1.
          1   -1    0    0  501    0  0.00000000000E+00 -0.00000000000E+00 -0.27036387249E+02  0.27036387249E+02  0.00000000000E+00 0. -1.
         25    2    1    2    0    0  0.37903841954E+02  0.10528986366E+02  0.21746820103E+03  0.25394430328E+03  0.12509088663E+03 0.  0.
          5    1    3    3  502    0  0.53865207317E+02  0.40694703986E+02  0.20734994124E+03  0.21810316372E+03  0.41800000000E+01 0. -1.
         -5    1    3    3    0  502 -0.15961365363E+02 -0.30165717620E+02  0.10118259792E+02  0.35841139560E+02  0.41800000000E+01 0. -1.
        -11    1    1    2    0    0 -0.45353999257E+02  0.24807104427E+02  0.25975180539E+03  0.26484595160E+03  0.00000000000E+00 0.  1.
         11    1    1    2    0    0  0.74501573024E+01 -0.35336090793E+02  0.45903963558E+02  0.58406489594E+02  0.00000000000E+00 0. -1.
</event>
<event>
 7    1  0.3001243E-009  0.2674511E+03  0.7561462E-02  0.1102747E+00
          2   -1    0    0  501    0  0.00000000000E+00  0.00000000000E+00  0.19751473713E+04  0.19751473713E+04  0.00000000000E+00 0. -1.
         -2   -1    0    0    0  501 -0.00000000000E+00 -0.00000000000E+00 -0.38284031962E+02  0.38284031962E+02  0.00000000000E+00 0.  1.
         25    2    1    2    0    0  0.15637677180E+03  0.19541970489E+03  0.11166834289E+04  0.11512048862E+04  0.12509298075E+03 0.  0.
          5    1    3    3  502    0  0.11161623407E+03  0.19931144913E+03  0.82502458579E+03  0.85607609301E+03  0.41800000000E+01 0. -1.
         -5    1    3    3    0  502  0.44760537727E+02 -0.38917442464E+01  0.29165884308E+03  0.29512879317E+03  0.41800000000E+01 0. -1.
        -11    1    1    2    0    0 -0.10710313303E+03 -0.73759354944E+02  0.48863691881E+03  0.50564568817E+03  0.00000000000E+00 0. -1.
         11    1    1    2    0    0 -0.49273638769E+02 -0.12166034994E+03  0.33154299162E+03  0.35658082887E+03  0.00000000000E+00 0.  1.
</event>
<event>
 7    1  0.3001243E-009  0.1181945E+03  0.7561462E-02  0.1246106E+00
         -2   -1    0    0    0  501 -0.00000000000E+00  0.00000000000E+00  0.33226587434E+02  0.33226587434E+02  0.00000000000E+00 0.  1.
          2   -1    0    0  501    0  0.00000000000E+00 -0.00000000000E+00 -0.59006098109E+03  0.59006098109E+03  0.00000000000E+00 0. -1.
         25    2    1    2    0    0 -0.86665477418E+01 -0.85927237987E+02 -0.29804710996E+03  0.33457102831E+03  0.12508834459E+03 0.  0.
          5    1    3    3  502    0  0.31137988232E+02  0.10893405272E+02 -0.14721319915E+03  0.15092196325E+03  0.41800000000E+01 0. -1.
         -5    1    3    3    0  502 -0.39804535974E+02 -0.96820643259E+02 -0.15083391081E+03  0.18364906505E+03  0.41800000000E+01 0. -1.
        -11    1    1    2    0    0 -0.19056375171E+02  0.45710115651E+02 -0.37545836605E+02  0.62147002775E+02  0.00000000000E+00 0.  1.
         11    1    1    2    0    0  0.27722922913E+02  0.40217122336E+02 -0.22124144709E+03  0.22656953744E+03  0.00000000000E+00 0. -1.
</event>
<event>
 7    1  0.3001243E-009  0.3211015E+03  0.7561462E-02  0.1075143E+00
          1   -1    0    0  501    0  0.00000000000E+00  0.00000000000E+00  0.98328302661E+03  0.98328302661E+03  0.00000000000E+00 0. -1.
         -1   -1    0    0    0  501 -0.00000000000E+00 -0.00000000000E+00 -0.10669957800E+03  0.10669957800E+03  0.00000000000E+00 0.  1.
         25    2    1    2    0    0 -0.93019615250E+02 -0.28843970408E+03  0.48716635641E+03  0.58722101837E+03  0.12508938360E+03 0.  0.
          5    1    3    3  502    0  0.27439340611E+02 -0.61195611454E+02  0.13845684401E+03  0.15390123563E+03  0.41800000000E+01 0.  1.
         -5    1    3    3    0  502 -0.12045895586E+03 -0.22724409263E+03  0.34870951240E+03  0.43331978275E+03  0.41800000000E+01 0.  1.
        -11    1    1    2    0    0 -0.14770874507E+02  0.96643278098E+02  0.11121920303E+03  0.14808042766E+03  0.00000000000E+00 0.  1.
         11    1    1    2    0    0  0.10779048976E+03  0.19179642598E+03  0.27819788918E+03  0.35468115857E+03  0.00000000000E+00 0. -1.
</event>
<event>
 7    1  0.3001243E-009  0.9510978E+02  0.7561462E-02  0.1290929E+00
          1   -1    0    0  501    0  0.00000000000E+00  0.00000000000E+00  0.11231294308E+03  0.11231294308E+03  0.00000000000E+00 0. -1.
         -1   -1    0    0    0  501 -0.00000000000E+00 -0.00000000000E+00 -0.13084356876E+03  0.13084356876E+03  0.00000000000E+00 0.  1.
         25    2    1    2    0    0  0.16228989855E+02  0.17255138123E+02 -0.67425899650E+02  0.14406576737E+03  0.12509026134E+03 0.  0.
          5    1    3    3  502    0  0.38104932425E+02  0.59300700233E+02 -0.13042202577E+02  0.71806200089E+02  0.41800000000E+01 0. -1.
         -5    1    3    3    0  502 -0.21875942569E+02 -0.42045562109E+02 -0.54383697074E+02  0.72259567282E+02  0.41800000000E+01 0. -1.
        -11    1    1    2    0    0  0.12270833962E+02  0.21000697818E+02 -0.72834760942E+01  0.25389992103E+02  0.00000000000E+00 0.  1.
         11    1    1    2    0    0 -0.28499823817E+02 -0.38255835942E+02  0.56178750065E+02  0.73700752371E+02  0.00000000000E+00 0. -1.
</event>
<event>
 7    1  0.3001243E-009  0.2319555E+03  0.7561462E-02  0.1125271E+00
          1   -1    0    0  501    0  0.00000000000E+00  0.00000000000E+00  0.10476432629E+04  0.10476432629E+04  0.00000000000E+00 0. -1.
         -1   -1    0    0    0  501 -0.00000000000E+00 -0.00000000000E+00 -0.52489630851E+02  0.52489630851E+02  0.00000000000E+00 0.  1.
         25    2    1    2    0    0  0.37865561406E+02  0.20353407667E+03  0.44913991042E+03  0.51013202306E+03  0.12509236874E+03 0.  0.
          5    1    3    3  502    0 -0.37025715110E+02  0.13147832370E+03  0.28005149226E+03  0.31161476842E+03  0.41800000000E+01 0.  1.
         -5    1    3    3    0  502  0.74891276516E+02  0.72055752973E+02  0.16908841816E+03  0.19851725464E+03  0.41800000000E+01 0.  1.
        -11    1    1    2    0    0 -0.24970216917E+01 -0.18161953128E+03  0.43197440661E+03  0.46860834097E+03  0.00000000000E+00 0.  1.
         11    1    1    2    0    0 -0.35368539714E+02 -0.21914545386E+02  0.11403931503E+03  0.12139252972E+03  0.00000000000E+00 0. -1.
</event>
<event>
 7    1  0.3001243E-009  0.1205999E+03  0.7561462E-02  0.1242111E+00
          1   -1    0    0  501    0  0.00000000000E+00  0.00000000000E+00  0.12357214899E+03  0.12357214899E+03  0.00000000000E+00 0. -1.
         -1   -1    0    0    0  501 -0.00000000000E+00 -0.00000000000E+00 -0.18631907299E+03  0.18631907299E+03  0.00000000000E+00 0.  1.
         25    2    1    2    0    0  0.55988871752E+02  0.65437837663E+02  0.30037126558E+02  0.15480864836E+03  0.12508646721E+03 0.  0.
          5    1    3    3  502    0  0.37411337472E+02  0.10275537506E+03  0.15844300747E+02  0.11057481423E+03  0.41800000000E+01 0.  1.
         -5    1    3    3    0  502  0.18577534280E+02 -0.37317537400E+02  0.14192825811E+02  0.44233834133E+02  0.41800000000E+01 0.  1.
        -11    1    1    2    0    0 -0.18486799586E+02 -0.57150304822E+01  0.16224303321E+02  0.25251759357E+02  0.00000000000E+00 0. -1.
         11    1    1    2    0    0 -0.37502072166E+02 -0.59722807181E+02 -0.10900835388E+03  0.12983081426E+03  0.00000000000E+00 0.  1.
</event>
<event>
 7    1  0.3001243E-009  0.9495367E+02  0.7561462E-02  0.1291280E+00
          2   -1    0    0  501    0  0.00000000000E+00  0.00000000000E+00  0.37166827037E+03  0.37166827037E+03  0.00000000000E+00 0. -1.
         -2   -1    0    0    0  501 -0.00000000000E+00 -0.00000000000E+00 -0.41380030640E+02  0.41380030640E+02  0.00000000000E+00 0.  1.
         25    2    1    2    0    0 -0.27700934334E+02  0.40959133696E+02  0.24397367538E+03  0.27859609283E+03  0.12509051229E+03 0.  0.
          5    1    3    3  502    0 -0.17598167189E+02  0.61564253061E+02  0.45270891734E+02  0.78528840446E+02  0.41800000000E+01 0. -1.
         -5    1    3    3    0  502 -0.10102767145E+02 -0.20605119365E+02  0.19870278364E+03  0.20006725238E+03  0.41800000000E+01 0. -1.
        -11    1    1    2    0    0  0.72336528899E+01 -0.68065703989E+02  0.64729015398E+02  0.94207808743E+02  0.00000000000E+00 0. -1.
         11    1    1    2    0    0  0.20467281444E+02  0.27106570293E+02  0.21585548960E+02  0.40244399445E+02  0.00000000000E+00 0.  1.
</event>
<event>
 7    1  0.3001243E-009  0.1354206E+03  0.7561462E-02  0.1219627E+00
         -1   -1    0    0    0  501 -0.00000000000E+00  0.00000000000E+00  0.11608703227E+03  0.11608703227E+03  0.00000000000E+00 0.  1.
          1   -1    0    0  501    0  0.00000000000E+00 -0.00000000000E+00 -0.19916778269E+03  0.19916778269E+03  0.00000000000E+00 0. -1.
         25    2    1    2    0    0  0.10326763052E+03 -0.29175476581E+02 -0.27073179038E+02  0.16701881803E+03  0.12508763571E+03 0.  0.
          5    1    3    3  502    0  0.49532851976E+02  0.26442465966E+02 -0.60516259589E+02  0.82658317826E+02  0.41800000000E+01 0. -1.
         -5    1    3    3    0  502  0.53734778539E+02 -0.55617942547E+02  0.33443080552E+02  0.84360500204E+02  0.41800000000E+01 0. -1.
        -11    1    1    2    0    0 -0.98648960669E+02 -0.86079120963E+01 -0.43630213876E+02  0.10820956129E+03  0.00000000000E+00 0.  1.
         11    1    1    2    0    0 -0.46186698457E+01  0.37783388678E+02 -0.12377357500E+02  0.40026435637E+02  0.00000000000E+00 0. -1.
</event>
<event>
 7    1  0.3001243E-009  0.1586861E+03  0.7561462E-02  0.1190188E+00
         -1   -1    0    0    0  501 -0.00000000000E+00  0.00000000000E+00  0.59161536137E+02  0.59161536137E+02  0.00000000000E+00 0.  1.
          1   -1    0    0  501    0  0.00000000000E+00 -0.00000000000E+00 -0.73050122124E+03  0.73050122124E+03  0.00000000000E+00 0. -1.
         25    2    1    2    0    0 -0.99541049644E+02 -0.78469798348E+02 -0.58042755945E+03  0.60713220117E+03  0.12508968029E+03 0.  0.
          5    1    3    3  502    0 -0.12594695627E+03 -0.82870382648E+02 -0.48226943849E+03  0.50530329488E+03  0.41800000000E+01 0. -1.
         -5    1    3    3    0  502  0.26405906623E+02  0.44005843008E+01 -0.98158120954E+02  0.10182890629E+03  0.41800000000E+01 0. -1.
        -11    1    1    2    0    0 -0.72845257205E+01  0.10705571234E+02  0.13348886715E+02  0.18597482275E+02  0.00000000000E+00 0.  1.
         11    1    1    2    0    0  0.10682557536E+03  0.67764227113E+02 -0.10426101237E+03  0.16393307393E+03  0.00000000000E+00 0. -1.
</event>
<event>
 7    1  0.3001243E-009  0.1486445E+03  0.7561462E-02  0.1202149E+00
         -3   -1    0    0    0  501 -0.00000000000E+00  0.00000000000E+00  0.33045361147E+02  0.33045361147E+02  0.00000000000E+00 0.  1.
          3   -1    0    0  501    0  0.00000000000E+00 -0.00000000000E+00 -0.74365174790E+03  0.74365174790E+03  0.00000000000E+00 0. -1.
         25    2    1    2    0    0  0.99508390422E+02  0.27111063737E+02 -0.49675691296E+03  0.52254644438E+03  0.12510166437E+03 0.  0.
          5    1    3    3  502    0  0.99209312744E+02 -0.30339003980E+02 -0.29560377989E+03  0.31330817095E+03  0.41800000000E+01 0.  1.
         -5    1    3    3    0  502  0.29907767779E+00  0.57450067717E+02 -0.20115313306E+03  0.20923827343E+03  0.41800000000E+01 0.  1.
        -11    1    1    2    0    0  0.60553565033E+01 -0.29651192211E+02 -0.33360519771E+02  0.45042033938E+02  0.00000000000E+00 0.  1.
         11    1    1    2    0    0 -0.10556374693E+03  0.25401284744E+01 -0.18048895403E+03  0.20910863072E+03  0.00000000000E+00 0. -1.
</event>
<event>
 7    1  0.3001243E-009  0.1114484E+03  0.7561462E-02  0.1257911E+00
          1   -1    0    0  501    0  0.00000000000E+00  0.00000000000E+00  0.38506645518E+03  0.38506645518E+03  0.00000000000E+00 0. -1.
         -1   -1    0    0    0  501 -0.00000000000E+00 -0.00000000000E+00 -0.33503444767E+02  0.33503444767E+02  0.00000000000E+00 0.  1.
         25    2    1    2    0    0  0.26640802381E+02 -0.67438322312E+01  0.23638769910E+03  0.26885415125E+03  0.12509276054E+03 0.  0.
          5    1    3    3  502    0 -0.31749710591E+02  0.40773743675E+02  0.11163551426E+03  0.12308737848E+03  0.41800000000E+01 0.  1.
         -5    1    3    3    0  502  0.58390512972E+02 -0.47517575906E+02  0.12475218483E+03  0.14576677278E+03  0.41800000000E+01 0.  1.
        -11    1    1    2    0    0  0.30046403413E+02  0.21655494504E+02  0.44583808355E+02  0.57960872731E+02  0.00000000000E+00 0. -1.
         11    1    1    2    0    0 -0.56687205794E+02 -0.14911662273E+02  0.70591502964E+02  0.91754875964E+02  0.00000000000E+00 0.  1.
</event>
<event>
 7    1  0.3001243E-009  0.4149999E+03  0.7561462E-02  0.1038706E+00
         -1   -1    0    0    0  501 -0.00000000000E+00  0.00000000000E+00  0.17595851303E+03  0.17595851303E+03  0.00000000000E+00 0.  1.
          1   -1    0    0  501    0  0.00000000000E+00 -0.00000000000E+00 -0.10242236642E+04  0.10242236642E+04  0.00000000000E+00 0. -1.
         25    2    1    2    0    0  0.30735393772E+03 -0.27141868524E+03 -0.41671211439E+03  0.59785536674E+03  0.12508999773E+03 0.  0.
          5    1    3    3  502    0  0.28029400478E+02 -0.33290772123E+02 -0.16361423384E+01  0.43750110416E+02  0.41800000000E+01 0. -1.
         -5    1    3    3    0  502  0.27932453724E+03 -0.23812791311E+03 -0.41507597205E+03  0.55410525632E+03  0.41800000000E+01 0. -1.
        -11    1    1    2    0    0 -0.16919255426E+03  0.20530898707E+03 -0.29345963307E+03  0.39610157388E+03  0.00000000000E+00 0.  1.
         11    1    1    2    0    0 -0.13816138346E+03  0.66109698165E+02 -0.13809340374E+03  0.20622523664E+03  0.00000000000E+00 0. -1.
</event>
<event>
 7    1  0.3001243E-009  0.1952665E+03  0.7561462E-02  0.1153795E+00
          3   -1    0    0  501    0  0.00000000000E+00  0.00000000000E+00  0.18441765484E+03  0.18441765484E+03  0.00000000000E+00 0. -1.
         -3   -1    0    0    0  501 -0.00000000000E+00 -0.00000000000E+00 -0.21750759035E+03  0.21750759035E+03  0.00000000000E+00 0.  1.
         25    2    1    2    0    0  0.15830817891E+03  0.54203698140E+02 -0.11037043155E+02  0.20921137318E+03  0.12509221377E+03 0.  0.
          5    1    3    3  502    0  0.93096322284E+02 -0.33043385857E+02 -0.15664269591E+02  0.10010810314E+03  0.41800000000E+01 0. -1.
         -5    1    3    3    0  502  0.65211856624E+02  0.87247083997E+02  0.46272264357E+01  0.10910327005E+03  0.41800000000E+01 0. -1.
        -11    1    1    2    0    0 -0.11470538159E+03 -0.72140570437E+02  0.97296985171E+01  0.13585379458E+03  0.00000000000E+00 0.  1.
         11    1    1    2    0    0 -0.43602797318E+02  0.17936872297E+02 -0.31782590874E+02  0.56860077422E+02  0.00000000000E+00 0. -1.
</event>
<event>
 7    1  0.3001243E-009  0.6717168E+02  0.7561462E-02  0.1369984E+00
          1   -1    0    0  501    0  0.00000000000E+00  0.00000000000E+00  0.84149289180E+02  0.84149289180E+02  0.00000000000E+00 0. -1.
         -1   -1    0    0    0  501 -0.00000000000E+00 -0.00000000000E+00 -0.17068837353E+03  0.17068837353E+03  0.00000000000E+00 0.  1.
         25    2    1    2    0    0  0.36069338588E+02 -0.11322547718E+02 -0.16172802313E+02  0.13167804774E+03  0.12509337092E+03 0.  0.
          5    1    3    3  502    0 -0.14080696074E+02  0.55642075641E+01 -0.60510188389E+02  0.62515451743E+02  0.41800000000E+01 0.  1.
         -5    1    3    3    0  502  0.50150034661E+02 -0.16886755282E+02  0.44337386077E+02  0.69162595994E+02  0.41800000000E+01 0.  1.
        -11    1    1    2    0    0  0.11446284859E+02  0.13855480075E+02 -0.73314627173E+02  0.75485272224E+02  0.00000000000E+00 0.  1.
         11    1    1    2    0    0 -0.47515623447E+02 -0.25329323571E+01  0.29483451320E+01  0.47674342753E+02  0.00000000000E+00 0. -1.
</event>
<event>
 7    1  0.3228408E-009  0.1347320E+03  0.7561462E-02  0.1220599E+00
          1   -1    0    0  501    0  0.00000000000E+00  0.00000000000E+00  0.59713134406E+03  0.59713134406E+03  0.00000000000E+00 0. -1.
         -1   -1    0    0    0  501 -0.00000000000E+00 -0.00000000000E+00 -0.34941436168E+02  0.34941436168E+02  0.00000000000E+00 0.  1.
         25    2    1    2    0    0 -0.83116890514E+02  0.75346253811E+01  0.40567480740E+03  0.43264928743E+03  0.12509263964E+03 0.  0.
          5    1    3    3  502    0 -0.95954823091E+02 -0.37106782415E+02  0.29875105413E+03  0.31599668688E+03  0.41800000000E+01 0.  1.
         -5    1    3    3    0  502  0.12837932577E+02  0.44641407796E+02  0.10692375327E+03  0.11665260055E+03  0.41800000000E+01 0.  1.
        -11    1    1    2    0    0  0.21728471917E+02  0.37763897623E+02  0.81580228986E+02  0.92485524364E+02  0.00000000000E+00 0. -1.
         11    1    1    2    0    0  0.61388418597E+02 -0.45298523004E+02  0.74934871512E+02  0.10693796843E+03  0.00000000000E+00 0.  1.
</event>
<event>
 7    1  0.3001243E-009  0.1234546E+03  0.7561462E-02  0.1237504E+00
         -2   -1    0    0    0  501 -0.00000000000E+00  0.00000000000E+00  0.15494655392E+03  0.15494655392E+03  0.00000000000E+00 0.  1.
          2   -1    0    0  501    0  0.00000000000E+00 -0.00000000000E+00 -0.13075802437E+03  0.13075802437E+03  0.00000000000E+00 0. -1.
         25    2    1    2    0    0  0.11310726307E+02  0.71862481537E+02 -0.43846362973E+02  0.15120121343E+03  0.12508858707E+03 0.  0.
          5    1    3    3  502    0  0.13645169103E+02  0.10084901418E+03 -0.59451169766E+02  0.11793484764E+03  0.41800000000E+01 0.  1.
         -5    1    3    3    0  502 -0.23344427954E+01 -0.28986532644E+02  0.15604806794E+02  0.33266365791E+02  0.41800000000E+01 0.  1.
        -11    1    1    2    0    0 -0.49812630066E+02 -0.27366963793E+02  0.28201358744E+02  0.63447343966E+02  0.00000000000E+00 0.  1.
         11    1    1    2    0    0  0.38501903759E+02 -0.44495517743E+02  0.39833533778E+02  0.71056020896E+02  0.00000000000E+00 0. -1.
</event>
<event>
 7    1  0.3602505E-009  0.1073995E+03  0.7561462E-02  0.1265463E+00
          2   -1    0    0  501    0  0.00000000000E+00  0.00000000000E+00  0.32594346893E+03  0.32594346893E+03  0.00000000000E+00 0. -1.
         -2   -1    0    0    0  501 -0.00000000000E+00 -0.00000000000E+00 -0.56267898588E+02  0.56267898588E+02  0.00000000000E+00 0.  1.
         25    2    1    2    0    0  0.49891063648E+01  0.75571450188E+02  0.18671231024E+03  0.23715846544E+03  0.12508683251E+03 0.  0.
          5    1    3    3  502    0 -0.10327192664E+02  0.92717025348E+02  0.19172622738E+03  0.21325927029E+03  0.41800000000E+01 0. -1.
         -5    1    3    3    0  502  0.15316299029E+02 -0.17145575160E+02 -0.50139171434E+01  0.23899195146E+02  0.41800000000E+01 0. -1.
        -11    1    1    2    0    0 -0.33213687219E+02 -0.49591232217E+02  0.71838562337E+01  0.60116945381E+02  0.00000000000E+00 0.  1.
         11    1    1    2    0    0  0.28224580854E+02 -0.25980217970E+02  0.75779403873E+02  0.84935956706E+02  0.00000000000E+00 0. -1.
</event>
<event>
 7    1  0.3001243E-009  0.1056839E+03  0.7561462E-02  0.1268778E+00
         -2   -1    0    0    0  501 -0.00000000000E+00  0.00000000000E+00  0.15326744388E+03  0.15326744388E+03  0.00000000000E+00 0.  1.
          2   -1    0    0  501    0  0.00000000000E+00 -0.00000000000E+00 -0.10214291254E+03  0.10214291254E+03  0.00000000000E+00 0. -1.
         25    2    1    2    0    0 -0.88135878697E+01 -0.16779408000E+02  0.88406835379E+02  0.15434302237E+03  0.12508705828E+03 0.  0.
          5    1    3    3  502    0 -0.22042089978E+02  0.51535848574E+02  0.46958194135E+02  0.73241667207E+02  0.41800000000E+01 0.  1.
         -5    1    3    3    0  502  0.13228502108E+02 -0.68315256574E+02  0.41448641244E+02  0.81101355166E+02  0.41800000000E+01 0.  1.
        -11    1    1    2    0    0  0.29328977534E+02  0.43066995641E+02 -0.42596688276E+02  0.67301061572E+02  0.00000000000E+00 0. -1.
         11    1    1    2    0    0 -0.20515389664E+02 -0.26287587641E+02  0.53143842346E+01  0.33766272475E+02  0.00000000000E+00 0.  1.
</event>
<event>
 7    1  0.3001243E-009  0.1046158E+03  0.7561462E-02  0.1270878E+00
          1   -1    0    0  501    0  0.00000000000E+00  0.00000000000E+00  0.83763605435E+02  0.83763605435E+02  0.00000000000E+00 0. -1.
         -1   -1    0    0    0  501 -0.00000000000E+00 -0.00000000000E+00 -0.15528761079E+03  0.15528761079E+03  0.00000000000E+00 0.  1.
         25    2    1    2    0    0 -0.14379414620E+02  0.26463284640E+02 -0.38305150725E+02  0.13424780542E+03  0.12509242859E+03 0.  0.
          5    1    3    3  502    0 -0.65399219797E+02  0.30579549449E+01 -0.41904514575E+02  0.77845165427E+02  0.41800000000E+01 0. -1.
         -5    1    3    3    0  502  0.51019805177E+02  0.23405329696E+02  0.35993638495E+01  0.56402639997E+02  0.41800000000E+01 0. -1.
        -11    1    1    2    0    0  0.47009381736E+02 -0.27923554148E+02  0.45545677002E+01  0.54866665057E+02  0.00000000000E+00 0. -1.
         11    1    1    2    0    0 -0.32629967116E+02  0.14602695080E+01 -0.37773422329E+02  0.49936745744E+02  0.00000000000E+00 0.  1.
</event>
<event>
 7    1  0.3001243E-009  0.1075648E+03  0.7561462E-02  0.1265147E+00
         -2   -1    0    0    0  501 -0.00000000000E+00  0.00000000000E+00  0.30363287478E+02  0.30363287478E+02  0.00000000000E+00 0.  1.
          2   -1    0    0  501    0  0.00000000000E+00 -0.00000000000E+00 -0.48842300971E+03  0.48842300971E+03  0.00000000000E+00 0. -1.
         25    2    1    2    0    0  0.35122696911E+02 -0.41341347679E+02 -0.24231544377E+03  0.27804133536E+03  0.12508996368E+03 0.  0.
          5    1    3    3  502    0  0.45199466207E+02 -0.78642385915E+02 -0.20478950377E+03  0.22401747669E+03  0.41800000000E+01 0. -1.
         -5    1    3    3    0  502 -0.10076769296E+02  0.37301038236E+02 -0.37525940000E+02  0.54023858672E+02  0.41800000000E+01 0. -1.
        -11    1    1    2    0    0  0.71225566788E+01  0.42608057459E+02 -0.36406612869E+02  0.56494414190E+02  0.00000000000E+00 0.  1.
         11    1    1    2    0    0 -0.42245253590E+02 -0.12667097801E+01 -0.17933766559E+03  0.18425054764E+03  0.00000000000E+00 0. -1.
</event>
<event>
 7    1  0.3001243E-009  0.1319978E+03  0.7561462E-02  0.1224521E+00
         -2   -1    0    0    0  501 -0.00000000000E+00  0.00000000000E+00  0.97658526281E+03  0.97658526281E+03  0.00000000000E+00 0.  1.
          2   -1    0    0  501    0  0.00000000000E+00 -0.00000000000E+00 -0.24804659763E+02  0.24804659763E+02  0.00000000000E+00 0. -1.
         25    2    1    2    0    0  0.89741969970E+02 -0.54818854912E+02  0.60944907794E+03  0.63097778804E+03  0.12508422108E+03 0.  0.
          5    1    3    3  502    0  0.69383355946E+02  0.16300061469E+01  0.51025079229E+03  0.51496606726E+03  0.41800000000E+01 0. -1.
         -5    1    3    3    0  502  0.20358614024E+02 -0.56448861059E+02  0.99198285652E+02  0.11601172077E+03  0.41800000000E+01 0. -1.
        -11    1    1    2    0    0 -0.33940307884E+02 -0.21196733707E+02  0.55099367506E+02  0.68096889200E+02  0.00000000000E+00 0. -1.
         11    1    1    2    0    0 -0.55801662086E+02  0.76015588620E+02  0.28723215760E+03  0.30231524534E+03  0.00000000000E+00 0.  1.
</event>
<event>
 7    1  0.3001243E-009  0.1627953E+03  0.7561462E-02  0.1185577E+00
         -2   -1    0    0    0  501 -0.00000000000E+00  0.00000000000E+00  0.10188477240E+03  0.10188477240E+03  0.00000000000E+00 0. -1.
          2   -1    0    0  501    0  0.00000000000E+00 -0.00000000000E+00 -0.41401718720E+03  0.41401718720E+03  0.00000000000E+00 0.  1.
         25    2    1    2    0    0  0.21504581034E+02  0.12581204850E+03 -0.14668794553E+02  0.17934571703E+03  0.12513430438E+03 0.  0.
          5    1    3    3  502    0  0.30924042236E+02  0.14948300136E+03 -0.15685037043E+02  0.15350881692E+03  0.41800000000E+01 0. -1.
         -5    1    3    3    0  502 -0.94194612022E+01 -0.23670952863E+02  0.10162424899E+01  0.25836900116E+02  0.41800000000E+01 0. -1.
        -11    1    1    2    0    0 -0.31166638578E+02 -0.12879310453E+02 -0.26657783234E+02  0.42986898062E+02  0.00000000000E+00 0.  1.
         11    1    1    2    0    0  0.96620575440E+01 -0.11293273804E+03 -0.27080583701E+03  0.29356934451E+03  0.00000000000E+00 0. -1.
</event>
<event>
 7    1  0.3001243E-009  0.1126688E+03  0.7561462E-02  0.1255706E+00
          1   -1    0    0  501    0  0.00000000000E+00  0.00000000000E+00  0.33670045722E+03  0.33670045722E+03  0.00000000000E+00 0. -1.
         -1   -1    0    0    0  501 -0.00000000000E+00 -0.00000000000E+00 -0.11046391632E+03  0.11046391632E+03  0.00000000000E+00 0.  1.
         25    2    1    2    0    0  0.42138633991E+02 -0.52389445239E+02 -0.48280656471E+02  0.14999499964E+03  0.12508860732E+03 0.  0.
          5    1    3    3  502    0 -0.21395627096E+02 -0.67279324411E+02 -0.46386437094E+02  0.84578095854E+02  0.41800000000E+01 0. -1.
         -5    1    3    3    0  502  0.63534261087E+02  0.14889879172E+02 -0.18942193776E+01  0.65416903784E+02  0.41800000000E+01 0. -1.
        -11    1    1    2    0    0  0.13904482390E+02  0.20420471209E+02  0.13210611637E+02  0.28015184003E+02  0.00000000000E+00 0.  1.
         11    1    1    2    0    0 -0.56043116380E+02  0.31968974029E+02  0.26130658573E+03  0.26915418990E+03  0.00000000000E+00 0. -1.
</event>
<event>
 7    1  0.3001243E-009  0.7263261E+02  0.7561462E-02  0.1351363E+00
         -1   -1    0    0    0  501 -0.00000000000E+00  0.00000000000E+00  0.12407365281E+03  0.12407365281E+03  0.00000000000E+00 0.  1.
          1   -1    0    0  501    0  0.00000000000E+00 -0.00000000000E+00 -0.96012876211E+02  0.96012876211E+02  0.00000000000E+00 0. -1.
         25    2    1    2    0    0  0.21889869796E+02  0.22754378281E+01  0.18613798567E+02  0.12837014057E+03  0.12509226785E+03 0.  0.
          5    1    3    3  502    0 -0.25944238704E+02  0.48793140250E+02 -0.87994256161E+01  0.56113958589E+02  0.41800000000E+01 0. -1.
         -5    1    3    3    0  502  0.47834108500E+02 -0.46517702422E+02  0.27413224183E+02  0.72256181982E+02  0.41800000000E+01 0. -1.
        -11    1    1    2    0    0 -0.10139291385E+02  0.22734593811E+01 -0.39670313610E+02  0.41008628717E+02  0.00000000000E+00 0. -1.
         11    1    1    2    0    0 -0.11750578411E+02 -0.45488972092E+01  0.49117291642E+02  0.50707759732E+02  0.00000000000E+00 0.  1.
</event>
<event>
 7    1  0.3001243E-009  0.1007177E+03  0.7561462E-02  0.1278794E+00
         -1   -1    0    0    0  501 -0.00000000000E+00  0.00000000000E+00  0.16453319082E+03  0.16453319082E+03  0.00000000000E+00 0.  1.
          1   -1    0    0  501    0  0.00000000000E+00 -0.00000000000E+00 -0.80201443612E+02  0.80201443612E+02  0.00000000000E+00 0. -1.
         25    2    1    2    0    0  0.18468549449E+02  0.21891742661E+02  0.74307619589E+02  0.14828762452E+03  0.12508901447E+03 0.  0.
          5    1    3    3  502    0 -0.15200668375E+01 -0.48084491923E+02  0.54362814433E+02  0.72713251610E+02  0.41800000000E+01 0.  1.
         -5    1    3    3    0  502  0.19988616287E+02  0.69976234584E+02  0.19944805156E+02  0.75574372908E+02  0.41800000000E+01 0.  1.
        -11    1    1    2    0    0 -0.14112596645E+01  0.27736735067E+02 -0.21594194842E+02  0.35179928608E+02  0.00000000000E+00 0. -1.
         11    1    1    2    0    0 -0.17057289785E+02 -0.49628477728E+02  0.31618322459E+02  0.61267081304E+02  0.00000000000E+00 0.  1.
</event>
<event>
 7    1  0.3001243E-009  0.1348733E+03  0.7561462E-02  0.1220399E+00
         -2   -1    0    0    0  501 -0.00000000000E+00  0.00000000000E+00  0.84109768890E+02  0.84109768890E+02  0.00000000000E+00 0.  1.
          2   -1    0    0  501    0  0.00000000000E+00 -0.00000000000E+00 -0.28044516913E+03  0.28044516913E+03  0.00000000000E+00 0. -1.
         25    2    1    2    0    0  0.97742792813E+02 -0.36586293027E+02 -0.13921971028E+03  0.21429408618E+03  0.12509043632E+03 0.  0.
          5    1    3    3  502    0  0.17988464122E+02 -0.55737049406E+02 -0.11424855116E+03  0.12845391143E+03  0.41800000000E+01 0. -1.
         -5    1    3    3    0  502  0.79754328691E+02  0.19150756379E+02 -0.24971159117E+02  0.85840174758E+02  0.41800000000E+01 0. -1.
        -11    1    1    2    0    0 -0.71219859919E+02  0.60303899124E+02 -0.65113996271E+02  0.11379218430E+03  0.00000000000E+00 0. -1.
         11    1    1    2    0    0 -0.26522932895E+02 -0.23717606097E+02  0.79983063105E+01  0.36468667540E+02  0.00000000000E+00 0.  1.
</event>
<event>
 7    1  0.3001243E-009  0.8641986E+02  0.7561462E-02  0.1311761E+00
         -1   -1    0    0    0  501 -0.00000000000E+00  0.00000000000E+00  0.24590097383E+03  0.24590097383E+03  0.00000000000E+00 0.  1.
          1   -1    0    0  501    0  0.00000000000E+00 -0.00000000000E+00 -0.74496900156E+02  0.74496900156E+02  0.00000000000E+00 0. -1.
         25    2    1    2    0    0 -0.34292850815E+02  0.18997850604E+02  0.96453672620E+01  0.13141157352E+03  0.12505618977E+03 0.  0.
          5    1    3    3  502    0 -0.66321459221E+02  0.26654223264E+02 -0.31772868269E+02  0.78332439826E+02  0.41800000000E+01 0.  1.
         -5    1    3    3    0  502  0.32028608406E+02 -0.76563726603E+01  0.41418235531E+02  0.53079133690E+02  0.41800000000E+01 0.  1.
        -11    1    1    2    0    0 -0.26200734191E+01 -0.29540332209E+02  0.14339802023E+03  0.14643253811E+03  0.00000000000E+00 0.  1.
         11    1    1    2    0    0  0.36912924234E+02  0.10542481605E+02  0.18360686183E+02  0.42553762360E+02  0.00000000000E+00 0. -1.
</event>
<event>
 7    1  0.3001243E-009  0.1271582E+03  0.7561462E-02  0.1231734E+00
          1   -1    0    0  501    0  0.00000000000E+00  0.00000000000E+00  0.15675220209E+03  0.15675220209E+03  0.00000000000E+00 0. -1.
         -1   -1    0    0    0  501 -0.00000000000E+00 -0.00000000000E+00 -0.12008785941E+03  0.12008785941E+03  0.00000000000E+00 0.  1.
         25    2    1    2    0    0 -0.52613676492E+02 -0.66791134301E+02  0.59333283323E+02  0.16247117860E+03  0.12508873167E+03 0.  0.
          5    1    3    3  502    0  0.27106707648E+02 -0.56824596964E+02  0.10118169428E+01  0.63105503668E+02  0.41800000000E+01 0. -1.
         -5    1    3    3    0  502 -0.79720384140E+02 -0.99665373373E+01  0.58321466380E+02  0.99365674932E+02  0.41800000000E+01 0. -1.
        -11    1    1    2    0    0  0.67364724963E+02  0.35433245945E+02 -0.23638035925E+02  0.79701178347E+02  0.00000000000E+00 0. -1.
         11    1    1    2    0    0 -0.14751048471E+02  0.31357888355E+02  0.96909528371E+00  0.34667704550E+02  0.00000000000E+00 0.  1.
</event>
<event>
 7    1  0.3001243E-009  0.1426817E+03  0.7561462E-02  0.1209765E+00
          1   -1    0    0  501    0  0.00000000000E+00  0.00000000000E+00  0.70376435842E+02  0.70376435842E+02  0.00000000000E+00 0. -1.
         -1   -1    0    0    0  501 -0.00000000000E+00 -0.00000000000E+00 -0.34685028498E+03  0.34685028498E+03  0.00000000000E+00 0.  1.
         25    2    1    2    0    0 -0.96558589942E+02 -0.25636091627E+02 -0.19922701362E+03  0.25557805828E+03  0.12509184799E+03 0.  0.
          5    1    3    3  502    0 -0.12517560953E+03 -0.97259133330E+01 -0.14267496512E+03  0.19009772404E+03  0.41800000000E+01 0.  1.
         -5    1    3    3    0  502  0.28617019591E+02 -0.15910178294E+02 -0.56552048493E+02  0.65480334241E+02  0.41800000000E+01 0.  1.
        -11    1    1    2    0    0  0.62816500270E+02 -0.23549730974E+02 -0.76834433281E+02  0.10200016016E+03  0.00000000000E+00 0.  1.
         11    1    1    2    0    0  0.33742089673E+02  0.49185822600E+02 -0.41240223659E+00  0.59648502378E+02  0.00000000000E+00 0. -1.
</event>
<event>
 7    1  0.3001243E-009  0.1124250E+03  0.7561462E-02  0.1256144E+00
         -2   -1    0    0    0  501 -0.00000000000E+00  0.00000000000E+00  0.10125548995E+02  0.10125548995E+02  0.00000000000E+00 0.  1.
          2   -1    0    0  501    0  0.00000000000E+00 -0.00000000000E+00 -0.12557119153E+04  0.12557119153E+04  0.00000000000E+00 0. -1.
         25    2    1    2    0    0 -0.11178124851E+02 -0.29865446854E+02 -0.72338859543E+03  0.73481681105E+03  0.12509112847E+03 0.  0.
          5    1    3    3  502    0  0.40745319380E+02 -0.57095628462E+02 -0.38423977440E+03  0.39061204343E+03  0.41800000000E+01 0. -1.
         -5    1    3    3    0  502 -0.51923444231E+02  0.27230181607E+02 -0.33914882103E+03  0.34420476762E+03  0.41800000000E+01 0. -1.
        -11    1    1    2    0    0  0.50621103709E+02  0.23649776073E+02 -0.33304932406E+03  0.33770350947E+03  0.00000000000E+00 0.  1.
         11    1    1    2    0    0 -0.39442978858E+02  0.62156707812E+01 -0.18914844685E+03  0.19331714381E+03  0.00000000000E+00 0. -1.
</event>
<event>
 7    1  0.3001243E-009  0.1668930E+03  0.7561462E-02  0.1181127E+00
         -1   -1    0    0    0  501 -0.00000000000E+00  0.00000000000E+00  0.45412889530E+03  0.45412889530E+03  0.00000000000E+00 0.  1.
          1   -1    0    0  501    0  0.00000000000E+00 -0.00000000000E+00 -0.85669221097E+02  0.85669221097E+02  0.00000000000E+00 0. -1.
         25    2    1    2    0    0 -0.11857330563E+03  0.87621261448E+02  0.29186761338E+03  0.35010301336E+03  0.12509317312E+03 0.  0.
          5    1    3    3  502    0 -0.10687419006E+03  0.98965957603E+01  0.21367954425E+03  0.23915780384E+03  0.41800000000E+01 0.  1.
         -5    1    3    3    0  502 -0.11699115574E+02  0.77724665688E+02  0.78188069130E+02  0.11094520952E+03  0.41800000000E+01 0.  1.
        -11    1    1    2    0    0  0.85481749865E+02 -0.67638452700E+02  0.59494883817E+01  0.10916723985E+03  0.00000000000E+00 0. -1.
         11    1    1    2    0    0  0.33091555765E+02 -0.19982808748E+02  0.70642572441E+02  0.80527863187E+02  0.00000000000E+00 0.  1.
</event>
<event>
 7    1  0.3001243E-009  0.1831498E+03  0.7561462E-02  0.1164789E+00
         -1   -1    0    0    0  501 -0.00000000000E+00  0.00000000000E+00  0.73649948414E+02  0.73649948414E+02  0.00000000000E+00 0.  1.
          1   -1    0    0  501    0  0.00000000000E+00 -0.00000000000E+00 -0.60104525150E+03  0.60104525150E+03  0.00000000000E+00 0. -1.
         25    2    1    2    0    0  0.54108256839E+02  0.16480236671E+03 -0.19567390199E+03  0.28986713328E+03  0.12508859062E+03 0.  0.
          5    1    3    3  502    0  0.48406115424E+02  0.11846863800E+03 -0.20535816645E+03  0.24200706421E+03  0.41800000000E+01 0. -1.
         -5    1    3    3    0  502  0.57021414157E+01  0.46333728714E+02  0.96842644614E+01  0.47860069071E+02  0.41800000000E+01 0. -1.
        -11    1    1    2    0    0 -0.74507955053E+02 -0.10954613226E+03 -0.26172961946E+03  0.29334993466E+03  0.00000000000E+00 0. -1.
         11    1    1    2    0    0  0.20399698214E+02 -0.55256234455E+02 -0.69991781628E+02  0.91478131970E+02  0.00000000000E+00 0.  1.
</event>
<event>
 7    1  0.3001243E-009  0.8045327E+02  0.7561462E-02  0.1327770E+00
         -2   -1    0    0    0  501 -0.00000000000E+00  0.00000000000E+00  0.35261353322E+02  0.35261353322E+02  0.00000000000E+00 0.  1.
          2   -1    0    0  501    0  0.00000000000E+00 -0.00000000000E+00 -0.44872781691E+03  0.44872781691E+03  0.00000000000E+00 0. -1.
         25    2    1    2    0    0  0.11894619667E+02  0.85763104783E+01 -0.34276839956E+03  0.36517507535E+03  0.12509046663E+03 0.  0.
          5    1    3    3  502    0  0.40733478508E+02  0.16631819707E+02 -0.32899850568E+03  0.33195379624E+03  0.41800000000E+01 0. -1.
         -5    1    3    3    0  502 -0.28838858841E+02 -0.80555092288E+01 -0.13769893878E+02  0.33221279108E+02  0.41800000000E+01 0. -1.
        -11    1    1    2    0    0  0.24709466097E+02  0.26181075410E+02 -0.55909890381E+01  0.36431656329E+02  0.00000000000E+00 0.  1.
         11    1    1    2    0    0 -0.36604085765E+02 -0.34757385888E+02 -0.65107074993E+02  0.82382438557E+02  0.00000000000E+00 0. -1.
</event>
<event>
 7    1  0.3001243E-009  0.8004459E+02  0.7561462E-02  0.1328925E+00
          1   -1    0    0  501    0  0.00000000000E+00  0.00000000000E+00  0.62756201715E+02  0.62756201715E+02  0.00000000000E+00 0. -1.
         -1   -1    0    0    0  501 -0.00000000000E+00 -0.00000000000E+00 -0.25732771391E+03  0.25732771391E+03  0.00000000000E+00 0.  1.
         25    2    1    2    0    0 -0.43008091345E+02  0.42327636147E+02 -0.76295481060E+02  0.15846191294E+03  0.12509137748E+03 0.  0.
          5    1    3    3  502    0 -0.22127211118E+02  0.20369290351E+02 -0.10931362372E+03  0.11345246666E+03  0.41800000000E+01 0.  1.
         -5    1    3    3    0  502 -0.20880880227E+02  0.21958345797E+02  0.33018142661E+02  0.45009446275E+02  0.41800000000E+01 0.  1.
        -11    1    1    2    0    0  0.14755344406E+02 -0.62630558125E+02 -0.10734695169E+03  0.12515460454E+03  0.00000000000E+00 0.  1.
         11    1    1    2    0    0  0.28252746939E+02  0.20302921978E+02 -0.10929079447E+02  0.36467398152E+02  0.00000000000E+00 0. -1.
</event>
<event>
 7    1  0.3001243E-009  0.1033090E+03  0.7561462E-02  0.1273487E+00
          2   -1    0    0  501    0  0.00000000000E+00  0.00000000000E+00  0.80095100364E+03  0.80095100364E+03  0.00000000000E+00 0.  1.
         -2   -1    0    0    0  501 -0.00000000000E+00 -0.00000000000E+00 -0.27831326446E+02  0.27831326446E+02  0.00000000000E+00 0. -1.
         25    2    1    2    0    0 -0.52182126689E+02  0.70134576353E+02  0.55667546379E+03  0.57721542096E+03  0.12509291370E+03 0.  0.
          5    1    3    3  502    0 -0.53125992533E+02  0.49012008950E+01  0.44189276066E+03  0.44512141847E+03  0.41800000000E+01 0.  1.
         -5    1    3    3    0  502  0.94386584424E+00  0.65233375458E+02  0.11478270313E+03  0.13209400249E+03  0.41800000000E+01 0.  1.
        -11    1    1    2    0    0  0.25459231150E+02 -0.40379727897E+02  0.20425268246E+03  0.20975665226E+03  0.00000000000E+00 0.  1.
         11    1    1    2    0    0  0.26722895539E+02 -0.29754848456E+02  0.12191530946E+02  0.41810256869E+02  0.00000000000E+00 0. -1.
</event>
<event>
 7    1  0.3001243E-009  0.1251296E+03  0.7561462E-02  0.1234867E+00
          1   -1    0    0  501    0  0.00000000000E+00  0.00000000000E+00  0.49341662263E+03  0.49341662263E+03  0.00000000000E+00 0. -1.
         -1   -1    0    0    0  501 -0.00000000000E+00 -0.00000000000E+00 -0.51252229558E+02  0.51252229558E+02  0.00000000000E+00 0.  1.
         25    2    1    2    0    0  0.93849265794E+02  0.58426716684E+01  0.35297509521E+03  0.38611036596E+03  0.12509186767E+03 0.  0.
          5    1    3    3  502    0  0.94745927707E+02  0.42049841443E+02  0.16703379758E+03  0.19662843618E+03  0.41800000000E+01 0.  1.
         -5    1    3    3    0  502 -0.89666191238E+00 -0.36207169775E+02  0.18594129763E+03  0.18948192977E+03  0.41800000000E+01 0.  1.
        -11    1    1    2    0    0 -0.69247293698E+02  0.22232756965E+02  0.96177840253E+02  0.12058051303E+03  0.00000000000E+00 0. -1.
         11    1    1    2    0    0 -0.24601972096E+02 -0.28075428633E+02 -0.69885423894E+01  0.37977973204E+02  0.00000000000E+00 0.  1.
</event>
<event>
 7    1  0.3001243E-009  0.7398624E+02  0.7561462E-02  0.1347039E+00
          2   -1    0    0  501    0  0.00000000000E+00  0.00000000000E+00  0.25629560016E+03  0.25629560016E+03  0.00000000000E+00 0.  1.
         -2   -1    0    0    0  501 -0.00000000000E+00 -0.00000000000E+00 -0.61454985321E+02  0.61454985321E+02  0.00000000000E+00 0. -1.
         25    2    1    2    0    0  0.76317411584E+01 -0.36799120237E+02  0.16852377242E+03  0.21321349704E+03  0.12508922706E+03 0.  0.
          5    1    3    3  502    0 -0.32108717505E+01  0.25738038529E+02  0.14181142610E+03  0.14422451004E+03  0.41800000000E+01 0. -1.
         -5    1    3    3    0  502  0.10842612909E+02 -0.62537158766E+02  0.26712346318E+02  0.68988986998E+02  0.41800000000E+01 0. -1.
        -11    1    1    2    0    0  0.13376883157E+02 -0.24266415802E+01 -0.29897118930E+02  0.32843070999E+02  0.00000000000E+00 0. -1.
         11    1    1    2    0    0 -0.21008624316E+02  0.39225761817E+02  0.56213961347E+02  0.71694017436E+02  0.00000000000E+00 0.  1.
</event>
<event>
 7    1  0.3001243E-009  0.6999566E+02  0.7561462E-02  0.1360108E+00
         -1   -1    0    0    0  501 -0.00000000000E+00  0.00000000000E+00  0.12984304238E+03  0.12984304238E+03  0.00000000000E+00 0.  1.
          1   -1    0    0  501    0  0.00000000000E+00 -0.00000000000E+00 -0.11610181648E+03  0.11610181648E+03  0.00000000000E+00 0. -1.
         25    2    1    2    0    0 -0.10212294954E+02  0.58124563732E+02  0.16058681506E+02  0.13923715393E+03  0.12508536248E+03 0.  0.
          5    1    3    3  502    0  0.87078635518E+01  0.34049590004E+02 -0.52912718667E+02  0.63658696686E+02  0.41800000000E+01 0. -1.
         -5    1    3    3    0  502 -0.18920158506E+02  0.24074973728E+02  0.68971400173E+02  0.75578457246E+02  0.41800000000E+01 0. -1.
        -11    1    1    2    0    0  0.89921844739E+01  0.51803596910E+01  0.32731748695E+02  0.34337485068E+02  0.00000000000E+00 0.  1.
         11    1    1    2    0    0  0.12201104804E+01 -0.63304923423E+02 -0.35049204302E+02  0.72370219852E+02  0.00000000000E+00 0. -1.
</event>
<event>
 7    1  0.3001243E-009  0.1129884E+03  0.7561462E-02  0.1255134E+00
         -2   -1    0    0    0  501 -0.00000000000E+00  0.00000000000E+00  0.51257554251E+02  0.51257554251E+02  0.00000000000E+00 0.  1.
          2   -1    0    0  501    0  0.00000000000E+00 -0.00000000000E+00 -0.27221324607E+03  0.27221324607E+03  0.00000000000E+00 0. -1.
         25    2    1    2    0    0 -0.28552301875E+02  0.20852105304E+02 -0.16112286349E+03  0.20702121782E+03  0.12508862159E+03 0.  0.
          5    1    3    3  502    0  0.42640519750E+02  0.32548865093E+02 -0.94420159946E+02  0.10867511927E+03  0.41800000000E+01 0. -1.
         -5    1    3    3    0  502 -0.71192821625E+02 -0.11696759790E+02 -0.66702703547E+02  0.98346098555E+02  0.41800000000E+01 0. -1.
        -11    1    1    2    0    0  0.21274546297E+02 -0.58140349248E+02 -0.37227325758E+02  0.72241126195E+02  0.00000000000E+00 0.  1.
         11    1    1    2    0    0  0.72777555779E+01  0.37288243944E+02 -0.22605502573E+02  0.44208456309E+02  0.00000000000E+00 0. -1.
</event>
<event>
 7    1  0.3001243E-009  0.8047558E+02  0.7561462E-02  0.1327707E+00
          2   -1    0    0  501    0  0.00000000000E+00  0.00000000000E+00  0.18545884660E+04  0.18545884660E+04  0.00000000000E+00 0. -1.
         -2   -1    0    0    0  501 -0.00000000000E+00 -0.00000000000E+00 -0.22283267950E+02  0.22283267950E+02  0.00000000000E+00 0.  1.
         25    2    1    2    0    0 -0.12183011830E+02 -0.78218232230E+01  0.17481288981E+04  0.17526585375E+04  0.12509075932E+03 0.  0.
          5    1    3    3  502    0 -0.72153492273E+01  0.36734674040E+02  0.18077397025E+03  0.18465697458E+03  0.41800000000E+01 0.  1.
         -5    1    3    3    0  502 -0.49676626023E+01 -0.44556497262E+02  0.15673549279E+04  0.15680015630E+04  0.41800000000E+01 0.  1.
        -11    1    1    2    0    0 -0.32146924474E+02 -0.39498159398E+01  0.50858327072E+01  0.32785537870E+02  0.00000000000E+00 0.  1.
         11    1    1    2    0    0  0.44329936303E+02  0.11771639163E+02  0.79090467240E+02  0.91427658559E+02  0.00000000000E+00 0. -1.
</event>
<event>
 7    1  0.3001243E-009  0.1029921E+03  0.7561462E-02  0.1274127E+00
         -2   -1    0    0    0  501 -0.00000000000E+00  0.00000000000E+00  0.23678434571E+02  0.23678434571E+02  0.00000000000E+00 0.  1.
          2   -1    0    0  501    0  0.00000000000E+00 -0.00000000000E+00 -0.64158688873E+03  0.64158688873E+03  0.00000000000E+00 0. -1.
         25    2    1    2    0    0 -0.13574390465E+02  0.36007509164E+02 -0.47912046094E+03  0.49667422728E+03  0.12509223461E+03 0.  0.
          5    1    3    3  502    0 -0.65986153297E+02 -0.14602615924E+01 -0.22940005760E+03  0.23874288182E+03  0.41800000000E+01 0. -1.
         -5    1    3    3    0  502  0.52411762832E+02  0.37467770757E+02 -0.24972040334E+03  0.25793134546E+03  0.41800000000E+01 0. -1.
        -11    1    1    2    0    0  0.27253827112E+02  0.86404564212E+01 -0.79584706476E+01  0.29677699279E+02  0.00000000000E+00 0.  1.
         11    1    1    2    0    0 -0.13679436647E+02 -0.44647965586E+02 -0.13082952257E+03  0.13891339674E+03  0.00000000000E+00 0. -1.
</event>
<event>
 7    1  0.3001243E-009  0.8472850E+02  0.7561462E-02  0.1316144E+00
         -2   -1    0    0    0  501 -0.00000000000E+00  0.00000000000E+00  0.52680036117E+02  0.52680036117E+02  0.00000000000E+00 0. -1.
          2   -1    0    0  501    0  0.00000000000E+00 -0.00000000000E+00 -0.30968019041E+03  0.30968019041E+03  0.00000000000E+00 0.  1.
         25    2    1    2    0    0  0.35298327011E+02  0.21351856815E+02 -0.67329905996E+02  0.14793161950E+03  0.12509426096E+03 0.  0.
          5    1    3    3  502    0 -0.19084670841E+02  0.13463522880E+02  0.28683926845E+02  0.37225410255E+02  0.41800000000E+01 0. -1.
         -5    1    3    3    0  502  0.54382997851E+02  0.78883339353E+01 -0.96013832842E+02  0.11070620924E+03  0.41800000000E+01 0. -1.
        -11    1    1    2    0    0 -0.51642284881E+02  0.12407330195E+02 -0.15307052758E+03  0.16202300406E+03  0.00000000000E+00 0. -1.
         11    1    1    2    0    0  0.16343957870E+02 -0.33759187010E+02 -0.36599720717E+02  0.52405602974E+02  0.00000000000E+00 0.  1.
</event>
<event>
 7    1  0.3001243E-009  0.1252228E+03  0.7561462E-02  0.1234721E+00
         -2   -1    0    0    0  501 -0.00000000000E+00  0.00000000000E+00  0.98849610332E+02  0.98849610332E+02  0.00000000000E+00 0. -1.
          2   -1    0    0  501    0  0.00000000000E+00 -0.00000000000E+00 -0.29446649756E+03  0.29446649756E+03  0.00000000000E+00 0.  1.
         25    2    1    2    0    0 -0.52491106255E+02 -0.10207564072E+03 -0.46352132072E+02  0.17598212685E+03  0.12508571525E+03 0.  0.
          5    1    3    3  502    0 -0.47439329074E+02 -0.91931543620E+02  0.22606449118E+02  0.10597368823E+03  0.41800000000E+01 0.  1.
         -5    1    3    3    0  502 -0.50517771805E+01 -0.10144097096E+02 -0.68958581189E+02  0.70008438621E+02  0.41800000000E+01 0.  1.
        -11    1    1    2    0    0  0.69255969935E+02  0.69060264386E+02 -0.15140118702E+03  0.18024435891E+03  0.00000000000E+00 0.  1.
         11    1    1    2    0    0 -0.16764863680E+02  0.33015376330E+02  0.21364318644E+01  0.37089622127E+02  0.00000000000E+00 0. -1.
</event>
<event>
 7    1  0.3001243E-009  0.1002548E+03  0.7561462E-02  0.1279761E+00
         -2   -1    0    0    0  501 -0.00000000000E+00  0.00000000000E+00  0.23704672863E+03  0.23704672863E+03  0.00000000000E+00 0.  1.
          2   -1    0    0  501    0  0.00000000000E+00 -0.00000000000E+00 -0.85303276233E+02  0.85303276233E+02  0.00000000000E+00 0. -1.
         25    2    1    2    0    0 -0.57615758795E+02 -0.66097988930E+02  0.11025579697E+03  0.18839006898E+03  0.12508380199E+03 0.  0.
          5    1    3    3  502    0 -0.45511590343E+02 -0.10954775104E+02  0.12185440344E+03  0.13060352212E+03  0.41800000000E+01 0.  1.
         -5    1    3    3    0  502 -0.12104168452E+02 -0.55143213826E+02 -0.11598606471E+02  0.57786546851E+02  0.41800000000E+01 0.  1.
        -11    1    1    2    0    0  0.62589021682E+02  0.50169235360E+02  0.66293746943E+02  0.10406343592E+03  0.00000000000E+00 0.  1.
         11    1    1    2    0    0 -0.49732628868E+01  0.15928753570E+02 -0.24806091516E+02  0.29896499968E+02  0.00000000000E+00 0. -1.
</event>
<event>
 7    1  0.3001243E-009  0.7888456E+02  0.7561462E-02  0.1332247E+00
          2   -1    0    0  501    0  0.00000000000E+00  0.00000000000E+00  0.63345479988E+03  0.63345479988E+03  0.00000000000E+00 0.  1.
         -2   -1    0    0    0  501 -0.00000000000E+00 -0.00000000000E+00 -0.21720800148E+02  0.21720800148E+02  0.00000000000E+00 0. -1.
         25    2    1    2    0    0 -0.45517824916E+02  0.22616796745E+02  0.34535258931E+03  0.37080798501E+03  0.12508700541E+03 0.  0.
          5    1    3    3  502    0 -0.42537218739E+02  0.54912141061E+01  0.34975144971E+03  0.35239625052E+03  0.41800000000E+01 0.  1.
         -5    1    3    3    0  502 -0.29806061768E+01  0.17125582639E+02 -0.43988603970E+01  0.18411734484E+02  0.41800000000E+01 0.  1.
        -11    1    1    2    0    0  0.39271765934E+02 -0.52895903186E+02  0.14772474622E+03  0.16174933947E+03  0.00000000000E+00 0. -1.
         11    1    1    2    0    0  0.62460589812E+01  0.30279106441E+02  0.11865666420E+03  0.12261827554E+03  0.00000000000E+00 0.  1.
</event>
<event>
 7    1  0.3001243E-009  0.8300089E+02  0.7561462E-02  0.1320745E+00
          1   -1    0    0  501    0  0.00000000000E+00  0.00000000000E+00  0.31443203036E+02  0.31443203036E+02  0.00000000000E+00 0. -1.
         -1   -1    0    0    0  501 -0.00000000000E+00 -0.00000000000E+00 -0.42420883447E+03  0.42420883447E+03  0.00000000000E+00 0.  1.
         25    2    1    2    0    0  0.44908280751E+02  0.51402964056E+01 -0.25256773577E+03  0.28544909580E+03  0.12509016274E+03 0.  0.
          5    1    3    3  502    0 -0.93820938650E+01  0.21761602421E+02 -0.21697914870E+03  0.21830944642E+03  0.41800000000E+01 0.  1.
         -5    1    3    3    0  502  0.54290374616E+02 -0.16621306015E+02 -0.35588587072E+02  0.67139649384E+02  0.41800000000E+01 0.  1.
        -11    1    1    2    0    0 -0.52544830857E+02  0.21887157105E+02 -0.50099364763E+02  0.75828446150E+02  0.00000000000E+00 0.  1.
         11    1    1    2    0    0  0.76365501058E+01 -0.27027453510E+02 -0.90098530904E+02  0.94374495558E+02  0.00000000000E+00 0. -1.
</event>
<event>
 7    1  0.3001243E-009  0.1171969E+03  0.7561462E-02  0.1247794E+00
         -2   -1    0    0    0  501 -0.00000000000E+00  0.00000000000E+00  0.16115777320E+03  0.16115777320E+03  0.00000000000E+00 0.  1.
          2   -1    0    0  501    0  0.00000000000E+00 -0.00000000000E+00 -0.93795615604E+02  0.93795615604E+02  0.00000000000E+00 0. -1.
         25    2    1    2    0    0 -0.41527014617E+02 -0.38388987096E+02  0.17231325763E+02  0.13835718874E+03  0.12509031063E+03 0.  0.
          5    1    3    3  502    0 -0.55034358090E+02  0.31959411560E+02 -0.28598402915E+01  0.63842271609E+02  0.41800000000E+01 0.  1.
         -5    1    3    3    0  502  0.13507343473E+02 -0.70348398656E+02  0.20091166055E+02  0.74514917128E+02  0.41800000000E+01 0.  1.
        -11    1    1    2    0    0  0.26698769748E+02 -0.23286611404E+02  0.38111607692E+02  0.52034461826E+02  0.00000000000E+00 0.  1.
         11    1    1    2    0    0  0.14828244869E+02  0.61675598499E+02  0.12019224146E+02  0.64561738245E+02  0.00000000000E+00 0. -1.
</event>
<event>
 7    1  0.3001243E-009  0.8938995E+02  0.7561462E-02  0.1304336E+00
         -2   -1    0    0    0  501 -0.00000000000E+00  0.00000000000E+00  0.35541862277E+02  0.35541862277E+02  0.00000000000E+00 0.  1.
          2   -1    0    0  501    0  0.00000000000E+00 -0.00000000000E+00 -0.67762255140E+03  0.67762255140E+03  0.00000000000E+00 0. -1.
         25    2    1    2    0    0 -0.52309419028E+02  0.25767279861E+02 -0.57892548907E+03  0.59514932424E+03  0.12509103974E+03 0.  0.
          5    1    3    3  502    0 -0.20970959802E+02  0.64895263743E+02 -0.47272084882E+03  0.47763338422E+03  0.41800000000E+01 0.  1.
         -5    1    3    3    0  502 -0.31338459226E+02 -0.39127983883E+02 -0.10620464024E+03  0.11751594002E+03  0.41800000000E+01 0.  1.
        -11    1    1    2    0    0  0.14549846248E+02 -0.14967376989E+02  0.18188622382E+02  0.27686574074E+02  0.00000000000E+00 0.  1.
         11    1    1    2    0    0  0.37759572780E+02 -0.10799902872E+02 -0.81343822445E+02  0.90328515367E+02  0.00000000000E+00 0. -1.
</event>
<event>
 7    1  0.3001243E-009  0.1181873E+03  0.7561462E-02  0.1246118E+00
         -3   -1    0    0    0  501 -0.00000000000E+00  0.00000000000E+00  0.30256952242E+03  0.30256952242E+03  0.00000000000E+00 0.  1.
          3   -1    0    0  501    0  0.00000000000E+00 -0.00000000000E+00 -0.49656895217E+02  0.49656895217E+02  0.00000000000E+00 0. -1.
         25    2    1    2    0    0  0.25795235100E+02 -0.41768692666E+02  0.18021718928E+03  0.22480123749E+03  0.12508934098E+03 0.  0.
          5    1    3    3  502    0  0.41756034591E+02  0.34217292875E+02  0.53431447107E+02  0.76070897829E+02  0.41800000000E+01 0.  1.
         -5    1    3    3    0  502 -0.15960799491E+02 -0.75985985541E+02  0.12678574217E+03  0.14873033966E+03  0.41800000000E+01 0.  1.
        -11    1    1    2    0    0  0.10137795513E+02  0.62277642527E+02  0.40193743326E+02  0.74811875121E+02  0.00000000000E+00 0. -1.
         11    1    1    2    0    0 -0.35933030613E+02 -0.20508949861E+02  0.32501694599E+02  0.52613305021E+02  0.00000000000E+00 0.  1.
</event>
<event>
 7    1  0.3001243E-009  0.2157917E+03  0.7561462E-02  0.1137060E+00
         -3   -1    0    0    0  501 -0.00000000000E+00  0.00000000000E+00  0.10138005404E+04  0.10138005404E+04  0.00000000000E+00 0.  1.
          3   -1    0    0  501    0  0.00000000000E+00 -0.00000000000E+00 -0.54312721877E+02  0.54312721877E+02  0.00000000000E+00 0. -1.
         25    2    1    2    0    0 -0.18957580844E+03 -0.34295044081E+02  0.66964281546E+03  0.70794341150E+03  0.12508891397E+03 0.  0.
          5    1    3    3  502    0 -0.45785466709E+02 -0.58764382846E+02  0.14090554786E+03  0.15944092157E+03  0.41800000000E+01 0.  1.
         -5    1    3    3    0  502 -0.14379034173E+03  0.24469338765E+02  0.52873726759E+03  0.54850248993E+03  0.41800000000E+01 0.  1.
        -11    1    1    2    0    0  0.11096091363E+03  0.62716786570E+02  0.14609115937E+03  0.19387714285E+03  0.00000000000E+00 0.  1.
         11    1    1    2    0    0  0.78614894812E+02 -0.28421742489E+02  0.14375384364E+03  0.16629270788E+03  0.00000000000E+00 0. -1.
</event>
<event>
 7    1  0.3001243E-009  0.9059742E+02  0.7561462E-02  0.1301411E+00
          2   -1    0    0  501    0  0.00000000000E+00  0.00000000000E+00  0.28811607106E+02  0.28811607106E+02  0.00000000000E+00 0. -1.
         -2   -1    0    0    0  501 -0.00000000000E+00 -0.00000000000E+00 -0.55529177887E+03  0.55529177887E+03  0.00000000000E+00 0.  1.
         25    2    1    2    0    0  0.64604263585E+01  0.48912972929E+02 -0.39298894922E+03  0.41535734158E+03  0.12508873238E+03 0.  0.
          5    1    3    3  502    0 -0.26493211737E+02  0.73015496777E+02 -0.15043294216E+03  0.16935375852E+03  0.41800000000E+01 0.  1.
         -5    1    3    3    0  502  0.32953638095E+02 -0.24102523848E+02 -0.24255600706E+03  0.24600358306E+03  0.41800000000E+01 0.  1.
        -11    1    1    2    0    0  0.16030334633E+02 -0.17477605498E+02  0.56134677438E+01  0.24371075940E+02  0.00000000000E+00 0. -1.
         11    1    1    2    0    0 -0.22490760992E+02 -0.31435367431E+02 -0.13910469029E+03  0.14437496845E+03  0.00000000000E+00 0.  1.
</event>
<event>
 7    1  0.3001243E-009  0.1545322E+03  0.7561462E-02  0.1195012E+00
          2   -1    0    0  501    0  0.00000000000E+00  0.00000000000E+00  0.52434865885E+03  0.52434865885E+03  0.00000000000E+00 0. -1.
         -2   -1    0    0    0  501 -0.00000000000E+00 -0.00000000000E+00 -0.10602840319E+03  0.10602840319E+03  0.00000000000E+00 0.  1.
         25    2    1    2    0    0  0.12105791721E+03 -0.72424801650E+02  0.98382567291E+01  0.18879827967E+03  0.12509047885E+03 0.  0.
          5    1    3    3  502    0  0.38096427497E+01 -0.29559011496E+02  0.49338693170E+02  0.57792971738E+02  0.41800000000E+01 0.  1.
         -5    1    3    3    0  502  0.11724827446E+03 -0.42865790154E+02 -0.39500436441E+02  0.13100530794E+03  0.41800000000E+01 0.  1.
        -11    1    1    2    0    0  0.32020199542E+01  0.18208972148E+02  0.10774341850E+02  0.21398739233E+02  0.00000000000E+00 0.  1.
         11    1    1    2    0    0 -0.12425993716E+03  0.54215829502E+02  0.39770765708E+03  0.42018004314E+03  0.00000000000E+00 0. -1.
</event>
<event>
 7    1  0.3001243E-009  0.1422065E+03  0.7561462E-02  0.1210390E+00
         -2   -1    0    0    0  501 -0.00000000000E+00  0.00000000000E+00  0.15196467531E+02  0.15196467531E+02  0.00000000000E+00 0.  1.
          2   -1    0    0  501    0  0.00000000000E+00 -0.00000000000E+00 -0.19605528724E+04  0.19605528724E+04  0.00000000000E+00 0. -1.
         25    2    1    2    0    0  0.79116922023E+02 -0.54997753633E+02 -0.15592178427E+04  0.15671926091E+04  0.12509257670E+03 0.  0.
          5    1    3    3  502    0  0.16774218891E+02  0.37295372408E+02 -0.26314804834E+03  0.26633942060E+03  0.41800000000E+01 0.  1.
         -5    1    3    3    0  502  0.62342703132E+02 -0.92293126041E+02 -0.12960697944E+04  0.13008531885E+04  0.41800000000E+01 0.  1.
        -11    1    1    2    0    0 -0.93330607848E+02  0.21950610439E+02 -0.25027563882E+03  0.26801180393E+03  0.00000000000E+00 0. -1.
         11    1    1    2    0    0  0.14213685824E+02  0.33047143194E+02 -0.13586292328E+03  0.14054492684E+03  0.00000000000E+00 0.  1.
</event>
<event>
 7    1  0.3001243E-009  0.9377174E+02  0.7561462E-02  0.1293967E+00
         -2   -1    0    0    0  501 -0.00000000000E+00  0.00000000000E+00  0.20723635650E+03  0.20723635650E+03  0.00000000000E+00 0.  1.
          2   -1    0    0  501    0  0.00000000000E+00 -0.00000000000E+00 -0.11295926567E+03  0.11295926567E+03  0.00000000000E+00 0. -1.
         25    2    1    2    0    0  0.36333401718E+02 -0.68129748132E+01 -0.55051097729E+02  0.14158134015E+03  0.12509244506E+03 0.  0.
          5    1    3    3  502    0  0.80183244450E+02  0.43281229962E+01 -0.52589051192E+02  0.96078957345E+02  0.41800000000E+01 0. -1.
         -5    1    3    3    0  502 -0.43849842732E+02 -0.11141097809E+02 -0.24620465372E+01  0.45502382808E+02  0.41800000000E+01 0. -1.
        -11    1    1    2    0    0  0.14644808639E+01  0.21203820467E+02 -0.25835173157E+01  0.21410774585E+02  0.00000000000E+00 0. -1.
         11    1    1    2    0    0 -0.37797882582E+02 -0.14390845654E+02  0.15191170588E+03  0.15720350743E+03  0.00000000000E+00 0.  1.
</event>
<event>
 7    1  0.3001243E-009  0.1109532E+03  0.7561462E-02  0.1258815E+00
         -1   -1    0    0    0  501 -0.00000000000E+00  0.00000000000E+00  0.35003287506E+02  0.35003287506E+02  0.00000000000E+00 0.  1.
          1   -1    0    0  501    0  0.00000000000E+00 -0.00000000000E+00 -0.69076613842E+03  0.69076613842E+03  0.00000000000E+00 0. -1.
         25    2    1    2    0    0  0.64313141995E+02 -0.69463977262E+02 -0.47302437956E+03  0.49835814567E+03  0.12508938134E+03 0.  0.
          5    1    3    3  502    0  0.44209129755E+02  0.43122534684E+01 -0.44389539635E+02  0.62936049389E+02  0.41800000000E+01 0.  1.
         -5    1    3    3    0  502  0.20104012240E+02 -0.73776230731E+02 -0.42863483993E+03  0.43542209628E+03  0.41800000000E+01 0.  1.
        -11    1    1    2    0    0 -0.25064537755E+02  0.52053792398E+02 -0.17433653771E+03  0.18366016644E+03  0.00000000000E+00 0. -1.
         11    1    1    2    0    0 -0.39248604240E+02  0.17410184864E+02 -0.84019336473E+01  0.43751113823E+02  0.00000000000E+00 0.  1.
</event>
<event>
 7    1  0.3001243E-009  0.9691588E+02  0.7561462E-02  0.1286918E+00
          2   -1    0    0  501    0  0.00000000000E+00  0.00000000000E+00  0.57201422312E+03  0.57201422312E+03  0.00000000000E+00 0. -1.
         -2   -1    0    0    0  501 -0.00000000000E+00 -0.00000000000E+00 -0.53201275349E+02  0.53201275349E+02  0.00000000000E+00 0.  1.
         25    2    1    2    0    0  0.32136200245E+01 -0.71220889048E+02  0.48370970258E+03  0.50468410648E+03  0.12509287976E+03 0.  0.
          5    1    3    3  502    0  0.23330170545E+02 -0.83548703086E+02  0.46809810541E+03  0.47608611756E+03  0.41800000000E+01 0.  1.
         -5    1    3    3    0  502 -0.20116550521E+02  0.12327814038E+02  0.15611597172E+02  0.28597988917E+02  0.41800000000E+01 0.  1.
        -11    1    1    2    0    0 -0.22112400929E+02  0.26756032699E+02  0.57588865713E+02  0.67240768993E+02  0.00000000000E+00 0. -1.
         11    1    1    2    0    0  0.18898780905E+02  0.44464856349E+02 -0.22485620521E+02  0.53290623003E+02  0.00000000000E+00 0.  1.
</event>
<event>
 7    1  0.3001243E-009  0.1205699E+03  0.7561462E-02  0.1242160E+00
          2   -1    0    0  501    0  0.00000000000E+00  0.00000000000E+00  0.26462840872E+03  0.26462840872E+03  0.00000000000E+00 0. -1.
         -2   -1    0    0    0  501 -0.00000000000E+00 -0.00000000000E+00 -0.65933894688E+02  0.65933894688E+02  0.00000000000E+00 0.  1.
         25    2    1    2    0    0 -0.67666762996E+02  0.40766236870E+02  0.12858768415E+03  0.19601802999E+03  0.12509036207E+03 0.  0.
          5    1    3    3  502    0  0.25906239077E+02  0.11403186517E+02  0.82989586191E+02  0.87783311068E+02  0.41800000000E+01 0.  1.
         -5    1    3    3    0  502 -0.93573002073E+02  0.29363050353E+02  0.45598097959E+02  0.10823471892E+03  0.41800000000E+01 0.  1.
        -11    1    1    2    0    0  0.62606404779E+02  0.99558708637E+01  0.32793814303E+02  0.71373072937E+02  0.00000000000E+00 0.  1.
         11    1    1    2    0    0  0.50603582171E+01 -0.50722107734E+02  0.37313015577E+02  0.63171200477E+02  0.00000000000E+00 0. -1.
</event>
<event>
 7    1  0.3001243E-009  0.1214727E+03  0.7561462E-02  0.1240687E+00
          3   -1    0    0  501    0  0.00000000000E+00  0.00000000000E+00  0.86809454817E+02  0.86809454817E+02  0.00000000000E+00 0. -1.
         -3   -1    0    0    0  501 -0.00000000000E+00 -0.00000000000E+00 -0.18389541890E+03  0.18389541890E+03  0.00000000000E+00 0.  1.
         25    2    1    2    0    0  0.44645257155E+02  0.34394089576E+02 -0.24367586974E+02  0.13934687266E+03  0.12509044424E+03 0.  0.
          5    1    3    3  502    0  0.86601106073E+02  0.27175371979E+02 -0.31114952479E+02  0.96040955238E+02  0.41800000000E+01 0. -1.
         -5    1    3    3    0  502 -0.41955848918E+02  0.72187175971E+01  0.67473655048E+01  0.43305917418E+02  0.41800000000E+01 0. -1.
        -11    1    1    2    0    0 -0.22148632228E+02 -0.66507146254E+02 -0.49120899476E+02  0.85595707706E+02  0.00000000000E+00 0.  1.
         11    1    1    2    0    0 -0.22496624927E+02  0.32113056678E+02 -0.23597477630E+02  0.45762293352E+02  0.00000000000E+00 0. -1.
</event>
<event>
 7    1  0.3001243E-009  0.1086774E+03  0.7561462E-02  0.1263039E+00
          2   -1    0    0  501    0  0.00000000000E+00  0.00000000000E+00  0.96933704701E+03  0.96933704701E+03  0.00000000000E+00 0. -1.
         -2   -1    0    0    0  501 -0.00000000000E+00 -0.00000000000E+00 -0.25151603280E+02  0.25151603280E+02  0.00000000000E+00 0.  1.
         25    2    1    2    0    0  0.68333981240E+02 -0.42277754281E+01  0.78665511463E+03  0.79947534687E+03  0.12508858381E+03 0.  0.
          5    1    3    3  502    0 -0.25420019944E+02 -0.31848276370E+02  0.32483175145E+03  0.32740438188E+03  0.41800000000E+01 0.  1.
         -5    1    3    3    0  502  0.93754001184E+02  0.27620500942E+02  0.46182336318E+03  0.47207096499E+03  0.41800000000E+01 0.  1.
        -11    1    1    2    0    0 -0.19030439275E+02  0.19204499816E+02 -0.22498072279E+01  0.27129910887E+02  0.00000000000E+00 0.  1.
         11    1    1    2    0    0 -0.49303541965E+02 -0.14976724388E+02  0.15978013633E+03  0.16788339254E+03  0.00000000000E+00 0. -1.
</event>
<event>
 7    1  0.3001243E-009  0.1191832E+03  0.7561462E-02  0.1244451E+00
          4   -1    0    0  501    0  0.00000000000E+00  0.00000000000E+00  0.19927730606E+02  0.19927730606E+02  0.00000000000E+00 0. -1.
         -4   -1    0    0    0  501 -0.00000000000E+00 -0.00000000000E+00 -0.16308314555E+04  0.16308314555E+04  0.00000000000E+00 0.  1.
         25    2    1    2    0    0 -0.85598020496E+02  0.59467592201E+02 -0.13017023872E+04  0.13118453955E+04  0.12508325716E+03 0.  0.
          5    1    3    3  502    0  0.14568287079E+02  0.14540958066E+02 -0.38346356739E+02  0.43721732869E+02  0.41800000000E+01 0. -1.
         -5    1    3    3    0  502 -0.10016630757E+03  0.44926634135E+02 -0.12633560304E+04  0.12681236626E+04  0.41800000000E+01 0. -1.
        -11    1    1    2    0    0  0.34553580094E+02 -0.40036146676E+02 -0.45958141688E+02  0.70064211445E+02  0.00000000000E+00 0. -1.
         11    1    1    2    0    0  0.51044440402E+02 -0.19431445525E+02 -0.26324319608E+03  0.26884957923E+03  0.00000000000E+00 0.  1.
</event>
<event>
 7    1  0.3001243E-009  0.1178588E+03  0.7561462E-02  0.1246672E+00
          1   -1    0    0  501    0  0.00000000000E+00  0.00000000000E+00  0.37228370157E+02  0.37228370157E+02  0.00000000000E+00 0. -1.
         -1   -1    0    0    0  501 -0.00000000000E+00 -0.00000000000E+00 -0.42865519713E+03  0.42865519713E+03  0.00000000000E+00 0.  1.
         25    2    1    2    0    0  0.66583556165E+02 -0.19899126520E+02 -0.22958206624E+03  0.27053248075E+03  0.12510216951E+03 0.  0.
          5    1    3    3  502    0  0.92228168312E+02  0.61889134642E+01 -0.10187664659E+03  0.13762507475E+03  0.41800000000E+01 0.  1.
         -5    1    3    3    0  502 -0.25644612147E+02 -0.26088039984E+02 -0.12770541965E+03  0.13290740600E+03  0.41800000000E+01 0.  1.
        -11    1    1    2    0    0 -0.41284128038E+01  0.40417918652E+02 -0.85090092075E+02  0.94291970548E+02  0.00000000000E+00 0.  1.
         11    1    1    2    0    0 -0.62455143362E+02 -0.20518792132E+02 -0.76754668661E+02  0.10105911599E+03  0.00000000000E+00 0. -1.
</event>
<event>
 7    1  0.3001243E-009  0.1370267E+03  0.7561462E-02  0.1217387E+00
          3   -1    0    0  501    0  0.00000000000E+00  0.00000000000E+00  0.15031686555E+03  0.15031686555E+03  0.00000000000E+00 0. -1.
         -3   -1    0    0    0  501 -0.00000000000E+00 -0.00000000000E+00 -0.16533850904E+03  0.16533850904E+03  0.00000000000E+00 0.  1.
         25    2    1    2    0    0 -0.87664191351E+02  0.58137552497E+02  0.39084374939E+02  0.16804850695E+03  0.12509087445E+03 0.  0.
          5    1    3    3  502    0 -0.73718941953E+02  0.93783429921E+02  0.99728483888E+01  0.11977789544E+03  0.41800000000E+01 0.  1.
         -5    1    3    3    0  502 -0.13945249398E+02 -0.35645877424E+02  0.29111526550E+02  0.48270611517E+02  0.41800000000E+01 0.  1.
        -11    1    1    2    0    0  0.51726198964E+02 -0.49037422884E+01 -0.64198238935E+02  0.82589710195E+02  0.00000000000E+00 0.  1.
         11    1    1    2    0    0  0.35937992387E+02 -0.53233810208E+02  0.10092220508E+02  0.65017157434E+02  0.00000000000E+00 0. -1.
</event>
<event>
 7    1  0.3001243E-009  0.1524809E+03  0.7561462E-02  0.1197457E+00
         -4   -1    0    0    0  501 -0.00000000000E+00  0.00000000000E+00  0.41173693664E+03  0.41173693664E+03  0.00000000000E+00 0.  1.
          4   -1    0    0  501    0  0.00000000000E+00 -0.00000000000E+00 -0.80328363203E+02  0.80328363203E+02  0.00000000000E+00 0. -1.
         25    2    1    2    0    0 -0.75756738246E+02 -0.75778189556E+02  0.42066323464E+02  0.16999558605E+03  0.12508999283E+03 0.  0.
          5    1    3    3  502    0 -0.32682992431E+02 -0.10657689252E+03  0.30200429742E+02  0.11556967755E+03  0.41800000000E+01 0.  1.
         -5    1    3    3    0  502 -0.43073745815E+02  0.30798702960E+02  0.11865893722E+02  0.54425908502E+02  0.41800000000E+01 0.  1.
        -11    1    1    2    0    0 -0.16287417496E+02  0.36972707263E+02  0.10304760577E+03  0.11068455225E+03  0.00000000000E+00 0.  1.
         11    1    1    2    0    0  0.92044155741E+02  0.38805482294E+02  0.18629464420E+03  0.21138516154E+03  0.00000000000E+00 0. -1.
</event>
<event>
 7    1  0.3001243E-009  0.2786491E+03  0.7561462E-02  0.1096429E+00
          1   -1    0    0  501    0  0.00000000000E+00  0.00000000000E+00  0.39548342832E+03  0.39548342832E+03  0.00000000000E+00 0. -1.
         -1   -1    0    0    0  501 -0.00000000000E+00 -0.00000000000E+00 -0.20735637913E+03  0.20735637913E+03  0.00000000000E+00 0.  1.
         25    2    1    2    0    0 -0.23724699603E+03 -0.11024559371E+03  0.53976555509E+02  0.29496099472E+03  0.12509313253E+03 0.  0.
          5    1    3    3  502    0 -0.32471187967E+02  0.21756424396E+02 -0.14425247985E+02  0.41872189218E+02  0.41800000000E+01 0. -1.
         -5    1    3    3    0  502 -0.20477580806E+03 -0.13200201811E+03  0.68401803493E+02  0.25308880550E+03  0.41800000000E+01 0. -1.
        -11    1    1    2    0    0  0.79901655449E+02  0.81939238453E+02  0.34672462243E+02  0.11958466867E+03  0.00000000000E+00 0.  1.
         11    1    1    2    0    0  0.15734534058E+03  0.28306355258E+02  0.99478031431E+02  0.18829414406E+03  0.00000000000E+00 0. -1.
</event>
<event>
 7    1  0.3001243E-009  0.1273825E+03  0.7561462E-02  0.1231392E+00
          1   -1    0    0  501    0  0.00000000000E+00  0.00000000000E+00  0.62397975400E+03  0.62397975400E+03  0.00000000000E+00 0. -1.
         -1   -1    0    0    0  501 -0.00000000000E+00 -0.00000000000E+00 -0.34387920865E+02  0.34387920865E+02  0.00000000000E+00 0.  1.
         25    2    1    2    0    0  0.27765939357E+02  0.92135506015E+02  0.36884527129E+03  0.40119909863E+03  0.12511588123E+03 0.  0.
          5    1    3    3  502    0  0.55228853311E+02  0.70114390439E+02  0.34965145587E+03  0.36088760989E+03  0.41800000000E+01 0.  1.
         -5    1    3    3    0  502 -0.27462913954E+02  0.22021115576E+02  0.19193815422E+02  0.40311488741E+02  0.41800000000E+01 0.  1.
        -11    1    1    2    0    0  0.31027423327E+02 -0.44741910299E+02  0.71158733244E+02  0.89599692256E+02  0.00000000000E+00 0.  1.
         11    1    1    2    0    0 -0.58793362684E+02 -0.47393595716E+02  0.14958782860E+03  0.16756888398E+03  0.00000000000E+00 0. -1.
</event>
<event>
 7    1  0.3001243E-009  0.1131972E+03  0.7561462E-02  0.1254761E+00
          1   -1    0    0  501    0  0.00000000000E+00  0.00000000000E+00  0.41844559081E+03  0.41844559081E+03  0.00000000000E+00 0. -1.
         -1   -1    0    0    0  501 -0.00000000000E+00 -0.00000000000E+00 -0.36829227080E+02  0.36829227080E+02  0.00000000000E+00 0.  1.
         25    2    1    2    0    0  0.48044224794E+02  0.33651875962E+02  0.21023206748E+03  0.25156484867E+03  0.12508658841E+03 0.  0.
          5    1    3    3  502    0 -0.30565319246E+02 -0.81696364437E+01  0.12214057634E+03  0.12624093825E+03  0.41800000000E+01 0. -1.
         -5    1    3    3    0  502  0.78609544039E+02  0.41821512406E+02  0.88091491132E+02  0.12532391042E+03  0.41800000000E+01 0. -1.
        -11    1    1    2    0    0 -0.16578452331E+02  0.30034024255E+02  0.86313447789E+02  0.92881101221E+02  0.00000000000E+00 0.  1.
         11    1    1    2    0    0 -0.31465772462E+02 -0.63685900218E+02  0.85070848466E+02  0.11082886800E+03  0.00000000000E+00 0. -1.
</event>
<event>
 7    1  0.3001243E-009  0.2671629E+03  0.7561462E-02  0.1102914E+00
         -1   -1    0    0    0  501 -0.00000000000E+00  0.00000000000E+00  0.82138391470E+02  0.82138391470E+02  0.00000000000E+00 0.  1.
          1   -1    0    0  501    0  0.00000000000E+00 -0.00000000000E+00 -0.10145401986E+04  0.10145401986E+04  0.00000000000E+00 0. -1.
         25    2    1    2    0    0 -0.60172576339E+02 -0.23669601169E+03 -0.27115786839E+03  0.38577173249E+03  0.12508996403E+03 0.  0.
          5    1    3    3  502    0 -0.13726516093E+01 -0.20823811306E+03 -0.19462139209E+03  0.28506131720E+03  0.41800000000E+01 0.  1.
         -5    1    3    3    0  502 -0.58799924730E+02 -0.28457898630E+02 -0.76536476299E+02  0.10071041529E+03  0.41800000000E+01 0.  1.
        -11    1    1    2    0    0 -0.10660197603E+02  0.14162772853E+03 -0.38136896969E+03  0.40695742326E+03  0.00000000000E+00 0. -1.
         11    1    1    2    0    0  0.70832773942E+02  0.95068283169E+02 -0.27987496906E+03  0.30394943434E+03  0.00000000000E+00 0.  1.
</event>
<event>
 7    1  0.3001243E-009  0.1585578E+03  0.7561462E-02  0.1190335E+00
         -2   -1    0    0    0  501 -0.00000000000E+00  0.00000000000E+00  0.67593654462E+03  0.67593654462E+03  0.00000000000E+00 0.  1.
          2   -1    0    0  501    0  0.00000000000E+00 -0.00000000000E+00 -0.41076184947E+02  0.41076184947E+02  0.00000000000E+00 0. -1.
         25    2    1    2    0    0  0.99512366579E+02 -0.66202113354E+02  0.31937821484E+03  0.36322927278E+03  0.12509048556E+03 0.  0.
          5    1    3    3  502    0  0.51034126001E+02  0.23327527832E+02  0.50188641308E+02  0.75399122592E+02  0.41800000000E+01 0.  1.
         -5    1    3    3    0  502  0.48478240578E+02 -0.89529641186E+02  0.26918957353E+03  0.28783015019E+03  0.41800000000E+01 0.  1.
        -11    1    1    2    0    0 -0.62638098500E+02 -0.19539495504E+02  0.15152547709E+03  0.16512205630E+03  0.00000000000E+00 0.  1.
         11    1    1    2    0    0 -0.36874268079E+02  0.85741608859E+02  0.16395666774E+03  0.18866140049E+03  0.00000000000E+00 0. -1.
</event>
<event>
 7    1  0.3001243E-009  0.1040521E+03  0.7561462E-02  0.1271998E+00
         -1   -1    0    0    0  501 -0.00000000000E+00  0.00000000000E+00  0.42380710825E+02  0.42380710825E+02  0.00000000000E+00 0.  1.
          1   -1    0    0  501    0  0.00000000000E+00 -0.00000000000E+00 -0.37366800466E+03  0.37366800466E+03  0.00000000000E+00 0. -1.
         25    2    1    2    0    0 -0.33888650941E+02 -0.32937709921E+02 -0.11334056500E+03  0.17529218533E+03  0.12509169902E+03 0.  0.
          5    1    3    3  502    0  0.35968014456E+01 -0.61628200348E+02 -0.11191579638E+03  0.12788115552E+03  0.41800000000E+01 0.  1.
         -5    1    3    3    0  502 -0.37485452387E+02  0.28690490426E+02 -0.14247686216E+01  0.47411029805E+02  0.41800000000E+01 0.  1.
        -11    1    1    2    0    0 -0.27061254926E+02  0.25946908736E+02 -0.54274504399E+02  0.65964198008E+02  0.00000000000E+00 0. -1.
         11    1    1    2    0    0  0.60949905867E+02  0.69908011856E+01 -0.16367222444E+03  0.17479233216E+03  0.00000000000E+00 0.  1.
</event>
<event>
 7    1  0.3001243E-009  0.1526696E+03  0.7561462E-02  0.1197230E+00
         -3   -1    0    0    0  501 -0.00000000000E+00  0.00000000000E+00  0.41763257774E+03  0.41763257774E+03  0.00000000000E+00 0.  1.
          3   -1    0    0  501    0  0.00000000000E+00 -0.00000000000E+00 -0.89993915195E+02  0.89993915195E+02  0.00000000000E+00 0. -1.
         25    2    1    2    0    0  0.10405853058E+03 -0.85774276472E+02  0.58375541264E+02  0.19297713794E+03  0.12508823950E+03 0.  0.
          5    1    3    3  502    0  0.10458482147E+03 -0.29658031264E+02  0.77467524407E+02  0.13355251191E+03  0.41800000000E+01 0.  1.
         -5    1    3    3    0  502 -0.52629089308E+00 -0.56116245208E+02 -0.19091983143E+02  0.59424626029E+02  0.41800000000E+01 0.  1.
        -11    1    1    2    0    0 -0.26994188774E+02  0.29670121269E+01  0.14116921822E+03  0.14375756523E+03  0.00000000000E+00 0.  1.
         11    1    1    2    0    0 -0.77064341805E+02  0.82807264345E+02  0.12809390306E+03  0.17089178976E+03  0.00000000000E+00 0. -1.
</event>
<event>
 7    1  0.3001243E-009  0.1174679E+03  0.7561462E-02  0.1247334E+00
         -1   -1    0    0    0  501 -0.00000000000E+00  0.00000000000E+00  0.33373696340E+02  0.33373696340E+02  0.00000000000E+00 0.  1.
          1   -1    0    0  501    0  0.00000000000E+00 -0.00000000000E+00 -0.95497601134E+03  0.95497601134E+03  0.00000000000E+00 0. -1.
         25    2    1    2    0    0 -0.95951990297E+02  0.30801265698E+02 -0.76732859263E+03  0.78396268659E+03  0.12509525365E+03 0.  0.
          5    1    3    3  502    0 -0.68845783994E+02  0.17116989308E+02 -0.73841360266E+03  0.74182535296E+03  0.41800000000E+01 0. -1.
         -5    1    3    3    0  502 -0.27106206303E+02  0.13684276390E+02 -0.28914989965E+02  0.42137333626E+02  0.41800000000E+01 0. -1.
        -11    1    1    2    0    0  0.10144031745E+03  0.49978792585E+00 -0.12675804152E+03  0.16235143634E+03  0.00000000000E+00 0.  1.
         11    1    1    2    0    0 -0.54883271506E+01 -0.31301053624E+02 -0.27515680860E+02  0.42035584759E+02  0.00000000000E+00 0. -1.
</event>
<event>
 7    1  0.3001243E-009  0.2507130E+03  0.7561462E-02  0.1112855E+00
         -2   -1    0    0    0  501 -0.00000000000E+00  0.00000000000E+00  0.92412515620E+02  0.92412515620E+02  0.00000000000E+00 0.  1.
          2   -1    0    0  501    0  0.00000000000E+00 -0.00000000000E+00 -0.78424835392E+03  0.78424835392E+03  0.00000000000E+00 0. -1.
         25    2    1    2    0    0  0.23357799716E+03 -0.63727209030E+02 -0.41936872199E+03  0.50013826056E+03  0.12509323228E+03 0.  0.
          5    1    3    3  502    0  0.10070943199E+03 -0.37275879661E+02 -0.77839132397E+02  0.13269620880E+03  0.41800000000E+01 0.  1.
         -5    1    3    3    0  502  0.13286856517E+03 -0.26451329369E+02 -0.34152958959E+03  0.36744205176E+03  0.41800000000E+01 0.  1.
        -11    1    1    2    0    0 -0.99243873655E+02  0.73844975084E+02 -0.15033222623E+03  0.19468488653E+03  0.00000000000E+00 0.  1.
         11    1    1    2    0    0 -0.13433412351E+03 -0.10117766054E+02 -0.12213489009E+03  0.18183772245E+03  0.00000000000E+00 0. -1.
</event>
<event>
 7    1  0.3001243E-009  0.9936539E+02  0.7561462E-02  0.1281636E+00
          2   -1    0    0  501    0  0.00000000000E+00  0.00000000000E+00  0.17055169751E+03  0.17055169751E+03  0.00000000000E+00 0. -1.
         -2   -1    0    0    0  501 -0.00000000000E+00 -0.00000000000E+00 -0.72422672381E+02  0.72422672381E+02  0.00000000000E+00 0.  1.
         25    2    1    2    0    0 -0.28000377624E+02 -0.13081190612E+02  0.10479317600E+03  0.16608560133E+03  0.12509068126E+03 0.  0.
          5    1    3    3  502    0  0.43269350495E+02  0.14351475109E+02  0.15084222779E+02  0.48199665008E+02  0.41800000000E+01 0.  1.
         -5    1    3    3    0  502 -0.71269728119E+02 -0.27432665721E+02  0.89708953224E+02  0.11788593633E+03  0.41800000000E+01 0.  1.
        -11    1    1    2    0    0 -0.22705542736E+02  0.12159797060E+02 -0.43529573385E+01  0.26121840921E+02  0.00000000000E+00 0.  1.
         11    1    1    2    0    0  0.50705920360E+02  0.92139355219E+00 -0.23111935394E+01  0.50766927632E+02  0.00000000000E+00 0. -1.
</event>
<event>
 7    1  0.3001243E-009  0.8899791E+02  0.7561462E-02  0.1305297E+00
         -1   -1    0    0    0  501 -0.00000000000E+00  0.00000000000E+00  0.33177466442E+02  0.33177466442E+02  0.00000000000E+00 0.  1.
          1   -1    0    0  501    0  0.00000000000E+00 -0.00000000000E+00 -0.52068962044E+03  0.52068962044E+03  0.00000000000E+00 0. -1.
         25    2    1    2    0    0  0.60852648714E+02 -0.41394844481E+02 -0.29289517460E+03  0.32688230556E+03  0.12509148805E+03 0.  0.
          5    1    3    3  502    0  0.51252847511E+02 -0.40881015979E+02 -0.47026659931E+02  0.80790413972E+02  0.41800000000E+01 0.  1.
         -5    1    3    3    0  502  0.95998012036E+01 -0.51382850194E+00 -0.24586851467E+03  0.24609189159E+03  0.41800000000E+01 0.  1.
        -11    1    1    2    0    0 -0.28722417191E+02 -0.18279119340E+02 -0.12608365762E+03  0.13059935747E+03  0.00000000000E+00 0. -1.
         11    1    1    2    0    0 -0.32130231523E+02  0.59673963821E+02 -0.68533321776E+02  0.96385423843E+02  0.00000000000E+00 0.  1.
</event>
<event>
 7    1  0.3001243E-009  0.1008614E+03  0.7561462E-02  0.1278495E+00
         -1   -1    0    0    0  501 -0.00000000000E+00  0.00000000000E+00  0.19762070604E+02  0.19762070604E+02  0.00000000000E+00 0.  1.
          1   -1    0    0  501    0  0.00000000000E+00 -0.00000000000E+00 -0.67242723318E+03  0.67242723318E+03  0.00000000000E+00 0. -1.
         25    2    1    2    0    0 -0.34986798640E+02 -0.33498311789E+01 -0.42963579527E+03  0.44885429914E+03  0.12509183760E+03 0.  0.
          5    1    3    3  502    0 -0.56683567968E+02 -0.35667381031E+02 -0.37876682471E+03  0.38466474864E+03  0.41800000000E+01 0. -1.
         -5    1    3    3    0  502  0.21696769328E+02  0.32317549852E+02 -0.50868970564E+02  0.64189550504E+02  0.41800000000E+01 0. -1.
        -11    1    1    2    0    0 -0.40584020913E+01 -0.38223313130E+02 -0.11372892474E+03  0.12004899257E+03  0.00000000000E+00 0. -1.
         11    1    1    2    0    0  0.39045200732E+02  0.41573144308E+02 -0.10930044256E+03  0.12328601207E+03  0.00000000000E+00 0.  1.
</event>
<event>
 7    1  0.3001243E-009  0.1859385E+03  0.7561462E-02  0.1162176E+00
         -2   -1    0    0    0  501 -0.00000000000E+00  0.00000000000E+00  0.39762727764E+03  0.39762727764E+03  0.00000000000E+00 0.  1.
          2   -1    0    0  501    0  0.00000000000E+00 -0.00000000000E+00 -0.11546169143E+03  0.11546169143E+03  0.00000000000E+00 0. -1.
         25    2    1    2    0    0  0.14961312987E+03 -0.81282071531E+02  0.62134197810E+02  0.22022775177E+03  0.12509492528E+03 0.  0.
          5    1    3    3  502    0  0.16210822758E+02 -0.60330266132E+02 -0.15375618331E+02  0.64470255352E+02  0.41800000000E+01 0. -1.
         -5    1    3    3    0  502  0.13340230711E+03 -0.20951805399E+02  0.77509816141E+02  0.15575749642E+03  0.41800000000E+01 0. -1.
        -11    1    1    2    0    0 -0.98091920220E+02  0.72320424127E+02  0.86478712113E+02  0.14943505682E+03  0.00000000000E+00 0. -1.
         11    1    1    2    0    0 -0.51521209650E+02  0.89616474043E+01  0.13355267629E+03  0.14342616049E+03  0.00000000000E+00 0.  1.
</event>
<event>
 7    1  0.3150231E-009  0.8956637E+02  0.7561462E-02  0.1303905E+00
         -2   -1    0    0    0  501 -0.00000000000E+00  0.00000000000E+00  0.16423251665E+02  0.16423251665E+02  0.00000000000E+00 0.  1.
          2   -1    0    0  501    0  0.00000000000E+00 -0.00000000000E+00 -0.86793884673E+03  0.86793884673E+03  0.00000000000E+00 0. -1.
         25    2    1    2    0    0 -0.15130417942E+02 -0.14609678262E+02 -0.64493619653E+03  0.65729268106E+03  0.12509435931E+03 0.  0.
          5    1    3    3  502    0 -0.54420036747E+02  0.21970473014E+02 -0.18292173001E+03  0.19215117432E+03  0.41800000000E+01 0.  1.
         -5    1    3    3    0  502  0.39289618806E+02 -0.36580151276E+02 -0.46201446652E+03  0.46514150673E+03  0.41800000000E+01 0.  1.
        -11    1    1    2    0    0  0.39235298144E+02  0.20936305403E+01 -0.19251457046E+03  0.19648320984E+03  0.00000000000E+00 0. -1.
         11    1    1    2    0    0 -0.24104880202E+02  0.12516047722E+02 -0.14064828070E+02  0.30586207493E+02  0.00000000000E+00 0.  1.
</event>
<event>
 7    1  0.3001243E-009  0.1767272E+03  0.7561462E-02  0.1171009E+00
         -3   -1    0    0    0  501 -0.00000000000E+00  0.00000000000E+00  0.98491785866E+02  0.98491785866E+02  0.00000000000E+00 0.  1.
          3   -1    0    0  501    0  0.00000000000E+00 -0.00000000000E+00 -0.46434644736E+03  0.46434644736E+03  0.00000000000E+00 0. -1.
         25    2    1    2    0    0  0.50041114498E+02 -0.14566241038E+03 -0.32290702459E+03  0.37899590969E+03  0.12508917656E+03 0.  0.
          5    1    3    3  502    0  0.73477721861E+02 -0.15534173032E+03 -0.29157959818E+03  0.33847623737E+03  0.41800000000E+01 0.  1.
         -5    1    3    3    0  502 -0.23436607363E+02  0.96793199427E+01 -0.31327426413E+02  0.40519672320E+02  0.41800000000E+01 0.  1.
        -11    1    1    2    0    0 -0.13554165955E+02  0.76232596969E+02  0.23638751900E+02  0.80956252672E+02  0.00000000000E+00 0.  1.
         11    1    1    2    0    0 -0.36486948544E+02  0.69429813410E+02 -0.66586388797E+02  0.10288607086E+03  0.00000000000E+00 0. -1.
</event>
<event>
 7    1  0.3001243E-009  0.1652309E+03  0.7561462E-02  0.1182914E+00
          2   -1    0    0  501    0  0.00000000000E+00  0.00000000000E+00  0.31071062951E+03  0.31071062951E+03  0.00000000000E+00 0. -1.
         -2   -1    0    0    0  501 -0.00000000000E+00 -0.00000000000E+00 -0.22552826121E+03  0.22552826121E+03  0.00000000000E+00 0.  1.
         25    2    1    2    0    0 -0.61404269553E+01  0.12247184172E+03 -0.16470850732E+03  0.24044422358E+03  0.12508986934E+03 0.  0.
          5    1    3    3  502    0  0.44537901485E+02  0.11547861691E+03 -0.11675723768E+03  0.17020182309E+03  0.41800000000E+01 0. -1.
         -5    1    3    3    0  502 -0.50678328440E+02  0.69932248103E+01 -0.47951269635E+02  0.70242400488E+02  0.41800000000E+01 0. -1.
        -11    1    1    2    0    0  0.34648753316E+02 -0.12195290404E+03  0.17868480548E+03  0.21909200492E+03  0.00000000000E+00 0.  1.
         11    1    1    2    0    0 -0.28508326361E+02 -0.51893768131E+00  0.71206070130E+02  0.76702662219E+02  0.00000000000E+00 0. -1.
</event>
<event>
 7    1  0.3001243E-009  0.1985111E+03  0.7561462E-02  0.1151001E+00
         -1   -1    0    0    0  501 -0.00000000000E+00  0.00000000000E+00  0.25152158101E+02  0.25152158101E+02  0.00000000000E+00 0.  1.
          1   -1    0    0  501    0  0.00000000000E+00 -0.00000000000E+00 -0.16197882942E+04  0.16197882942E+04  0.00000000000E+00 0. -1.
         25    2    1    2    0    0  0.14975095662E+03  0.75953248552E+02 -0.93589057612E+03  0.95902700424E+03  0.12508948568E+03 0.  0.
          5    1    3    3  502    0 -0.69917858118E+01 -0.22663337553E+02 -0.10006873527E+03  0.10292587681E+03  0.41800000000E+01 0.  1.
         -5    1    3    3    0  502  0.15674274243E+03  0.98616586105E+02 -0.83582184084E+03  0.85610112743E+03  0.41800000000E+01 0.  1.
        -11    1    1    2    0    0 -0.94621353753E+02 -0.90243185877E+02 -0.51390049489E+03  0.53027422324E+03  0.00000000000E+00 0. -1.
         11    1    1    2    0    0 -0.55129602863E+02  0.14289937325E+02 -0.14484506508E+03  0.15563922481E+03  0.00000000000E+00 0.  1.
</event>
<event>
 7    1  0.3001243E-009  0.3177204E+03  0.7561462E-02  0.1076703E+00
         -2   -1    0    0    0  501 -0.00000000000E+00  0.00000000000E+00  0.59110368317E+02  0.59110368317E+02  0.00000000000E+00 0.  1.
          2   -1    0    0  501    0  0.00000000000E+00 -0.00000000000E+00 -0.17471247619E+04  0.17471247619E+04  0.00000000000E+00 0. -1.
         25    2    1    2    0    0 -0.29241980004E+03 -0.71316547489E+02 -0.76451588126E+03  0.83109997770E+03  0.12508897169E+03 0.  0.
          5    1    3    3  502    0 -0.10276770250E+03  0.30174597911E+02 -0.19878770853E+03  0.22584448742E+03  0.41800000000E+01 0. -1.
         -5    1    3    3    0  502 -0.18965209753E+03 -0.10149114540E+03 -0.56572817273E+03  0.60525549028E+03  0.41800000000E+01 0. -1.
        -11    1    1    2    0    0  0.71804634807E+02  0.57631940293E+02 -0.27208342863E+03  0.28723986189E+03  0.00000000000E+00 0.  1.
         11    1    1    2    0    0  0.22061516523E+03  0.13684607196E+02 -0.65141508366E+03  0.68789529060E+03  0.00000000000E+00 0. -1.
</event>
<event>
 7    1  0.3312523E-009  0.1742995E+03  0.7561462E-02  0.1173437E+00
         -1   -1    0    0    0  501 -0.00000000000E+00  0.00000000000E+00  0.58983282272E+02  0.58983282272E+02  0.00000000000E+00 0. -1.
          1   -1    0    0  501    0  0.00000000000E+00 -0.00000000000E+00 -0.10142982252E+04  0.10142982252E+04  0.00000000000E+00 0.  1.
         25    2    1    2    0    0 -0.14770028257E+03  0.76243917272E+02 -0.18021346951E+03  0.27523141221E+03  0.12508767839E+03 0.  0.
          5    1    3    3  502    0 -0.54367375840E+02 -0.33132156809E+01  0.30111736224E+01  0.54711319857E+02  0.41800000000E+01 0.  1.
         -5    1    3    3    0  502 -0.93332906730E+02  0.79557132953E+02 -0.18322464313E+03  0.22052009236E+03  0.41800000000E+01 0.  1.
        -11    1    1    2    0    0  0.23890097408E+02 -0.31671245970E+02 -0.67314773492E+02  0.78135032513E+02  0.00000000000E+00 0. -1.
         11    1    1    2    0    0  0.12381018516E+03 -0.44572671302E+02 -0.70778669996E+03  0.71991506278E+03  0.00000000000E+00 0.  1.
</event>
<event>
 7    1  0.3001243E-009  0.9134485E+02  0.7561462E-02  0.1299627E+00
          1   -1    0    0  501    0  0.00000000000E+00  0.00000000000E+00  0.80109541330E+03  0.80109541330E+03  0.00000000000E+00 0. -1.
         -1   -1    0    0    0  501 -0.00000000000E+00 -0.00000000000E+00 -0.16267203373E+02  0.16267203373E+02  0.00000000000E+00 0.  1.
         25    2    1    2    0    0 -0.16313633845E+02  0.26096279484E+02  0.37955165623E+03  0.40081675267E+03  0.12508980385E+03 0.  0.
          5    1    3    3  502    0  0.35071165348E+00  0.53842098913E+02  0.64695268076E+02  0.84273630072E+02  0.41800000000E+01 0. -1.
         -5    1    3    3    0  502 -0.16664345498E+02 -0.27745819429E+02  0.31485638815E+03  0.31654312260E+03  0.41800000000E+01 0. -1.
        -11    1    1    2    0    0  0.49117008332E+02  0.68093034286E+01  0.22213668793E+03  0.22760394382E+03  0.00000000000E+00 0.  1.
         11    1    1    2    0    0 -0.32803374487E+02 -0.32905582913E+02  0.18313986578E+03  0.18894192018E+03  0.00000000000E+00 0. -1.
</event>
<event>
 7    1  0.3001243E-009  0.1998038E+03  0.7561462E-02  0.1149905E+00
         -1   -1    0    0    0  501 -0.00000000000E+00  0.00000000000E+00  0.66360164367E+02  0.66360164367E+02  0.00000000000E+00 0.  1.
          1   -1    0    0  501    0  0.00000000000E+00 -0.00000000000E+00 -0.74846119616E+03  0.74846119616E+03  0.00000000000E+00 0. -1.
         25    2    1    2    0    0 -0.16167825609E+03 -0.10031177707E+03 -0.27983251316E+03  0.36077041259E+03  0.12508694604E+03 0.  0.
          5    1    3    3  502    0 -0.12914073656E+03 -0.80059565332E+02 -0.28387296176E+03  0.32200651338E+03  0.41800000000E+01 0. -1.
         -5    1    3    3    0  502 -0.32537519533E+02 -0.20252211734E+02  0.40404486003E+01  0.38763899215E+02  0.41800000000E+01 0. -1.
        -11    1    1    2    0    0  0.97688291516E+02  0.97609776444E+01 -0.21628689764E+03  0.23752536933E+03  0.00000000000E+00 0. -1.
         11    1    1    2    0    0  0.63989964577E+02  0.90550799422E+02 -0.18598162100E+03  0.21652557861E+03  0.00000000000E+00 0.  1.
</event>
<event>
 7    1  0.3001243E-009  0.1198607E+03  0.7561462E-02  0.1243327E+00
         -2   -1    0    0    0  501 -0.00000000000E+00  0.00000000000E+00  0.14538880903E+02  0.14538880903E+02  0.00000000000E+00 0.  1.
          2   -1    0    0  501    0  0.00000000000E+00 -0.00000000000E+00 -0.12520555277E+04  0.12520555277E+04  0.00000000000E+00 0. -1.
         25    2    1    2    0    0 -0.68679614764E+02 -0.14974508029E+02 -0.84614330992E+03  0.85822348543E+03  0.12509166502E+03 0.  0.
          5    1    3    3  502    0  0.29129129220E+02 -0.14283066902E+02 -0.40639211486E+03  0.40770643310E+03  0.41800000000E+01 0. -1.
         -5    1    3    3    0  502 -0.97808743984E+02 -0.69144112664E+00 -0.43975119506E+03  0.45051705234E+03  0.41800000000E+01 0. -1.
        -11    1    1    2    0    0  0.13782820751E+02  0.44634054365E+02 -0.24236536617E+03  0.24682612438E+03  0.00000000000E+00 0. -1.
         11    1    1    2    0    0  0.54896794013E+02 -0.29659546337E+02 -0.14900797072E+03  0.16154479881E+03  0.00000000000E+00 0.  1.
</event>
<event>
 7    1  0.3268575E-009  0.1146749E+03  0.7561462E-02  0.1252150E+00
          1   -1    0    0  501    0  0.00000000000E+00  0.00000000000E+00  0.63481993056E+02  0.63481993056E+02  0.00000000000E+00 0. -1.
         -1   -1    0    0    0  501 -0.00000000000E+00 -0.00000000000E+00 -0.36222126793E+03  0.36222126793E+03  0.00000000000E+00 0.  1.
         25    2    1    2    0    0  0.74317872593E+02  0.75906490815E+02 -0.15991399452E+03  0.22913790700E+03  0.12508698273E+03 0.  0.
          5    1    3    3  502    0  0.49947547729E+02  0.82719738725E+02 -0.36966490218E+02  0.10354374195E+03  0.41800000000E+01 0.  1.
         -5    1    3    3    0  502  0.24370324863E+02 -0.68132479096E+01 -0.12294750430E+03  0.12559416505E+03  0.41800000000E+01 0.  1.
        -11    1    1    2    0    0 -0.58378711355E+02 -0.51593776453E+02 -0.14699663931E+03  0.16636707510E+03  0.00000000000E+00 0.  1.
         11    1    1    2    0    0 -0.15939161238E+02 -0.24312714362E+02  0.81713589505E+01  0.30198278887E+02  0.00000000000E+00 0. -1.
</event>
<event>
 7    1  0.3001243E-009  0.8207364E+02  0.7561462E-02  0.1323268E+00
         -3   -1    0    0    0  501 -0.00000000000E+00  0.00000000000E+00  0.35832216694E+02  0.35832216694E+02  0.00000000000E+00 0.  1.
          3   -1    0    0  501    0  0.00000000000E+00 -0.00000000000E+00 -0.32571918003E+03  0.32571918003E+03  0.00000000000E+00 0. -1.
         25    2    1    2    0    0  0.21301565158E+02  0.11982422947E+01 -0.15903613652E+03  0.20346610607E+03  0.12510304208E+03 0.  0.
          5    1    3    3  502    0  0.24046318277E+02 -0.46425769518E+02 -0.19526962359E+02  0.55967420496E+02  0.41800000000E+01 0.  1.
         -5    1    3    3    0  502 -0.27447531190E+01  0.47624011812E+02 -0.13950917416E+03  0.14749868558E+03  0.41800000000E+01 0.  1.
        -11    1    1    2    0    0  0.21244235445E+02  0.12559344854E+00 -0.81547177156E+00  0.21260251823E+02  0.00000000000E+00 0.  1.
         11    1    1    2    0    0 -0.42545800603E+02 -0.13238357433E+01 -0.13003535504E+03  0.13682503883E+03  0.00000000000E+00 0. -1.
</event>
<event>
 7    1  0.3001243E-009  0.1092979E+03  0.7561462E-02  0.1261876E+00
         -2   -1    0    0    0  501 -0.00000000000E+00  0.00000000000E+00  0.13143171266E+03  0.13143171266E+03  0.00000000000E+00 0. -1.
          2   -1    0    0  501    0  0.00000000000E+00 -0.00000000000E+00 -0.18466411305E+03  0.18466411305E+03  0.00000000000E+00 0.  1.
         25    2    1    2    0    0  0.84583551180E+02 -0.78528572451E+01 -0.10254366300E+03  0.18269868188E+03  0.12509021162E+03 0.  0.
          5    1    3    3  502    0  0.17156800598E+02 -0.21539449369E+02  0.25189760743E+02  0.37553962936E+02  0.41800000000E+01 0. -1.
         -5    1    3    3    0  502  0.67426750582E+02  0.13686592124E+02 -0.12773342374E+03  0.14514471895E+03  0.41800000000E+01 0. -1.
        -11    1    1    2    0    0  0.46983683788E+01 -0.25931835319E+02  0.21376184920E+02  0.33933405815E+02  0.00000000000E+00 0.  1.
         11    1    1    2    0    0 -0.89281919559E+02  0.33784692564E+02  0.27935077687E+02  0.99463738001E+02  0.00000000000E+00 0. -1.
</event>
<event>
 7    1  0.3001243E-009  0.9011477E+02  0.7561462E-02  0.1302574E+00
         -2   -1    0    0    0  501 -0.00000000000E+00  0.00000000000E+00  0.12001288042E+03  0.12001288042E+03  0.00000000000E+00 0.  1.
          2   -1    0    0  501    0  0.00000000000E+00 -0.00000000000E+00 -0.16682448020E+03  0.16682448020E+03  0.00000000000E+00 0. -1.
         25    2    1    2    0    0  0.35493153929E+02 -0.15175662631E+02  0.58121716963E+02  0.14326623850E+03  0.12512800006E+03 0.  0.
          5    1    3    3  502    0  0.53056836540E+02  0.73574718662E+01 -0.22032912399E+02  0.58069629969E+02  0.41800000000E+01 0.  1.
         -5    1    3    3    0  502 -0.17563682611E+02 -0.22533134497E+02  0.80154629362E+02  0.85196608531E+02  0.41800000000E+01 0.  1.
        -11    1    1    2    0    0 -0.18121843379E+01  0.49503505077E+02 -0.59382586529E+02  0.77331575762E+02  0.00000000000E+00 0. -1.
         11    1    1    2    0    0 -0.33680969591E+02 -0.34327842446E+02 -0.45550730212E+02  0.66239546363E+02  0.00000000000E+00 0.  1.
</event>
<event>
 7    1  0.3001243E-009  0.9805573E+02  0.7561462E-02  0.1284438E+00
          1   -1    0    0  501    0  0.00000000000E+00  0.00000000000E+00  0.16700040628E+03  0.16700040628E+03  0.00000000000E+00 0. -1.
         -1   -1    0    0    0  501 -0.00000000000E+00 -0.00000000000E+00 -0.80474251797E+02  0.80474251797E+02  0.00000000000E+00 0.  1.
         25    2    1    2    0    0  0.13131629931E+01  0.24905034434E+02  0.16752225963E+02  0.12864082220E+03  0.12508332792E+03 0.  0.
          5    1    3    3  502    0  0.23926531495E+01 -0.39849393521E+02  0.42830164939E+02  0.58699185529E+02  0.41800000000E+01 0.  1.
         -5    1    3    3    0  502 -0.10794901564E+01  0.64754427955E+02 -0.26077938976E+02  0.69941636669E+02  0.41800000000E+01 0.  1.
        -11    1    1    2    0    0 -0.42616515841E+02 -0.25694116847E+02  0.56839835535E+02  0.75545496005E+02  0.00000000000E+00 0. -1.
         11    1    1    2    0    0  0.41303352848E+02  0.78908241288E+00  0.12934092981E+02  0.43288339871E+02  0.00000000000E+00 0.  1.
</event>
<event>
 7    1  0.3001243E-009  0.9863103E+02  0.7561462E-02  0.1283201E+00
          1   -1    0    0  501    0  0.00000000000E+00  0.00000000000E+00  0.13390250302E+03  0.13390250302E+03  0.00000000000E+00 0. -1.
         -1   -1    0    0    0  501 -0.00000000000E+00 -0.00000000000E+00 -0.88748148282E+02  0.88748148282E+02  0.00000000000E+00 0.  1.
         25    2    1    2    0    0 -0.24116674158E+02  0.46757062656E+00  0.30855043365E+02  0.13107660471E+03  0.12508880847E+03 0.  0.
          5    1    3    3  502    0 -0.25209133148E+02 -0.59198004697E+02  0.16314902791E+01  0.64498359008E+02  0.41800000000E+01 0. -1.
         -5    1    3    3    0  502  0.10924589903E+01  0.59665575324E+02  0.29223553086E+02  0.66578245699E+02  0.41800000000E+01 0. -1.
        -11    1    1    2    0    0  0.42589582827E+02 -0.19143306657E+02  0.34814172043E+02  0.58244015403E+02  0.00000000000E+00 0. -1.
         11    1    1    2    0    0 -0.18472908670E+02  0.18675736031E+02 -0.20514860670E+02  0.33330031193E+02  0.00000000000E+00 0.  1.
</event>
<event>
 7    1  0.3001243E-009  0.1852421E+03  0.7561462E-02  0.1162824E+00
          2   -1    0    0  501    0  0.00000000000E+00  0.00000000000E+00  0.85082315388E+02  0.85082315388E+02  0.00000000000E+00 0. -1.
         -2   -1    0    0    0  501 -0.00000000000E+00 -0.00000000000E+00 -0.45206888472E+03  0.45206888472E+03  0.00000000000E+00 0.  1.
         25    2    1    2    0    0  0.46993659337E+02  0.15618945778E+03 -0.21559616462E+03  0.29788064477E+03  0.12509045364E+03 0.  0.
          5    1    3    3  502    0  0.26145212822E+01  0.14636005699E+03 -0.11099594941E+03  0.18375438821E+03  0.41800000000E+01 0.  1.
         -5    1    3    3    0  502  0.44379138054E+02  0.98294007957E+01 -0.10460021521E+03  0.11412625656E+03  0.41800000000E+01 0.  1.
        -11    1    1    2    0    0 -0.28257865371E+02 -0.84817204229E+01 -0.53457902578E+02  0.61058937795E+02  0.00000000000E+00 0.  1.
         11    1    1    2    0    0 -0.18735793965E+02 -0.14770773736E+03 -0.97932502133E+02  0.17821161754E+03  0.00000000000E+00 0. -1.
</event>
<event>
 7    1  0.3001243E-009  0.9897724E+02  0.7561462E-02  0.1282461E+00
          2   -1    0    0  501    0  0.00000000000E+00  0.00000000000E+00  0.25341084981E+03  0.25341084981E+03  0.00000000000E+00 0. -1.
         -2   -1    0    0    0  501 -0.00000000000E+00 -0.00000000000E+00 -0.78223856836E+02  0.78223856836E+02  0.00000000000E+00 0.  1.
         25    2    1    2    0    0  0.33520076277E+02 -0.42812888649E+02  0.12947267169E+02  0.13701500408E+03  0.12509572601E+03 0.  0.
          5    1    3    3  502    0 -0.79470654542E+01 -0.57038053527E+02 -0.38419881906E+02  0.69354560955E+02  0.41800000000E+01 0. -1.
         -5    1    3    3    0  502  0.41467141731E+02  0.14225164879E+02  0.51367149076E+02  0.67660443121E+02  0.41800000000E+01 0. -1.
        -11    1    1    2    0    0 -0.56894840945E+02  0.13122891364E+02  0.13768822949E+03  0.14955695151E+03  0.00000000000E+00 0. -1.
         11    1    1    2    0    0  0.23374764668E+02  0.29689997285E+02  0.24551496313E+02  0.45062751062E+02  0.00000000000E+00 0.  1.
</event>
<event>
 7    1  0.3001243E-009  0.1551948E+03  0.7561462E-02  0.1194231E+00
         -1   -1    0    0    0  501 -0.00000000000E+00  0.00000000000E+00  0.23020678948E+03  0.23020678948E+03  0.00000000000E+00 0.  1.
          1   -1    0    0  501    0  0.00000000000E+00 -0.00000000000E+00 -0.13873885119E+03  0.13873885119E+03  0.00000000000E+00 0. -1.
         25    2    1    2    0    0  0.44922900516E+01  0.11973973619E+03  0.12588543817E+03  0.21413370857E+03  0.12509323127E+03 0.  0.
          5    1    3    3  502    0  0.38493913757E+02 -0.42898000514E+01  0.83121523485E+01  0.39834006294E+02  0.41800000000E+01 0. -1.
         -5    1    3    3    0  502 -0.34001623705E+02  0.12402953624E+03  0.11757328582E+03  0.17429970228E+03  0.41800000000E+01 0. -1.
        -11    1    1    2    0    0  0.28769315925E+02 -0.14162921365E+02 -0.30185169344E+02  0.44038691270E+02  0.00000000000E+00 0. -1.
         11    1    1    2    0    0 -0.33261605977E+02 -0.10557681483E+03 -0.42323305369E+01  0.11077324082E+03  0.00000000000E+00 0.  1.
</event>
<event>
 7    1  0.3001243E-009  0.4771284E+02  0.7561462E-02  0.1458083E+00
          1   -1    0    0  501    0  0.00000000000E+00  0.00000000000E+00  0.23009518580E+03  0.23009518580E+03  0.00000000000E+00 0. -1.
         -1   -1    0    0    0  501 -0.00000000000E+00 -0.00000000000E+00 -0.55624544613E+02  0.55624544613E+02  0.00000000000E+00 0.  1.
         25    2    1    2    0    0 -0.31480797097E+02  0.51326061400E+01  0.99396760031E+02  0.16292550614E+03  0.12509044894E+03 0.  0.
          5    1    3    3  502    0 -0.41932184538E+02  0.42040345545E+01  0.12658684845E+03  0.13348290006E+03  0.41800000000E+01 0. -1.
         -5    1    3    3    0  502  0.10451387441E+02  0.92857158548E+00 -0.27190088421E+02  0.29442606083E+02  0.41800000000E+01 0. -1.
        -11    1    1    2    0    0  0.18809172979E+02  0.10592493981E+02 -0.17657900186E+02  0.27888839271E+02  0.00000000000E+00 0.  1.
         11    1    1    2    0    0  0.12671624118E+02 -0.15725100121E+02  0.92731781343E+02  0.94905385003E+02  0.00000000000E+00 0. -1.
</event>
<event>
 7    1  0.3001243E-009  0.1015442E+03  0.7561462E-02  0.1277082E+00
         -1   -1    0    0    0  501 -0.00000000000E+00  0.00000000000E+00  0.42652601213E+02  0.42652601213E+02  0.00000000000E+00 0.  1.
          1   -1    0    0  501    0  0.00000000000E+00 -0.00000000000E+00 -0.35338837841E+03  0.35338837841E+03  0.00000000000E+00 0. -1.
         25    2    1    2    0    0  0.55279736042E+02  0.15932933617E+02 -0.19639198374E+03  0.23984788914E+03  0.12508993187E+03 0.  0.
          5    1    3    3  502    0  0.56886009688E+02 -0.44307223160E+02 -0.13838706343E+03  0.15610124871E+03  0.41800000000E+01 0.  1.
         -5    1    3    3    0  502 -0.16062736460E+01  0.60240156777E+02 -0.58004920310E+02  0.83746640433E+02  0.41800000000E+01 0.  1.
        -11    1    1    2    0    0 -0.46685468170E+02  0.58388665501E+01 -0.12264349103E+03  0.13135848352E+03  0.00000000000E+00 0. -1.
         11    1    1    2    0    0 -0.85942678718E+01 -0.21771800167E+02  0.82996975816E+01  0.24834606957E+02  0.00000000000E+00 0.  1.
</event>
<event>
 7    1  0.3001243E-009  0.8236190E+02  0.7561462E-02  0.1322479E+00
          2   -1    0    0  501    0  0.00000000000E+00  0.00000000000E+00  0.42401048721E+02  0.42401048721E+02  0.00000000000E+00 0.  1.
         -2   -1    0    0    0  501 -0.00000000000E+00 -0.00000000000E+00 -0.39515445857E+03  0.39515445857E+03  0.00000000000E+00 0. -1.
         25    2    1    2    0    0 -0.96036644294E+01 -0.62205103280E+01 -0.31341930197E+03  0.33765592938E+03  0.12509573407E+03 0.  0.
          5    1    3    3  502    0  0.30128386831E+02  0.45448100425E+02 -0.94302997654E+02  0.10901273913E+03  0.41800000000E+01 0.  1.
         -5    1    3    3    0  502 -0.39732051260E+02 -0.51668610753E+02 -0.21911630432E+03  0.22864319026E+03  0.41800000000E+01 0.  1.
        -11    1    1    2    0    0  0.26792307568E+02  0.63496510999E+01  0.22601680320E+02  0.35622770347E+02  0.00000000000E+00 0.  1.
         11    1    1    2    0    0 -0.17188643139E+02 -0.12914077186E+00 -0.61935788202E+02  0.64276807563E+02  0.00000000000E+00 0. -1.
</event>
<event>
 7    1  0.3001243E-009  0.9591651E+02  0.7561462E-02  0.1289125E+00
         -1   -1    0    0    0  501 -0.00000000000E+00  0.00000000000E+00  0.33420810349E+02  0.33420810349E+02  0.00000000000E+00 0.  1.
          1   -1    0    0  501    0  0.00000000000E+00 -0.00000000000E+00 -0.42603503337E+03  0.42603503337E+03  0.00000000000E+00 0. -1.
         25    2    1    2    0    0 -0.45575172890E+02 -0.14635932359E+02 -0.25614658276E+03  0.28904970582E+03  0.12508938275E+03 0.  0.
          5    1    3    3  502    0  0.18530270442E+02  0.35314296875E+02 -0.34364100437E+02  0.52809414741E+02  0.41800000000E+01 0. -1.
         -5    1    3    3    0  502 -0.64105443331E+02 -0.49950229234E+02 -0.22178248232E+03  0.23624029108E+03  0.41800000000E+01 0. -1.
        -11    1    1    2    0    0 -0.30347233973E+01  0.21102884725E+02  0.39403693482E+01  0.21681047032E+02  0.00000000000E+00 0.  1.
         11    1    1    2    0    0  0.48609896287E+02 -0.64669523663E+01 -0.14040800962E+03  0.14872509087E+03  0.00000000000E+00 0. -1.
</event>
<event>
 7    1  0.3001243E-009  0.1436178E+03  0.7561462E-02  0.1208542E+00
         -1   -1    0    0    0  501 -0.00000000000E+00  0.00000000000E+00  0.26680117509E+03  0.26680117509E+03  0.00000000000E+00 0.  1.
          1   -1    0    0  501    0  0.00000000000E+00 -0.00000000000E+00 -0.86411702345E+02  0.86411702345E+02  0.00000000000E+00 0. -1.
         25    2    1    2    0    0  0.92571076522E+02  0.42004561585E+02  0.60403348872E+02  0.17213409669E+03  0.12509114792E+03 0.  0.
          5    1    3    3  502    0 -0.26650655532E+02  0.99795736934E+01  0.36251416620E+02  0.46276202722E+02  0.41800000000E+01 0. -1.
         -5    1    3    3    0  502  0.11922173205E+03  0.32024987892E+02  0.24151932252E+02  0.12585789397E+03  0.41800000000E+01 0. -1.
        -11    1    1    2    0    0 -0.48826953729E+02  0.25060952623E+02  0.57715862458E+02  0.79644482145E+02  0.00000000000E+00 0.  1.
         11    1    1    2    0    0 -0.43744122793E+02 -0.67065514208E+02  0.62270261413E+02  0.10143429859E+03  0.00000000000E+00 0. -1.
</event>
<event>
 7    1  0.3001243E-009  0.1025206E+03  0.7561462E-02  0.1275083E+00
         -2   -1    0    0    0  501 -0.00000000000E+00  0.00000000000E+00  0.43155856230E+02  0.43155856230E+02  0.00000000000E+00 0.  1.
          2   -1    0    0  501    0  0.00000000000E+00 -0.00000000000E+00 -0.32570466094E+03  0.32570466094E+03  0.00000000000E+00 0. -1.
         25    2    1    2    0    0 -0.17689601345E+02 -0.19351138965E+02 -0.22177489921E+03  0.25596685909E+03  0.12509012135E+03 0.  0.
          5    1    3    3  502    0  0.50044209463E+02  0.10018073937E+02 -0.11710724757E+03  0.12781378854E+03  0.41800000000E+01 0. -1.
         -5    1    3    3    0  502 -0.67733810808E+02 -0.29369212902E+02 -0.10466765164E+03  0.12815307055E+03  0.41800000000E+01 0. -1.
        -11    1    1    2    0    0  0.28306200330E+02 -0.22846215885E+02 -0.59040498816E+02  0.69346745113E+02  0.00000000000E+00 0. -1.
         11    1    1    2    0    0 -0.10616598986E+02  0.42197354850E+02 -0.17334066860E+01  0.43546912968E+02  0.00000000000E+00 0.  1.
</event>
<event>
 7    1  0.3001243E-009  0.1900190E+03  0.7561462E-02  0.1158444E+00
          2   -1    0    0  501    0  0.00000000000E+00  0.00000000000E+00  0.74142356097E+03  0.74142356097E+03  0.00000000000E+00 0. -1.
         -2   -1    0    0    0  501 -0.00000000000E+00 -0.00000000000E+00 -0.50521828709E+02  0.50521828709E+02  0.00000000000E+00 0.  1.
         25    2    1    2    0    0 -0.13743339041E+03 -0.76469332055E+02  0.42011228754E+03  0.46569866514E+03  0.12508164143E+03 0.  0.
          5    1    3    3  502    0 -0.10242988352E+03  0.14362185766E+02  0.21558918339E+03  0.23915334372E+03  0.41800000000E+01 0. -1.
         -5    1    3    3    0  502 -0.35003506891E+02 -0.90831517821E+02  0.20452310415E+03  0.22654532142E+03  0.41800000000E+01 0. -1.
        -11    1    1    2    0    0  0.14961914660E+03  0.68701853507E+02  0.26168167313E+03  0.30916521758E+03  0.00000000000E+00 0. -1.
         11    1    1    2    0    0 -0.12185756192E+02  0.77674785476E+01  0.91077715822E+01  0.17081506963E+02  0.00000000000E+00 0.  1.
</event>
<event>
 7    1  0.3001243E-009  0.1154758E+03  0.7561462E-02  0.1250753E+00
         -2   -1    0    0    0  501 -0.00000000000E+00  0.00000000000E+00  0.69338206884E+02  0.69338206884E+02  0.00000000000E+00 0.  1.
          2   -1    0    0  501    0  0.00000000000E+00 -0.00000000000E+00 -0.37184543851E+03  0.37184543851E+03  0.00000000000E+00 0. -1.
         25    2    1    2    0    0  0.61912405048E+02 -0.52668126551E+02 -0.28111094089E+03  0.31824256614E+03  0.12509153594E+03 0.  0.
          5    1    3    3  502    0 -0.57402543066E+01 -0.57699467197E+02 -0.21755586048E+03  0.22518926232E+03  0.41800000000E+01 0.  1.
         -5    1    3    3    0  502  0.67652659355E+02  0.50313406459E+01 -0.63555080410E+02  0.93053303823E+02  0.41800000000E+01 0.  1.
        -11    1    1    2    0    0 -0.60115554508E+02  0.85808931923E+01  0.18473297183E+02  0.63472626624E+02  0.00000000000E+00 0.  1.
         11    1    1    2    0    0 -0.17968505404E+01  0.44087233359E+02 -0.39869587917E+02  0.59468452626E+02  0.00000000000E+00 0. -1.
</event>
<event>
 7    1  0.3001243E-009  0.7308972E+02  0.7561462E-02  0.1349891E+00
         -2   -1    0    0    0  501 -0.00000000000E+00  0.00000000000E+00  0.98373713690E+02  0.98373713690E+02  0.00000000000E+00 0.  1.
          2   -1    0    0  501    0  0.00000000000E+00 -0.00000000000E+00 -0.19574051790E+03  0.19574051790E+03  0.00000000000E+00 0. -1.
         25    2    1    2    0    0 -0.37057255652E+02 -0.48046403186E+02  0.11788008487E+02  0.13952898048E+03  0.12509069587E+03 0.  0.
          5    1    3    3  502    0 -0.23367807035E+02 -0.27167786428E+02  0.68502141190E+02  0.77421952783E+02  0.41800000000E+01 0. -1.
         -5    1    3    3    0  502 -0.13689448616E+02 -0.20878616758E+02 -0.56714132704E+02  0.62107027698E+02  0.41800000000E+01 0. -1.
        -11    1    1    2    0    0 -0.61679971037E+01 -0.10401384839E+02 -0.71881372763E+02  0.72891458657E+02  0.00000000000E+00 0. -1.
         11    1    1    2    0    0  0.43225252756E+02  0.58447788024E+02 -0.37273439934E+02  0.81693792452E+02  0.00000000000E+00 0.  1.
</event>
<event>
 7    1  0.3001243E-009  0.1880027E+03  0.7561462E-02  0.1160275E+00
         -2   -1    0    0    0  501 -0.00000000000E+00  0.00000000000E+00  0.90056632553E+02  0.90056632553E+02  0.00000000000E+00 0.  1.
          2   -1    0    0  501    0  0.00000000000E+00 -0.00000000000E+00 -0.22451457236E+04  0.22451457236E+04  0.00000000000E+00 0. -1.
         25    2    1    2    0    0 -0.15363012029E+03  0.76006487133E+02 -0.21286135800E+04  0.21391640091E+04  0.12509070711E+03 0.  0.
          5    1    3    3  502    0 -0.32740582090E+02  0.47325735930E+02 -0.12997115927E+04  0.13009916862E+04  0.41800000000E+01 0. -1.
         -5    1    3    3    0  502 -0.12088953820E+03  0.28680751202E+02 -0.82890198729E+03  0.83817232289E+03  0.41800000000E+01 0. -1.
        -11    1    1    2    0    0  0.36885787991E+02  0.20786844200E+02 -0.16796421762E+01  0.42373050933E+02  0.00000000000E+00 0.  1.
         11    1    1    2    0    0  0.11674433230E+03 -0.96793331333E+02 -0.24795868880E+02  0.15366529611E+03  0.00000000000E+00 0. -1.
</event>
<event>
 7    1  0.3001243E-009  0.9809302E+02  0.7561462E-02  0.1284358E+00
          2   -1    0    0  501    0  0.00000000000E+00  0.00000000000E+00  0.42601637387E+03  0.42601637387E+03  0.00000000000E+00 0. -1.
         -2   -1    0    0    0  501 -0.00000000000E+00 -0.00000000000E+00 -0.43019252211E+02  0.43019252211E+02  0.00000000000E+00 0.  1.
         25    2    1    2    0    0  0.31906976766E+02  0.11550883837E+02  0.83882962352E+02  0.15438754275E+03  0.12509070269E+03 0.  0.
          5    1    3    3  502    0  0.22520218317E+02  0.55971753599E+02  0.89951510430E+02  0.10839162358E+03  0.41800000000E+01 0. -1.
         -5    1    3    3    0  502  0.93867584481E+01 -0.44420869762E+02 -0.60685480782E+01  0.45995919171E+02  0.41800000000E+01 0. -1.
        -11    1    1    2    0    0 -0.60513962477E+02 -0.10983044267E+02  0.25308403850E+03  0.26044979835E+03  0.00000000000E+00 0. -1.
         11    1    1    2    0    0  0.28606985711E+02 -0.56783956955E+00  0.46030120801E+02  0.54198284974E+02  0.00000000000E+00 0.  1.
</event>
<event>
 7    1  0.3001243E-009  0.7755575E+02  0.7561462E-02  0.1336135E+00
          2   -1    0    0  501    0  0.00000000000E+00  0.00000000000E+00  0.80237429443E+02  0.80237429443E+02  0.00000000000E+00 0. -1.
         -2   -1    0    0    0  501 -0.00000000000E+00 -0.00000000000E+00 -0.15512239892E+03  0.15512239892E+03  0.00000000000E+00 0.  1.
         25    2    1    2    0    0 -0.18434237257E+02 -0.85625665784E+01 -0.24360479343E+02  0.12905093193E+03  0.12509025313E+03 0.  0.
          5    1    3    3  502    0 -0.45093993773E+02 -0.15398211051E+02 -0.64439494766E+02  0.80252688825E+02  0.41800000000E+01 0.  1.
         -5    1    3    3    0  502  0.26659756516E+02  0.68356444725E+01  0.40079015423E+02  0.48798243105E+02  0.41800000000E+01 0.  1.
        -11    1    1    2    0    0  0.41817365674E+02  0.26901827447E+02 -0.57262142986E+02  0.75837678045E+02  0.00000000000E+00 0.  1.
         11    1    1    2    0    0 -0.23383128416E+02 -0.18339260869E+02  0.67376528567E+01  0.30471218383E+02  0.00000000000E+00 0. -1.
</event>
<event>
 7    1  0.3001243E-009  0.1425950E+03  0.7561462E-02  0.1209879E+00
         -1   -1    0    0    0  501 -0.00000000000E+00  0.00000000000E+00  0.13677485638E+03  0.13677485638E+03  0.00000000000E+00 0.  1.
          1   -1    0    0  501    0  0.00000000000E+00 -0.00000000000E+00 -0.20873740814E+03  0.20873740814E+03  0.00000000000E+00 0. -1.
         25    2    1    2    0    0 -0.73563566750E+02  0.91519759208E+02 -0.89718587565E+02  0.19361076775E+03  0.12509292449E+03 0.  0.
          5    1    3    3  502    0  0.28466231657E+01  0.90145182147E+02 -0.70890996901E+02  0.11479226006E+03  0.41800000000E+01 0. -1.
         -5    1    3    3    0  502 -0.76410189915E+02  0.13745770613E+01 -0.18827590664E+02  0.78818507695E+02  0.41800000000E+01 0. -1.
        -11    1    1    2    0    0  0.51605969001E+02 -0.74291928845E+02  0.54616815185E+02  0.10566675555E+03  0.00000000000E+00 0.  1.
         11    1    1    2    0    0  0.21957597749E+02 -0.17227830363E+02 -0.36860779387E+02  0.46234741212E+02  0.00000000000E+00 0. -1.
</event>
<event>
 7    1  0.3001243E-009  0.6932411E+02  0.7561462E-02  0.1362407E+00
          3   -1    0    0  501    0  0.00000000000E+00  0.00000000000E+00  0.58093335826E+02  0.58093335826E+02  0.00000000000E+00 0. -1.
         -3   -1    0    0    0  501 -0.00000000000E+00 -0.00000000000E+00 -0.33855862422E+03  0.33855862422E+03  0.00000000000E+00 0.  1.
         25    2    1    2    0    0 -0.18914377483E+02 -0.19380644029E+02 -0.24553176848E+03  0.27688323547E+03  0.12508042897E+03 0.  0.
          5    1    3    3  502    0  0.78150335668E+01  0.17105475666E+02 -0.22701635826E+03  0.22783233169E+03  0.41800000000E+01 0.  1.
         -5    1    3    3    0  502 -0.26729411050E+02 -0.36486119695E+02 -0.18515410222E+02  0.49050903775E+02  0.41800000000E+01 0.  1.
        -11    1    1    2    0    0  0.41776385675E+02  0.27139935811E+02  0.24574639197E+02  0.55549576124E+02  0.00000000000E+00 0. -1.
         11    1    1    2    0    0 -0.22862008192E+02 -0.77592917816E+01 -0.59508159105E+02  0.64219148450E+02  0.00000000000E+00 0.  1.
</event>
<event>
 7    1  0.3001243E-009  0.9392996E+02  0.7561462E-02  0.1293604E+00
         -1   -1    0    0    0  501 -0.00000000000E+00  0.00000000000E+00  0.12768692964E+03  0.12768692964E+03  0.00000000000E+00 0.  1.
          1   -1    0    0  501    0  0.00000000000E+00 -0.00000000000E+00 -0.18230487604E+03  0.18230487604E+03  0.00000000000E+00 0. -1.
         25    2    1    2    0    0  0.54326076713E+01 -0.65098724870E+02  0.54591297265E+02  0.15131530198E+03  0.12509497860E+03 0.  0.
          5    1    3    3  502    0  0.31695955182E+02 -0.43687386418E+02 -0.28717890892E+02  0.61281407982E+02  0.41800000000E+01 0.  1.
         -5    1    3    3    0  502 -0.26263347511E+02 -0.21411338452E+02  0.83309188157E+02  0.90033893996E+02  0.41800000000E+01 0.  1.
        -11    1    1    2    0    0 -0.90707334821E+01  0.81895194028E+02 -0.48563422447E+02  0.95642600396E+02  0.00000000000E+00 0.  1.
         11    1    1    2    0    0  0.36381258107E+01 -0.16796469158E+02 -0.60645821211E+02  0.63033903306E+02  0.00000000000E+00 0. -1.
</event>
<event>
 7    1  0.3001243E-009  0.1263797E+03  0.7561462E-02  0.1232929E+00
         -1   -1    0    0    0  501 -0.00000000000E+00  0.00000000000E+00  0.19773107080E+02  0.19773107080E+02  0.00000000000E+00 0.  1.
          1   -1    0    0  501    0  0.00000000000E+00 -0.00000000000E+00 -0.10500069011E+04  0.10500069011E+04  0.00000000000E+00 0. -1.
         25    2    1    2    0    0 -0.32221986544E+02  0.78061068857E+02 -0.76944745841E+03  0.78411120792E+03  0.12509679551E+03 0.  0.
          5    1    3    3  502    0  0.30673384965E+02  0.65036331445E+02 -0.23469770107E+03  0.24550165833E+03  0.41800000000E+01 0.  1.
         -5    1    3    3    0  502 -0.62895371509E+02  0.13024737412E+02 -0.53474975734E+03  0.53860954959E+03  0.41800000000E+01 0.  1.
        -11    1    1    2    0    0  0.55241879905E+02 -0.29501635729E+02 -0.13115127554E+03  0.14533639903E+03  0.00000000000E+00 0. -1.
         11    1    1    2    0    0 -0.23019893360E+02 -0.48559433128E+02 -0.12963506007E+03  0.14033240123E+03  0.00000000000E+00 0.  1.
</event>
<event>
 7    1  0.3001243E-009  0.6360510E+02  0.7561462E-02  0.1383297E+00
          3   -1    0    0  501    0  0.00000000000E+00  0.00000000000E+00  0.52086217205E+03  0.52086217205E+03  0.00000000000E+00 0. -1.
         -3   -1    0    0    0  501 -0.00000000000E+00 -0.00000000000E+00 -0.22943559024E+02  0.22943559024E+02  0.00000000000E+00 0.  1.
         25    2    1    2    0    0 -0.33426727504E+01 -0.12215897910E+02  0.35022587595E+03  0.37211078230E+03  0.12509144054E+03 0.  0.
          5    1    3    3  502    0  0.54820860984E+01  0.13188458700E+02 -0.51097545190E+01  0.15734379623E+02  0.41800000000E+01 0. -1.
         -5    1    3    3    0  502 -0.88247588488E+01 -0.25404356610E+02  0.35533563047E+03  0.35637640268E+03  0.41800000000E+01 0. -1.
        -11    1    1    2    0    0  0.33913433546E+02 -0.21063860788E+02  0.49424574496E+02  0.63534209449E+02  0.00000000000E+00 0. -1.
         11    1    1    2    0    0 -0.30570760796E+02  0.33279758698E+02  0.98268162580E+02  0.10816073933E+03  0.00000000000E+00 0.  1.
</event>
<event>
 7    1  0.3001243E-009  0.1259274E+03  0.7561462E-02  0.1233627E+00
         -2   -1    0    0    0  501 -0.00000000000E+00  0.00000000000E+00  0.46149880874E+02  0.46149880874E+02  0.00000000000E+00 0.  1.
          2   -1    0    0  501    0  0.00000000000E+00 -0.00000000000E+00 -0.55189922265E+03  0.55189922265E+03  0.00000000000E+00 0. -1.
         25    2    1    2    0    0 -0.86799483513E+02  0.12211764795E+02 -0.12587923887E+03  0.19792922536E+03  0.12508844046E+03 0.  0.
          5    1    3    3  502    0 -0.83807718248E+02  0.50083353294E+02 -0.43201577839E+02  0.10684533047E+03  0.41800000000E+01 0. -1.
         -5    1    3    3    0  502 -0.29917652656E+01 -0.37871588499E+02 -0.82677661036E+02  0.91083894895E+02  0.41800000000E+01 0. -1.
        -11    1    1    2    0    0  0.84242359794E+01 -0.33626808079E+02 -0.53202383427E+02  0.63499791935E+02  0.00000000000E+00 0.  1.
         11    1    1    2    0    0  0.78375247534E+02  0.21415043283E+02 -0.32666771947E+03  0.33662008622E+03  0.00000000000E+00 0. -1.
</event>
<event>
 7    1  0.3001243E-009  0.8666850E+02  0.7561462E-02  0.1311126E+00
          1   -1    0    0  501    0  0.00000000000E+00  0.00000000000E+00  0.48730418944E+03  0.48730418944E+03  0.00000000000E+00 0. -1.
         -1   -1    0    0    0  501 -0.00000000000E+00 -0.00000000000E+00 -0.26713999527E+02  0.26713999527E+02  0.00000000000E+00 0.  1.
         25    2    1    2    0    0 -0.27923942673E+02  0.16646523524E+02  0.29185501726E+03  0.31919171478E+03  0.12508855409E+03 0.  0.
          5    1    3    3  502    0 -0.56913465085E+02  0.89655752034E+01  0.28123059744E+03  0.28710215147E+03  0.41800000000E+01 0.  1.
         -5    1    3    3    0  502  0.28989522412E+02  0.76809483207E+01  0.10624419828E+02  0.32089563310E+02  0.41800000000E+01 0.  1.
        -11    1    1    2    0    0  0.10823571457E+02 -0.48200477697E+02  0.14119551993E+03  0.14958813655E+03  0.00000000000E+00 0. -1.
         11    1    1    2    0    0  0.17100371216E+02  0.31553954173E+02  0.27539652721E+02  0.45238337632E+02  0.00000000000E+00 0.  1.
</event>
<event>
 7    1  0.3001243E-009  0.4081983E+02  0.7561462E-02  0.1502264E+00
          1   -1    0    0  501    0  0.00000000000E+00  0.00000000000E+00  0.10818506067E+03  0.10818506067E+03  0.00000000000E+00 0. -1.
         -1   -1    0    0    0  501 -0.00000000000E+00 -0.00000000000E+00 -0.11196515232E+03  0.11196515232E+03  0.00000000000E+00 0.  1.
         25    2    1    2    0    0 -0.10974350411E+02 -0.55300300295E+01 -0.18320967048E+02  0.12701843817E+03  0.12508800184E+03 0.  0.
          5    1    3    3  502    0 -0.18083074323E+02  0.70288907887E+00 -0.70972106304E+02  0.73362142167E+02  0.41800000000E+01 0. -1.
         -5    1    3    3    0  502  0.71087239111E+01 -0.62329191084E+01  0.52651139256E+02  0.53656296007E+02  0.41800000000E+01 0. -1.
        -11    1    1    2    0    0 -0.19976043456E+02 -0.39434634959E+01  0.44556609953E+02  0.48988618137E+02  0.00000000000E+00 0. -1.
         11    1    1    2    0    0  0.30950393868E+02  0.94734935254E+01 -0.30015734556E+02  0.44143156674E+02  0.00000000000E+00 0.  1.
</event>
<event>
 7    1  0.3001243E-009  0.1065351E+03  0.7561462E-02  0.1267124E+00
          1   -1    0    0  501    0  0.00000000000E+00  0.00000000000E+00  0.30975713672E+03  0.30975713672E+03  0.00000000000E+00 0. -1.
         -1   -1    0    0    0  501 -0.00000000000E+00 -0.00000000000E+00 -0.39092136731E+02  0.39092136731E+02  0.00000000000E+00 0.  1.
         25    2    1    2    0    0  0.15571480606E+02 -0.17945367627E+02  0.15810165577E+03  0.20299761252E+03  0.12508952755E+03 0.  0.
          5    1    3    3  502    0 -0.51743686312E+02  0.12296333196E+02  0.69431680736E+02  0.87560490937E+02  0.41800000000E+01 0.  1.
         -5    1    3    3    0  502  0.67315166918E+02 -0.30241700823E+02  0.88669975037E+02  0.11543712158E+03  0.41800000000E+01 0.  1.
        -11    1    1    2    0    0  0.12305395906E+02 -0.28834625656E+02  0.70118015852E+02  0.76807516247E+02  0.00000000000E+00 0. -1.
         11    1    1    2    0    0 -0.27876876512E+02  0.46779993282E+02  0.42445328367E+02  0.69044144688E+02  0.00000000000E+00 0.  1.
</event>
<event>
 7    1  0.3001243E-009  0.1290410E+03  0.7561462E-02  0.1228886E+00
          2   -1    0    0  501    0  0.00000000000E+00  0.00000000000E+00  0.53243715201E+02  0.53243715201E+02  0.00000000000E+00 0. -1.
         -2   -1    0    0    0  501 -0.00000000000E+00 -0.00000000000E+00 -0.51426543559E+03  0.51426543559E+03  0.00000000000E+00 0.  1.
         25    2    1    2    0    0  0.60586867582E+02 -0.10489962435E+03 -0.29965361817E+03  0.34657329696E+03  0.12508420990E+03 0.  0.
          5    1    3    3  502    0  0.59030096474E+02 -0.93187577222E+02 -0.31078689658E+03  0.32980970926E+03  0.41800000000E+01 0.  1.
         -5    1    3    3    0  502  0.15567711084E+01 -0.11712047131E+02  0.11133278406E+02  0.16763587693E+02  0.41800000000E+01 0.  1.
        -11    1    1    2    0    0 -0.26879844989E+02  0.20851487834E+01 -0.83187519433E+02  0.87447340163E+02  0.00000000000E+00 0.  1.
         11    1    1    2    0    0 -0.33707022593E+02  0.10281447557E+03 -0.78180582783E+02  0.13348851367E+03  0.00000000000E+00 0. -1.
</event>
<event>
 7    1  0.3001243E-009  0.1071080E+03  0.7561462E-02  0.1266021E+00
          4   -1    0    0  501    0  0.00000000000E+00  0.00000000000E+00  0.24305584336E+03  0.24305584336E+03  0.00000000000E+00 0. -1.
         -4   -1    0    0    0  501 -0.00000000000E+00 -0.00000000000E+00 -0.70852749392E+02  0.70852749392E+02  0.00000000000E+00 0.  1.
         25    2    1    2    0    0  0.35067263066E+02  0.23839292608E+02  0.16085677986E+03  0.20813073978E+03  0.12508187880E+03 0.  0.
          5    1    3    3  502    0 -0.31954439122E+02  0.29270394661E+02  0.12659455553E+02  0.45338464885E+02  0.41800000000E+01 0.  1.
         -5    1    3    3    0  502  0.67021702188E+02 -0.54311020536E+01  0.14819732431E+03  0.16279227490E+03  0.41800000000E+01 0.  1.
        -11    1    1    2    0    0  0.16199535804E+02 -0.45015299794E+02  0.15140802816E+02  0.50180136366E+02  0.00000000000E+00 0. -1.
         11    1    1    2    0    0 -0.51266798870E+02  0.21176007186E+02 -0.37944887120E+01  0.55597716602E+02  0.00000000000E+00 0.  1.
</event>
<event>
 7    1  0.3001243E-009  0.1277489E+03  0.7561462E-02  0.1230835E+00
          2   -1    0    0  501    0  0.00000000000E+00  0.00000000000E+00  0.12272549671E+04  0.12272549671E+04  0.00000000000E+00 0. -1.
         -2   -1    0    0    0  501 -0.00000000000E+00 -0.00000000000E+00 -0.15168985050E+02  0.15168985050E+02  0.00000000000E+00 0.  1.
         25    2    1    2    0    0  0.42286912141E+02 -0.66409854393E+02  0.53182998707E+03  0.55198654055E+03  0.12509018391E+03 0.  0.
          5    1    3    3  502    0 -0.36420492836E+02 -0.40945842639E+01  0.25156660495E+03  0.25425665585E+03  0.41800000000E+01 0. -1.
         -5    1    3    3    0  502  0.78707404977E+02 -0.62315270130E+02  0.28026338212E+03  0.29772988471E+03  0.41800000000E+01 0. -1.
        -11    1    1    2    0    0 -0.69504521131E+02  0.39917348616E+02  0.46138346091E+03  0.46829368048E+03  0.00000000000E+00 0.  1.
         11    1    1    2    0    0  0.27217608990E+02  0.26492505777E+02  0.21887253406E+03  0.22214373110E+03  0.00000000000E+00 0. -1.
</event>
<event>
 7    1  0.3001243E-009  0.7746372E+02  0.7561462E-02  0.1336407E+00
         -2   -1    0    0    0  501 -0.00000000000E+00  0.00000000000E+00  0.20795332475E+02  0.20795332475E+02  0.00000000000E+00 0.  1.
          2   -1    0    0  501    0  0.00000000000E+00 -0.00000000000E+00 -0.71981631915E+03  0.71981631915E+03  0.00000000000E+00 0. -1.
         25    2    1    2    0    0  0.16428849349E+01 -0.39192726186E+02 -0.50791706492E+03  0.52456266397E+03  0.12508986663E+03 0.  0.
          5    1    3    3  502    0  0.22643666555E+02 -0.31052637436E+02 -0.38405954298E+02  0.54493042238E+02  0.41800000000E+01 0. -1.
         -5    1    3    3    0  502 -0.21000781620E+02 -0.81400887497E+01 -0.46951111062E+03  0.47006962173E+03  0.41800000000E+01 0. -1.
        -11    1    1    2    0    0  0.40923707170E+02  0.27196480666E+02 -0.14049525493E+03  0.14883989729E+03  0.00000000000E+00 0. -1.
         11    1    1    2    0    0 -0.42566592104E+02  0.11996245520E+02 -0.50608666827E+02  0.67209090367E+02  0.00000000000E+00 0.  1.
</event>
<event>
 7    1  0.3001243E-009  0.8878277E+02  0.7561462E-02  0.1305826E+00
          3   -1    0    0  501    0  0.00000000000E+00  0.00000000000E+00  0.28624868981E+03  0.28624868981E+03  0.00000000000E+00 0. -1.
         -3   -1    0    0    0  501 -0.00000000000E+00 -0.00000000000E+00 -0.67666698819E+02  0.67666698819E+02  0.00000000000E+00 0.  1.
         25    2    1    2    0    0 -0.12608384354E+02  0.80472356677E+02  0.15435435790E+03  0.21472818863E+03  0.12509258829E+03 0.  0.
          5    1    3    3  502    0  0.42549010062E+01  0.77349586959E+02  0.21220403830E+02  0.80429103712E+02  0.41800000000E+01 0. -1.
         -5    1    3    3    0  502 -0.16863285361E+02  0.31227697178E+01  0.13313395407E+03  0.13429908492E+03  0.41800000000E+01 0. -1.
        -11    1    1    2    0    0  0.12638316857E+02 -0.41962156808E+02  0.84852812898E+02  0.95501568121E+02  0.00000000000E+00 0. -1.
         11    1    1    2    0    0 -0.29932502166E-01 -0.38510199869E+02 -0.20625179810E+02  0.43685631872E+02  0.00000000000E+00 0.  1.
</event>
<event>
 7    1  0.3001243E-009  0.1050184E+03  0.7561462E-02  0.1270083E+00
         -1   -1    0    0    0  501 -0.00000000000E+00  0.00000000000E+00  0.13465387866E+02  0.13465387866E+02  0.00000000000E+00 0.  1.
          1   -1    0    0  501    0  0.00000000000E+00 -0.00000000000E+00 -0.89297714934E+03  0.89297714934E+03  0.00000000000E+00 0. -1.
         25    2    1    2    0    0 -0.80967366510E+01  0.55185465285E+01 -0.43901039743E+03  0.45659089497E+03  0.12509638212E+03 0.  0.
          5    1    3    3  502    0  0.35269282003E+02  0.48163611664E+02 -0.15589947065E+03  0.16699033831E+03  0.41800000000E+01 0.  1.
         -5    1    3    3    0  502 -0.43366018654E+02 -0.42645065135E+02 -0.28311092678E+03  0.28960055666E+03  0.41800000000E+01 0.  1.
        -11    1    1    2    0    0  0.11826307557E+02  0.40943962472E+02 -0.25775154504E+03  0.26125108342E+03  0.00000000000E+00 0. -1.
         11    1    1    2    0    0 -0.37295709063E+01 -0.46462509001E+02 -0.18274981900E+03  0.18860055882E+03  0.00000000000E+00 0.  1.
</event>
<event>
 7    1  0.3001243E-009  0.1027549E+03  0.7561462E-02  0.1274607E+00
          2   -1    0    0  501    0  0.00000000000E+00  0.00000000000E+00  0.30983779497E+03  0.30983779497E+03  0.00000000000E+00 0. -1.
         -2   -1    0    0    0  501 -0.00000000000E+00 -0.00000000000E+00 -0.52463930439E+02  0.52463930439E+02  0.00000000000E+00 0.  1.
         25    2    1    2    0    0 -0.51521952848E+01 -0.65128306023E+02  0.14391071845E+03  0.20156171929E+03  0.12509432616E+03 0.  0.
          5    1    3    3  502    0 -0.14148638071E+02  0.87502904376E+01 -0.17045808824E+02  0.24182298080E+02  0.41800000000E+01 0.  1.
         -5    1    3    3    0  502  0.89964427857E+01 -0.73878596461E+02  0.16095652727E+03  0.17737942121E+03  0.41800000000E+01 0.  1.
        -11    1    1    2    0    0  0.87208151362E+01 -0.23525341670E+02  0.26846452937E+02  0.36745426282E+02  0.00000000000E+00 0. -1.
         11    1    1    2    0    0 -0.35686198514E+01  0.88653647693E+02  0.86616693146E+02  0.12399457984E+03  0.00000000000E+00 0.  1.
</event>
<event>
 7    1  0.3001243E-009  0.9589160E+02  0.7561462E-02  0.1289181E+00
          2   -1    0    0  501    0  0.00000000000E+00  0.00000000000E+00  0.38122642313E+03  0.38122642313E+03  0.00000000000E+00 0. -1.
         -2   -1    0    0    0  501 -0.00000000000E+00 -0.00000000000E+00 -0.40090845093E+02  0.40090845093E+02  0.00000000000E+00 0.  1.
         25    2    1    2    0    0 -0.48140071269E+02  0.19844372488E+02  0.22855303756E+03  0.26569389808E+03  0.12508193683E+03 0.  0.
          5    1    3    3  502    0 -0.77965069002E+02  0.28661730976E+02  0.85657199706E+02  0.11939294396E+03  0.41800000000E+01 0. -1.
         -5    1    3    3    0  502  0.29824997733E+02 -0.88173584888E+01  0.14289583785E+03  0.14630095412E+03  0.41800000000E+01 0. -1.
        -11    1    1    2    0    0 -0.13140897662E+02 -0.12977040298E+01 -0.10508790745E+02  0.16876075078E+02  0.00000000000E+00 0.  1.
         11    1    1    2    0    0  0.61280968931E+02 -0.18546668458E+02  0.12309133122E+03  0.13874729506E+03  0.00000000000E+00 0. -1.
</event>
<event>
 7    1  0.3001243E-009  0.8431987E+02  0.7561462E-02  0.1317221E+00
         -1   -1    0    0    0  501 -0.00000000000E+00  0.00000000000E+00  0.20681645954E+03  0.20681645954E+03  0.00000000000E+00 0.  1.
          1   -1    0    0  501    0  0.00000000000E+00 -0.00000000000E+00 -0.60287497335E+02  0.60287497335E+02  0.00000000000E+00 0. -1.
         25    2    1    2    0    0 -0.12545130392E+02 -0.18162319957E+01  0.57433497687E+02  0.13822245808E+03  0.12508462042E+03 0.  0.
          5    1    3    3  502    0  0.55657355123E+02 -0.45282677717E+01  0.35945225905E+02  0.66541551332E+02  0.41800000000E+01 0.  1.
         -5    1    3    3    0  502 -0.68202485515E+02  0.27120357760E+01  0.21488271781E+02  0.71680906751E+02  0.41800000000E+01 0.  1.
        -11    1    1    2    0    0  0.34561655057E+01 -0.20171667809E+02  0.10045352439E+03  0.10251708064E+03  0.00000000000E+00 0.  1.
         11    1    1    2    0    0  0.90889648861E+01  0.21987899804E+02 -0.11358059865E+02  0.26364418150E+02  0.00000000000E+00 0. -1.
</event>
<event>
 7    1  0.3001243E-009  0.6263225E+02  0.7561462E-02  0.1387106E+00
         -2   -1    0    0    0  501 -0.00000000000E+00  0.00000000000E+00  0.48146481992E+02  0.48146481992E+02  0.00000000000E+00 0.  1.
          2   -1    0    0  501    0  0.00000000000E+00 -0.00000000000E+00 -0.26109058616E+03  0.26109058616E+03  0.00000000000E+00 0. -1.
         25    2    1    2    0    0  0.26001540929E+02 -0.19735763926E+02 -0.11419024969E+03  0.17248975760E+03  0.12509085835E+03 0.  0.
          5    1    3    3  502    0 -0.53016948335E+00 -0.84989785561E+01 -0.13586318804E+03  0.13619394986E+03  0.41800000000E+01 0.  1.
         -5    1    3    3    0  502  0.26531710412E+02 -0.11236785369E+02  0.21672938343E+02  0.36295807737E+02  0.41800000000E+01 0.  1.
        -11    1    1    2    0    0 -0.33788134371E+00 -0.30367892636E+02 -0.63329682898E+02  0.70235118017E+02  0.00000000000E+00 0. -1.
         11    1    1    2    0    0 -0.25663659585E+02  0.50103656561E+02 -0.35424171582E+02  0.66512192539E+02  0.00000000000E+00 0.  1.
</event>
<event>
 7    1  0.3001243E-009  0.1254576E+03  0.7561462E-02  0.1234356E+00
          2   -1    0    0  501    0  0.00000000000E+00  0.00000000000E+00  0.13789001929E+03  0.13789001929E+03  0.00000000000E+00 0. -1.
         -2   -1    0    0    0  501 -0.00000000000E+00 -0.00000000000E+00 -0.12140086790E+03  0.12140086790E+03  0.00000000000E+00 0.  1.
         25    2    1    2    0    0  0.72321405736E+02  0.89950042041E+01  0.29452528170E+02  0.14774066423E+03  0.12509419101E+03 0.  0.
          5    1    3    3  502    0  0.10676667971E+03  0.62316020176E+01  0.90925730780E+01  0.10741556705E+03  0.41800000000E+01 0. -1.
         -5    1    3    3    0  502 -0.34445273976E+02  0.27634021865E+01  0.20359955092E+02  0.40325097176E+02  0.41800000000E+01 0. -1.
        -11    1    1    2    0    0 -0.62127186761E+02  0.29843372619E+02  0.13075771519E+01  0.68935651024E+02  0.00000000000E+00 0.  1.
         11    1    1    2    0    0 -0.10194218975E+02 -0.38838376823E+02 -0.14270953938E+02  0.42614571934E+02  0.00000000000E+00 0. -1.
</event>
<event>
 7    1  0.3001243E-009  0.1282265E+03  0.7561462E-02  0.1230111E+00
          1   -1    0    0  501    0  0.00000000000E+00  0.00000000000E+00  0.83302126678E+03  0.83302126678E+03  0.00000000000E+00 0. -1.
         -1   -1    0    0    0  501 -0.00000000000E+00 -0.00000000000E+00 -0.27992548013E+02  0.27992548013E+02  0.00000000000E+00 0.  1.
         25    2    1    2    0    0  0.57876122529E+02 -0.48530098927E+02  0.21493032022E+03  0.25989772084E+03  0.12508783588E+03 0.  0.
          5    1    3    3  502    0  0.79150789635E+02 -0.74572680181E+02  0.13733983145E+03  0.17523023093E+03  0.41800000000E+01 0.  1.
         -5    1    3    3    0  502 -0.21274667106E+02  0.26042581255E+02  0.77590488778E+02  0.84667489910E+02  0.41800000000E+01 0.  1.
        -11    1    1    2    0    0  0.89370304405E+01  0.46018926060E+02  0.27936590109E+03  0.28327181074E+03  0.00000000000E+00 0.  1.
         11    1    1    2    0    0 -0.66813152969E+02  0.25111728670E+01  0.31073249745E+03  0.31784428322E+03  0.00000000000E+00 0. -1.
</event>
<event>
 7    1  0.3001243E-009  0.1452460E+03  0.7561462E-02  0.1206439E+00
         -2   -1    0    0    0  501 -0.00000000000E+00  0.00000000000E+00  0.24031762906E+02  0.24031762906E+02  0.00000000000E+00 0. -1.
          2   -1    0    0  501    0  0.00000000000E+00 -0.00000000000E+00 -0.10751158099E+04  0.10751158099E+04  0.00000000000E+00 0.  1.
         25    2    1    2    0    0 -0.75066730685E+02  0.87106809631E+02 -0.63460274000E+03  0.65695560719E+03  0.12508965529E+03 0.  0.
          5    1    3    3  502    0  0.53695508923E+01  0.56495966709E+02 -0.96743143324E+02  0.11223784795E+03  0.41800000000E+01 0.  1.
         -5    1    3    3    0  502 -0.80436281577E+02  0.30610842923E+02 -0.53785959667E+03  0.54471775924E+03  0.41800000000E+01 0.  1.
        -11    1    1    2    0    0  0.60820582789E+02 -0.17093176070E+01 -0.14528591756E+03  0.15751210398E+03  0.00000000000E+00 0. -1.
         11    1    1    2    0    0  0.14246147896E+02 -0.85397492024E+02 -0.27119538942E+03  0.28467986163E+03  0.00000000000E+00 0.  1.
</event>
<event>
 7    1  0.3001243E-009  0.1284130E+03  0.7561462E-02  0.1229830E+00
          2   -1    0    0  501    0  0.00000000000E+00  0.00000000000E+00  0.36963200619E+03  0.36963200619E+03  0.00000000000E+00 0. -1.
         -2   -1    0    0    0  501 -0.00000000000E+00 -0.00000000000E+00 -0.63624203062E+02  0.63624203062E+02  0.00000000000E+00 0.  1.
         25    2    1    2    0    0 -0.17211248998E+01 -0.96053723687E+02  0.23280338929E+03  0.28120364369E+03  0.12509512801E+03 0.  0.
          5    1    3    3  502    0 -0.43258184559E+02 -0.65621797459E+02  0.21086770931E+03  0.22507810658E+03  0.41800000000E+01 0. -1.
         -5    1    3    3    0  502  0.41537059660E+02 -0.30431926228E+02  0.21935679984E+02  0.56125537106E+02  0.41800000000E+01 0. -1.
        -11    1    1    2    0    0 -0.12730777671E+02  0.10735703073E+03  0.77733652083E+02  0.13315451706E+03  0.00000000000E+00 0. -1.
         11    1    1    2    0    0  0.14451902571E+02 -0.11303307046E+02 -0.45292382482E+01  0.18898048503E+02  0.00000000000E+00 0.  1.
</event>
<event>
 7    1  0.3001243E-009  0.1497244E+03  0.7561462E-02  0.1200812E+00
          2   -1    0    0  501    0  0.00000000000E+00  0.00000000000E+00  0.16480255505E+04  0.16480255505E+04  0.00000000000E+00 0.  1.
         -2   -1    0    0    0  501 -0.00000000000E+00 -0.00000000000E+00 -0.15268491093E+02  0.15268491093E+02  0.00000000000E+00 0. -1.
         25    2    1    2    0    0 -0.16284696338E+02 -0.11026032549E+03  0.10278890207E+04  0.10414539115E+04  0.12509148703E+03 0.  0.
          5    1    3    3  502    0  0.46655740078E+02 -0.56258900485E+02  0.29816538755E+03  0.30702099717E+03  0.41800000000E+01 0.  1.
         -5    1    3    3    0  502 -0.62940436416E+02 -0.54001425007E+02  0.72972363317E+03  0.73443291432E+03  0.41800000000E+01 0.  1.
        -11    1    1    2    0    0 -0.34836520191E+02  0.69797014218E+02  0.29116045092E+03  0.30142928609E+03  0.00000000000E+00 0.  1.
         11    1    1    2    0    0  0.51121216529E+02  0.40463311275E+02  0.31370758777E+03  0.32041084401E+03  0.00000000000E+00 0. -1.
</event>
<event>
 7    1  0.3001243E-009  0.1071415E+03  0.7561462E-02  0.1265957E+00
          4   -1    0    0  501    0  0.00000000000E+00  0.00000000000E+00  0.17130060177E+03  0.17130060177E+03  0.00000000000E+00 0. -1.
         -4   -1    0    0    0  501 -0.00000000000E+00 -0.00000000000E+00 -0.11766582140E+03  0.11766582140E+03  0.00000000000E+00 0.  1.
         25    2    1    2    0    0 -0.18142269778E+02 -0.66066467601E+02  0.90363418274E+02  0.16884021826E+03  0.12509017486E+03 0.  0.
          5    1    3    3  502    0  0.48588733982E+02 -0.20167635826E+02  0.65292630288E+02  0.83953550102E+02  0.41800000000E+01 0. -1.
         -5    1    3    3    0  502 -0.66731003760E+02 -0.45898831775E+02  0.25070787985E+02  0.84886668160E+02  0.41800000000E+01 0. -1.
        -11    1    1    2    0    0 -0.12414183952E+02  0.79274681363E+01 -0.50854373174E+02  0.52944536877E+02  0.00000000000E+00 0.  1.
         11    1    1    2    0    0  0.30556453730E+02  0.58138999465E+02  0.14125735271E+02  0.67181668037E+02  0.00000000000E+00 0. -1.
</event>
<event>
 7    1  0.3001243E-009  0.1161179E+03  0.7561462E-02  0.1249642E+00
         -3   -1    0    0    0  501 -0.00000000000E+00  0.00000000000E+00  0.10691645146E+03  0.10691645146E+03  0.00000000000E+00 0.  1.
          3   -1    0    0  501    0  0.00000000000E+00 -0.00000000000E+00 -0.17575252428E+03  0.17575252428E+03  0.00000000000E+00 0. -1.
         25    2    1    2    0    0 -0.31806094389E+02  0.72106770507E+02 -0.65550186310E+02  0.16172598745E+03  0.12508978415E+03 0.  0.
          5    1    3    3  502    0  0.44868495541E+02  0.49656091231E+02 -0.21614835941E+02  0.70452699177E+02  0.41800000000E+01 0. -1.
         -5    1    3    3    0  502 -0.76674589930E+02  0.22450679276E+02 -0.43935350369E+02  0.91273288277E+02  0.41800000000E+01 0. -1.
        -11    1    1    2    0    0 -0.14433632414E+01 -0.36244783968E+02  0.41157672211E+02  0.54860930034E+02  0.00000000000E+00 0.  1.
         11    1    1    2    0    0  0.33249457631E+02 -0.35861986539E+02 -0.44443558724E+02  0.66082058256E+02  0.00000000000E+00 0. -1.
</event>
<event>
 7    1  0.3001243E-009  0.9480316E+02  0.7561462E-02  0.1291620E+00
          1   -1    0    0  501    0  0.00000000000E+00  0.00000000000E+00  0.12610867748E+03  0.12610867748E+03  0.00000000000E+00 0. -1.
         -1   -1    0    0    0  501 -0.00000000000E+00 -0.00000000000E+00 -0.11622309926E+03  0.11622309926E+03  0.00000000000E+00 0.  1.
         25    2    1    2    0    0  0.79869398958E+00  0.13259321703E+02  0.56035184812E+02  0.13770855687E+03  0.12508899702E+03 0.  0.
          5    1    3    3  502    0 -0.53033457176E+02 -0.79116466335E+01 -0.43804607757E+01  0.53961120903E+02  0.41800000000E+01 0. -1.
         -5    1    3    3    0  502  0.53832151166E+02  0.21170968337E+02  0.60415645587E+02  0.83747435968E+02  0.41800000000E+01 0. -1.
        -11    1    1    2    0    0  0.37364158494E+02 -0.13309898894E+02  0.58806901510E+01  0.40097584282E+02  0.00000000000E+00 0. -1.
         11    1    1    2    0    0 -0.38162852484E+02  0.50577190540E-01 -0.52030296747E+02  0.64525635582E+02  0.00000000000E+00 0.  1.
</event>
<event>
 7    1  0.3001243E-009  0.1726994E+03  0.7561462E-02  0.1175062E+00
         -3   -1    0    0    0  501 -0.00000000000E+00  0.00000000000E+00  0.27060005210E+03  0.27060005210E+03  0.00000000000E+00 0.  1.
          3   -1    0    0  501    0  0.00000000000E+00 -0.00000000000E+00 -0.14405357223E+03  0.14405357223E+03  0.00000000000E+00 0. -1.
         25    2    1    2    0    0 -0.38462616494E+02 -0.15705951593E+03  0.34128467529E+02  0.20725860546E+03  0.12507722746E+03 0.  0.
          5    1    3    3  502    0 -0.69612611526E+01 -0.62507368911E+02  0.76293478401E+02  0.98963617413E+02  0.41800000000E+01 0. -1.
         -5    1    3    3    0  502 -0.31501355342E+02 -0.94552147018E+02 -0.42165010872E+02  0.10829498805E+03  0.41800000000E+01 0. -1.
        -11    1    1    2    0    0  0.46170207882E+02  0.29424176771E+02  0.11108478492E+02  0.55864734573E+02  0.00000000000E+00 0. -1.
         11    1    1    2    0    0 -0.77075913875E+01  0.12763533916E+03  0.81309533848E+02  0.15153028430E+03  0.00000000000E+00 0.  1.
</event>
<event>
 7    1  0.3001243E-009  0.1279685E+03  0.7561462E-02  0.1230502E+00
         -3   -1    0    0    0  501 -0.00000000000E+00  0.00000000000E+00  0.77948388591E+02  0.77948388591E+02  0.00000000000E+00 0.  1.
          3   -1    0    0  501    0  0.00000000000E+00 -0.00000000000E+00 -0.26325181271E+03  0.26325181271E+03  0.00000000000E+00 0. -1.
         25    2    1    2    0    0 -0.70653898816E+02  0.43810258347E+02 -0.51271020759E+02  0.15872354414E+03  0.12511248436E+03 0.  0.
          5    1    3    3  502    0 -0.65900429955E+02 -0.19504199991E+02 -0.63804271932E+02  0.93870858110E+02  0.41800000000E+01 0. -1.
         -5    1    3    3    0  502 -0.47534688605E+01  0.63314458339E+02  0.12533251173E+02  0.64852686034E+02  0.41800000000E+01 0. -1.
        -11    1    1    2    0    0  0.56627175016E+02  0.18509090293E+02 -0.57623056885E+02  0.82883291794E+02  0.00000000000E+00 0.  1.
         11    1    1    2    0    0  0.14026723800E+02 -0.62319348640E+02 -0.76409346474E+02  0.99593365361E+02  0.00000000000E+00 0. -1.
</event>
<event>
 7    1  0.3001243E-009  0.1582448E+03  0.7561462E-02  0.1190693E+00
         -1   -1    0    0    0  501 -0.00000000000E+00  0.00000000000E+00  0.73577209233E+02  0.73577209233E+02  0.00000000000E+00 0.  1.
          1   -1    0    0  501    0  0.00000000000E+00 -0.00000000000E+00 -0.44782514357E+03  0.44782514357E+03  0.00000000000E+00 0. -1.
         25    2    1    2    0    0  0.60103985858E+02 -0.99700395158E+02 -0.72764546957E+02  0.18572901553E+03  0.12509168640E+03 0.  0.
          5    1    3    3  502    0 -0.15303375926E+02 -0.92944080253E+02 -0.49043389287E+02  0.10628039237E+03  0.41800000000E+01 0.  1.
         -5    1    3    3    0  502  0.75407361783E+02 -0.67563149050E+01 -0.23721157670E+02  0.79448623169E+02  0.41800000000E+01 0.  1.
        -11    1    1    2    0    0 -0.52045125252E+02  0.11658118393E+03 -0.27562778937E+03  0.30376067188E+03  0.00000000000E+00 0.  1.
         11    1    1    2    0    0 -0.80588606061E+01 -0.16880788768E+02 -0.25855598014E+02  0.31912665391E+02  0.00000000000E+00 0. -1.
</event>
<event>
 7    1  0.3001243E-009  0.1235929E+03  0.7561462E-02  0.1237285E+00
          2   -1    0    0  501    0  0.00000000000E+00  0.00000000000E+00  0.27008842831E+03  0.27008842831E+03  0.00000000000E+00 0. -1.
         -2   -1    0    0    0  501 -0.00000000000E+00 -0.00000000000E+00 -0.84625865582E+02  0.84625865582E+02  0.00000000000E+00 0.  1.
         25    2    1    2    0    0  0.64611927550E+02 -0.90752979220E+01  0.44172307869E+01  0.14115870017E+03  0.12509678050E+03 0.  0.
          5    1    3    3  502    0  0.46554159805E+02 -0.62373856168E+02 -0.18735547334E+02  0.80164087111E+02  0.41800000000E+01 0.  1.
         -5    1    3    3    0  502  0.18057767745E+02  0.53298558246E+02  0.23152778121E+02  0.60994613056E+02  0.41800000000E+01 0.  1.
        -11    1    1    2    0    0  0.14872459106E+02  0.27460483422E+02  0.41911700271E+02  0.52267186736E+02  0.00000000000E+00 0. -1.
         11    1    1    2    0    0 -0.79484386655E+02 -0.18385185500E+02  0.13913363167E+03  0.16128840699E+03  0.00000000000E+00 0.  1.
</event>
<event>
 7    1  0.3001243E-009  0.1150843E+03  0.7561462E-02  0.1251434E+00
         -2   -1    0    0    0  501 -0.00000000000E+00  0.00000000000E+00  0.19116217798E+02  0.19116217798E+02  0.00000000000E+00 0.  1.
          2   -1    0    0  501    0  0.00000000000E+00 -0.00000000000E+00 -0.79865439571E+03  0.79865439571E+03  0.00000000000E+00 0. -1.
         25    2    1    2    0    0 -0.38238313671E+02  0.34429317263E+01 -0.29160459758E+03  0.31961705758E+03  0.12509116577E+03 0.  0.
          5    1    3    3  502    0 -0.81152321987E+02  0.21510378988E+02 -0.18347389046E+03  0.20181312308E+03  0.41800000000E+01 0.  1.
         -5    1    3    3    0  502  0.42914008317E+02 -0.18067447261E+02 -0.10813070713E+03  0.11780393450E+03  0.41800000000E+01 0.  1.
        -11    1    1    2    0    0 -0.30007416085E+02  0.55767054678E+01 -0.11893995274E+03  0.12279355448E+03  0.00000000000E+00 0.  1.
         11    1    1    2    0    0  0.68245729755E+02 -0.90196371940E+01 -0.36899362758E+03  0.37536000144E+03  0.00000000000E+00 0. -1.
</event>
<event>
 7    1  0.3001243E-009  0.1198610E+03  0.7561462E-02  0.1243327E+00
         -3   -1    0    0    0  501 -0.00000000000E+00  0.00000000000E+00  0.10980526985E+03  0.10980526985E+03  0.00000000000E+00 0.  1.
          3   -1    0    0  501    0  0.00000000000E+00 -0.00000000000E+00 -0.17923361312E+03  0.17923361312E+03  0.00000000000E+00 0. -1.
         25    2    1    2    0    0 -0.20676682829E+02  0.84976535099E+02 -0.54264242402E+02  0.16199028556E+03  0.12509079855E+03 0.  0.
          5    1    3    3  502    0  0.22409313882E+02  0.60710512936E+02  0.24143366633E+02  0.69197675409E+02  0.41800000000E+01 0.  1.
         -5    1    3    3    0  502 -0.43085996711E+02  0.24266022163E+02 -0.78407609036E+02  0.92792610153E+02  0.41800000000E+01 0.  1.
        -11    1    1    2    0    0  0.34410222864E+02 -0.99485916237E+02 -0.71121955659E+01  0.10550874036E+03  0.00000000000E+00 0.  1.
         11    1    1    2    0    0 -0.13733540035E+02  0.14509381137E+02 -0.80519053016E+01  0.21539857053E+02  0.00000000000E+00 0. -1.
</event>
<event>
 7    1  0.3001243E-009  0.1235005E+03  0.7561462E-02  0.1237432E+00
          1   -1    0    0  501    0  0.00000000000E+00  0.00000000000E+00  0.95193461193E+02  0.95193461193E+02  0.00000000000E+00 0. -1.
         -1   -1    0    0    0  501 -0.00000000000E+00 -0.00000000000E+00 -0.25233087764E+03  0.25233087764E+03  0.00000000000E+00 0.  1.
         25    2    1    2    0    0  0.71816773041E+02 -0.30395453957E+02  0.28299756372E+01  0.14743578598E+03  0.12509104570E+03 0.  0.
          5    1    3    3  502    0  0.66696883227E+02  0.32836595297E+02 -0.24283519612E+02  0.78319077801E+02  0.41800000000E+01 0. -1.
         -5    1    3    3    0  502  0.51198898145E+01 -0.63232049254E+02  0.27113495249E+02  0.69116708177E+02  0.41800000000E+01 0. -1.
        -11    1    1    2    0    0 -0.52619915115E+02 -0.19019986284E+02 -0.39551551189E+02  0.68519636211E+02  0.00000000000E+00 0. -1.
         11    1    1    2    0    0 -0.19196857926E+02  0.49415440242E+02 -0.12041584089E+03  0.13156891664E+03  0.00000000000E+00 0.  1.
</event>
<event>
 7    1  0.3001243E-009  0.1115168E+03  0.7561462E-02  0.1257786E+00
         -1   -1    0    0    0  501 -0.00000000000E+00  0.00000000000E+00  0.15677355958E+03  0.15677355958E+03  0.00000000000E+00 0.  1.
          1   -1    0    0  501    0  0.00000000000E+00 -0.00000000000E+00 -0.10491915657E+03  0.10491915657E+03  0.00000000000E+00 0. -1.
         25    2    1    2    0    0  0.49851777537E+02 -0.20810735740E+02  0.72120212844E+02  0.15416352533E+03  0.12508709365E+03 0.  0.
          5    1    3    3  502    0  0.19883414893E+02  0.42648253087E+02 -0.76258913861E+01  0.47852380281E+02  0.41800000000E+01 0.  1.
         -5    1    3    3    0  502  0.29968362644E+02 -0.63458988827E+02  0.79746104230E+02  0.10631114505E+03  0.41800000000E+01 0.  1.
        -11    1    1    2    0    0 -0.39818478291E+02  0.56103636864E+02 -0.15580150780E+02  0.70539849597E+02  0.00000000000E+00 0. -1.
         11    1    1    2    0    0 -0.10033299246E+02 -0.35292901124E+02 -0.46856590521E+01  0.36989341225E+02  0.00000000000E+00 0.  1.
</event>
<event>
 7    1  0.3001243E-009  0.9070006E+02  0.7561462E-02  0.1301165E+00
         -1   -1    0    0    0  501 -0.00000000000E+00  0.00000000000E+00  0.93697112569E+01  0.93697112569E+01  0.00000000000E+00 0.  1.
          1   -1    0    0  501    0  0.00000000000E+00 -0.00000000000E+00 -0.18470435489E+04  0.18470435489E+04  0.00000000000E+00 0. -1.
         25    2    1    2    0    0  0.55759243362E+02 -0.36533293089E+02 -0.12368818997E+04  0.12449768108E+04  0.12508657298E+03 0.  0.
          5    1    3    3  502    0  0.47241115916E+00 -0.26799255364E+01 -0.97984631469E+03  0.97985900924E+03  0.41800000000E+01 0. -1.
         -5    1    3    3    0  502  0.55286832203E+02 -0.33853367552E+02 -0.25703558503E+03  0.26511780151E+03  0.41800000000E+01 0. -1.
        -11    1    1    2    0    0  0.23182151766E+02  0.20392525371E+02 -0.11828577962E+03  0.12224889739E+03  0.00000000000E+00 0.  1.
         11    1    1    2    0    0 -0.78941395128E+02  0.16140767717E+02 -0.48250615828E+03  0.48918755199E+03  0.00000000000E+00 0. -1.
</event>
<event>
 7    1  0.3001243E-009  0.1341031E+03  0.7561462E-02  0.1221491E+00
         -2   -1    0    0    0  501 -0.00000000000E+00  0.00000000000E+00  0.42512783318E+02  0.42512783318E+02  0.00000000000E+00 0. -1.
          2   -1    0    0  501    0  0.00000000000E+00 -0.00000000000E+00 -0.62072678216E+03  0.62072678216E+03  0.00000000000E+00 0.  1.
         25    2    1    2    0    0  0.49201777881E+02 -0.83836201942E+02 -0.45393601130E+03  0.48078482636E+03  0.12508726235E+03 0.  0.
          5    1    3    3  502    0 -0.23509137136E+02  0.68109811438E+01 -0.21046671007E+02  0.32550019255E+02  0.41800000000E+01 0.  1.
         -5    1    3    3    0  502  0.72710915017E+02 -0.90647183086E+02 -0.43288934029E+03  0.44823480711E+03  0.41800000000E+01 0.  1.
        -11    1    1    2    0    0 -0.17747693779E+02  0.92725665216E+02 -0.11436541766E+03  0.14829861221E+03  0.00000000000E+00 0.  1.
         11    1    1    2    0    0 -0.31454084102E+02 -0.88894632744E+01 -0.99125698791E+01  0.34156126912E+02  0.00000000000E+00 0. -1.
</event>
<event>
 7    1  0.3001243E-009  0.9557932E+02  0.7561462E-02  0.1289877E+00
         -3   -1    0    0    0  501 -0.00000000000E+00  0.00000000000E+00  0.87693189417E+03  0.87693189417E+03  0.00000000000E+00 0.  1.
          3   -1    0    0  501    0  0.00000000000E+00 -0.00000000000E+00 -0.22121094771E+02  0.22121094771E+02  0.00000000000E+00 0. -1.
         25    2    1    2    0    0 -0.47465813904E+02 -0.89857126287E+01  0.70368842298E+03  0.71635375733E+03  0.12510620485E+03 0.  0.
          5    1    3    3  502    0 -0.27136019863E+02 -0.62113977521E+02  0.24875303379E+03  0.25785665397E+03  0.41800000000E+01 0.  1.
         -5    1    3    3    0  502 -0.20329794041E+02  0.53128264892E+02  0.45493538918E+03  0.45849710336E+03  0.41800000000E+01 0.  1.
        -11    1    1    2    0    0  0.14818951769E+02 -0.18379618818E+02 -0.20643973912E+01  0.23699650968E+02  0.00000000000E+00 0. -1.
         11    1    1    2    0    0  0.32646862135E+02  0.27365331446E+02  0.15318677382E+03  0.15899958065E+03  0.00000000000E+00 0.  1.
</event>
<event>
 7    1  0.3626775E-009  0.1061430E+03  0.7561462E-02  0.1267884E+00
         -2   -1    0    0    0  501 -0.00000000000E+00  0.00000000000E+00  0.36836436006E+02  0.36836436006E+02  0.00000000000E+00 0.  1.
          2   -1    0    0  501    0  0.00000000000E+00 -0.00000000000E+00 -0.43622048672E+03  0.43622048672E+03  0.00000000000E+00 0. -1.
         25    2    1    2    0    0 -0.61360878244E+02 -0.17911693584E+02 -0.24340184066E+03  0.28103212617E+03  0.12509441938E+03 0.  0.
          5    1    3    3  502    0  0.26572497452E+02  0.86861923533E+01 -0.96961970914E+01  0.29883711223E+02  0.41800000000E+01 0.  1.
         -5    1    3    3    0  502 -0.87933375696E+02 -0.26597885937E+02 -0.23370564357E+03  0.25114841495E+03  0.41800000000E+01 0.  1.
        -11    1    1    2    0    0  0.23342294912E+01  0.31417414951E+02 -0.85520950134E+01  0.32644155965E+02  0.00000000000E+00 0.  1.
         11    1    1    2    0    0  0.59026648753E+02 -0.13505721368E+02 -0.14743011504E+03  0.15938064059E+03  0.00000000000E+00 0. -1.
</event>
<event>
 7    1  0.3001243E-009  0.9186863E+02  0.7561462E-02  0.1298389E+00
         -1   -1    0    0    0  501 -0.00000000000E+00  0.00000000000E+00  0.57220750148E+02  0.57220750148E+02  0.00000000000E+00 0.  1.
          1   -1    0    0  501    0  0.00000000000E+00 -0.00000000000E+00 -0.29633717480E+03  0.29633717480E+03  0.00000000000E+00 0. -1.
         25    2    1    2    0    0 -0.51879795311E+02 -0.36183791044E+02 -0.17705569118E+03  0.22582737973E+03  0.12509399570E+03 0.  0.
          5    1    3    3  502    0 -0.59603482269E+01 -0.38547337222E+02  0.35732381661E+01  0.39391158765E+02  0.41800000000E+01 0. -1.
         -5    1    3    3    0  502 -0.45919447085E+02  0.23635461778E+01 -0.18062892934E+03  0.18643622096E+03  0.41800000000E+01 0. -1.
        -11    1    1    2    0    0  0.17109513634E+02 -0.23617535938E+02 -0.49459151680E+02  0.57417167690E+02  0.00000000000E+00 0. -1.
         11    1    1    2    0    0  0.34770281677E+02  0.59801326982E+02 -0.12601581800E+02  0.70313377536E+02  0.00000000000E+00 0.  1.
</event>
<event>
 7    1  0.3001243E-009  0.2591276E+03  0.7561462E-02  0.1107669E+00
          2   -1    0    0  501    0  0.00000000000E+00  0.00000000000E+00  0.12766377365E+03  0.12766377365E+03  0.00000000000E+00 0. -1.
         -2   -1    0    0    0  501 -0.00000000000E+00 -0.00000000000E+00 -0.65529226544E+03  0.65529226544E+03  0.00000000000E+00 0.  1.
         25    2    1    2    0    0 -0.11410641869E+02  0.23648877245E+03 -0.44004495339E+03  0.51511596780E+03  0.12509099504E+03 0.  0.
          5    1    3    3  502    0  0.54015360366E+02  0.11427819506E+03 -0.24600857241E+03  0.27661318682E+03  0.41800000000E+01 0.  1.
         -5    1    3    3    0  502 -0.65426002236E+02  0.12221057739E+03 -0.19403638098E+03  0.23850278099E+03  0.41800000000E+01 0.  1.
        -11    1    1    2    0    0 -0.30934563606E+02 -0.17925588276E+03 -0.61634687358E+02  0.19206367022E+03  0.00000000000E+00 0.  1.
         11    1    1    2    0    0  0.42345205475E+02 -0.57232889684E+02 -0.25948851046E+02  0.75776401069E+02  0.00000000000E+00 0. -1.
</event>
<event>
 7    1  0.3001243E-009  0.1977385E+03  0.7561462E-02  0.1151661E+00
         -1   -1    0    0    0  501 -0.00000000000E+00  0.00000000000E+00  0.94678505884E+02  0.94678505884E+02  0.00000000000E+00 0.  1.
          1   -1    0    0  501    0  0.00000000000E+00 -0.00000000000E+00 -0.50370352666E+03  0.50370352666E+03  0.00000000000E+00 0. -1.
         25    2    1    2    0    0 -0.11897352597E+03  0.14212709928E+03 -0.16005520506E+03  0.27499050121E+03  0.12508914763E+03 0.  0.
          5    1    3    3  502    0  0.11740650944E+02 -0.48627489115E+01 -0.45273853051E+02  0.47208933282E+02  0.41800000000E+01 0.  1.
         -5    1    3    3    0  502 -0.13071417691E+03  0.14698984819E+03 -0.11478135201E+03  0.22778156792E+03  0.41800000000E+01 0.  1.
        -11    1    1    2    0    0  0.56595166290E+02 -0.68117720737E+02 -0.19109180875E+03  0.21061603951E+03  0.00000000000E+00 0. -1.
         11    1    1    2    0    0  0.62378359676E+02 -0.74009378539E+02 -0.57878006962E+02  0.11277549183E+03  0.00000000000E+00 0.  1.
</event>
<event>
 7    1  0.3001243E-009  0.1105788E+03  0.7561462E-02  0.1259502E+00
          1   -1    0    0  501    0  0.00000000000E+00  0.00000000000E+00  0.20091205715E+03  0.20091205715E+03  0.00000000000E+00 0. -1.
         -1   -1    0    0    0  501 -0.00000000000E+00 -0.00000000000E+00 -0.63162674802E+02  0.63162674802E+02  0.00000000000E+00 0.  1.
         25    2    1    2    0    0  0.29597451881E+02 -0.19008406696E+02  0.69124168591E+02  0.14718417330E+03  0.12509077305E+03 0.  0.
          5    1    3    3  502    0  0.77391552742E+02 -0.82612832131E+01  0.27144587360E+02  0.82534854813E+02  0.41800000000E+01 0.  1.
         -5    1    3    3    0  502 -0.47794100861E+02 -0.10747123483E+02  0.41979581231E+02  0.64649318485E+02  0.41800000000E+01 0.  1.
        -11    1    1    2    0    0  0.30925840525E+02  0.11563703800E+01  0.16664243208E+02  0.35148852134E+02  0.00000000000E+00 0.  1.
         11    1    1    2    0    0 -0.60523292406E+02  0.17852036316E+02  0.51960970548E+02  0.81741706519E+02  0.00000000000E+00 0. -1.
</event>
<event>
 7    1  0.3001243E-009  0.1506191E+03  0.7561462E-02  0.1199714E+00
          3   -1    0    0  501    0  0.00000000000E+00  0.00000000000E+00  0.11743248247E+03  0.11743248247E+03  0.00000000000E+00 0. -1.
         -3   -1    0    0    0  501 -0.00000000000E+00 -0.00000000000E+00 -0.27722868174E+03  0.27722868174E+03  0.00000000000E+00 0.  1.
         25    2    1    2    0    0  0.80927373443E+02 -0.10099586185E+03 -0.15295851914E+03  0.23620654913E+03  0.12509125225E+03 0.  0.
          5    1    3    3  502    0  0.83374960562E+02 -0.10673790267E+03 -0.69275761984E+02  0.15218727776E+03  0.41800000000E+01 0. -1.
         -5    1    3    3    0  502 -0.24475871185E+01  0.57420408131E+01 -0.83682757161E+02  0.84019271370E+02  0.41800000000E+01 0. -1.
        -11    1    1    2    0    0 -0.10113349356E+03  0.89021172677E+02 -0.76883403554E+01  0.13495133672E+03  0.00000000000E+00 0.  1.
         11    1    1    2    0    0  0.20206120117E+02  0.11974689177E+02  0.85066022656E+00  0.23503278365E+02  0.00000000000E+00 0. -1.
</event>
<event>
 7    1  0.3001243E-009  0.9085664E+02  0.7561462E-02  0.1300790E+00
         -1   -1    0    0    0  501 -0.00000000000E+00  0.00000000000E+00  0.21367898790E+02  0.21367898790E+02  0.00000000000E+00 0.  1.
          1   -1    0    0  501    0  0.00000000000E+00 -0.00000000000E+00 -0.83161804882E+03  0.83161804882E+03  0.00000000000E+00 0. -1.
         25    2    1    2    0    0  0.52119245444E+01  0.83617312345E+01 -0.67432428960E+03  0.68590253972E+03  0.12510780844E+03 0.  0.
          5    1    3    3  502    0 -0.37673388682E+02  0.51587438548E+02 -0.31626792910E+03  0.32268161306E+03  0.41800000000E+01 0.  1.
         -5    1    3    3    0  502  0.42885313226E+02 -0.43225707314E+02 -0.35805636051E+03  0.36322092666E+03  0.41800000000E+01 0.  1.
        -11    1    1    2    0    0 -0.30453418839E+02 -0.14251051261E+01 -0.19226681128E+01  0.30547312424E+02  0.00000000000E+00 0.  1.
         11    1    1    2    0    0  0.25241494295E+02 -0.69366261084E+01 -0.13400319231E+03  0.13653609547E+03  0.00000000000E+00 0. -1.
</event>
<event>
 7    1  0.3001243E-009  0.1136848E+03  0.7561462E-02  0.1253895E+00
         -2   -1    0    0    0  501 -0.00000000000E+00  0.00000000000E+00  0.27815812826E+02  0.27815812826E+02  0.00000000000E+00 0.  1.
          2   -1    0    0  501    0  0.00000000000E+00 -0.00000000000E+00 -0.61885616432E+03  0.61885616432E+03  0.00000000000E+00 0. -1.
         25    2    1    2    0    0  0.30257888394E+02  0.13073928012E+02 -0.46991850223E+03  0.48739949176E+03  0.12509355869E+03 0.  0.
          5    1    3    3  502    0  0.78290664458E+02  0.53577578284E+01 -0.32921968095E+03  0.33846891206E+03  0.41800000000E+01 0.  1.
         -5    1    3    3    0  502 -0.48032776064E+02  0.77161701838E+01 -0.14069882129E+03  0.14893057970E+03  0.41800000000E+01 0.  1.
        -11    1    1    2    0    0 -0.46260184539E+02  0.29234198459E+02 -0.45560395219E+02  0.71206689613E+02  0.00000000000E+00 0.  1.
         11    1    1    2    0    0  0.16002296145E+02 -0.42308126471E+02 -0.75561454043E+02  0.88065795770E+02  0.00000000000E+00 0. -1.
</event>
<event>
 7    1  0.3001243E-009  0.1014934E+03  0.7561462E-02  0.1277186E+00
         -2   -1    0    0    0  501 -0.00000000000E+00  0.00000000000E+00  0.22595517396E+03  0.22595517396E+03  0.00000000000E+00 0.  1.
          2   -1    0    0  501    0  0.00000000000E+00 -0.00000000000E+00 -0.77186618223E+02  0.77186618223E+02  0.00000000000E+00 0. -1.
         25    2    1    2    0    0 -0.12066974240E+02  0.69804469072E+02  0.51800855119E+02  0.15280217511E+03  0.12508757076E+03 0.  0.
          5    1    3    3  502    0 -0.49712721212E+02  0.71210127142E+02 -0.20248204638E+01  0.86970162446E+02  0.41800000000E+01 0. -1.
         -5    1    3    3    0  502  0.37645746972E+02 -0.14056580703E+01  0.53825675583E+02  0.65832012666E+02  0.41800000000E+01 0. -1.
        -11    1    1    2    0    0 -0.11415953602E+02 -0.27000929164E+02  0.97192287646E+02  0.10151706728E+03  0.00000000000E+00 0.  1.
         11    1    1    2    0    0  0.23482927842E+02 -0.42803539908E+02 -0.22458702414E+00  0.48822549790E+02  0.00000000000E+00 0. -1.
</event>
<event>
 7    1  0.3001243E-009  0.5722961E+02  0.7561462E-02  0.1409840E+00
         -2   -1    0    0    0  501 -0.00000000000E+00  0.00000000000E+00  0.81780896550E+02  0.81780896550E+02  0.00000000000E+00 0.  1.
          2   -1    0    0  501    0  0.00000000000E+00 -0.00000000000E+00 -0.17068755110E+03  0.17068755110E+03  0.00000000000E+00 0. -1.
         25    2    1    2    0    0 -0.21336053889E+02 -0.27553435276E+02 -0.80620753368E+02  0.15284260709E+03  0.12508692049E+03 0.  0.
          5    1    3    3  502    0 -0.80077344048E+01 -0.69633276552E+01 -0.11212187770E+03  0.11270048625E+03  0.41800000000E+01 0.  1.
         -5    1    3    3    0  502 -0.13328319484E+02 -0.20590107620E+02  0.31501124328E+02  0.40142120846E+02  0.41800000000E+01 0.  1.
        -11    1    1    2    0    0  0.52518948803E+01 -0.23793141693E+02  0.26150571239E+02  0.35742808613E+02  0.00000000000E+00 0.  1.
         11    1    1    2    0    0  0.16084159008E+02  0.51346576969E+02 -0.34436472418E+02  0.63883031941E+02  0.00000000000E+00 0. -1.
</event>
<event>
 7    1  0.3001243E-009  0.1145947E+03  0.7561462E-02  0.1252290E+00
         -2   -1    0    0    0  501 -0.00000000000E+00  0.00000000000E+00  0.30494465476E+02  0.30494465476E+02  0.00000000000E+00 0.  1.
          2   -1    0    0  501    0  0.00000000000E+00 -0.00000000000E+00 -0.50674526685E+03  0.50674526685E+03  0.00000000000E+00 0. -1.
         25    2    1    2    0    0 -0.53515988547E+02 -0.28739243090E+02 -0.27744501376E+03  0.31034391862E+03  0.12509079517E+03 0.  0.
          5    1    3    3  502    0 -0.75274574402E+02 -0.56502476777E+02 -0.14270049313E+03  0.17099618292E+03  0.41800000000E+01 0.  1.
         -5    1    3    3    0  502  0.21758585855E+02  0.27763233687E+02 -0.13474452063E+03  0.13934773570E+03  0.41800000000E+01 0.  1.
        -11    1    1    2    0    0  0.74214093193E+02  0.19158592412E+02 -0.18496467476E+03  0.20021666814E+03  0.00000000000E+00 0. -1.
         11    1    1    2    0    0 -0.20698104647E+02  0.95806506778E+01 -0.13841112848E+02  0.26679145568E+02  0.00000000000E+00 0.  1.
</event>
<event>
 7    1  0.3001243E-009  0.8971399E+02  0.7561462E-02  0.1303546E+00
         -3   -1    0    0    0  501 -0.00000000000E+00  0.00000000000E+00  0.17082535686E+04  0.17082535686E+04  0.00000000000E+00 0.  1.
          3   -1    0    0  501    0  0.00000000000E+00 -0.00000000000E+00 -0.10375105291E+02  0.10375105291E+02  0.00000000000E+00 0. -1.
         25    2    1    2    0    0 -0.62516274919E+02 -0.21355841165E+02  0.11871117306E+04  0.11955094117E+04  0.12507652038E+03 0.  0.
          5    1    3    3  502    0 -0.48431197442E+02 -0.70404028829E+01  0.11622060671E+04  0.11632435528E+04  0.41800000000E+01 0.  1.
         -5    1    3    3    0  502 -0.14085077477E+02 -0.14315438282E+02  0.24905663499E+02  0.32265858970E+02  0.41800000000E+01 0.  1.
        -11    1    1    2    0    0  0.20300726673E+02 -0.34350612160E+02  0.12982227280E+03  0.13581570813E+03  0.00000000000E+00 0. -1.
         11    1    1    2    0    0  0.42215548246E+02  0.55706453325E+02  0.38094445984E+03  0.38730355400E+03  0.00000000000E+00 0.  1.
</event>
<event>
 7    1  0.3001243E-009  0.1235951E+03  0.7561462E-02  0.1237281E+00
          2   -1    0    0  501    0  0.00000000000E+00  0.00000000000E+00  0.69023003267E+02  0.69023003267E+02  0.00000000000E+00 0. -1.
         -2   -1    0    0    0  501 -0.00000000000E+00 -0.00000000000E+00 -0.49045659021E+03  0.49045659021E+03  0.00000000000E+00 0.  1.
         25    2    1    2    0    0 -0.41423405117E+02 -0.70042339489E+02 -0.40707522126E+03  0.43357408600E+03  0.12511764256E+03 0.  0.
          5    1    3    3  502    0 -0.57936056619E+02  0.80269629861E+01 -0.25642446793E+03  0.26304372059E+03  0.41800000000E+01 0.  1.
         -5    1    3    3    0  502  0.16512651502E+02 -0.78069302476E+02 -0.15065075333E+03  0.17053036541E+03  0.41800000000E+01 0.  1.
        -11    1    1    2    0    0 -0.23061033899E+01  0.64528614488E+02 -0.38975460706E+02  0.75421129253E+02  0.00000000000E+00 0.  1.
         11    1    1    2    0    0  0.43729508507E+02  0.55137250010E+01  0.24617095016E+02  0.50484378224E+02  0.00000000000E+00 0. -1.
</event>
<event>
 7    1  0.3001243E-009  0.2098873E+03  0.7561462E-02  0.1141655E+00
         -1   -1    0    0    0  501 -0.00000000000E+00  0.00000000000E+00  0.20953896051E+03  0.20953896051E+03  0.00000000000E+00 0.  1.
          1   -1    0    0  501    0  0.00000000000E+00 -0.00000000000E+00 -0.73280431183E+03  0.73280431183E+03  0.00000000000E+00 0. -1.
         25    2    1    2    0    0 -0.11658043955E+03 -0.15169364289E+03 -0.65424636739E+03  0.69302227052E+03  0.12505837844E+03 0.  0.
          5    1    3    3  502    0 -0.10735456729E+03 -0.37970627981E+02 -0.34835405397E+03  0.36651710877E+03  0.41800000000E+01 0. -1.
         -5    1    3    3    0  502 -0.92258722609E+01 -0.11372301490E+03 -0.30589231342E+03  0.32650516175E+03  0.41800000000E+01 0. -1.
        -11    1    1    2    0    0  0.43668282370E+02  0.48005418918E+02  0.99366148061E+02  0.11868053973E+03  0.00000000000E+00 0.  1.
         11    1    1    2    0    0  0.72912157183E+02  0.10368822397E+03  0.31614868002E+02  0.13064046208E+03  0.00000000000E+00 0. -1.
</event>
<event>
 7    1  0.3001243E-009  0.1255930E+03  0.7561462E-02  0.1234145E+00
          1   -1    0    0  501    0  0.00000000000E+00  0.00000000000E+00  0.10919733348E+04  0.10919733348E+04  0.00000000000E+00 0. -1.
         -1   -1    0    0    0  501 -0.00000000000E+00 -0.00000000000E+00 -0.19836224381E+02  0.19836224381E+02  0.00000000000E+00 0.  1.
         25    2    1    2    0    0 -0.73783343877E+02  0.56283361946E+01  0.83143044272E+03  0.84403814093E+03  0.12509253475E+03 0.  0.
          5    1    3    3  502    0 -0.90062800012E+02 -0.38458243023E+02  0.57827698191E+03  0.58652543389E+03  0.41800000000E+01 0.  1.
         -5    1    3    3    0  502  0.16279456136E+02  0.44086579218E+02  0.25315346082E+03  0.25751270703E+03  0.41800000000E+01 0.  1.
        -11    1    1    2    0    0  0.28722984307E+00  0.25978781324E+02  0.12122651791E+03  0.12397922497E+03  0.00000000000E+00 0.  1.
         11    1    1    2    0    0  0.73496114034E+02 -0.31607117519E+02  0.11948014978E+03  0.14379219328E+03  0.00000000000E+00 0. -1.
</event>
<event>
 7    1  0.3001243E-009  0.8880971E+02  0.7561462E-02  0.1305760E+00
          1   -1    0    0  501    0  0.00000000000E+00  0.00000000000E+00  0.21578447592E+03  0.21578447592E+03  0.00000000000E+00 0. -1.
         -1   -1    0    0    0  501 -0.00000000000E+00 -0.00000000000E+00 -0.57029218174E+02  0.57029218174E+02  0.00000000000E+00 0.  1.
         25    2    1    2    0    0  0.96352575223E+01 -0.46440732930E+01  0.61507085494E+02  0.13980681639E+03  0.12509363989E+03 0.  0.
          5    1    3    3  502    0  0.46184554648E+02 -0.22237766199E+02 -0.14601566716E+02  0.53462224833E+02  0.41800000000E+01 0. -1.
         -5    1    3    3    0  502 -0.36549297126E+02  0.17593692906E+02  0.76108652210E+02  0.86344591560E+02  0.41800000000E+01 0. -1.
        -11    1    1    2    0    0 -0.18941186027E+01  0.44636604254E+02  0.28181315430E+02  0.52822350042E+02  0.00000000000E+00 0.  1.
         11    1    1    2    0    0 -0.77411389196E+01 -0.39992530961E+02  0.69066856819E+02  0.80184527655E+02  0.00000000000E+00 0. -1.
</event>
<event>
 7    1  0.3001243E-009  0.1955564E+03  0.7561462E-02  0.1153543E+00
          2   -1    0    0  501    0  0.00000000000E+00  0.00000000000E+00  0.10425887661E+04  0.10425887661E+04  0.00000000000E+00 0.  1.
         -2   -1    0    0    0  501 -0.00000000000E+00 -0.00000000000E+00 -0.46773337603E+02  0.46773337603E+02  0.00000000000E+00 0. -1.
         25    2    1    2    0    0 -0.13412793299E+03  0.12836431126E+03  0.39316808920E+03  0.45242954788E+03  0.12507458022E+03 0.  0.
          5    1    3    3  502    0 -0.11508378765E+03  0.11008656704E+03  0.39472156945E+03  0.42565939460E+03  0.41800000000E+01 0. -1.
         -5    1    3    3    0  502 -0.19044145347E+02  0.18277744225E+02 -0.15534802493E+01  0.26770153284E+02  0.41800000000E+01 0. -1.
        -11    1    1    2    0    0  0.14618386656E+03 -0.10933878036E+03  0.51348470591E+03  0.54496902200E+03  0.00000000000E+00 0.  1.
         11    1    1    2    0    0 -0.12055933566E+02 -0.19025530906E+02  0.89162633368E+02  0.91963533803E+02  0.00000000000E+00 0. -1.
</event>
<event>
 7    1  0.3001243E-009  0.1915884E+03  0.7561462E-02  0.1157036E+00
          1   -1    0    0  501    0  0.00000000000E+00  0.00000000000E+00  0.17843293644E+03  0.17843293644E+03  0.00000000000E+00 0. -1.
         -1   -1    0    0    0  501 -0.00000000000E+00 -0.00000000000E+00 -0.23627462580E+03  0.23627462580E+03  0.00000000000E+00 0.  1.
         25    2    1    2    0    0 -0.12173730322E+03 -0.11709880218E+03  0.32910859435E+00  0.21019108817E+03  0.12509230498E+03 0.  0.
          5    1    3    3  502    0 -0.46407908916E+02 -0.10153917273E+03 -0.45416855661E+02  0.12059875948E+03  0.41800000000E+01 0.  1.
         -5    1    3    3    0  502 -0.75329394300E+02 -0.15559629447E+02  0.45745964256E+02  0.89592328689E+02  0.41800000000E+01 0.  1.
        -11    1    1    2    0    0  0.10037656428E+02 -0.17095406309E+02 -0.14434519184E+02  0.24522699841E+02  0.00000000000E+00 0.  1.
         11    1    1    2    0    0  0.11169964679E+03  0.13419420849E+03 -0.43736278772E+02  0.17999377424E+03  0.00000000000E+00 0. -1.
</event>
<event>
 7    1  0.3001243E-009  0.9432580E+02  0.7561462E-02  0.1292702E+00
          2   -1    0    0  501    0  0.00000000000E+00  0.00000000000E+00  0.69289463317E+02  0.69289463317E+02  0.00000000000E+00 0. -1.
         -2   -1    0    0    0  501 -0.00000000000E+00 -0.00000000000E+00 -0.17654950489E+03  0.17654950489E+03  0.00000000000E+00 0.  1.
         25    2    1    2    0    0 -0.15355977567E+02  0.10987432579E+02 -0.76381767181E+02  0.14778734738E+03  0.12510154262E+03 0.  0.
          5    1    3    3  502    0  0.14317047311E+02 -0.53396102387E+02 -0.31178029018E+02  0.63605530320E+02  0.41800000000E+01 0.  1.
         -5    1    3    3    0  502 -0.29673024878E+02  0.64383534966E+02 -0.45203738163E+02  0.84181817063E+02  0.41800000000E+01 0.  1.
        -11    1    1    2    0    0 -0.17145852154E+02  0.13236016815E+02  0.22364467186E+02  0.31134254122E+02  0.00000000000E+00 0. -1.
         11    1    1    2    0    0  0.32501829721E+02 -0.24223449394E+02 -0.53242741581E+02  0.66917366706E+02  0.00000000000E+00 0.  1.
</event>
<event>
 7    1  0.3001243E-009  0.1380210E+03  0.7561462E-02  0.1216017E+00
          3   -1    0    0  501    0  0.00000000000E+00  0.00000000000E+00  0.48535942296E+02  0.48535942296E+02  0.00000000000E+00 0. -1.
         -3   -1    0    0    0  501 -0.00000000000E+00 -0.00000000000E+00 -0.40009150344E+03  0.40009150344E+03  0.00000000000E+00 0.  1.
         25    2    1    2    0    0 -0.21535649995E+02 -0.81117965522E+02 -0.16311074910E+03  0.22202689926E+03  0.12508764517E+03 0.  0.
          5    1    3    3  502    0 -0.71780930299E+02 -0.28474027671E+02 -0.92096327600E+02  0.12026004392E+03  0.41800000000E+01 0. -1.
         -5    1    3    3    0  502  0.50245280303E+02 -0.52643937852E+02 -0.71014421502E+02  0.10176685534E+03  0.41800000000E+01 0. -1.
        -11    1    1    2    0    0  0.31555897100E+02 -0.10798481075E+02 -0.47821425832E+02  0.58303264093E+02  0.00000000000E+00 0. -1.
         11    1    1    2    0    0 -0.10020247104E+02  0.91916446597E+02 -0.14062338621E+03  0.16829728238E+03  0.00000000000E+00 0.  1.
</event>
<event>
 7    1  0.3001243E-009  0.9513443E+02  0.7561462E-02  0.1290874E+00
          1   -1    0    0  501    0  0.00000000000E+00  0.00000000000E+00  0.52270634449E+02  0.52270634449E+02  0.00000000000E+00 0. -1.
         -1   -1    0    0    0  501 -0.00000000000E+00 -0.00000000000E+00 -0.37502895526E+03  0.37502895526E+03  0.00000000000E+00 0.  1.
         25    2    1    2    0    0  0.37933190827E+02 -0.42607354996E+02 -0.73991800147E+02  0.15613923682E+03  0.12510140335E+03 0.  0.
          5    1    3    3  502    0 -0.15883748444E+02 -0.14177692229E+02 -0.90396621209E+02  0.92964089559E+02  0.41800000000E+01 0. -1.
         -5    1    3    3    0  502  0.53816939270E+02 -0.28429662767E+02  0.16404821062E+02  0.63175147262E+02  0.41800000000E+01 0. -1.
        -11    1    1    2    0    0  0.61351163112E+01  0.59907652437E+02 -0.12850522464E+03  0.14191602881E+03  0.00000000000E+00 0.  1.
         11    1    1    2    0    0 -0.44068307138E+02 -0.17300297441E+02 -0.12026129602E+03  0.12924432408E+03  0.00000000000E+00 0. -1.
</event>
<event>
 7    1  0.3001243E-009  0.1395086E+03  0.7561462E-02  0.1213992E+00
          1   -1    0    0  501    0  0.00000000000E+00  0.00000000000E+00  0.21231922135E+02  0.21231922135E+02  0.00000000000E+00 0. -1.
         -1   -1    0    0    0  501 -0.00000000000E+00 -0.00000000000E+00 -0.10445642053E+04  0.10445642053E+04  0.00000000000E+00 0.  1.
         25    2    1    2    0    0  0.93797510867E+02 -0.25695524639E+02 -0.66398820977E+03  0.68263358362E+03  0.12510009485E+03 0.  0.
          5    1    3    3  502    0  0.11064688889E+03 -0.45529593765E+02 -0.61917605883E+03  0.63064422788E+03  0.41800000000E+01 0.  1.
         -5    1    3    3    0  502 -0.16849378021E+02  0.19834069126E+02 -0.44812150939E+02  0.51989355734E+02  0.41800000000E+01 0.  1.
        -11    1    1    2    0    0 -0.33059225420E+02  0.56022162654E+02 -0.17065344173E+03  0.18263075389E+03  0.00000000000E+00 0.  1.
         11    1    1    2    0    0 -0.60738285447E+02 -0.30326638015E+02 -0.18869063163E+03  0.20053178989E+03  0.00000000000E+00 0. -1.
</event>
<event>
 7    1  0.3001243E-009  0.1292351E+03  0.7561462E-02  0.1228595E+00
         -1   -1    0    0    0  501 -0.00000000000E+00  0.00000000000E+00  0.41930023530E+02  0.41930023530E+02  0.00000000000E+00 0.  1.
          1   -1    0    0  501    0  0.00000000000E+00 -0.00000000000E+00 -0.59837016548E+03  0.59837016548E+03  0.00000000000E+00 0. -1.
         25    2    1    2    0    0 -0.78853662326E+02 -0.67103011428E+01 -0.12982170695E+03  0.19688610550E+03  0.12509010648E+03 0.  0.
          5    1    3    3  502    0 -0.78779589331E+01  0.50055376118E+02 -0.75179770441E+02  0.90758323028E+02  0.41800000000E+01 0.  1.
         -5    1    3    3    0  502 -0.70975703392E+02 -0.56765677261E+02 -0.54641936510E+02  0.10612778247E+03  0.41800000000E+01 0.  1.
        -11    1    1    2    0    0  0.82399808579E+02 -0.23928023651E+02 -0.25507332443E+03  0.26911833755E+03  0.00000000000E+00 0.  1.
         11    1    1    2    0    0 -0.35461462534E+01  0.30638324793E+02 -0.17154511057E+03  0.17429574596E+03  0.00000000000E+00 0. -1.
</event>
<event>
 7    1  0.3001243E-009  0.1087800E+03  0.7561462E-02  0.1262846E+00
         -2   -1    0    0    0  501 -0.00000000000E+00  0.00000000000E+00  0.79791619202E+02  0.79791619202E+02  0.00000000000E+00 0.  1.
          2   -1    0    0  501    0  0.00000000000E+00 -0.00000000000E+00 -0.16864433739E+03  0.16864433739E+03  0.00000000000E+00 0. -1.
         25    2    1    2    0    0 -0.17562079851E+02  0.29451815270E+02 -0.24301008295E+02  0.13196246269E+03  0.12509083294E+03 0.  0.
          5    1    3    3  502    0 -0.44337006334E+02  0.66603091802E+02 -0.30154642207E+02  0.85606756830E+02  0.41800000000E+01 0.  1.
         -5    1    3    3    0  502  0.26774926483E+02 -0.37151276532E+02  0.58536339112E+01  0.46355705864E+02  0.41800000000E+01 0.  1.
        -11    1    1    2    0    0  0.36365613833E+02 -0.51139535044E+02 -0.24873426208E+02  0.67501090697E+02  0.00000000000E+00 0.  1.
         11    1    1    2    0    0 -0.18803533982E+02  0.21687719774E+02 -0.39678283685E+02  0.48972403202E+02  0.00000000000E+00 0. -1.
</event>
<event>
 7    1  0.3067081E-009  0.9832153E+02  0.7561462E-02  0.1283866E+00
         -1   -1    0    0    0  501 -0.00000000000E+00  0.00000000000E+00  0.17804180817E+03  0.17804180817E+03  0.00000000000E+00 0.  1.
          1   -1    0    0  501    0  0.00000000000E+00 -0.00000000000E+00 -0.97892467438E+02  0.97892467438E+02  0.00000000000E+00 0. -1.
         25    2    1    2    0    0 -0.57743812912E+02 -0.35341942143E+02  0.78962966939E+02  0.16268234402E+03  0.12508794548E+03 0.  0.
          5    1    3    3  502    0  0.19280806573E+02 -0.45871831966E+02  0.67541240252E+02  0.83995630867E+02  0.41800000000E+01 0. -1.
         -5    1    3    3    0  502 -0.77024619484E+02  0.10529889823E+02  0.11421726687E+02  0.78686713154E+02  0.41800000000E+01 0. -1.
        -11    1    1    2    0    0  0.16710311922E+02  0.17230229872E+02  0.44714936336E+02  0.50749786970E+02  0.00000000000E+00 0.  1.
         11    1    1    2    0    0  0.41033500990E+02  0.18111712271E+02 -0.43528562542E+02  0.62502144618E+02  0.00000000000E+00 0. -1.
</event>
<event>
 7    1  0.3001243E-009  0.1152664E+03  0.7561462E-02  0.1251117E+00
         -1   -1    0    0    0  501 -0.00000000000E+00  0.00000000000E+00  0.30606153082E+02  0.30606153082E+02  0.00000000000E+00 0.  1.
          1   -1    0    0  501    0  0.00000000000E+00 -0.00000000000E+00 -0.64414012045E+03  0.64414012045E+03  0.00000000000E+00 0. -1.
         25    2    1    2    0    0  0.60849823957E+02  0.58948316850E+02 -0.30960408151E+03  0.34449960568E+03  0.12509071066E+03 0.  0.
          5    1    3    3  502    0  0.81204059673E+02  0.37169872132E+02 -0.29979276453E+03  0.31284001145E+03  0.41800000000E+01 0. -1.
         -5    1    3    3    0  502 -0.20354235716E+02  0.21778444718E+02 -0.98113169799E+01  0.31659594230E+02  0.41800000000E+01 0. -1.
        -11    1    1    2    0    0 -0.27379683600E+01 -0.52485875304E+02 -0.23031990340E+03  0.23624038918E+03  0.00000000000E+00 0. -1.
         11    1    1    2    0    0 -0.58111855597E+02 -0.64624415461E+01 -0.73609982453E+02  0.94006278665E+02  0.00000000000E+00 0.  1.
</event>
<event>
 7    1  0.3273755E-009  0.1031559E+03  0.7561462E-02  0.1273796E+00
          1   -1    0    0  501    0  0.00000000000E+00  0.00000000000E+00  0.62933485502E+02  0.62933485502E+02  0.00000000000E+00 0. -1.
         -1   -1    0    0    0  501 -0.00000000000E+00 -0.00000000000E+00 -0.23091575314E+03  0.23091575314E+03  0.00000000000E+00 0.  1.
         25    2    1    2    0    0  0.17256783450E+02  0.49364011814E+02 -0.88707746844E+02  0.16202357563E+03  0.12509185613E+03 0.  0.
          5    1    3    3  502    0 -0.11706497771E+02  0.76448141731E+02 -0.94002317138E+02  0.12180011696E+03  0.41800000000E+01 0.  1.
         -5    1    3    3    0  502  0.28963281222E+02 -0.27084129916E+02  0.52945702940E+01  0.40223458666E+02  0.41800000000E+01 0.  1.
        -11    1    1    2    0    0  0.25037443456E+02 -0.14555090391E+01 -0.60071210515E+02  0.65096408611E+02  0.00000000000E+00 0.  1.
         11    1    1    2    0    0 -0.42294226906E+02 -0.47908502775E+02 -0.19203310281E+02  0.66729254406E+02  0.00000000000E+00 0. -1.
</event>
<event>
 7    1  0.3001243E-009  0.1462571E+03  0.7561462E-02  0.1205149E+00
         -2   -1    0    0    0  501 -0.00000000000E+00  0.00000000000E+00  0.83604359642E+02  0.83604359642E+02  0.00000000000E+00 0.  1.
          2   -1    0    0  501    0  0.00000000000E+00 -0.00000000000E+00 -0.38464722181E+03  0.38464722181E+03  0.00000000000E+00 0. -1.
         25    2    1    2    0    0 -0.13507090522E+03  0.56799542625E+01 -0.21861209454E+03  0.28587121953E+03  0.12511872345E+03 0.  0.
          5    1    3    3  502    0 -0.12310869301E+03 -0.11679375719E+02 -0.83993492575E+02  0.14954777600E+03  0.41800000000E+01 0.  1.
         -5    1    3    3    0  502 -0.11962212203E+02  0.17359329981E+02 -0.13461860197E+03  0.13632344352E+03  0.41800000000E+01 0.  1.
        -11    1    1    2    0    0  0.81186068172E+02  0.25422003329E+02 -0.81155221337E+01  0.85459450139E+02  0.00000000000E+00 0.  1.
         11    1    1    2    0    0  0.53884837043E+02 -0.31101957592E+02 -0.74315245492E+02  0.96920911787E+02  0.00000000000E+00 0. -1.
</event>
<event>
 7    1  0.3001243E-009  0.1855995E+03  0.7561462E-02  0.1162491E+00
         -1   -1    0    0    0  501 -0.00000000000E+00  0.00000000000E+00  0.16259885665E+03  0.16259885665E+03  0.00000000000E+00 0.  1.
          1   -1    0    0  501    0  0.00000000000E+00 -0.00000000000E+00 -0.24915841885E+03  0.24915841885E+03  0.00000000000E+00 0. -1.
         25    2    1    2    0    0 -0.16746218268E+03  0.14304258788E+02 -0.26147335083E+02  0.21114262910E+03  0.12509729111E+03 0.  0.
          5    1    3    3  502    0  0.33269656439E+01 -0.65070027754E+01  0.29175655194E+02  0.30366116669E+02  0.41800000000E+01 0. -1.
         -5    1    3    3    0  502 -0.17078914833E+03  0.20811261564E+02 -0.55322990277E+02  0.18077651243E+03  0.41800000000E+01 0. -1.
        -11    1    1    2    0    0  0.14960066010E+03  0.21042535652E+02 -0.54336942030E+02  0.16054796504E+03  0.00000000000E+00 0. -1.
         11    1    1    2    0    0  0.17861522585E+02 -0.35346794440E+02 -0.60752850848E+01  0.40066681359E+02  0.00000000000E+00 0.  1.
</event>
<event>
 7    1  0.3001243E-009  0.8985939E+02  0.7561462E-02  0.1303193E+00
          3   -1    0    0  501    0  0.00000000000E+00  0.00000000000E+00  0.50327621072E+02  0.50327621072E+02  0.00000000000E+00 0. -1.
         -3   -1    0    0    0  501 -0.00000000000E+00 -0.00000000000E+00 -0.30757876147E+03  0.30757876147E+03  0.00000000000E+00 0.  1.
         25    2    1    2    0    0 -0.27976141248E+02  0.47618733729E+02 -0.15724156182E+03  0.20838335896E+03  0.12509399365E+03 0.  0.
          5    1    3    3  502    0 -0.85511724280E+00  0.47813176466E+02  0.76723913565E+00  0.48009292071E+02  0.41800000000E+01 0. -1.
         -5    1    3    3    0  502 -0.27121024005E+02 -0.19444273701E+00 -0.15800880095E+03  0.16037406689E+03  0.41800000000E+01 0. -1.
        -11    1    1    2    0    0  0.40470873290E-01 -0.69058878523E+02 -0.39622687974E+02  0.79618388222E+02  0.00000000000E+00 0. -1.
         11    1    1    2    0    0  0.27935670375E+02  0.21440144795E+02 -0.60386890604E+02  0.69904635361E+02  0.00000000000E+00 0.  1.
</event>
<event>
 7    1  0.3001243E-009  0.1566404E+03  0.7561462E-02  0.1192543E+00
         -2   -1    0    0    0  501 -0.00000000000E+00  0.00000000000E+00  0.31840693108E+02  0.31840693108E+02  0.00000000000E+00 0.  1.
          2   -1    0    0  501    0  0.00000000000E+00 -0.00000000000E+00 -0.87480768078E+03  0.87480768078E+03  0.00000000000E+00 0. -1.
         25    2    1    2    0    0 -0.52902780412E+02  0.10312516587E+03 -0.57366028423E+03  0.59847083761E+03  0.12509083801E+03 0.  0.
          5    1    3    3  502    0  0.25275663877E+02 -0.10776736155E+02 -0.15821904589E+03  0.16064163878E+03  0.41800000000E+01 0.  1.
         -5    1    3    3    0  502 -0.78178444289E+02  0.11390190203E+03 -0.41544123834E+03  0.43782919883E+03  0.41800000000E+01 0.  1.
        -11    1    1    2    0    0 -0.19040346896E+02 -0.61005942355E+02 -0.14553352520E+03  0.15894737107E+03  0.00000000000E+00 0.  1.
         11    1    1    2    0    0  0.71943127308E+02 -0.42119223517E+02 -0.12377317825E+03  0.14923016521E+03  0.00000000000E+00 0. -1.
</event>
<event>
 7    1  0.3001243E-009  0.5835819E+02  0.7561462E-02  0.1404854E+00
          1   -1    0    0  501    0  0.00000000000E+00  0.00000000000E+00  0.25802771239E+03  0.25802771239E+03  0.00000000000E+00 0. -1.
         -1   -1    0    0    0  501 -0.00000000000E+00 -0.00000000000E+00 -0.46618422118E+02  0.46618422118E+02  0.00000000000E+00 0.  1.
         25    2    1    2    0    0 -0.11254378186E+02 -0.66087868188E+01  0.11575132755E+03  0.17094266721E+03  0.12511070518E+03 0.  0.
          5    1    3    3  502    0 -0.44293213330E+02 -0.20881010295E+01 -0.57228746724E+01  0.44905151235E+02  0.41800000000E+01 0. -1.
         -5    1    3    3    0  502  0.33038835143E+02 -0.45206857892E+01  0.12147420222E+03  0.12603751597E+03  0.41800000000E+01 0. -1.
        -11    1    1    2    0    0  0.20244626211E+02 -0.77095841919E+01  0.10964274368E+03  0.11176230948E+03  0.00000000000E+00 0. -1.
         11    1    1    2    0    0 -0.89902480254E+01  0.14318371011E+02 -0.13984780957E+02  0.21941157817E+02  0.00000000000E+00 0.  1.
</event>
<event>
 7    1  0.3001243E-009  0.1202960E+03  0.7561462E-02  0.1242610E+00
          2   -1    0    0  501    0  0.00000000000E+00  0.00000000000E+00  0.72869134158E+03  0.72869134158E+03  0.00000000000E+00 0. -1.
         -2   -1    0    0    0  501 -0.00000000000E+00 -0.00000000000E+00 -0.28613676630E+02  0.28613676630E+02  0.00000000000E+00 0.  1.
         25    2    1    2    0    0 -0.76650672385E+02 -0.48388345225E+02  0.45704958308E+03  0.48245033168E+03  0.12508894281E+03 0.  0.
          5    1    3    3  502    0 -0.92530421411E+02 -0.71116896712E+02  0.42032324320E+03  0.43624373126E+03  0.41800000000E+01 0.  1.
         -5    1    3    3    0  502  0.15879749026E+02  0.22728551487E+02  0.36726339876E+02  0.46206600422E+02  0.41800000000E+01 0.  1.
        -11    1    1    2    0    0  0.40405889543E+02  0.43215760822E+02  0.22753263435E+03  0.23509856994E+03  0.00000000000E+00 0. -1.
         11    1    1    2    0    0  0.36244782841E+02  0.51725844033E+01  0.15495447521E+02  0.39756116592E+02  0.00000000000E+00 0.  1.
</event>
<event>
 7    1  0.3001243E-009  0.7131545E+02  0.7561462E-02  0.1355676E+00
          2   -1    0    0  501    0  0.00000000000E+00  0.00000000000E+00  0.36975218353E+03  0.36975218353E+03  0.00000000000E+00 0. -1.
         -2   -1    0    0    0  501 -0.00000000000E+00 -0.00000000000E+00 -0.41950038691E+02  0.41950038691E+02  0.00000000000E+00 0.  1.
         25    2    1    2    0    0  0.39792021102E+02  0.32819148331E+02  0.23535006821E+03  0.27147248172E+03  0.12508857775E+03 0.  0.
          5    1    3    3  502    0 -0.14074040133E+02  0.30914251427E+01  0.19965935696E+03  0.20022229331E+03  0.41800000000E+01 0. -1.
         -5    1    3    3    0  502  0.53866061234E+02  0.29727723189E+02  0.35690711248E+02  0.71250188408E+02  0.41800000000E+01 0. -1.
        -11    1    1    2    0    0 -0.65748664015E+01 -0.32068032947E+02 -0.86079916089E+01  0.33847970764E+02  0.00000000000E+00 0.  1.
         11    1    1    2    0    0 -0.33217154700E+02 -0.75111538421E+00  0.10106006824E+03  0.10638176974E+03  0.00000000000E+00 0. -1.
</event>
<event>
 7    1  0.3001243E-009  0.1189475E+03  0.7561462E-02  0.1244844E+00
          2   -1    0    0  501    0  0.00000000000E+00  0.00000000000E+00  0.10022987437E+03  0.10022987437E+03  0.00000000000E+00 0. -1.
         -2   -1    0    0    0  501 -0.00000000000E+00 -0.00000000000E+00 -0.17366983579E+03  0.17366983579E+03  0.00000000000E+00 0.  1.
         25    2    1    2    0    0 -0.34570853668E+02  0.34841839773E+02  0.15751916336E+02  0.13529451628E+03  0.12508951013E+03 0.  0.
          5    1    3    3  502    0 -0.63061042727E+02  0.65959580594E+02  0.46497427810E+01  0.91468321784E+02  0.41800000000E+01 0.  1.
         -5    1    3    3    0  502  0.28490189060E+02 -0.31117740821E+02  0.11102173555E+02  0.43826194497E+02  0.41800000000E+01 0.  1.
        -11    1    1    2    0    0 -0.31600487220E+02 -0.15567327683E+02 -0.18160862712E+02  0.39632681189E+02  0.00000000000E+00 0. -1.
         11    1    1    2    0    0  0.66171340888E+02 -0.19274512090E+02 -0.71031015037E+02  0.98972512691E+02  0.00000000000E+00 0.  1.
</event>
<event>
 7    1  0.3001243E-009  0.1190033E+03  0.7561462E-02  0.1244750E+00
         -3   -1    0    0    0  501 -0.00000000000E+00  0.00000000000E+00  0.26981779290E+02  0.26981779290E+02  0.00000000000E+00 0.  1.
          3   -1    0    0  501    0  0.00000000000E+00 -0.00000000000E+00 -0.69103930925E+03  0.69103930925E+03  0.00000000000E+00 0. -1.
         25    2    1    2    0    0 -0.57023108457E+02 -0.60391129731E+02 -0.33915521370E+03  0.37090757522E+03  0.12508975547E+03 0.  0.
          5    1    3    3  502    0  0.17399171589E+02  0.14820320279E+02 -0.16832014279E+03  0.16991620268E+03  0.41800000000E+01 0.  1.
         -5    1    3    3    0  502 -0.74422280047E+02 -0.75211450010E+02 -0.17083507092E+03  0.20099137254E+03  0.41800000000E+01 0.  1.
        -11    1    1    2    0    0  0.16403892066E+02  0.65880970747E+02 -0.11753898532E+03  0.13573799413E+03  0.00000000000E+00 0.  1.
         11    1    1    2    0    0  0.40619216391E+02 -0.54898410156E+01 -0.20736333094E+03  0.21137551919E+03  0.00000000000E+00 0. -1.
</event>
<event>
 7    1  0.3001243E-009  0.1822350E+03  0.7561462E-02  0.1165657E+00
          2   -1    0    0  501    0  0.00000000000E+00  0.00000000000E+00  0.71831104288E+03  0.71831104288E+03  0.00000000000E+00 0.  1.
         -2   -1    0    0    0  501 -0.00000000000E+00 -0.00000000000E+00 -0.51476263357E+02  0.51476263357E+02  0.00000000000E+00 0. -1.
         25    2    1    2    0    0  0.13891135794E+03  0.58246647597E+02  0.45689534734E+03  0.49708100565E+03  0.12508849042E+03 0.  0.
          5    1    3    3  502    0  0.11574387399E+03 -0.11944865430E+02  0.33279350792E+03  0.35257384402E+03  0.41800000000E+01 0.  1.
         -5    1    3    3    0  502  0.23167483948E+02  0.70191513027E+02  0.12410183942E+03  0.14450716162E+03  0.41800000000E+01 0.  1.
        -11    1    1    2    0    0 -0.12791781290E+03 -0.14315514441E+02  0.15240251345E+03  0.19948540527E+03  0.00000000000E+00 0. -1.
         11    1    1    2    0    0 -0.10993545039E+02 -0.43931133156E+02  0.57536918735E+02  0.73220895313E+02  0.00000000000E+00 0.  1.
</event>
<event>
 7    1  0.3001243E-009  0.1482322E+03  0.7561462E-02  0.1202662E+00
         -1   -1    0    0    0  501 -0.00000000000E+00  0.00000000000E+00  0.15600345377E+03  0.15600345377E+03  0.00000000000E+00 0.  1.
          1   -1    0    0  501    0  0.00000000000E+00 -0.00000000000E+00 -0.22950429323E+03  0.22950429323E+03  0.00000000000E+00 0. -1.
         25    2    1    2    0    0  0.81331344373E+02 -0.75398780258E+02 -0.14846906364E+03  0.22358445609E+03  0.12508869854E+03 0.  0.
          5    1    3    3  502    0  0.93116207055E+02 -0.99520136334E+01 -0.11693169770E+03  0.14986715757E+03  0.41800000000E+01 0. -1.
         -5    1    3    3    0  502 -0.11784862682E+02 -0.65446766625E+02 -0.31537365948E+02  0.73717298520E+02  0.41800000000E+01 0. -1.
        -11    1    1    2    0    0 -0.48595374955E+02 -0.54204179086E+01  0.32209577941E+01  0.49002713868E+02  0.00000000000E+00 0. -1.
         11    1    1    2    0    0 -0.32735969418E+02  0.80819198167E+02  0.71747266390E+02  0.11292057705E+03  0.00000000000E+00 0.  1.
</event>
<event>
 7    1  0.3001243E-009  0.1010142E+03  0.7561462E-02  0.1278178E+00
          1   -1    0    0  501    0  0.00000000000E+00  0.00000000000E+00  0.14045004133E+03  0.14045004133E+03  0.00000000000E+00 0. -1.
         -1   -1    0    0    0  501 -0.00000000000E+00 -0.00000000000E+00 -0.13048999651E+03  0.13048999651E+03  0.00000000000E+00 0.  1.
         25    2    1    2    0    0  0.13207832256E+02 -0.88982064819E+00 -0.75184911999E+02  0.14654135215E+03  0.12508540396E+03 0.  0.
          5    1    3    3  502    0 -0.55193038896E+02  0.22514689641E+01 -0.45940015151E+02  0.71967340142E+02  0.41800000000E+01 0.  1.
         -5    1    3    3    0  502  0.68400871152E+02 -0.31412896123E+01 -0.29244896848E+02  0.74574012005E+02  0.41800000000E+01 0.  1.
        -11    1    1    2    0    0  0.18578137277E+02 -0.28972937291E+02  0.73218708841E+01  0.35187896686E+02  0.00000000000E+00 0.  1.
         11    1    1    2    0    0 -0.31785969533E+02  0.29862757939E+02  0.77823085935E+02  0.89210789007E+02  0.00000000000E+00 0. -1.
</event>
<event>
 7    1  0.3001243E-009  0.1872637E+03  0.7561462E-02  0.1160953E+00
         -2   -1    0    0    0  501 -0.00000000000E+00  0.00000000000E+00  0.25966922574E+02  0.25966922574E+02  0.00000000000E+00 0.  1.
          2   -1    0    0  501    0  0.00000000000E+00 -0.00000000000E+00 -0.14132127407E+04  0.14132127407E+04  0.00000000000E+00 0. -1.
         25    2    1    2    0    0  0.82843817475E+01 -0.15431489712E+03 -0.83923440507E+03  0.86246354155E+03  0.12508898995E+03 0.  0.
          5    1    3    3  502    0  0.48698367118E+02 -0.17072364500E+02 -0.15496321346E+03  0.16338318921E+03  0.41800000000E+01 0.  1.
         -5    1    3    3    0  502 -0.40413985370E+02 -0.13724253262E+03 -0.68427119161E+03  0.69908035235E+03  0.41800000000E+01 0.  1.
        -11    1    1    2    0    0 -0.30050545973E+01  0.16640465383E+03 -0.51138441604E+03  0.53778579392E+03  0.00000000000E+00 0.  1.
         11    1    1    2    0    0 -0.52793271502E+01 -0.12089756707E+02 -0.36626997051E+02  0.38930327835E+02  0.00000000000E+00 0. -1.
</event>
<event>
 7    1  0.3001243E-009  0.6638554E+02  0.7561462E-02  0.1372834E+00
         -3   -1    0    0    0  501 -0.00000000000E+00  0.00000000000E+00  0.18462383313E+03  0.18462383313E+03  0.00000000000E+00 0.  1.
          3   -1    0    0  501    0  0.00000000000E+00 -0.00000000000E+00 -0.12401859010E+03  0.12401859010E+03  0.00000000000E+00 0. -1.
         25    2    1    2    0    0 -0.87288207095E+01  0.41345395308E+02  0.13191239761E+03  0.18663867236E+03  0.12508988509E+03 0.  0.
          5    1    3    3  502    0 -0.54421631910E+01  0.46487314007E+02 -0.70173637693E+01  0.47512138428E+02  0.41800000000E+01 0. -1.
         -5    1    3    3    0  502 -0.32866575186E+01 -0.51419186992E+01  0.13892976138E+03  0.13912653393E+03  0.41800000000E+01 0. -1.
        -11    1    1    2    0    0 -0.66694247911E+01  0.16883284779E+02  0.10072282899E+02  0.20759995539E+02  0.00000000000E+00 0.  1.
         11    1    1    2    0    0  0.15398245501E+02 -0.58228680087E+02 -0.81379437477E+02  0.10124375533E+03  0.00000000000E+00 0. -1.
</event>
<event>
 7    1  0.3001243E-009  0.1124835E+03  0.7561462E-02  0.1256039E+00
         -2   -1    0    0    0  501 -0.00000000000E+00  0.00000000000E+00  0.30081998797E+02  0.30081998797E+02  0.00000000000E+00 0.  1.
          2   -1    0    0  501    0  0.00000000000E+00 -0.00000000000E+00 -0.68486469554E+03  0.68486469554E+03  0.00000000000E+00 0. -1.
         25    2    1    2    0    0 -0.39912440127E+02  0.82325615228E+02 -0.40617962188E+03  0.43474180552E+03  0.12509213577E+03 0.  0.
          5    1    3    3  502    0 -0.52995599145E+02  0.97621846783E+02 -0.39692709648E+03  0.41219795101E+03  0.41800000000E+01 0. -1.
         -5    1    3    3    0  502  0.13083159018E+02 -0.15296231554E+02 -0.92525254014E+01  0.22543854505E+02  0.41800000000E+01 0. -1.
        -11    1    1    2    0    0  0.22425838821E+02 -0.26313386300E+02 -0.20290943115E+03  0.20583379168E+03  0.00000000000E+00 0. -1.
         11    1    1    2    0    0  0.17486601306E+02 -0.56012228929E+02 -0.45693643705E+02  0.74371097140E+02  0.00000000000E+00 0.  1.
</event>
<event>
 7    1  0.3001243E-009  0.1177181E+03  0.7561462E-02  0.1246910E+00
          1   -1    0    0  501    0  0.00000000000E+00  0.00000000000E+00  0.81237080458E+03  0.81237080458E+03  0.00000000000E+00 0. -1.
         -1   -1    0    0    0  501 -0.00000000000E+00 -0.00000000000E+00 -0.19605138906E+02  0.19605138906E+02  0.00000000000E+00 0.  1.
         25    2    1    2    0    0 -0.44082339953E+02  0.43718088813E+02  0.37273338186E+03  0.39803533074E+03  0.12508967415E+03 0.  0.
          5    1    3    3  502    0  0.17059351985E+02  0.69260785589E+02  0.22487732137E+03  0.23595626708E+03  0.41800000000E+01 0.  1.
         -5    1    3    3    0  502 -0.61141691939E+02 -0.25542696777E+02  0.14785606050E+03  0.16207906366E+03  0.41800000000E+01 0.  1.
        -11    1    1    2    0    0 -0.13841894558E+02 -0.36721198750E+02  0.81961481710E+02  0.90872047224E+02  0.00000000000E+00 0.  1.
         11    1    1    2    0    0  0.57924234511E+02 -0.69968900630E+01  0.33807080209E+03  0.34306856551E+03  0.00000000000E+00 0. -1.
</event>
<event>
 7    1  0.3001243E-009  0.1292149E+03  0.7561462E-02  0.1228625E+00
          1   -1    0    0  501    0  0.00000000000E+00  0.00000000000E+00  0.25868900743E+03  0.25868900743E+03  0.00000000000E+00 0. -1.
         -1   -1    0    0    0  501 -0.00000000000E+00 -0.00000000000E+00 -0.94706850216E+02  0.94706850216E+02  0.00000000000E+00 0.  1.
         25    2    1    2    0    0 -0.10276620915E+03 -0.45197704162E+01  0.37785322704E+02  0.16628013363E+03  0.12506010619E+03 0.  0.
          5    1    3    3  502    0 -0.91083126260E+02 -0.48810672109E+02 -0.48879321864E+01  0.10353734535E+03  0.41800000000E+01 0.  1.
         -5    1    3    3    0  502 -0.11683082892E+02  0.44290901693E+02  0.42673254890E+02  0.62742788283E+02  0.41800000000E+01 0. -1.
        -11    1    1    2    0    0  0.63329174622E+02 -0.14891416555E+02  0.12750292618E+03  0.14314096139E+03  0.00000000000E+00 0. -1.
         11    1    1    2    0    0  0.39437034530E+02  0.19411186971E+02 -0.13060916638E+01  0.43974762621E+02  0.00000000000E+00 0.  1.
</event>
<event>
 7    1  0.3001243E-009  0.7839881E+02  0.7561462E-02  0.1333658E+00
         -1   -1    0    0    0  501 -0.00000000000E+00  0.00000000000E+00  0.22186786633E+03  0.22186786633E+03  0.00000000000E+00 0.  1.
          1   -1    0    0  501    0  0.00000000000E+00 -0.00000000000E+00 -0.67944117800E+02  0.67944117800E+02  0.00000000000E+00 0. -1.
         25    2    1    2    0    0 -0.29461880167E+02  0.40933331778E+02  0.11933904661E+03  0.18008956125E+03  0.12508757729E+03 0.  0.
          5    1    3    3  502    0  0.11497974267E+01  0.30849999317E+01  0.12997832171E+03  0.13008718528E+03  0.41800000000E+01 0. -1.
         -5    1    3    3    0  502 -0.30611677593E+02  0.37848331847E+02 -0.10639275098E+02  0.50002375976E+02  0.41800000000E+01 0. -1.
        -11    1    1    2    0    0 -0.32006003918E+02 -0.84805008986E+01  0.20056970090E+02  0.38711564570E+02  0.00000000000E+00 0.  1.
         11    1    1    2    0    0  0.61467884085E+02 -0.32452830880E+02  0.14527731832E+02  0.71010858311E+02  0.00000000000E+00 0. -1.
</event>
<event>
 7    1  0.3001243E-009  0.1087805E+03  0.7561462E-02  0.1262845E+00
         -1   -1    0    0    0  501 -0.00000000000E+00  0.00000000000E+00  0.32724276970E+02  0.32724276970E+02  0.00000000000E+00 0.  1.
          1   -1    0    0  501    0  0.00000000000E+00 -0.00000000000E+00 -0.58780657853E+03  0.58780657853E+03  0.00000000000E+00 0. -1.
         25    2    1    2    0    0  0.47580023731E+02  0.13390577471E+02 -0.46534824413E+03  0.48439560519E+03  0.12508776035E+03 0.  0.
          5    1    3    3  502    0  0.80365875219E+02  0.34964545080E+02 -0.38506249129E+03  0.39493263718E+03  0.41800000000E+01 0. -1.
         -5    1    3    3    0  502 -0.32785851487E+02 -0.21573967609E+02 -0.80285752847E+02  0.89462968016E+02  0.41800000000E+01 0. -1.
        -11    1    1    2    0    0  0.10211811968E+02  0.20821287234E+02  0.10448859614E+01  0.23214195924E+02  0.00000000000E+00 0.  1.
         11    1    1    2    0    0 -0.57791835699E+02 -0.34211864704E+02 -0.90778943387E+02  0.11292105438E+03  0.00000000000E+00 0. -1.
</event>
<event>
 7    1  0.3001243E-009  0.7287083E+02  0.7561462E-02  0.1350594E+00
          1   -1    0    0  501    0  0.00000000000E+00  0.00000000000E+00  0.35449741658E+02  0.35449741658E+02  0.00000000000E+00 0. -1.
         -1   -1    0    0    0  501 -0.00000000000E+00 -0.00000000000E+00 -0.59660523703E+03  0.59660523703E+03  0.00000000000E+00 0.  1.
         25    2    1    2    0    0 -0.26110547953E+02 -0.28480126838E+01 -0.50921187138E+03  0.52500901543E+03  0.12509142429E+03 0.  0.
          5    1    3    3  502    0 -0.16992339278E+02 -0.25330757688E+02 -0.49621669947E+03  0.49717086812E+03  0.41800000000E+01 0. -1.
         -5    1    3    3    0  502 -0.91182086745E+01  0.22482745004E+02 -0.12995171918E+02  0.27838147308E+02  0.41800000000E+01 0. -1.
        -11    1    1    2    0    0 -0.16318619209E+02 -0.31677737483E+02 -0.34580931996E+02  0.49654982052E+02  0.00000000000E+00 0.  1.
         11    1    1    2    0    0  0.42429167162E+02  0.34525750167E+02 -0.17362691992E+02  0.57390981206E+02  0.00000000000E+00 0. -1.
</event>
<event>
 7    1  0.3001243E-009  0.9878386E+02  0.7561462E-02  0.1282874E+00
         -4   -1    0    0    0  501 -0.00000000000E+00  0.00000000000E+00  0.23791174374E+03  0.23791174374E+03  0.00000000000E+00 0.  1.
          4   -1    0    0  501    0  0.00000000000E+00 -0.00000000000E+00 -0.69122949525E+02  0.69122949525E+02  0.00000000000E+00 0. -1.
         25    2    1    2    0    0  0.35948327199E+02 -0.17509724482E+02  0.31708548753E+02  0.13510071602E+03  0.12509156136E+03 0.  0.
          5    1    3    3  502    0 -0.56107332099E+01 -0.63004927638E+02  0.36508058471E+02  0.73153345564E+02  0.41800000000E+01 0. -1.
         -5    1    3    3    0  502  0.41559060409E+02  0.45495203156E+02 -0.47995097179E+01  0.61947370451E+02  0.41800000000E+01 0. -1.
        -11    1    1    2    0    0 -0.41520561183E+02 -0.11332072386E+02  0.13588110013E+03  0.14253436862E+03  0.00000000000E+00 0.  1.
         11    1    1    2    0    0  0.55722339842E+01  0.28841796868E+02  0.11991453330E+01  0.29399608631E+02  0.00000000000E+00 0. -1.
</event>
<event>
 7    1  0.3001243E-009  0.3012206E+03  0.7561462E-02  0.1084632E+00
          1   -1    0    0  501    0  0.00000000000E+00  0.00000000000E+00  0.20198819947E+04  0.20198819947E+04  0.00000000000E+00 0. -1.
         -1   -1    0    0    0  501 -0.00000000000E+00 -0.00000000000E+00 -0.48755417007E+02  0.48755417007E+02  0.00000000000E+00 0.  1.
         25    2    1    2    0    0  0.26211023104E+03  0.12560830167E+03  0.11587485060E+04  0.12011760627E+04  0.12508642914E+03 0.  0.
          5    1    3    3  502    0  0.15279463708E+03  0.13025021924E+03  0.63088359432E+03  0.66207469572E+03  0.41800000000E+01 0. -1.
         -5    1    3    3    0  502  0.10931559396E+03 -0.46419175724E+01  0.52786491172E+03  0.53910136701E+03  0.41800000000E+01 0. -1.
        -11    1    1    2    0    0 -0.18298602659E+03 -0.10230239024E+03  0.45939423358E+03  0.50496804534E+03  0.00000000000E+00 0.  1.
         11    1    1    2    0    0 -0.79124204455E+02 -0.23305911429E+02  0.35298383809E+03  0.36249330365E+03  0.00000000000E+00 0. -1.
</event>
<event>
 7    1  0.3001243E-009  0.1688606E+03  0.7561462E-02  0.1179041E+00
         -2   -1    0    0    0  501 -0.00000000000E+00  0.00000000000E+00  0.45508938577E+02  0.45508938577E+02  0.00000000000E+00 0.  1.
          2   -1    0    0  501    0  0.00000000000E+00 -0.00000000000E+00 -0.76694617820E+03  0.76694617820E+03  0.00000000000E+00 0. -1.
         25    2    1    2    0    0  0.96863741800E+02 -0.11605544167E+03 -0.39212019426E+03  0.43847099532E+03  0.12508843662E+03 0.  0.
          5    1    3    3  502    0 -0.17156953889E+01 -0.27604564733E+02 -0.38795384597E+01  0.28239667552E+02  0.41800000000E+01 0. -1.
         -5    1    3    3    0  502  0.98579437189E+02 -0.88450876937E+02 -0.38824065580E+03  0.41023132777E+03  0.41800000000E+01 0. -1.
        -11    1    1    2    0    0 -0.43245880874E+02 -0.62517347277E+01 -0.81949161513E+02  0.92870638376E+02  0.00000000000E+00 0.  1.
         11    1    1    2    0    0 -0.53617860925E+02  0.12230717640E+03 -0.24736788385E+03  0.28111348308E+03  0.00000000000E+00 0. -1.
</event>
<event>
 7    1  0.3001243E-009  0.8125776E+02  0.7561462E-02  0.1325520E+00
         -2   -1    0    0    0  501 -0.00000000000E+00  0.00000000000E+00  0.11479139343E+03  0.11479139343E+03  0.00000000000E+00 0.  1.
          2   -1    0    0  501    0  0.00000000000E+00 -0.00000000000E+00 -0.13696274928E+03  0.13696274928E+03  0.00000000000E+00 0. -1.
         25    2    1    2    0    0 -0.14620743025E+01  0.12878233788E+02 -0.73708114489E+02  0.14576703691E+03  0.12508859397E+03 0.  0.
          5    1    3    3  502    0 -0.42803566411E+02 -0.37676744144E+02 -0.18338497560E+02  0.60045443121E+02  0.41800000000E+01 0. -1.
         -5    1    3    3    0  502  0.41341492109E+02  0.50554977932E+02 -0.55369616929E+02  0.85721593793E+02  0.41800000000E+01 0. -1.
        -11    1    1    2    0    0 -0.27748972075E+01  0.13195047169E+02  0.71573385839E+02  0.72832402712E+02  0.00000000000E+00 0.  1.
         11    1    1    2    0    0  0.42369715100E+01 -0.26073280957E+02 -0.20036627198E+02  0.33154703089E+02  0.00000000000E+00 0. -1.
</event>
<event>
 7    1  0.3001243E-009  0.1103690E+03  0.7561462E-02  0.1259888E+00
         -2   -1    0    0    0  501 -0.00000000000E+00  0.00000000000E+00  0.11379629006E+03  0.11379629006E+03  0.00000000000E+00 0.  1.
          2   -1    0    0  501    0  0.00000000000E+00 -0.00000000000E+00 -0.26623592101E+03  0.26623592101E+03  0.00000000000E+00 0. -1.
         25    2    1    2    0    0  0.21275188500E+02  0.17280617161E+02  0.64516985631E+02  0.14338880142E+03  0.12508658427E+03 0.  0.
          5    1    3    3  502    0  0.23762123978E+02 -0.51966599303E+02  0.39542948301E+02  0.69615250767E+02  0.41800000000E+01 0.  1.
         -5    1    3    3    0  502 -0.24869354780E+01  0.69247216463E+02  0.24974037330E+02  0.73773550657E+02  0.41800000000E+01 0.  1.
        -11    1    1    2    0    0 -0.96566100153E+00 -0.52961212475E+02 -0.11036408324E+03  0.12241753713E+03  0.00000000000E+00 0. -1.
         11    1    1    2    0    0 -0.20309527498E+02  0.35680595314E+02 -0.10659253334E+03  0.11422587252E+03  0.00000000000E+00 0.  1.
</event>
<event>
 7    1  0.3001243E-009  0.9668695E+02  0.7561462E-02  0.1287421E+00
          1   -1    0    0  501    0  0.00000000000E+00  0.00000000000E+00  0.32303748979E+03  0.32303748979E+03  0.00000000000E+00 0. -1.
         -1   -1    0    0    0  501 -0.00000000000E+00 -0.00000000000E+00 -0.42387128906E+02  0.42387128906E+02  0.00000000000E+00 0.  1.
         25    2    1    2    0    0 -0.25820264795E+02 -0.17904238700E+02  0.11233887622E+03  0.17104045035E+03  0.12509022627E+03 0.  0.
          5    1    3    3  502    0  0.35299731444E+02  0.56556270843E+01  0.97242268628E+02  0.10368986626E+03  0.41800000000E+01 0.  1.
         -5    1    3    3    0  502 -0.61119996239E+02 -0.23559865784E+02  0.15096607587E+02  0.67350584086E+02  0.41800000000E+01 0.  1.
        -11    1    1    2    0    0  0.55913651622E+02  0.24320258611E+02  0.13944707753E+03  0.15219493700E+03  0.00000000000E+00 0.  1.
         11    1    1    2    0    0 -0.30093386828E+02 -0.64160199111E+01  0.28864407139E+02  0.42189231348E+02  0.00000000000E+00 0. -1.
</event>
<event>
 7    1  0.5023738E-009  0.1269804E+03  0.7561462E-02  0.1232006E+00
          1   -1    0    0  501    0  0.00000000000E+00  0.00000000000E+00  0.52266402454E+03  0.52266402454E+03  0.00000000000E+00 0. -1.
         -1   -1    0    0    0  501 -0.00000000000E+00 -0.00000000000E+00 -0.34887128427E+02  0.34887128427E+02  0.00000000000E+00 0.  1.
         25    2    1    2    0    0 -0.22665453957E+02 -0.76666537957E+02  0.26955572029E+03  0.30773206986E+03  0.12508900684E+03 0.  0.
          5    1    3    3  502    0 -0.68628247466E+02 -0.74215701190E+02  0.16719850155E+03  0.19542420007E+03  0.41800000000E+01 0.  1.
         -5    1    3    3    0  502  0.45962793509E+02 -0.24508367675E+01  0.10235721873E+03  0.11230786978E+03  0.41800000000E+01 0.  1.
        -11    1    1    2    0    0 -0.15603828506E+02  0.64584116028E+02  0.71058324394E+02  0.97282439180E+02  0.00000000000E+00 0.  1.
         11    1    1    2    0    0  0.38269282464E+02  0.12082421929E+02  0.14716285144E+03  0.15253664393E+03  0.00000000000E+00 0. -1.
</event>
<event>
 7    1  0.3001243E-009  0.1468719E+03  0.7561462E-02  0.1204370E+00
          2   -1    0    0  501    0  0.00000000000E+00  0.00000000000E+00  0.36833488249E+03  0.36833488249E+03  0.00000000000E+00 0. -1.
         -2   -1    0    0    0  501 -0.00000000000E+00 -0.00000000000E+00 -0.63803564208E+02  0.63803564208E+02  0.00000000000E+00 0.  1.
         25    2    1    2    0    0  0.24078670439E+02 -0.10259300699E+03  0.12530600451E+03  0.20604407978E+03  0.12508981012E+03 0.  0.
          5    1    3    3  502    0  0.10559029969E+02  0.26120866707E+02  0.42812038507E+01  0.28802671713E+02  0.41800000000E+01 0. -1.
         -5    1    3    3    0  502  0.13519640470E+02 -0.12871387370E+03  0.12102480066E+03  0.17724140807E+03  0.41800000000E+01 0. -1.
        -11    1    1    2    0    0  0.32390451868E+02  0.40027025086E+02  0.49709248083E+02  0.71570339208E+02  0.00000000000E+00 0.  1.
         11    1    1    2    0    0 -0.56469122307E+02  0.62565981906E+02  0.12951606569E+03  0.15452402770E+03  0.00000000000E+00 0. -1.
</event>
<event>
 7    1  0.3001243E-009  0.1278062E+03  0.7561462E-02  0.1230748E+00
         -2   -1    0    0    0  501 -0.00000000000E+00  0.00000000000E+00  0.46750853890E+02  0.46750853890E+02  0.00000000000E+00 0.  1.
          2   -1    0    0  501    0  0.00000000000E+00 -0.00000000000E+00 -0.66127346045E+03  0.66127346045E+03  0.00000000000E+00 0. -1.
         25    2    1    2    0    0  0.72103044461E+02  0.74050622135E+02 -0.14105704397E+03  0.21500878836E+03  0.12509734513E+03 0.  0.
          5    1    3    3  502    0  0.26418660229E+02  0.67867650028E+02 -0.15096893325E+03  0.16766948063E+03  0.41800000000E+01 0. -1.
         -5    1    3    3    0  502  0.45684384232E+02  0.61829721079E+01  0.99118892811E+01  0.47339307724E+02  0.41800000000E+01 0. -1.
        -11    1    1    2    0    0 -0.88551942318E+02 -0.79543957352E+02 -0.43127057355E+03  0.44739579261E+03  0.00000000000E+00 0. -1.
         11    1    1    2    0    0  0.16448897857E+02  0.54933352164E+01 -0.42194989037E+02  0.45619733365E+02  0.00000000000E+00 0.  1.
</event>
<event>
 7    1  0.3001243E-009  0.9719164E+02  0.7561462E-02  0.1286315E+00
         -2   -1    0    0    0  501 -0.00000000000E+00  0.00000000000E+00  0.50703636502E+03  0.50703636502E+03  0.00000000000E+00 0.  1.
          2   -1    0    0  501    0  0.00000000000E+00 -0.00000000000E+00 -0.32968547926E+02  0.32968547926E+02  0.00000000000E+00 0. -1.
         25    2    1    2    0    0 -0.66219202997E+02 -0.10734362100E+02  0.31602394780E+03  0.34644095189E+03  0.12509991282E+03 0.  0.
          5    1    3    3  502    0  0.10338449371E+02 -0.12791556809E+02  0.23221102174E+03  0.23283027827E+03  0.41800000000E+01 0.  1.
         -5    1    3    3    0  502 -0.76557652368E+02  0.20571947092E+01  0.83812926062E+02  0.11361067362E+03  0.41800000000E+01 0.  1.
        -11    1    1    2    0    0 -0.46630536032E+01 -0.22106905414E+02  0.80038137942E+02  0.83165875581E+02  0.00000000000E+00 0.  1.
         11    1    1    2    0    0  0.70882256600E+02  0.32841267513E+02  0.78005731350E+02  0.11039808547E+03  0.00000000000E+00 0. -1.
</event>
<event>
 7    1  0.3001243E-009  0.1584578E+03  0.7561462E-02  0.1190449E+00
         -1   -1    0    0    0  501 -0.00000000000E+00  0.00000000000E+00  0.29611327574E+02  0.29611327574E+02  0.00000000000E+00 0.  1.
          1   -1    0    0  501    0  0.00000000000E+00 -0.00000000000E+00 -0.98022681053E+03  0.98022681053E+03  0.00000000000E+00 0. -1.
         25    2    1    2    0    0 -0.99030283922E+01 -0.12870649764E+03 -0.56418869133E+03  0.59213130801E+03  0.12508866451E+03 0.  0.
          5    1    3    3  502    0 -0.47681296088E+02 -0.13235493230E+03 -0.41905211978E+03  0.44205597563E+03  0.41800000000E+01 0.  1.
         -5    1    3    3    0  502  0.37778267696E+02  0.36484346556E+01 -0.14513657155E+03  0.15007533237E+03  0.41800000000E+01 0.  1.
        -11    1    1    2    0    0  0.29328045921E+02  0.90395610045E+02 -0.15116800939E+03  0.17855886328E+03  0.00000000000E+00 0.  1.
         11    1    1    2    0    0 -0.19425017529E+02  0.38310887598E+02 -0.23525878224E+03  0.23914796682E+03  0.00000000000E+00 0. -1.
</event>
<event>
 7    1  0.3001243E-009  0.8824807E+02  0.7561462E-02  0.1307151E+00
         -4   -1    0    0    0  501 -0.00000000000E+00  0.00000000000E+00  0.55291447851E+03  0.55291447851E+03  0.00000000000E+00 0. -1.
          4   -1    0    0  501    0  0.00000000000E+00 -0.00000000000E+00 -0.28200913495E+02  0.28200913495E+02  0.00000000000E+00 0.  1.
         25    2    1    2    0    0 -0.16895904598E+02 -0.59506347053E+02  0.28630042079E+03  0.31849819339E+03  0.12508673516E+03 0.  0.
          5    1    3    3  502    0  0.11657229692E+02 -0.38264991947E+02  0.27905798411E+03  0.28194136183E+03  0.41800000000E+01 0.  1.
         -5    1    3    3    0  502 -0.28553134290E+02 -0.21241355107E+02  0.72424366776E+01  0.36556831558E+02  0.41800000000E+01 0.  1.
        -11    1    1    2    0    0 -0.23841741428E+02 -0.48006868647E+01  0.11555592652E+03  0.11808745650E+03  0.00000000000E+00 0. -1.
         11    1    1    2    0    0  0.40737646026E+02  0.64307033918E+02  0.12285721771E+03  0.14452974212E+03  0.00000000000E+00 0.  1.
</event>
<event>
 7    1  0.3001243E-009  0.2270924E+03  0.7561462E-02  0.1128703E+00
         -1   -1    0    0    0  501 -0.00000000000E+00  0.00000000000E+00  0.40357790637E+03  0.40357790637E+03  0.00000000000E+00 0.  1.
          1   -1    0    0  501    0  0.00000000000E+00 -0.00000000000E+00 -0.14224236916E+03  0.14224236916E+03  0.00000000000E+00 0. -1.
         25    2    1    2    0    0 -0.37757041605E+02 -0.21001281676E+03  0.14663678207E+03  0.28754247203E+03  0.12508936793E+03 0.  0.
          5    1    3    3  502    0  0.16091943102E+02 -0.17364582242E+03  0.72595087905E+02  0.18894269360E+03  0.41800000000E+01 0. -1.
         -5    1    3    3    0  502 -0.53848984707E+02 -0.36366994341E+02  0.74041694167E+02  0.98599778430E+02  0.41800000000E+01 0. -1.
        -11    1    1    2    0    0  0.40439760305E+02  0.17939884317E+03  0.56365171284E+02  0.19234435702E+03  0.00000000000E+00 0. -1.
         11    1    1    2    0    0 -0.26827186997E+01  0.30613973589E+02  0.58333583859E+02  0.65933446477E+02  0.00000000000E+00 0.  1.
</event>
<event>
 7    1  0.3001243E-009  0.9844226E+02  0.7561462E-02  0.1283606E+00
         -2   -1    0    0    0  501 -0.00000000000E+00  0.00000000000E+00  0.78012058606E+02  0.78012058606E+02  0.00000000000E+00 0.  1.
          2   -1    0    0  501    0  0.00000000000E+00 -0.00000000000E+00 -0.16714051194E+03  0.16714051194E+03  0.00000000000E+00 0. -1.
         25    2    1    2    0    0  0.11282136132E+02  0.28763043147E+02 -0.73620331095E+02  0.14838799576E+03  0.12507775537E+03 0.  0.
          5    1    3    3  502    0 -0.45096087373E+02  0.33702826325E+02 -0.72162162114E+02  0.91620890847E+02  0.41800000000E+01 0. -1.
         -5    1    3    3    0  502  0.56378223505E+02 -0.49397831773E+01 -0.14581689808E+01  0.56767104913E+02  0.41800000000E+01 0. -1.
        -11    1    1    2    0    0  0.14063945833E+02  0.22478188571E+02  0.16516290704E+02  0.31238620207E+02  0.00000000000E+00 0.  1.
         11    1    1    2    0    0 -0.25346081965E+02 -0.51241231719E+02 -0.32024412942E+02  0.65525954577E+02  0.00000000000E+00 0. -1.
</event>
<event>
 7    1  0.3001243E-009  0.1617408E+03  0.7561462E-02  0.1186745E+00
         -3   -1    0    0    0  501 -0.00000000000E+00  0.00000000000E+00  0.30902138886E+03  0.30902138886E+03  0.00000000000E+00 0.  1.
          3   -1    0    0  501    0  0.00000000000E+00 -0.00000000000E+00 -0.95883023883E+02  0.95883023883E+02  0.00000000000E+00 0. -1.
         25    2    1    2    0    0  0.11662242629E+03 -0.64235865422E+02  0.11822544277E+03  0.21760691244E+03  0.12509386997E+03 0.  0.
          5    1    3    3  502    0  0.82974382491E+02 -0.10133177786E+03  0.73004990355E+02  0.15000026123E+03  0.41800000000E+01 0. -1.
         -5    1    3    3    0  502  0.33648043801E+02  0.37095912437E+02  0.45220452415E+02  0.67606651209E+02  0.41800000000E+01 0. -1.
        -11    1    1    2    0    0 -0.59775106753E+02  0.48367937049E+01 -0.22545482854E+01  0.60012839865E+02  0.00000000000E+00 0. -1.
         11    1    1    2    0    0 -0.56847319538E+02  0.59399071717E+02  0.97167470491E+02  0.12728466043E+03  0.00000000000E+00 0.  1.
</event>
<event>
 7    1  0.3001243E-009  0.8771932E+02  0.7561462E-02  0.1308471E+00
          2   -1    0    0  501    0  0.00000000000E+00  0.00000000000E+00  0.16578586416E+03  0.16578586416E+03  0.00000000000E+00 0. -1.
         -2   -1    0    0    0  501 -0.00000000000E+00 -0.00000000000E+00 -0.81445061057E+02  0.81445061057E+02  0.00000000000E+00 0.  1.
         25    2    1    2    0    0 -0.11671225152E+02 -0.38657964419E+02  0.34808800446E+02  0.13597689622E+03  0.12508959992E+03 0.  0.
          5    1    3    3  502    0  0.30590046742E+02  0.62741332903E+01  0.61138318460E+02  0.68778500219E+02  0.41800000000E+01 0. -1.
         -5    1    3    3    0  502 -0.42261271894E+02 -0.44932097709E+02 -0.26329518014E+02  0.67198396004E+02  0.41800000000E+01 0. -1.
        -11    1    1    2    0    0 -0.28471086235E+02  0.29370603185E+02 -0.67951079347E+01  0.41465751828E+02  0.00000000000E+00 0.  1.
         11    1    1    2    0    0  0.40142311386E+02  0.92873612344E+01  0.56327110590E+02  0.69788277164E+02  0.00000000000E+00 0. -1.
</event>
<event>
 7    1  0.3001243E-009  0.1161639E+03  0.7561462E-02  0.1249563E+00
         -1   -1    0    0    0  501 -0.00000000000E+00  0.00000000000E+00  0.50119541358E+02  0.50119541358E+02  0.00000000000E+00 0.  1.
          1   -1    0    0  501    0  0.00000000000E+00 -0.00000000000E+00 -0.46171232567E+03  0.46171232567E+03  0.00000000000E+00 0. -1.
         25    2    1    2    0    0  0.78080673732E+02 -0.15849578005E+02 -0.33988279719E+03  0.37083154660E+03  0.12509164397E+03 0.  0.
          5    1    3    3  502    0  0.43248019631E+02  0.30828180703E+02 -0.43577719337E+02  0.68827741137E+02  0.41800000000E+01 0. -1.
         -5    1    3    3    0  502  0.34832654101E+02 -0.46677758708E+02 -0.29630507786E+03  0.30200380546E+03  0.41800000000E+01 0. -1.
        -11    1    1    2    0    0  0.20688536023E+02  0.51047526814E+01 -0.18909919806E+02  0.28489631268E+02  0.00000000000E+00 0.  1.
         11    1    1    2    0    0 -0.98769209755E+02  0.10744825323E+02 -0.52800067308E+02  0.11251068916E+03  0.00000000000E+00 0. -1.
</event>
<event>
 7    1  0.3001243E-009  0.9246276E+02  0.7561462E-02  0.1296995E+00
          1   -1    0    0  501    0  0.00000000000E+00  0.00000000000E+00  0.14424536096E+03  0.14424536096E+03  0.00000000000E+00 0. -1.
         -1   -1    0    0    0  501 -0.00000000000E+00 -0.00000000000E+00 -0.78556219614E+02  0.78556219614E+02  0.00000000000E+00 0.  1.
         25    2    1    2    0    0 -0.50346098071E+02 -0.41102211106E+01  0.48568455403E+02  0.14338172091E+03  0.12509116485E+03 0.  0.
          5    1    3    3  502    0  0.20081454474E+01  0.47233608132E+02  0.51294422840E+02  0.69883020827E+02  0.41800000000E+01 0.  1.
         -5    1    3    3    0  502 -0.52354243519E+02 -0.51343829243E+02 -0.27259674370E+01  0.73498700085E+02  0.41800000000E+01 0.  1.
        -11    1    1    2    0    0  0.43464597209E+02 -0.13170468362E+02  0.32035655360E+02  0.55578014194E+02  0.00000000000E+00 0. -1.
         11    1    1    2    0    0  0.68815008629E+01  0.17280689473E+02 -0.14914969415E+02  0.23841845470E+02  0.00000000000E+00 0.  1.
</event>
<event>
 7    1  0.3001243E-009  0.1073183E+03  0.7561462E-02  0.1265618E+00
          2   -1    0    0  501    0  0.00000000000E+00  0.00000000000E+00  0.16983145904E+03  0.16983145904E+03  0.00000000000E+00 0. -1.
         -2   -1    0    0    0  501 -0.00000000000E+00 -0.00000000000E+00 -0.96884823350E+02  0.96884823350E+02  0.00000000000E+00 0.  1.
         25    2    1    2    0    0 -0.62718982934E+01  0.67276819160E+02  0.13318552458E+02  0.14279645195E+03  0.12509170934E+03 0.  0.
          5    1    3    3  502    0  0.39451879636E+02 -0.13275789298E+02 -0.17129040536E+02  0.45205904680E+02  0.41800000000E+01 0.  1.
         -5    1    3    3    0  502 -0.45723777930E+02  0.80552608458E+02  0.30447592993E+02  0.97590547271E+02  0.41800000000E+01 0.  1.
        -11    1    1    2    0    0 -0.18558744761E+02 -0.30690603763E+02 -0.13616618460E+02  0.38363426134E+02  0.00000000000E+00 0.  1.
         11    1    1    2    0    0  0.24830643055E+02 -0.36586215398E+02  0.73244701697E+02  0.85556404309E+02  0.00000000000E+00 0. -1.
</event>
<event>
 7    1  0.3001243E-009  0.1039255E+03  0.7561462E-02  0.1272251E+00
         -2   -1    0    0    0  501 -0.00000000000E+00  0.00000000000E+00  0.14797798178E+04  0.14797798178E+04  0.00000000000E+00 0.  1.
          2   -1    0    0  501    0  0.00000000000E+00 -0.00000000000E+00 -0.22310398380E+02  0.22310398380E+02  0.00000000000E+00 0. -1.
         25    2    1    2    0    0  0.63144620505E+02  0.48769322654E+02  0.12637336134E+04  0.12724135215E+04  0.12509130302E+03 0.  0.
          5    1    3    3  502    0  0.39474093631E+02  0.12282925518E+02  0.10596258260E+03  0.11381834492E+03  0.41800000000E+01 0.  1.
         -5    1    3    3    0  502  0.23670526873E+02  0.36486397136E+02  0.11577710308E+04  0.11585951766E+04  0.41800000000E+01 0.  1.
        -11    1    1    2    0    0  0.73018699755E+01 -0.51589820023E+02  0.69976090649E+02  0.87243796901E+02  0.00000000000E+00 0. -1.
         11    1    1    2    0    0 -0.70446490480E+02  0.28204973692E+01  0.12375971540E+03  0.14243289782E+03  0.00000000000E+00 0.  1.
</event>
<event>
 7    1  0.3001243E-009  0.9350277E+02  0.7561462E-02  0.1294584E+00
         -1   -1    0    0    0  501 -0.00000000000E+00  0.00000000000E+00  0.60155632183E+02  0.60155632183E+02  0.00000000000E+00 0.  1.
          1   -1    0    0  501    0  0.00000000000E+00 -0.00000000000E+00 -0.25077747274E+03  0.25077747274E+03  0.00000000000E+00 0. -1.
         25    2    1    2    0    0 -0.21777675135E+02 -0.36504262341E+02 -0.58367233788E+02  0.14443376543E+03  0.12509016873E+03 0.  0.
          5    1    3    3  502    0 -0.22892926955E+01 -0.69924920611E+02  0.47906643379E+01  0.70250681479E+02  0.41800000000E+01 0. -1.
         -5    1    3    3    0  502 -0.19488382439E+02  0.33420658269E+02 -0.63157898126E+02  0.74183083954E+02  0.41800000000E+01 0. -1.
        -11    1    1    2    0    0 -0.16745699272E+02  0.35746835919E+02 -0.11959620622E+03  0.12594247601E+03  0.00000000000E+00 0. -1.
         11    1    1    2    0    0  0.38523374407E+02  0.75742642193E+00 -0.12658400548E+02  0.40556863475E+02  0.00000000000E+00 0.  1.
</event>
<event>
 7    1  0.3001243E-009  0.1204001E+03  0.7561462E-02  0.1242439E+00
         -1   -1    0    0    0  501 -0.00000000000E+00  0.00000000000E+00  0.18823001046E+03  0.18823001046E+03  0.00000000000E+00 0.  1.
          1   -1    0    0  501    0  0.00000000000E+00 -0.00000000000E+00 -0.80362444064E+02  0.80362444064E+02  0.00000000000E+00 0. -1.
         25    2    1    2    0    0  0.23264572637E+00  0.57745261925E+02  0.69249018156E+02  0.15419958118E+03  0.12509002727E+03 0.  0.
          5    1    3    3  502    0 -0.45154577083E+02 -0.17857281099E+02  0.16998462165E+02  0.51616261350E+02  0.41800000000E+01 0.  1.
         -5    1    3    3    0  502  0.45387222809E+02  0.75602543023E+02  0.52250555992E+02  0.10258331983E+03  0.41800000000E+01 0.  1.
        -11    1    1    2    0    0 -0.14219072863E+02  0.20139579431E+02  0.23039438085E+02  0.33743153379E+02  0.00000000000E+00 0.  1.
         11    1    1    2    0    0  0.13986427136E+02 -0.77884841356E+02  0.15579110154E+02  0.80649719964E+02  0.00000000000E+00 0. -1.
</event>
<event>
 7    1  0.3001243E-009  0.1277112E+03  0.7561462E-02  0.1230892E+00
          2   -1    0    0  501    0  0.00000000000E+00  0.00000000000E+00  0.39221087706E+02  0.39221087706E+02  0.00000000000E+00 0. -1.
         -2   -1    0    0    0  501 -0.00000000000E+00 -0.00000000000E+00 -0.55990900109E+03  0.55990900109E+03  0.00000000000E+00 0.  1.
         25    2    1    2    0    0 -0.85632268439E+02 -0.51541340182E+02 -0.28667954413E+03  0.32836228354E+03  0.12508890072E+03 0.  0.
          5    1    3    3  502    0 -0.54958893273E+02 -0.86962354391E+02 -0.13642469303E+03  0.17091547706E+03  0.41800000000E+01 0. -1.
         -5    1    3    3    0  502 -0.30673375167E+02  0.35421014209E+02 -0.15025485110E+03  0.15744680648E+03  0.41800000000E+01 0. -1.
        -11    1    1    2    0    0  0.51599464625E+02  0.11489053081E+02 -0.31470454722E+02  0.61521480888E+02  0.00000000000E+00 0.  1.
         11    1    1    2    0    0  0.34032803814E+02  0.40052287101E+02 -0.20253791453E+03  0.20924632436E+03  0.00000000000E+00 0. -1.
</event>
<event>
 7    1  0.3001243E-009  0.1370405E+03  0.7561462E-02  0.1217368E+00
          1   -1    0    0  501    0  0.00000000000E+00  0.00000000000E+00  0.24887394290E+03  0.24887394290E+03  0.00000000000E+00 0. -1.
         -1   -1    0    0    0  501 -0.00000000000E+00 -0.00000000000E+00 -0.78792511553E+02  0.78792511553E+02  0.00000000000E+00 0.  1.
         25    2    1    2    0    0  0.70203377777E+02  0.48809550759E+02  0.69312058805E+02  0.16661912691E+03  0.12508751120E+03 0.  0.
          5    1    3    3  502    0  0.64271803337E+02  0.88482444931E+02  0.39060272022E+02  0.11620320570E+03  0.41800000000E+01 0. -1.
         -5    1    3    3    0  502  0.59315744395E+01 -0.39672894173E+02  0.30251786784E+02  0.50415921205E+02  0.41800000000E+01 0. -1.
        -11    1    1    2    0    0 -0.65342544995E+02  0.92952912817E+01  0.65046525532E+02  0.92666612706E+02  0.00000000000E+00 0. -1.
         11    1    1    2    0    0 -0.48608327813E+01 -0.58104842040E+02  0.35722847013E+02  0.68380714844E+02  0.00000000000E+00 0.  1.
</event>
<event>
 7    1  0.3001243E-009  0.8369417E+02  0.7561462E-02  0.1318883E+00
          2   -1    0    0  501    0  0.00000000000E+00  0.00000000000E+00  0.34989669502E+03  0.34989669502E+03  0.00000000000E+00 0. -1.
         -2   -1    0    0    0  501 -0.00000000000E+00 -0.00000000000E+00 -0.42447025893E+02  0.42447025893E+02  0.00000000000E+00 0.  1.
         25    2    1    2    0    0  0.46579480029E+02  0.15915056261E+01  0.13129893755E+03  0.18723985465E+03  0.12508865383E+03 0.  0.
          5    1    3    3  502    0  0.68102419290E+02 -0.13951634934E+02  0.14212115722E+03  0.15826712659E+03  0.41800000000E+01 0. -1.
         -5    1    3    3    0  502 -0.21522939261E+02  0.15543140560E+02 -0.10822219664E+02  0.28972728063E+02  0.41800000000E+01 0. -1.
        -11    1    1    2    0    0 -0.24048690461E+02  0.25888342520E+02  0.12254411352E+02  0.37399416960E+02  0.00000000000E+00 0.  1.
         11    1    1    2    0    0 -0.22530789568E+02 -0.27479848146E+02  0.16389632022E+03  0.16770444930E+03  0.00000000000E+00 0. -1.
</event>
<event>
 7    1  0.3001243E-009  0.1863730E+03  0.7561462E-02  0.1161774E+00
         -1   -1    0    0    0  501 -0.00000000000E+00  0.00000000000E+00  0.99517157901E+02  0.99517157901E+02  0.00000000000E+00 0.  1.
          1   -1    0    0  501    0  0.00000000000E+00 -0.00000000000E+00 -0.36107133189E+03  0.36107133189E+03  0.00000000000E+00 0. -1.
         25    2    1    2    0    0 -0.15286785375E+03 -0.98725594620E+01 -0.10765120740E+03  0.22517199639E+03  0.12509035680E+03 0.  0.
          5    1    3    3  502    0 -0.15916877620E+02  0.46708212960E+02 -0.25909640438E+02  0.55890840204E+02  0.41800000000E+01 0.  1.
         -5    1    3    3    0  502 -0.13695097613E+03 -0.56580772422E+02 -0.81741566967E+02  0.16928115619E+03  0.41800000000E+01 0.  1.
        -11    1    1    2    0    0  0.10782451872E+03 -0.33040159561E+02 -0.77250393070E+02  0.13669455809E+03  0.00000000000E+00 0.  1.
         11    1    1    2    0    0  0.45043335032E+02  0.42912719023E+02 -0.76652573510E+02  0.98721935306E+02  0.00000000000E+00 0. -1.
</event>
<event>
 7    1  0.3001243E-009  0.1255410E+03  0.7561462E-02  0.1234226E+00
         -1   -1    0    0    0  501 -0.00000000000E+00  0.00000000000E+00  0.52212912374E+02  0.52212912374E+02  0.00000000000E+00 0.  1.
          1   -1    0    0  501    0  0.00000000000E+00 -0.00000000000E+00 -0.30899368197E+03  0.30899368197E+03  0.00000000000E+00 0. -1.
         25    2    1    2    0    0 -0.64429928036E+02  0.34454846008E+01 -0.16196371151E+03  0.21457697652E+03  0.12509175839E+03 0.  0.
          5    1    3    3  502    0 -0.80852146695E+02  0.47274423832E+02 -0.10902755749E+03  0.14379298128E+03  0.41800000000E+01 0. -1.
         -5    1    3    3    0  502  0.16422218660E+02 -0.43828939231E+02 -0.52936154017E+02  0.70783995239E+02  0.41800000000E+01 0. -1.
        -11    1    1    2    0    0  0.82830188734E+02  0.15121576934E+02 -0.61428216102E+02  0.10422537113E+03  0.00000000000E+00 0.  1.
         11    1    1    2    0    0 -0.18400260698E+02 -0.18567061535E+02 -0.33388841983E+02  0.42404246683E+02  0.00000000000E+00 0. -1.
</event>
<event>
 7    1  0.3001243E-009  0.1321618E+03  0.7561462E-02  0.1224283E+00
          1   -1    0    0  501    0  0.00000000000E+00  0.00000000000E+00  0.26202268840E+03  0.26202268840E+03  0.00000000000E+00 0. -1.
         -1   -1    0    0    0  501 -0.00000000000E+00 -0.00000000000E+00 -0.87152593975E+02  0.87152593975E+02  0.00000000000E+00 0.  1.
         25    2    1    2    0    0  0.86569268222E+02  0.43258561003E+02  0.14720043802E+03  0.21605223443E+03  0.12508020526E+03 0.  0.
          5    1    3    3  502    0  0.45700623930E+01  0.65215226694E+02  0.97906238701E+02  0.11780074380E+03  0.41800000000E+01 0.  1.
         -5    1    3    3    0  502  0.81999205829E+02 -0.21956665691E+02  0.49294199323E+02  0.98251490634E+02  0.41800000000E+01 0.  1.
        -11    1    1    2    0    0 -0.57405810092E+02  0.48030331666E+01 -0.18364081121E+02  0.60462679690E+02  0.00000000000E+00 0.  1.
         11    1    1    2    0    0 -0.29163458130E+02 -0.48061594170E+02  0.46033737521E+02  0.72660368251E+02  0.00000000000E+00 0. -1.
</event>
<event>
 7    1  0.3001243E-009  0.1807132E+03  0.7561462E-02  0.1167115E+00
         -1   -1    0    0    0  501 -0.00000000000E+00  0.00000000000E+00  0.15797855560E+03  0.15797855560E+03  0.00000000000E+00 0.  1.
          1   -1    0    0  501    0  0.00000000000E+00 -0.00000000000E+00 -0.28119814703E+03  0.28119814703E+03  0.00000000000E+00 0. -1.
         25    2    1    2    0    0  0.14562032302E+03  0.82919030238E+02  0.59594977105E+01  0.20920064183E+03  0.12509416003E+03 0.  0.
          5    1    3    3  502    0  0.59614580444E+02  0.74919723664E+02  0.54279174915E+02  0.11013884158E+03  0.41800000000E+01 0. -1.
         -5    1    3    3    0  502  0.86005742581E+02  0.79993065744E+01 -0.48319677205E+02  0.99061800245E+02  0.41800000000E+01 0. -1.
        -11    1    1    2    0    0 -0.94390794003E+01  0.10385858043E+02  0.72689865652E+01  0.15805076175E+02  0.00000000000E+00 0.  1.
         11    1    1    2    0    0 -0.13618124362E+03 -0.93304888281E+02 -0.13644807571E+03  0.21417098463E+03  0.00000000000E+00 0. -1.
</event>
<event>
 7    1  0.3001243E-009  0.1009558E+03  0.7561462E-02  0.1278299E+00
         -1   -1    0    0    0  501 -0.00000000000E+00  0.00000000000E+00  0.10722354917E+03  0.10722354917E+03  0.00000000000E+00 0.  1.
          1   -1    0    0  501    0  0.00000000000E+00 -0.00000000000E+00 -0.15528028467E+03  0.15528028467E+03  0.00000000000E+00 0. -1.
         25    2    1    2    0    0  0.17122356646E+02 -0.68170306398E+02 -0.28364183422E+02  0.14626330108E+03  0.12509220827E+03 0.  0.
          5    1    3    3  502    0  0.31817784886E+02 -0.67929309081E+02 -0.69522416671E+02  0.10236015478E+03  0.41800000000E+01 0. -1.
         -5    1    3    3    0  502 -0.14695428240E+02 -0.24099731717E+00  0.41158233248E+02  0.43903146299E+02  0.41800000000E+01 0. -1.
        -11    1    1    2    0    0 -0.51731014531E+02  0.29275955669E+02 -0.23772747579E+02  0.64018145648E+02  0.00000000000E+00 0. -1.
         11    1    1    2    0    0  0.34608657886E+02  0.38894350729E+02  0.40801955025E+01  0.52222387102E+02  0.00000000000E+00 0.  1.
</event>
<event>
 7    1  0.3001243E-009  0.2175501E+03  0.7561462E-02  0.1135723E+00
         -2   -1    0    0    0  501 -0.00000000000E+00  0.00000000000E+00  0.69871807699E+03  0.69871807699E+03  0.00000000000E+00 0.  1.
          2   -1    0    0  501    0  0.00000000000E+00 -0.00000000000E+00 -0.83626031644E+02  0.83626031644E+02  0.00000000000E+00 0. -1.
         25    2    1    2    0    0  0.44620584716E+02 -0.19422412299E+03  0.18410775715E+03  0.29875989608E+03  0.12509117766E+03 0.  0.
          5    1    3    3  502    0  0.86811236906E+02 -0.14854918615E+03  0.14616843897E+03  0.22580021371E+03  0.41800000000E+01 0. -1.
         -5    1    3    3    0  502 -0.42190652190E+02 -0.45674936843E+02  0.37939318184E+02  0.72959682374E+02  0.41800000000E+01 0. -1.
        -11    1    1    2    0    0 -0.31758341066E+02  0.85777434947E+02  0.29681237646E+03  0.31058645720E+03  0.00000000000E+00 0.  1.
         11    1    1    2    0    0 -0.12862243649E+02  0.10844668805E+03  0.13417191173E+03  0.17299775535E+03  0.00000000000E+00 0. -1.
</event>
<event>
 7    1  0.3001243E-009  0.1342374E+03  0.7561462E-02  0.1221300E+00
          1   -1    0    0  501    0  0.00000000000E+00  0.00000000000E+00  0.83231623651E+03  0.83231623651E+03  0.00000000000E+00 0. -1.
         -1   -1    0    0    0  501 -0.00000000000E+00 -0.00000000000E+00 -0.31471767297E+02  0.31471767297E+02  0.00000000000E+00 0.  1.
         25    2    1    2    0    0 -0.21710814938E+02 -0.10697556392E+03  0.29991379611E+03  0.34279811558E+03  0.12508849741E+03 0.  0.
          5    1    3    3  502    0 -0.80340566096E+01  0.88506897607E+01  0.16043483334E+03  0.16093380293E+03  0.41800000000E+01 0.  1.
         -5    1    3    3    0  502 -0.13676758329E+02 -0.11582625368E+03  0.13947896277E+03  0.18186431265E+03  0.41800000000E+01 0.  1.
        -11    1    1    2    0    0  0.11248054816E+01  0.11644212059E+03  0.45646263364E+03  0.47108191278E+03  0.00000000000E+00 0. -1.
         11    1    1    2    0    0  0.20586009457E+02 -0.94665566639E+01  0.44468039464E+02  0.49907975457E+02  0.00000000000E+00 0.  1.
</event>
<event>
 7    1  0.3001243E-009  0.1145867E+03  0.7561462E-02  0.1252304E+00
          2   -1    0    0  501    0  0.00000000000E+00  0.00000000000E+00  0.10357089239E+04  0.10357089239E+04  0.00000000000E+00 0. -1.
         -2   -1    0    0    0  501 -0.00000000000E+00 -0.00000000000E+00 -0.13056286839E+02  0.13056286839E+02  0.00000000000E+00 0.  1.
         25    2    1    2    0    0  0.38345706627E+02 -0.56368084985E+01  0.52151188061E+03  0.53770304703E+03  0.12509100022E+03 0.  0.
          5    1    3    3  502    0 -0.38944207691E+02 -0.28420446045E+02  0.24135146123E+03  0.24615518135E+03  0.41800000000E+01 0.  1.
         -5    1    3    3    0  502  0.77289914318E+02  0.22783637547E+02  0.28016041939E+03  0.29154786568E+03  0.41800000000E+01 0.  1.
        -11    1    1    2    0    0 -0.47910770865E+02  0.41248295024E+02  0.30442436557E+03  0.31091969729E+03  0.00000000000E+00 0. -1.
         11    1    1    2    0    0  0.95650642382E+01 -0.35611486525E+02  0.19671639086E+03  0.20014246641E+03  0.00000000000E+00 0.  1.
</event>
<event>
 7    1  0.3001243E-009  0.1668638E+03  0.7561462E-02  0.1181158E+00
         -2   -1    0    0    0  501 -0.00000000000E+00  0.00000000000E+00  0.13579147953E+04  0.13579147953E+04  0.00000000000E+00 0.  1.
          2   -1    0    0  501    0  0.00000000000E+00 -0.00000000000E+00 -0.30730313994E+02  0.30730313994E+02  0.00000000000E+00 0. -1.
         25    2    1    2    0    0  0.54991294646E+02 -0.14187810734E+03  0.10009030910E+04  0.10201020219E+04  0.12509075830E+03 0.  0.
          5    1    3    3  502    0  0.18442386494E+02 -0.12659363726E+03  0.93006316250E+03  0.93882960608E+03  0.41800000000E+01 0. -1.
         -5    1    3    3    0  502  0.36548908153E+02 -0.15284470079E+02  0.70839928457E+02  0.81272415841E+02  0.41800000000E+01 0. -1.
        -11    1    1    2    0    0 -0.32475201474E+02  0.12865577755E+02  0.11287527693E+03  0.11815663309E+03  0.00000000000E+00 0.  1.
         11    1    1    2    0    0 -0.22516093172E+02  0.12901252959E+03  0.21340611341E+03  0.25038645428E+03  0.00000000000E+00 0. -1.
</event>
<event>
 7    1  0.3001243E-009  0.1156857E+03  0.7561462E-02  0.1250389E+00
         -3   -1    0    0    0  501 -0.00000000000E+00  0.00000000000E+00  0.61042999352E+02  0.61042999352E+02  0.00000000000E+00 0.  1.
          3   -1    0    0  501    0  0.00000000000E+00 -0.00000000000E+00 -0.32409428016E+03  0.32409428016E+03  0.00000000000E+00 0. -1.
         25    2    1    2    0    0  0.41620533793E+02  0.63613804328E+02 -0.21921477144E+03  0.26359283146E+03  0.12508828821E+03 0.  0.
          5    1    3    3  502    0  0.48905993829E+02 -0.68459323188E+01 -0.17041091125E+03  0.17747116412E+03  0.41800000000E+01 0.  1.
         -5    1    3    3    0  502 -0.72854600360E+01  0.70459736647E+02 -0.48803860184E+02  0.86121667338E+02  0.41800000000E+01 0.  1.
        -11    1    1    2    0    0 -0.31329988717E+02  0.12731167196E+02 -0.19885669439E+01  0.33876322257E+02  0.00000000000E+00 0. -1.
         11    1    1    2    0    0 -0.10290545076E+02 -0.76344971524E+02 -0.41847942434E+02  0.87668125798E+02  0.00000000000E+00 0.  1.
</event>
<event>
 7    1  0.3001243E-009  0.1296112E+03  0.7561462E-02  0.1228034E+00
         -2   -1    0    0    0  501 -0.00000000000E+00  0.00000000000E+00  0.66127083035E+03  0.66127083035E+03  0.00000000000E+00 0. -1.
          2   -1    0    0  501    0  0.00000000000E+00 -0.00000000000E+00 -0.47628909134E+02  0.47628909134E+02  0.00000000000E+00 0.  1.
         25    2    1    2    0    0  0.97660749883E+02 -0.69503441170E+02  0.17965049972E+03  0.24958014596E+03  0.12509035455E+03 0.  0.
          5    1    3    3  502    0 -0.66703766805E+01 -0.20231452339E+02  0.11545247232E+03  0.11747574794E+03  0.41800000000E+01 0. -1.
         -5    1    3    3    0  502  0.10433112656E+03 -0.49271988831E+02  0.64198027404E+02  0.13210439802E+03  0.41800000000E+01 0. -1.
        -11    1    1    2    0    0 -0.90450593555E+02  0.54999019538E+02  0.42972176579E+03  0.44256863651E+03  0.00000000000E+00 0. -1.
         11    1    1    2    0    0 -0.72101563278E+01  0.14504421632E+02  0.42696556940E+01  0.16750957014E+02  0.00000000000E+00 0.  1.
</event>
<event>
 7    1  0.3001243E-009  0.1442855E+03  0.7561462E-02  0.1207676E+00
         -2   -1    0    0    0  501 -0.00000000000E+00  0.00000000000E+00  0.14449216522E+03  0.14449216522E+03  0.00000000000E+00 0. -1.
          2   -1    0    0  501    0  0.00000000000E+00 -0.00000000000E+00 -0.15360434900E+03  0.15360434900E+03  0.00000000000E+00 0.  1.
         25    2    1    2    0    0 -0.10131824571E+03  0.26364884451E+01 -0.10332777617E+02  0.16132801724E+03  0.12509046674E+03 0.  0.
          5    1    3    3  502    0 -0.11138528234E+03  0.38112554306E+02 -0.26666056922E+02  0.12077996071E+03  0.41800000000E+01 0.  1.
         -5    1    3    3    0  502  0.10067036632E+02 -0.35476065860E+02  0.16333279305E+02  0.40548056530E+02  0.41800000000E+01 0.  1.
        -11    1    1    2    0    0  0.48095085650E+02 -0.44823193019E+02 -0.13884878245E+02  0.67194090067E+02  0.00000000000E+00 0. -1.
         11    1    1    2    0    0  0.53223160059E+02  0.42186704574E+02  0.15105472086E+02  0.69574406906E+02  0.00000000000E+00 0.  1.
</event>
<event>
 7    1  0.3001243E-009  0.1015585E+03  0.7561462E-02  0.1277052E+00
          2   -1    0    0  501    0  0.00000000000E+00  0.00000000000E+00  0.42905288286E+03  0.42905288286E+03  0.00000000000E+00 0. -1.
         -2   -1    0    0    0  501 -0.00000000000E+00 -0.00000000000E+00 -0.30563737077E+02  0.30563737077E+02  0.00000000000E+00 0.  1.
         25    2    1    2    0    0  0.24007002564E+02  0.13116085347E+02  0.29513254589E+03  0.32170244049E+03  0.12506347470E+03 0.  0.
          5    1    3    3  502    0  0.54694212000E+02  0.50447284850E+02  0.21993366158E+03  0.23221686690E+03  0.41800000000E+01 0.  1.
         -5    1    3    3    0  502 -0.30687209436E+02 -0.37331199503E+02  0.75198884311E+02  0.89485573591E+02  0.41800000000E+01 0.  1.
        -11    1    1    2    0    0 -0.22811926816E+02  0.29591087789E+02  0.82083412860E+02  0.90187045346E+02  0.00000000000E+00 0. -1.
         11    1    1    2    0    0 -0.11950757485E+01 -0.42707173136E+02  0.21273187032E+02  0.47727134104E+02  0.00000000000E+00 0.  1.
</event>
<event>
 7    1  0.3001243E-009  0.8691981E+02  0.7561462E-02  0.1310487E+00
          2   -1    0    0  501    0  0.00000000000E+00  0.00000000000E+00  0.54395983512E+03  0.54395983512E+03  0.00000000000E+00 0. -1.
         -2   -1    0    0    0  501 -0.00000000000E+00 -0.00000000000E+00 -0.25561695790E+02  0.25561695790E+02  0.00000000000E+00 0.  1.
         25    2    1    2    0    0 -0.35409245815E+02  0.26882014547E+02  0.37452103086E+03  0.39735319188E+03  0.12508836536E+03 0.  0.
          5    1    3    3  502    0 -0.16134115720E+02  0.54053736684E+02  0.35293144629E+03  0.35743558066E+03  0.41800000000E+01 0. -1.
         -5    1    3    3    0  502 -0.19275130096E+02 -0.27171722136E+02  0.21589584571E+02  0.39917611227E+02  0.41800000000E+01 0. -1.
        -11    1    1    2    0    0  0.36553885460E+02  0.16639403490E+02  0.10969519690E+03  0.11681649076E+03  0.00000000000E+00 0.  1.
         11    1    1    2    0    0 -0.11446396445E+01 -0.43521418037E+02  0.34181911566E+02  0.55351848264E+02  0.00000000000E+00 0. -1.
</event>
<event>
 7    1  0.3001243E-009  0.1014938E+03  0.7561462E-02  0.1277186E+00
         -1   -1    0    0    0  501 -0.00000000000E+00  0.00000000000E+00  0.41295830555E+02  0.41295830555E+02  0.00000000000E+00 0.  1.
          1   -1    0    0  501    0  0.00000000000E+00 -0.00000000000E+00 -0.31118881121E+03  0.31118881121E+03  0.00000000000E+00 0. -1.
         25    2    1    2    0    0 -0.12054757422E+02  0.22549736992E+02 -0.18385014074E+03  0.22383720691E+03  0.12509361748E+03 0.  0.
          5    1    3    3  502    0 -0.13157745319E+02  0.73899394400E+02 -0.95282712843E+02  0.12136933106E+03  0.41800000000E+01 0. -1.
         -5    1    3    3    0  502  0.11029878968E+01 -0.51349657407E+02 -0.88567427898E+02  0.10246787586E+03  0.41800000000E+01 0. -1.
        -11    1    1    2    0    0 -0.29838261838E+02 -0.28177332313E+01  0.10713507166E+01  0.29990153091E+02  0.00000000000E+00 0.  1.
         11    1    1    2    0    0  0.41893019260E+02 -0.19732003761E+02 -0.87114190633E+02  0.98657281762E+02  0.00000000000E+00 0. -1.
</event>
<event>
 7    1  0.3001243E-009  0.1142092E+03  0.7561462E-02  0.1252968E+00
          1   -1    0    0  501    0  0.00000000000E+00  0.00000000000E+00  0.42717671713E+03  0.42717671713E+03  0.00000000000E+00 0. -1.
         -1   -1    0    0    0  501 -0.00000000000E+00 -0.00000000000E+00 -0.37543357140E+02  0.37543357140E+02  0.00000000000E+00 0.  1.
         25    2    1    2    0    0 -0.59636325639E+02 -0.47712518157E+00  0.16475698266E+03  0.21528773690E+03  0.12508887776E+03 0.  0.
          5    1    3    3  502    0 -0.65806422875E+02 -0.49831524997E+02  0.13147305093E+03  0.15529424231E+03  0.41800000000E+01 0. -1.
         -5    1    3    3    0  502  0.61700972356E+01  0.49354399815E+02  0.33283931733E+02  0.59993494586E+02  0.41800000000E+01 0. -1.
        -11    1    1    2    0    0  0.71809244387E+02 -0.17717365618E+02  0.21081767791E+03  0.22341567971E+03  0.00000000000E+00 0. -1.
         11    1    1    2    0    0 -0.12172918748E+02  0.18194490799E+02  0.14058699421E+02  0.26016657658E+02  0.00000000000E+00 0.  1.
</event>
<event>
 7    1  0.3001243E-009  0.9586429E+02  0.7561462E-02  0.1289241E+00
         -1   -1    0    0    0  501 -0.00000000000E+00  0.00000000000E+00  0.13404000497E+04  0.13404000497E+04  0.00000000000E+00 0.  1.
          1   -1    0    0  501    0  0.00000000000E+00 -0.00000000000E+00 -0.20984134775E+02  0.20984134775E+02  0.00000000000E+00 0. -1.
         25    2    1    2    0    0  0.47352958326E+01  0.10311651190E+02  0.12181514387E+04  0.12246096735E+04  0.12508865489E+03 0.  0.
          5    1    3    3  502    0 -0.28855403025E+02 -0.42547150324E+02  0.30734280043E+03  0.31164076059E+03  0.41800000000E+01 0.  1.
         -5    1    3    3    0  502  0.33590698858E+02  0.52858801514E+02  0.91080863830E+03  0.91296891292E+03  0.41800000000E+01 0.  1.
        -11    1    1    2    0    0  0.48146914174E+01 -0.43029687192E+02  0.91646983374E+02  0.10136027227E+03  0.00000000000E+00 0.  1.
         11    1    1    2    0    0 -0.95499872501E+01  0.32718036001E+02  0.96174928538E+01  0.35414238733E+02  0.00000000000E+00 0. -1.
</event>
<event>
 7    1  0.3001243E-009  0.2551245E+03  0.7561462E-02  0.1110108E+00
          1   -1    0    0  501    0  0.00000000000E+00  0.00000000000E+00  0.93083423369E+03  0.93083423369E+03  0.00000000000E+00 0. -1.
         -1   -1    0    0    0  501 -0.00000000000E+00 -0.00000000000E+00 -0.80219153517E+02  0.80219153517E+02  0.00000000000E+00 0.  1.
         25    2    1    2    0    0 -0.24070152934E+03  0.16577578762E+02  0.57946983586E+03  0.64003483985E+03  0.12508902114E+03 0.  0.
          5    1    3    3  502    0 -0.21128662226E+03 -0.27542670914E+02  0.40517769276E+03  0.45780680487E+03  0.41800000000E+01 0. -1.
         -5    1    3    3    0  502 -0.29414907073E+02  0.44120249676E+02  0.17429214309E+03  0.18222803498E+03  0.41800000000E+01 0. -1.
        -11    1    1    2    0    0  0.10640951370E+03 -0.25272083562E+02  0.72995796992E+02  0.13149163165E+03  0.00000000000E+00 0.  1.
         11    1    1    2    0    0  0.13429201563E+03  0.86945047997E+01  0.19814944732E+03  0.23952691571E+03  0.00000000000E+00 0. -1.
</event>
<event>
 7    1  0.3001243E-009  0.9888735E+02  0.7561462E-02  0.1282653E+00
         -1   -1    0    0    0  501 -0.00000000000E+00  0.00000000000E+00  0.34309259664E+02  0.34309259664E+02  0.00000000000E+00 0.  1.
          1   -1    0    0  501    0  0.00000000000E+00 -0.00000000000E+00 -0.44812337272E+03  0.44812337272E+03  0.00000000000E+00 0. -1.
         25    2    1    2    0    0 -0.37493510802E+02 -0.48773343497E+02 -0.20502744598E+03  0.24792837225E+03  0.12509045437E+03 0.  0.
          5    1    3    3  502    0 -0.58544233244E+02  0.18326304340E+02 -0.13621223820E+03  0.14944740517E+03  0.41800000000E+01 0.  1.
         -5    1    3    3    0  502  0.21050722442E+02 -0.67099647837E+02 -0.68815207777E+02  0.98480967078E+02  0.41800000000E+01 0.  1.
        -11    1    1    2    0    0  0.85220098721E+01  0.30306763367E+02 -0.10386297993E+02  0.33151165048E+02  0.00000000000E+00 0.  1.
         11    1    1    2    0    0  0.28971500930E+02  0.18466580130E+02 -0.19840036908E+03  0.20135309509E+03  0.00000000000E+00 0. -1.
</event>
<event>
 7    1  0.3001243E-009  0.1229673E+03  0.7561462E-02  0.1238281E+00
         -2   -1    0    0    0  501 -0.00000000000E+00  0.00000000000E+00  0.24411219643E+03  0.24411219643E+03  0.00000000000E+00 0.  1.
          2   -1    0    0  501    0  0.00000000000E+00 -0.00000000000E+00 -0.10389592217E+03  0.10389592217E+03  0.00000000000E+00 0. -1.
         25    2    1    2    0    0 -0.17145394489E+02 -0.10737996437E+03  0.76940524889E+02  0.18273648023E+03  0.12509338726E+03 0.  0.
          5    1    3    3  502    0  0.75151373880E+01 -0.65726280520E+02 -0.24172093177E+02  0.70556245149E+02  0.41800000000E+01 0. -1.
         -5    1    3    3    0  502 -0.24660531877E+02 -0.41653683848E+02  0.10111261807E+03  0.11218023508E+03  0.41800000000E+01 0. -1.
        -11    1    1    2    0    0  0.25337850638E+02  0.11625463392E+03  0.20390851445E+02  0.12071840541E+03  0.00000000000E+00 0. -1.
         11    1    1    2    0    0 -0.81924561496E+01 -0.88746695530E+01  0.42884897925E+02  0.44553232963E+02  0.00000000000E+00 0.  1.
</event>
<event>
 7    1  0.3001243E-009  0.2129656E+03  0.7561462E-02  0.1139239E+00
          1   -1    0    0  501    0  0.00000000000E+00  0.00000000000E+00  0.81675848111E+03  0.81675848111E+03  0.00000000000E+00 0. -1.
         -1   -1    0    0    0  501 -0.00000000000E+00 -0.00000000000E+00 -0.60120828139E+02  0.60120828139E+02  0.00000000000E+00 0.  1.
         25    2    1    2    0    0  0.92300438036E+02 -0.15963531235E+03  0.50101903560E+03  0.54833436289E+03  0.12509074981E+03 0.  0.
          5    1    3    3  502    0  0.51428242740E+02  0.55221277508E+01  0.99029940952E+02  0.11180232400E+03  0.41800000000E+01 0.  1.
         -5    1    3    3    0  502  0.40872195296E+02 -0.16515744010E+03  0.40198909464E+03  0.43653203889E+03  0.41800000000E+01 0.  1.
        -11    1    1    2    0    0 -0.10326679340E+03  0.10189246789E+03  0.20398092646E+03  0.25030845769E+03  0.00000000000E+00 0. -1.
         11    1    1    2    0    0  0.10966355361E+02  0.57742844459E+02  0.51637690917E+02  0.78236488670E+02  0.00000000000E+00 0.  1.
</event>
<event>
 7    1  0.3001243E-009  0.1059426E+03  0.7561462E-02  0.1268273E+00
         -1   -1    0    0    0  501 -0.00000000000E+00  0.00000000000E+00  0.19797613352E+03  0.19797613352E+03  0.00000000000E+00 0.  1.
          1   -1    0    0  501    0  0.00000000000E+00 -0.00000000000E+00 -0.70154981489E+02  0.70154981489E+02  0.00000000000E+00 0. -1.
         25    2    1    2    0    0 -0.44711651912E+02  0.20677643539E+02  0.69039859049E+02  0.15112996438E+03  0.12508823780E+03 0.  0.
          5    1    3    3  502    0 -0.84232483829E+01 -0.51974913285E+02  0.32160550449E+02  0.61839438301E+02  0.41800000000E+01 0.  1.
         -5    1    3    3    0  502 -0.36288403529E+02  0.72652556824E+02  0.36879308600E+02  0.89290526074E+02  0.41800000000E+01 0.  1.
        -11    1    1    2    0    0 -0.13356747141E+02  0.49916409434E+01  0.51096503985E+02  0.53048769005E+02  0.00000000000E+00 0.  1.
         11    1    1    2    0    0  0.58068399053E+02 -0.25669284482E+02  0.76847890022E+01  0.63952381632E+02  0.00000000000E+00 0. -1.
</event>
<event>
 7    1  0.3001243E-009  0.1170646E+03  0.7561462E-02  0.1248020E+00
          2   -1    0    0  501    0  0.00000000000E+00  0.00000000000E+00  0.19344595797E+03  0.19344595797E+03  0.00000000000E+00 0.  1.
         -2   -1    0    0    0  501 -0.00000000000E+00 -0.00000000000E+00 -0.89493648289E+02  0.89493648289E+02  0.00000000000E+00 0. -1.
         25    2    1    2    0    0 -0.44769802991E+02  0.32936490301E+01 -0.54276211731E+01  0.13301221497E+03  0.12509039482E+03 0.  0.
          5    1    3    3  502    0  0.42330160249E+02  0.12535116328E+02  0.53403091639E+01  0.44665007669E+02  0.41800000000E+01 0. -1.
         -5    1    3    3    0  502 -0.87099963241E+02 -0.92414672984E+01 -0.10767930337E+02  0.88347207302E+02  0.41800000000E+01 0. -1.
        -11    1    1    2    0    0  0.73399047421E+02 -0.15906989197E+01  0.72184796839E+02  0.10295919279E+03  0.00000000000E+00 0. -1.
         11    1    1    2    0    0 -0.28629244430E+02 -0.17029501104E+01  0.37195134019E+02  0.46968198500E+02  0.00000000000E+00 0.  1.
</event>
<event>
 7    1  0.3001243E-009  0.1002892E+03  0.7561462E-02  0.1279689E+00
          2   -1    0    0  501    0  0.00000000000E+00  0.00000000000E+00  0.45789061592E+02  0.45789061592E+02  0.00000000000E+00 0. -1.
         -2   -1    0    0    0  501 -0.00000000000E+00 -0.00000000000E+00 -0.24113596210E+03  0.24113596210E+03  0.00000000000E+00 0.  1.
         25    2    1    2    0    0  0.31356310569E+02 -0.17846934729E+02 -0.10603286665E+03  0.16788914243E+03  0.12506823755E+03 0.  0.
          5    1    3    3  502    0 -0.35374040820E+02  0.26375491003E+02 -0.15470516941E+02  0.46944633176E+02  0.41800000000E+01 0.  1.
         -5    1    3    3    0  502  0.66730351389E+02 -0.44222425732E+02 -0.90562349710E+02  0.12094450926E+03  0.41800000000E+01 0.  1.
        -11    1    1    2    0    0 -0.27019856380E+02 -0.22715747636E+02 -0.26509132850E+02  0.44145350309E+02  0.00000000000E+00 0. -1.
         11    1    1    2    0    0 -0.43364541896E+01  0.40562682365E+02 -0.62804901010E+02  0.74890530954E+02  0.00000000000E+00 0.  1.
</event>
<event>
 7    1  0.3001243E-009  0.9787269E+02  0.7561462E-02  0.1284834E+00
          3   -1    0    0  501    0  0.00000000000E+00  0.00000000000E+00  0.14356856740E+03  0.14356856740E+03  0.00000000000E+00 0. -1.
         -3   -1    0    0    0  501 -0.00000000000E+00 -0.00000000000E+00 -0.81692558575E+02  0.81692558575E+02  0.00000000000E+00 0.  1.
         25    2    1    2    0    0 -0.18322412615E+02 -0.36339821003E+01  0.58375836828E+02  0.13929739306E+03  0.12508840377E+03 0.  0.
          5    1    3    3  502    0 -0.63789079072E+02  0.63951438428E+01 -0.33921607423E+00  0.64245871005E+02  0.41800000000E+01 0. -1.
         -5    1    3    3    0  502  0.45466666457E+02 -0.10029125943E+02  0.58715052903E+02  0.75051522058E+02  0.41800000000E+01 0. -1.
        -11    1    1    2    0    0 -0.44415099365E+01  0.40869895351E+02  0.86725032960E+01  0.42015326608E+02  0.00000000000E+00 0. -1.
         11    1    1    2    0    0  0.22763922552E+02 -0.37235913251E+02 -0.51723313005E+01  0.43948406304E+02  0.00000000000E+00 0.  1.
</event>
<event>
 7    1  0.3001243E-009  0.2555184E+03  0.7561462E-02  0.1109866E+00
          2   -1    0    0  501    0  0.00000000000E+00  0.00000000000E+00  0.30325436024E+03  0.30325436024E+03  0.00000000000E+00 0. -1.
         -2   -1    0    0    0  501 -0.00000000000E+00 -0.00000000000E+00 -0.30316693829E+03  0.30316693829E+03  0.00000000000E+00 0.  1.
         25    2    1    2    0    0 -0.24799642238E+03  0.55799069441E+01 -0.13603465086E+03  0.30933076743E+03  0.12508691606E+03 0.  0.
          5    1    3    3  502    0 -0.17450702486E+03 -0.11075623713E+02 -0.15253723311E+03  0.23207854500E+03  0.41800000000E+01 0. -1.
         -5    1    3    3    0  502 -0.73489397525E+02  0.16655530657E+02  0.16502582245E+02  0.77252222433E+02  0.41800000000E+01 0. -1.
        -11    1    1    2    0    0  0.18491056038E+03 -0.39427281357E+02  0.76632222262E+02  0.20400716493E+03  0.00000000000E+00 0.  1.
         11    1    1    2    0    0  0.63085862004E+02  0.33847374413E+02  0.59489850550E+02  0.93083366172E+02  0.00000000000E+00 0. -1.
</event>
<event>
 7    1  0.3001243E-009  0.1546109E+03  0.7561462E-02  0.1194919E+00
         -1   -1    0    0    0  501 -0.00000000000E+00  0.00000000000E+00  0.15321913040E+03  0.15321913040E+03  0.00000000000E+00 0.  1.
          1   -1    0    0  501    0  0.00000000000E+00 -0.00000000000E+00 -0.21646449442E+03  0.21646449442E+03  0.00000000000E+00 0. -1.
         25    2    1    2    0    0 -0.59100411130E+01  0.13014771578E+03  0.40039468324E+02  0.18499933293E+03  0.12509291608E+03 0.  0.
          5    1    3    3  502    0 -0.44307451836E+02  0.90093522514E+02 -0.20731277299E+02  0.10260239444E+03  0.41800000000E+01 0. -1.
         -5    1    3    3    0  502  0.38397410723E+02  0.40054193262E+02  0.60770745623E+02  0.82396938485E+02  0.41800000000E+01 0. -1.
        -11    1    1    2    0    0  0.40452715365E+02 -0.97516229150E+02 -0.72230551991E+02  0.12791829333E+03  0.00000000000E+00 0. -1.
         11    1    1    2    0    0 -0.34542674252E+02 -0.32631486626E+02 -0.31054280357E+02  0.56765998559E+02  0.00000000000E+00 0.  1.
</event>
<event>
 7    1  0.3001243E-009  0.2602124E+03  0.7561462E-02  0.1107016E+00
         -2   -1    0    0    0  501 -0.00000000000E+00  0.00000000000E+00  0.67376557104E+02  0.67376557104E+02  0.00000000000E+00 0.  1.
          2   -1    0    0  501    0  0.00000000000E+00 -0.00000000000E+00 -0.17342196348E+04  0.17342196348E+04  0.00000000000E+00 0. -1.
         25    2    1    2    0    0 -0.23536875680E+03  0.83343515169E+02 -0.30307010672E+03  0.41212105473E+03  0.12509069099E+03 0.  0.
          5    1    3    3  502    0 -0.16587846282E+03  0.17645844703E+02 -0.25567191145E+03  0.30530744991E+03  0.41800000000E+01 0. -1.
         -5    1    3    3    0  502 -0.69490293983E+02  0.65697670465E+02 -0.47398195262E+02  0.10681360483E+03  0.41800000000E+01 0. -1.
        -11    1    1    2    0    0  0.21200392421E+03 -0.51200510784E+02 -0.12518594800E+04  0.12707160634E+04  0.00000000000E+00 0. -1.
         11    1    1    2    0    0  0.23364832594E+02 -0.32143004385E+02 -0.11191349098E+03  0.11875907374E+03  0.00000000000E+00 0.  1.
</event>
<event>
 7    1  0.3001243E-009  0.1008119E+03  0.7561462E-02  0.1278598E+00
         -2   -1    0    0    0  501 -0.00000000000E+00  0.00000000000E+00  0.19237438162E+02  0.19237438162E+02  0.00000000000E+00 0.  1.
          2   -1    0    0  501    0  0.00000000000E+00 -0.00000000000E+00 -0.97050468932E+03  0.97050468932E+03  0.00000000000E+00 0. -1.
         25    2    1    2    0    0 -0.53771406295E+02  0.57866389660E+02 -0.43942187704E+03  0.46365738573E+03  0.12508677841E+03 0.  0.
          5    1    3    3  502    0 -0.16333041582E+02  0.27888535821E+02 -0.13913940939E+02  0.35434571114E+02  0.41800000000E+01 0.  1.
         -5    1    3    3    0  502 -0.37438364713E+02  0.29977853839E+02 -0.42550793610E+03  0.42822281462E+03  0.41800000000E+01 0.  1.
        -11    1    1    2    0    0  0.31632745521E+02  0.21662481810E+02 -0.13750850016E+03  0.14275321826E+03  0.00000000000E+00 0. -1.
         11    1    1    2    0    0  0.22138660774E+02 -0.79528871470E+02 -0.37433687395E+03  0.38333152348E+03  0.00000000000E+00 0.  1.
</event>
<event>
 7    1  0.3001243E-009  0.1238270E+03  0.7561462E-02  0.1236914E+00
         -2   -1    0    0    0  501 -0.00000000000E+00  0.00000000000E+00  0.15654983090E+02  0.15654983090E+02  0.00000000000E+00 0. -1.
          2   -1    0    0  501    0  0.00000000000E+00 -0.00000000000E+00 -0.15094098341E+04  0.15094098341E+04  0.00000000000E+00 0.  1.
         25    2    1    2    0    0 -0.68553973888E+02 -0.51917521944E+02 -0.11283831910E+04  0.11385481838E+04  0.12509302376E+03 0.  0.
          5    1    3    3  502    0 -0.72198715167E+02 -0.75079391693E+02 -0.10756088145E+04  0.10806485847E+04  0.41800000000E+01 0.  1.
         -5    1    3    3    0  502  0.36447412785E+01  0.23161869749E+02 -0.52774376557E+02  0.57899599051E+02  0.41800000000E+01 0.  1.
        -11    1    1    2    0    0 -0.45476006344E+01  0.46029924273E+02 -0.20527531987E+03  0.21042193695E+03  0.00000000000E+00 0.  1.
         11    1    1    2    0    0  0.73101574523E+02  0.58875976712E+01 -0.16009634016E+03  0.17609469650E+03  0.00000000000E+00 0. -1.
</event>
<event>
 7    1  0.3001243E-009  0.9702598E+02  0.7561462E-02  0.1286677E+00
          3   -1    0    0  501    0  0.00000000000E+00  0.00000000000E+00  0.11749646014E+03  0.11749646014E+03  0.00000000000E+00 0.  1.
         -3   -1    0    0    0  501 -0.00000000000E+00 -0.00000000000E+00 -0.10948809548E+03  0.10948809548E+03  0.00000000000E+00 0. -1.
         25    2    1    2    0    0 -0.29768575421E+02 -0.23732612430E+02  0.56987917705E+01  0.13087877525E+03  0.12508945842E+03 0.  0.
          5    1    3    3  502    0 -0.15747632849E+02 -0.68763135352E+02  0.31031326961E+02  0.77180129417E+02  0.41800000000E+01 0.  1.
         -5    1    3    3    0  502 -0.14020942571E+02  0.45030522922E+02 -0.25332535190E+02  0.53698645833E+02  0.41800000000E+01 0.  1.
        -11    1    1    2    0    0  0.50849906508E+02  0.13543220283E+02 -0.26551142984E+02  0.58941454013E+02  0.00000000000E+00 0. -1.
         11    1    1    2    0    0 -0.21081331087E+02  0.10189392148E+02  0.28860715878E+02  0.37164326359E+02  0.00000000000E+00 0.  1.
</event>
<event>
 7    1  0.3001243E-009  0.1680748E+03  0.7561462E-02  0.1179870E+00
          1   -1    0    0  501    0  0.00000000000E+00  0.00000000000E+00  0.10604809903E+04  0.10604809903E+04  0.00000000000E+00 0. -1.
         -1   -1    0    0    0  501 -0.00000000000E+00 -0.00000000000E+00 -0.27096028653E+02  0.27096028653E+02  0.00000000000E+00 0.  1.
         25    2    1    2    0    0  0.12836313964E+03 -0.98609452037E+01  0.49133250456E+03  0.52309572811E+03  0.12508867604E+03 0.  0.
          5    1    3    3  502    0  0.93221903326E+02  0.52434125553E+02  0.26939926743E+03  0.28988462960E+03  0.41800000000E+01 0. -1.
         -5    1    3    3    0  502  0.35141236312E+02 -0.62295070756E+02  0.22193323712E+03  0.23321109851E+03  0.41800000000E+01 0. -1.
        -11    1    1    2    0    0 -0.13360569770E+03  0.29766941724E+02  0.47675844605E+03  0.49601932337E+03  0.00000000000E+00 0. -1.
         11    1    1    2    0    0  0.52425580618E+01 -0.19905996521E+02  0.65294011045E+02  0.68461967478E+02  0.00000000000E+00 0.  1.
</event>
<event>
 7    1  0.3001243E-009  0.1219509E+03  0.7561462E-02  0.1239913E+00
          2   -1    0    0  501    0  0.00000000000E+00  0.00000000000E+00  0.13060364118E+04  0.13060364118E+04  0.00000000000E+00 0. -1.
         -2   -1    0    0    0  501 -0.00000000000E+00 -0.00000000000E+00 -0.15595117730E+02  0.15595117730E+02  0.00000000000E+00 0.  1.
         25    2    1    2    0    0  0.77521611651E+02  0.16083225562E+02  0.93356316724E+03  0.94522801719E+03  0.12509015488E+03 0.  0.
          5    1    3    3  502    0  0.25345478326E+02 -0.54316473270E+02  0.35394728400E+03  0.35901089788E+03  0.41800000000E+01 0. -1.
         -5    1    3    3    0  502  0.52176133325E+02  0.70399698831E+02  0.57961588323E+03  0.58621711932E+03  0.41800000000E+01 0. -1.
        -11    1    1    2    0    0 -0.39187138419E+01  0.15507365619E+02  0.69739657520E+01  0.17449094673E+02  0.00000000000E+00 0.  1.
         11    1    1    2    0    0 -0.73602897809E+02 -0.31590591181E+02  0.34990416104E+03  0.35895441762E+03  0.00000000000E+00 0. -1.
</event>
<event>
 7    1  0.3202805E-009  0.7035258E+02  0.7561462E-02  0.1358898E+00
          2   -1    0    0  501    0  0.00000000000E+00  0.00000000000E+00  0.14976821274E+03  0.14976821274E+03  0.00000000000E+00 0. -1.
         -2   -1    0    0    0  501 -0.00000000000E+00 -0.00000000000E+00 -0.99961211827E+02  0.99961211827E+02  0.00000000000E+00 0.  1.
         25    2    1    2    0    0  0.35685750540E+02 -0.16871418017E+02  0.69677650865E+02  0.14852547195E+03  0.12508686282E+03 0.  0.
          5    1    3    3  502    0 -0.28749751642E+02 -0.51994042562E+01  0.77036694388E+02  0.82496707246E+02  0.41800000000E+01 0. -1.
         -5    1    3    3    0  502  0.64435502183E+02 -0.11672013760E+02 -0.73590435236E+01  0.66028764704E+02  0.41800000000E+01 0. -1.
        -11    1    1    2    0    0 -0.14278450412E+02 -0.48471352491E+01 -0.53630551805E+02  0.55710007658E+02  0.00000000000E+00 0.  1.
         11    1    1    2    0    0 -0.21407300129E+02  0.21718553266E+02  0.33759901855E+02  0.45493944960E+02  0.00000000000E+00 0. -1.
</event>
<event>
 7    1  0.3001243E-009  0.1184955E+03  0.7561462E-02  0.1245600E+00
          2   -1    0    0  501    0  0.00000000000E+00  0.00000000000E+00  0.66982333269E+02  0.66982333269E+02  0.00000000000E+00 0. -1.
         -2   -1    0    0    0  501 -0.00000000000E+00 -0.00000000000E+00 -0.28734860217E+03  0.28734860217E+03  0.00000000000E+00 0.  1.
         25    2    1    2    0    0 -0.29077192168E+02  0.74652704118E+02 -0.16330133788E+03  0.22075728172E+03  0.12509173091E+03 0.  0.
          5    1    3    3  502    0 -0.37110738898E+02  0.93417874627E+02 -0.17111922510E+03  0.19850281570E+03  0.41800000000E+01 0. -1.
         -5    1    3    3    0  502  0.80335467296E+01 -0.18765170509E+02  0.78178872217E+01  0.22254466021E+02  0.41800000000E+01 0. -1.
        -11    1    1    2    0    0 -0.29239269604E+02 -0.18549594643E+02 -0.36009975755E+02  0.49957388865E+02  0.00000000000E+00 0.  1.
         11    1    1    2    0    0  0.58316461772E+02 -0.56103109475E+02 -0.21054955264E+02  0.83616264850E+02  0.00000000000E+00 0. -1.
</event>
<event>
 7    1  0.3001243E-009  0.1122711E+03  0.7561462E-02  0.1256421E+00
          2   -1    0    0  501    0  0.00000000000E+00  0.00000000000E+00  0.11791221478E+04  0.11791221478E+04  0.00000000000E+00 0. -1.
         -2   -1    0    0    0  501 -0.00000000000E+00 -0.00000000000E+00 -0.12366276427E+02  0.12366276427E+02  0.00000000000E+00 0.  1.
         25    2    1    2    0    0 -0.47100051463E+02 -0.11011628394E+02  0.82931930805E+03  0.84009392390E+03  0.12509042915E+03 0.  0.
          5    1    3    3  502    0  0.30300227881E+02 -0.34611712632E+02  0.18406360257E+03  0.18977080032E+03  0.41800000000E+01 0.  1.
         -5    1    3    3    0  502 -0.77400279344E+02  0.23600084239E+02  0.64525570547E+03  0.65032312358E+03  0.41800000000E+01 0.  1.
        -11    1    1    2    0    0  0.57834452234E+02  0.37375418656E+02  0.21822640543E+03  0.22883292991E+03  0.00000000000E+00 0. -1.
         11    1    1    2    0    0 -0.10734400770E+02 -0.26363790262E+02  0.11921015786E+03  0.12256157038E+03  0.00000000000E+00 0.  1.
</event>
<event>
 7    1  0.3001243E-009  0.1683231E+03  0.7561462E-02  0.1179608E+00
         -2   -1    0    0    0  501 -0.00000000000E+00  0.00000000000E+00  0.23302856690E+02  0.23302856690E+02  0.00000000000E+00 0. -1.
          2   -1    0    0  501    0  0.00000000000E+00 -0.00000000000E+00 -0.15089933826E+04  0.15089933826E+04  0.00000000000E+00 0.  1.
         25    2    1    2    0    0  0.14765847996E+02 -0.14360243918E+03 -0.98437060898E+03  0.10027337029E+04  0.12509873026E+03 0.  0.
          5    1    3    3  502    0  0.48355846935E+02 -0.72154767976E+02 -0.75764293564E+03  0.76261713120E+03  0.41800000000E+01 0.  1.
         -5    1    3    3    0  502 -0.33589998939E+02 -0.71447671203E+02 -0.22672767334E+03  0.24011657170E+03  0.41800000000E+01 0.  1.
        -11    1    1    2    0    0  0.31435117464E+02  0.16744567198E+02 -0.10302077873E+03  0.10900379806E+03  0.00000000000E+00 0. -1.
         11    1    1    2    0    0 -0.46200965460E+02  0.12685787198E+03 -0.39829913820E+03  0.42055873833E+03  0.00000000000E+00 0.  1.
</event>
<event>
 7    1  0.3001243E-009  0.1476235E+03  0.7561462E-02  0.1203424E+00
         -1   -1    0    0    0  501 -0.00000000000E+00  0.00000000000E+00  0.68353324484E+03  0.68353324484E+03  0.00000000000E+00 0. -1.
          1   -1    0    0  501    0  0.00000000000E+00 -0.00000000000E+00 -0.37552996780E+02  0.37552996780E+02  0.00000000000E+00 0.  1.
         25    2    1    2    0    0 -0.92158957668E+02  0.64836781111E+02  0.42514888020E+03  0.45727059468E+03  0.12509094599E+03 0.  0.
          5    1    3    3  502    0  0.27131064070E+02  0.13590496688E+01  0.35902518567E+02  0.45215095854E+02  0.41800000000E+01 0. -1.
         -5    1    3    3    0  502 -0.11929002174E+03  0.63477731442E+02  0.38924636163E+03  0.41205549883E+03  0.41800000000E+01 0. -1.
        -11    1    1    2    0    0  0.82326914228E+02 -0.17426915583E+02  0.18605998286E+03  0.20420513073E+03  0.00000000000E+00 0. -1.
         11    1    1    2    0    0  0.98320434396E+01 -0.47409865528E+02  0.34771385003E+02  0.59610516208E+02  0.00000000000E+00 0.  1.
</event>
<event>
 7    1  0.3001243E-009  0.1261596E+03  0.7561462E-02  0.1233268E+00
         -1   -1    0    0    0  501 -0.00000000000E+00  0.00000000000E+00  0.28686403917E+03  0.28686403917E+03  0.00000000000E+00 0.  1.
          1   -1    0    0  501    0  0.00000000000E+00 -0.00000000000E+00 -0.71490549230E+02  0.71490549230E+02  0.00000000000E+00 0. -1.
         25    2    1    2    0    0  0.26794719162E+02 -0.74195876273E+02  0.52278728051E+02  0.15685181788E+03  0.12508573994E+03 0.  0.
          5    1    3    3  502    0 -0.19929282923E+02  0.20291388072E+02  0.41951795882E+02  0.50856094280E+02  0.41800000000E+01 0. -1.
         -5    1    3    3    0  502  0.46724002085E+02 -0.94487264345E+02  0.10326932170E+02  0.10599572360E+03  0.41800000000E+01 0. -1.
        -11    1    1    2    0    0 -0.51395607899E+02  0.77773121799E+02  0.13395648641E+03  0.16320081873E+03  0.00000000000E+00 0.  1.
         11    1    1    2    0    0  0.24600888737E+02 -0.35772455260E+01  0.29138275485E+02  0.38301951783E+02  0.00000000000E+00 0. -1.
</event>
<event>
 7    1  0.3001243E-009  0.1209329E+03  0.7561462E-02  0.1241566E+00
          2   -1    0    0  501    0  0.00000000000E+00  0.00000000000E+00  0.13275370451E+03  0.13275370451E+03  0.00000000000E+00 0. -1.
         -2   -1    0    0    0  501 -0.00000000000E+00 -0.00000000000E+00 -0.22129370493E+03  0.22129370493E+03  0.00000000000E+00 0.  1.
         25    2    1    2    0    0 -0.41328113180E+02  0.60954882147E+02  0.64175082182E+02  0.15871798299E+03  0.12509774721E+03 0.  0.
          5    1    3    3  502    0  0.18160279460E+02  0.57470729736E+02 -0.12321594539E+02  0.61660154220E+02  0.41800000000E+01 0. -1.
         -5    1    3    3    0  502 -0.59488392641E+02  0.34841524118E+01  0.76496676720E+02  0.97057828774E+02  0.41800000000E+01 0. -1.
        -11    1    1    2    0    0  0.60657269104E+02 -0.31248168061E+01 -0.79586775010E+02  0.10011555090E+03  0.00000000000E+00 0.  1.
         11    1    1    2    0    0 -0.19329155923E+02 -0.57830065341E+02 -0.73128307595E+02  0.95213875553E+02  0.00000000000E+00 0. -1.
</event>
<event>
 6    1  0.3001243E-009  0.1090224E+03  0.7561462E-02  0.1262391E+00
          1   -1    0    0  501    0  0.00000000000E+00  0.00000000000E+00  0.84820151065E+03  0.84820151065E+03  0.00000000000E+00 0. -1.
         -1   -1    0    0    0  501 -0.00000000000E+00 -0.00000000000E+00 -0.14563074388E+02  0.14563074388E+02  0.00000000000E+00 0.  1.
          5    1    1    2  502    0 -0.38175019972E+02  0.56688741979E+02  0.22139131417E+03  0.23173806767E+03  0.41800000000E+01 0. -1.
         -5    1    1    2    0  502  0.26095227866E+02 -0.50581478491E+02  0.17634848213E+03  0.18535292399E+03  0.41800000000E+01 0. -1.
        -11    1    1    2    0    0 -0.35341007855E+02 -0.22996992237E+02  0.18023228597E+03  0.18509869096E+03  0.00000000000E+00 0.  1.
         11    1    1    2    0    0  0.47420799961E+02  0.16889728749E+02  0.25566635399E+03  0.26057490242E+03  0.00000000000E+00 0. -1.
</event>
<event>
 7    1  0.3001243E-009  0.1576807E+03  0.7561462E-02  0.1191340E+00
          4   -1    0    0  501    0  0.00000000000E+00  0.00000000000E+00  0.12254800826E+03  0.12254800826E+03  0.00000000000E+00 0. -1.
         -4   -1    0    0    0  501 -0.00000000000E+00 -0.00000000000E+00 -0.23903880948E+03  0.23903880948E+03  0.00000000000E+00 0.  1.
         25    2    1    2    0    0 -0.14545725921E+02  0.11666405212E+03 -0.17492365902E+01  0.17167346813E+03  0.12508653257E+03 0.  0.
          5    1    3    3  502    0 -0.63030294505E+02  0.30088891250E+02 -0.14763312991E+02  0.71509350525E+02  0.41800000000E+01 0. -1.
         -5    1    3    3    0  502  0.48484568584E+02  0.86575160872E+02  0.13014076401E+02  0.10016411760E+03  0.41800000000E+01 0. -1.
        -11    1    1    2    0    0  0.51096792084E+02 -0.73512518610E+02 -0.93647108316E+02  0.12955598577E+03  0.00000000000E+00 0.  1.
         11    1    1    2    0    0 -0.36551066162E+02 -0.43151533512E+02 -0.21094456313E+02  0.60357363836E+02  0.00000000000E+00 0. -1.
</event>
<event>
 7    1  0.3001243E-009  0.1076037E+03  0.7561462E-02  0.1265073E+00
         -1   -1    0    0    0  501 -0.00000000000E+00  0.00000000000E+00  0.20163302021E+02  0.20163302021E+02  0.00000000000E+00 0.  1.
          1   -1    0    0  501    0  0.00000000000E+00 -0.00000000000E+00 -0.58618623734E+03  0.58618623734E+03  0.00000000000E+00 0. -1.
         25    2    1    2    0    0 -0.46683767178E+01 -0.22518771681E+02 -0.35004857339E+03  0.37243667095E+03  0.12508469657E+03 0.  0.
          5    1    3    3  502    0 -0.62737790549E+02  0.41137999878E+01 -0.18261215088E+03  0.19317769996E+03  0.41800000000E+01 0. -1.
         -5    1    3    3    0  502  0.58069413831E+02 -0.26632571668E+02 -0.16743642251E+03  0.17925897099E+03  0.41800000000E+01 0. -1.
        -11    1    1    2    0    0  0.11191167207E+02  0.54447602768E+02 -0.15675947957E+03  0.16632293319E+03  0.00000000000E+00 0.  1.
         11    1    1    2    0    0 -0.65227904893E+01 -0.31928831088E+02 -0.59214882366E+02  0.67589935227E+02  0.00000000000E+00 0. -1.
</event>
<event>
 7    1  0.3001243E-009  0.1576652E+03  0.7561462E-02  0.1191358E+00
          2   -1    0    0  501    0  0.00000000000E+00  0.00000000000E+00  0.21097635303E+03  0.21097635303E+03  0.00000000000E+00 0.  1.
         -2   -1    0    0    0  501 -0.00000000000E+00 -0.00000000000E+00 -0.18174589074E+03  0.18174589074E+03  0.00000000000E+00 0. -1.
         25    2    1    2    0    0  0.18415418853E+01  0.12470014208E+03  0.12236776138E+03  0.21490586899E+03  0.12512852110E+03 0.  0.
          5    1    3    3  502    0 -0.59005774438E+00  0.15035439988E+03  0.10109913012E+03  0.18123272398E+03  0.41800000000E+01 0. -1.
         -5    1    3    3    0  502  0.24315996297E+01 -0.25654257793E+02  0.21268631255E+02  0.33673145014E+02  0.41800000000E+01 0. -1.
        -11    1    1    2    0    0  0.11099758936E+02  0.21465978491E+01  0.89972003462E+01  0.14448603560E+02  0.00000000000E+00 0.  1.
         11    1    1    2    0    0 -0.12941300822E+02 -0.12684673993E+03 -0.10213449943E+03  0.16336777121E+03  0.00000000000E+00 0. -1.
</event>
<event>
 7    1  0.3001243E-009  0.1274597E+03  0.7561462E-02  0.1231275E+00
          1   -1    0    0  501    0  0.00000000000E+00  0.00000000000E+00  0.58138245909E+03  0.58138245909E+03  0.00000000000E+00 0. -1.
         -1   -1    0    0    0  501 -0.00000000000E+00 -0.00000000000E+00 -0.43561955516E+02  0.43561955516E+02  0.00000000000E+00 0.  1.
         25    2    1    2    0    0 -0.88698753409E+02  0.68511479882E+02  0.34635807047E+03  0.38493280216E+03  0.12509219589E+03 0.  0.
          5    1    3    3  502    0 -0.11508830250E+02 -0.20957958972E+02  0.65496718505E+01  0.25140799895E+02  0.41800000000E+01 0. -1.
         -5    1    3    3    0  502 -0.77189923159E+02  0.89469438853E+02  0.33980839862E+03  0.35979200227E+03  0.41800000000E+01 0. -1.
        -11    1    1    2    0    0  0.57329663865E+02 -0.49382425932E+02  0.18853685516E+03  0.20315378437E+03  0.00000000000E+00 0.  1.
         11    1    1    2    0    0  0.31369089544E+02 -0.19129053950E+02  0.29255779447E+01  0.36857828071E+02  0.00000000000E+00 0. -1.
</event>
<event>
 7    1  0.3001243E-009  0.8736628E+02  0.7561462E-02  0.1309358E+00
         -1   -1    0    0    0  501 -0.00000000000E+00  0.00000000000E+00  0.76193279787E+03  0.76193279787E+03  0.00000000000E+00 0.  1.
          1   -1    0    0  501    0  0.00000000000E+00 -0.00000000000E+00 -0.19732371994E+02  0.19732371994E+02  0.00000000000E+00 0. -1.
         25    2    1    2    0    0 -0.99447072852E+00 -0.38169884627E+02  0.28175433515E+03  0.31062895448E+03  0.12508762097E+03 0.  0.
          5    1    3    3  502    0  0.28020124228E+02 -0.80767792929E+00  0.25409711854E+03  0.25567283343E+03  0.41800000000E+01 0. -1.
         -5    1    3    3    0  502 -0.29014594956E+02 -0.37362206698E+02  0.27657216607E+02  0.54956121045E+02  0.41800000000E+01 0. -1.
        -11    1    1    2    0    0 -0.29851244374E+02 -0.17972006922E+02  0.14213896359E+03  0.14634744546E+03  0.00000000000E+00 0.  1.
         11    1    1    2    0    0  0.30845715102E+02  0.56141891549E+02  0.31830712714E+03  0.32468876992E+03  0.00000000000E+00 0. -1.
</event>
<event>
 7    1  0.3001243E-009  0.8765549E+02  0.7561462E-02  0.1308631E+00
         -2   -1    0    0    0  501 -0.00000000000E+00  0.00000000000E+00  0.49331110375E+03  0.49331110375E+03  0.00000000000E+00 0.  1.
          2   -1    0    0  501    0  0.00000000000E+00 -0.00000000000E+00 -0.25955058016E+02  0.25955058016E+02  0.00000000000E+00 0. -1.
         25    2    1    2    0    0  0.69928059539E+01 -0.31433252580E+02  0.25839571434E+03  0.28888154491E+03  0.12508898070E+03 0.  0.
          5    1    3    3  502    0 -0.36115943483E+02 -0.95386438100E+01  0.14633922739E+02  0.40335730986E+02  0.41800000000E+01 0.  1.
         -5    1    3    3    0  502  0.43108749437E+02 -0.21894608770E+02  0.24376179161E+03  0.24854581392E+03  0.41800000000E+01 0.  1.
        -11    1    1    2    0    0 -0.28332697703E+02 -0.19214176028E+02  0.39681897289E+02  0.52407817089E+02  0.00000000000E+00 0. -1.
         11    1    1    2    0    0  0.21339891750E+02  0.50647428608E+02  0.16927843410E+03  0.17797679977E+03  0.00000000000E+00 0.  1.
</event>
<event>
 7    1  0.3001243E-009  0.1146831E+03  0.7561462E-02  0.1252135E+00
         -4   -1    0    0    0  501 -0.00000000000E+00  0.00000000000E+00  0.11083788394E+04  0.11083788394E+04  0.00000000000E+00 0. -1.
          4   -1    0    0  501    0  0.00000000000E+00 -0.00000000000E+00 -0.17115225401E+02  0.17115225401E+02  0.00000000000E+00 0.  1.
         25    2    1    2    0    0 -0.52722552525E+02  0.24730857346E+02  0.84197486781E+03  0.85320632112E+03  0.12509222809E+03 0.  0.
          5    1    3    3  502    0  0.22201400563E+02 -0.33809493647E+02  0.18840137577E+03  0.19273955183E+03  0.41800000000E+01 0. -1.
         -5    1    3    3    0  502 -0.74923953089E+02  0.58540350993E+02  0.65357349203E+03  0.66046676929E+03  0.41800000000E+01 0. -1.
        -11    1    1    2    0    0  0.16959552216E+02  0.26252295523E+02  0.16243651013E+03  0.16541592806E+03  0.00000000000E+00 0. -1.
         11    1    1    2    0    0  0.35763000309E+02 -0.50983152869E+02  0.86852236101E+02  0.10687181566E+03  0.00000000000E+00 0.  1.
</event>
<event>
 6    1  0.3001243E-009  0.1093680E+03  0.7561462E-02  0.1261745E+00
         -2   -1    0    0    0  501 -0.00000000000E+00  0.00000000000E+00  0.26682186220E+02  0.26682186220E+02  0.00000000000E+00 0. -1.
          2   -1    0    0  501    0  0.00000000000E+00 -0.00000000000E+00 -0.54877115044E+03  0.54877115044E+03  0.00000000000E+00 0.  1.
          5    1    1    2  502    0  0.58155362862E+02 -0.13688229619E+02 -0.21259289936E+03  0.22086789517E+03  0.41800000000E+01 0. -1.
         -5    1    1    2    0  502 -0.66049996877E+02 -0.17108613205E+02 -0.20376819073E+03  0.21492848738E+03  0.41800000000E+01 0. -1.
        -11    1    1    2    0    0  0.65211531714E+01  0.60450981415E+02 -0.79182632862E+02  0.99833541155E+02  0.00000000000E+00 0.  1.
         11    1    1    2    0    0  0.13734808433E+01 -0.29654138591E+02 -0.26545241263E+02  0.39823412949E+02  0.00000000000E+00 0. -1.
</event>
<event>
 7    1  0.3861656E-009  0.1187923E+03  0.7561462E-02  0.1245103E+00
         -2   -1    0    0    0  501 -0.00000000000E+00  0.00000000000E+00  0.24953001781E+02  0.24953001781E+02  0.00000000000E+00 0.  1.
          2   -1    0    0  501    0  0.00000000000E+00 -0.00000000000E+00 -0.69467097141E+03  0.69467097141E+03  0.00000000000E+00 0. -1.
         25    2    1    2    0    0 -0.41660959224E+02 -0.61877144816E+02 -0.36743112198E+03  0.39524423334E+03  0.12509179833E+03 0.  0.
          5    1    3    3  502    0 -0.34577338447E+02 -0.99489730777E+02 -0.29410969291E+03  0.31242884426E+03  0.41800000000E+01 0. -1.
         -5    1    3    3    0  502 -0.70836207772E+01  0.37612585961E+02 -0.73321429076E+02  0.82815389076E+02  0.41800000000E+01 0. -1.
        -11    1    1    2    0    0 -0.38143657337E+01  0.45008933727E+02 -0.49624407470E+02  0.67103914327E+02  0.00000000000E+00 0.  1.
         11    1    1    2    0    0  0.45475324957E+02  0.16868211089E+02 -0.25266244018E+03  0.25727582553E+03  0.00000000000E+00 0. -1.
</event>
<event>
 7    1  0.3001243E-009  0.2058269E+03  0.7561462E-02  0.1144914E+00
          1   -1    0    0  501    0  0.00000000000E+00  0.00000000000E+00  0.60841796511E+02  0.60841796511E+02  0.00000000000E+00 0. -1.
         -1   -1    0    0    0  501 -0.00000000000E+00 -0.00000000000E+00 -0.74944779822E+03  0.74944779822E+03  0.00000000000E+00 0.  1.
         25    2    1    2    0    0 -0.76187316654E+02 -0.16116629875E+03 -0.27792650321E+03  0.35308730564E+03  0.12509364951E+03 0.  0.
          5    1    3    3  502    0 -0.10925775523E+03 -0.13087027924E+03 -0.23868867300E+03  0.29334969249E+03  0.41800000000E+01 0. -1.
         -5    1    3    3    0  502  0.33070438574E+02 -0.30296019517E+02 -0.39237830208E+02  0.59737613155E+02  0.41800000000E+01 0. -1.
        -11    1    1    2    0    0  0.76896716157E+02  0.67244816902E+02 -0.16359925904E+03  0.19287220617E+03  0.00000000000E+00 0. -1.
         11    1    1    2    0    0 -0.70939950350E+00  0.93921481852E+02 -0.24708023946E+03  0.26433008292E+03  0.00000000000E+00 0.  1.
</event>
<event>
 7    1  0.3001243E-009  0.5918913E+02  0.7561462E-02  0.1401266E+00
         -2   -1    0    0    0  501 -0.00000000000E+00  0.00000000000E+00  0.14048930547E+03  0.14048930547E+03  0.00000000000E+00 0.  1.
          2   -1    0    0  501    0  0.00000000000E+00 -0.00000000000E+00 -0.11512127752E+03  0.11512127752E+03  0.00000000000E+00 0. -1.
         25    2    1    2    0    0  0.34685473026E+02  0.14251649441E+02  0.70523222312E+02  0.14841507670E+03  0.12508924237E+03 0.  0.
          5    1    3    3  502    0  0.22778041324E+02  0.29530530205E+02  0.10341564532E+03  0.11001436032E+03  0.41800000000E+01 0. -1.
         -5    1    3    3    0  502  0.11907431702E+02 -0.15278880764E+02 -0.32892423005E+02  0.38400716377E+02  0.41800000000E+01 0. -1.
        -11    1    1    2    0    0 -0.26942558988E+02  0.14957022244E+02  0.19054361986E+02  0.36230963414E+02  0.00000000000E+00 0.  1.
         11    1    1    2    0    0 -0.77429140384E+01 -0.29208671684E+02 -0.64209556346E+02  0.70964542875E+02  0.00000000000E+00 0. -1.
</event>
<event>
 7    1  0.3001243E-009  0.9543831E+02  0.7561462E-02  0.1290192E+00
          1   -1    0    0  501    0  0.00000000000E+00  0.00000000000E+00  0.12006335694E+03  0.12006335694E+03  0.00000000000E+00 0. -1.
         -1   -1    0    0    0  501 -0.00000000000E+00 -0.00000000000E+00 -0.19996147170E+03  0.19996147170E+03  0.00000000000E+00 0.  1.
         25    2    1    2    0    0 -0.11097874505E+00  0.61167544172E+02 -0.13523299923E+03  0.19410342981E+03  0.12508675632E+03 0.  0.
          5    1    3    3  502    0  0.42055255686E+02 -0.67908200188E+01 -0.95603405597E+02  0.10474847650E+03  0.41800000000E+01 0. -1.
         -5    1    3    3    0  502 -0.42166234431E+02  0.67958364191E+02 -0.39629593629E+02  0.89354953309E+02  0.41800000000E+01 0. -1.
        -11    1    1    2    0    0  0.14130140269E+02 -0.41451351674E+02  0.80106795832E+02  0.91296079643E+02  0.00000000000E+00 0. -1.
         11    1    1    2    0    0 -0.14019161524E+02 -0.19716192498E+02 -0.24771911363E+02  0.34625319190E+02  0.00000000000E+00 0.  1.
</event>
<event>
 7    1  0.3001243E-009  0.1281787E+03  0.7561462E-02  0.1230183E+00
          4   -1    0    0  501    0  0.00000000000E+00  0.00000000000E+00  0.19870555052E+03  0.19870555052E+03  0.00000000000E+00 0.  1.
         -4   -1    0    0    0  501 -0.00000000000E+00 -0.00000000000E+00 -0.11547977509E+03  0.11547977509E+03  0.00000000000E+00 0. -1.
         25    2    1    2    0    0 -0.59653919860E+02 -0.85638865306E+02  0.43154641499E+02  0.16852489437E+03  0.12508281870E+03 0.  0.
          5    1    3    3  502    0  0.15727715353E+02 -0.10929789625E+02 -0.32616501615E+02  0.38054302110E+02  0.41800000000E+01 0.  1.
         -5    1    3    3    0  502 -0.75381635213E+02 -0.74709075681E+02  0.75771143114E+02  0.13047059226E+03  0.41800000000E+01 0.  1.
        -11    1    1    2    0    0  0.43746117995E+01  0.73899024168E+02  0.48531583566E+02  0.88518459119E+02  0.00000000000E+00 0.  1.
         11    1    1    2    0    0  0.55279308061E+02  0.11739841138E+02 -0.84604496329E+01  0.57141972119E+02  0.00000000000E+00 0. -1.
</event>
<event>
 7    1  0.3001243E-009  0.1146253E+03  0.7561462E-02  0.1252237E+00
         -1   -1    0    0    0  501 -0.00000000000E+00  0.00000000000E+00  0.49712336604E+02  0.49712336604E+02  0.00000000000E+00 0.  1.
          1   -1    0    0  501    0  0.00000000000E+00 -0.00000000000E+00 -0.44775896804E+03  0.44775896804E+03  0.00000000000E+00 0. -1.
         25    2    1    2    0    0  0.48510729530E+01  0.95272435453E+02 -0.15044336250E+03  0.21767269419E+03  0.12509127312E+03 0.  0.
          5    1    3    3  502    0  0.92600458701E+01 -0.16029527498E+02 -0.87760893129E+02  0.89789425681E+02  0.41800000000E+01 0.  1.
         -5    1    3    3    0  502 -0.44089729170E+01  0.11130196295E+03 -0.62682469374E+02  0.12788326851E+03  0.41800000000E+01 0.  1.
        -11    1    1    2    0    0  0.10645949424E+02 -0.41524542337E+02 -0.23636479617E+02  0.48952089068E+02  0.00000000000E+00 0.  1.
         11    1    1    2    0    0 -0.15497022377E+02 -0.53747893116E+02 -0.22396678932E+03  0.23084652138E+03  0.00000000000E+00 0. -1.
</event>
<event>
 7    1  0.3001243E-009  0.1442443E+03  0.7561462E-02  0.1207729E+00
          2   -1    0    0  501    0  0.00000000000E+00  0.00000000000E+00  0.30391622538E+03  0.30391622538E+03  0.00000000000E+00 0. -1.
         -2   -1    0    0    0  501 -0.00000000000E+00 -0.00000000000E+00 -0.92059242664E+02  0.92059242664E+02  0.00000000000E+00 0.  1.
         25    2    1    2    0    0  0.67372123327E+01  0.97965827243E+02  0.20933703615E+03  0.26289133355E+03  0.12508862943E+03 0.  0.
          5    1    3    3  502    0  0.28117145237E+02 -0.21181175417E+02  0.29764964427E+02  0.46288676322E+02  0.41800000000E+01 0. -1.
         -5    1    3    3    0  502 -0.21379932904E+02  0.11914700266E+03  0.17957207173E+03  0.21660265723E+03  0.41800000000E+01 0. -1.
        -11    1    1    2    0    0  0.40800417142E+02 -0.44479971733E+02 -0.75201353484E+01  0.60825112906E+02  0.00000000000E+00 0.  1.
         11    1    1    2    0    0 -0.47537629474E+02 -0.53485855510E+02  0.10040081907E+02  0.72259021585E+02  0.00000000000E+00 0. -1.
</event>
<event>
 7    1  0.3001243E-009  0.1319729E+03  0.7561462E-02  0.1224557E+00
         -1   -1    0    0    0  501 -0.00000000000E+00  0.00000000000E+00  0.44035874351E+03  0.44035874351E+03  0.00000000000E+00 0.  1.
          1   -1    0    0  501    0  0.00000000000E+00 -0.00000000000E+00 -0.54265254240E+02  0.54265254240E+02  0.00000000000E+00 0. -1.
         25    2    1    2    0    0  0.10907105781E+03 -0.66845348556E+01  0.20440120683E+03  0.26338072686E+03  0.12509346612E+03 0.  0.
          5    1    3    3  502    0  0.35213037240E+02  0.40302624049E+02  0.15216556246E+03  0.16135702742E+03  0.41800000000E+01 0.  1.
         -5    1    3    3    0  502  0.73858020571E+02 -0.46987158904E+02  0.52235644370E+02  0.10202369944E+03  0.41800000000E+01 0.  1.
        -11    1    1    2    0    0 -0.81441778405E+02 -0.20377181952E+02  0.17196633701E+03  0.19136460979E+03  0.00000000000E+00 0.  1.
         11    1    1    2    0    0 -0.27629279406E+02  0.27061716807E+02  0.97259454232E+01  0.39878661104E+02  0.00000000000E+00 0. -1.
</event>
<event>
 7    1  0.3001243E-009  0.1122807E+03  0.7561462E-02  0.1256404E+00
          2   -1    0    0  501    0  0.00000000000E+00  0.00000000000E+00  0.10161014381E+04  0.10161014381E+04  0.00000000000E+00 0. -1.
         -2   -1    0    0    0  501 -0.00000000000E+00 -0.00000000000E+00 -0.21121000307E+02  0.21121000307E+02  0.00000000000E+00 0.  1.
         25    2    1    2    0    0  0.93428169303E+02 -0.30488112048E+02  0.49038078020E+03  0.51553902617E+03  0.12509528417E+03 0.  0.
          5    1    3    3  502    0  0.27856779667E+02  0.56709681858E+00  0.39310733015E+03  0.39411567743E+03  0.41800000000E+01 0. -1.
         -5    1    3    3    0  502  0.65571389636E+02 -0.31055208866E+02  0.97273450043E+02  0.12142334874E+03  0.41800000000E+01 0. -1.
        -11    1    1    2    0    0 -0.62957876033E+02 -0.18854457376E+02  0.17323472880E+03  0.18528209838E+03  0.00000000000E+00 0.  1.
         11    1    1    2    0    0 -0.30470293270E+02  0.49342569424E+02  0.33136492877E+03  0.33640131383E+03  0.00000000000E+00 0. -1.
</event>
<event>
 7    1  0.3001243E-009  0.1167891E+03  0.7561462E-02  0.1248490E+00
          2   -1    0    0  501    0  0.00000000000E+00  0.00000000000E+00  0.17274292217E+04  0.17274292217E+04  0.00000000000E+00 0.  1.
         -2   -1    0    0    0  501 -0.00000000000E+00 -0.00000000000E+00 -0.10147148834E+02  0.10147148834E+02  0.00000000000E+00 0. -1.
         25    2    1    2    0    0 -0.41429184061E+02 -0.18061550179E+02  0.13387942909E+04  0.13453849715E+04  0.12509185185E+03 0.  0.
          5    1    3    3  502    0  0.29564796039E+02  0.33374663880E+02  0.50643612538E+03  0.50841220171E+03  0.41800000000E+01 0.  1.
         -5    1    3    3    0  502 -0.70993980100E+02 -0.51436214059E+02  0.83235816553E+03  0.83697276984E+03  0.41800000000E+01 0.  1.
        -11    1    1    2    0    0  0.67812243077E+02  0.27261307449E+02  0.23869852804E+03  0.24963706953E+03  0.00000000000E+00 0. -1.
         11    1    1    2    0    0 -0.26383059015E+02 -0.91997572702E+01  0.13978925389E+03  0.14255432943E+03  0.00000000000E+00 0.  1.
</event>
<event>
 6    1  0.3001243E-009  0.8107692E+02  0.7561462E-02  0.1326023E+00
          2   -1    0    0  501    0  0.00000000000E+00  0.00000000000E+00  0.23051587966E+04  0.23051587966E+04  0.00000000000E+00 0. -1.
         -2   -1    0    0    0  501 -0.00000000000E+00 -0.00000000000E+00 -0.73454596555E+01  0.73454596555E+01  0.00000000000E+00 0.  1.
          5    1    1    2  502    0  0.49441445163E+02  0.88220216694E+01  0.17824691575E+04  0.17831814418E+04  0.41800000000E+01 0. -1.
         -5    1    1    2    0  502 -0.14620374538E+02  0.21355500700E-01  0.27054134791E+02  0.31034729207E+02  0.41800000000E+01 0. -1.
        -11    1    1    2    0    0 -0.65123132045E+02 -0.51209908726E+00  0.37959638094E+03  0.38514243728E+03  0.00000000000E+00 0.  1.
         11    1    1    2    0    0  0.30302061421E+02 -0.83312780828E+01  0.10869366374E+03  0.11314564798E+03  0.00000000000E+00 0. -1.
</event>
<event>
 7    1  0.3001243E-009  0.1498945E+03  0.7561462E-02  0.1200603E+00
          2   -1    0    0  501    0  0.00000000000E+00  0.00000000000E+00  0.66217349337E+02  0.66217349337E+02  0.00000000000E+00 0.  1.
         -2   -1    0    0    0  501 -0.00000000000E+00 -0.00000000000E+00 -0.42485841589E+03  0.42485841589E+03  0.00000000000E+00 0. -1.
         25    2    1    2    0    0 -0.11015694281E+03  0.57138384103E+02 -0.23975855311E+03  0.29754206431E+03  0.12509104387E+03 0.  0.
          5    1    3    3  502    0  0.13221977910E+02  0.12318912984E+02 -0.11470258259E+03  0.11619264680E+03  0.41800000000E+01 0. -1.
         -5    1    3    3    0  502 -0.12337892072E+03  0.44819471119E+02 -0.12505597052E+03  0.18134941751E+03  0.41800000000E+01 0. -1.
        -11    1    1    2    0    0  0.50472841603E+02  0.18322378085E+02 -0.25451142575E+02  0.59422032417E+02  0.00000000000E+00 0.  1.
         11    1    1    2    0    0  0.59684101203E+02 -0.75460762189E+02 -0.93431370871E+02  0.13411166851E+03  0.00000000000E+00 0. -1.
</event>
<event>
 7    1  0.3132829E-009  0.1211844E+03  0.7561462E-02  0.1241156E+00
          2   -1    0    0  501    0  0.00000000000E+00  0.00000000000E+00  0.25906425551E+03  0.25906425551E+03  0.00000000000E+00 0. -1.
         -2   -1    0    0    0  501 -0.00000000000E+00 -0.00000000000E+00 -0.74302161570E+02  0.74302161570E+02  0.00000000000E+00 0.  1.
         25    2    1    2    0    0 -0.79288542783E+02  0.11451292552E+02  0.63328717870E+02  0.16147866501E+03  0.12508807948E+03 0.  0.
          5    1    3    3  502    0  0.10281559918E+02  0.28775029337E+02  0.63009299388E+02  0.70152384115E+02  0.41800000000E+01 0.  1.
         -5    1    3    3    0  502 -0.89570102701E+02 -0.17323736785E+02  0.31941848163E+00  0.91326280896E+02  0.41800000000E+01 0.  1.
        -11    1    1    2    0    0  0.44647580082E+02  0.38811058719E+02  0.46555211273E+02  0.75280092872E+02  0.00000000000E+00 0.  1.
         11    1    1    2    0    0  0.34640962702E+02 -0.50262351272E+02  0.74878164800E+02  0.96607659199E+02  0.00000000000E+00 0. -1.
</event>
<event>
 7    1  0.3001243E-009  0.1175856E+03  0.7561462E-02  0.1247134E+00
         -2   -1    0    0    0  501 -0.00000000000E+00  0.00000000000E+00  0.13691440404E+03  0.13691440404E+03  0.00000000000E+00 0.  1.
          2   -1    0    0  501    0  0.00000000000E+00 -0.00000000000E+00 -0.11480124613E+03  0.11480124613E+03  0.00000000000E+00 0. -1.
         25    2    1    2    0    0  0.63079425011E+02 -0.31392637261E+02  0.78774287552E+01  0.14378456870E+03  0.12508971492E+03 0.  0.
          5    1    3    3  502    0  0.55310422366E+02  0.42012670332E+02  0.18822386149E+01  0.69608350885E+02  0.41800000000E+01 0.  1.
         -5    1    3    3    0  502  0.77690026447E+01 -0.73405307594E+02  0.59951901403E+01  0.74176217818E+02  0.41800000000E+01 0.  1.
        -11    1    1    2    0    0 -0.24889428361E+01 -0.15086437969E+02  0.26493487911E+02  0.30589219486E+02  0.00000000000E+00 0.  1.
         11    1    1    2    0    0 -0.60590482175E+02  0.46479075230E+02 -0.12257758751E+02  0.77341861977E+02  0.00000000000E+00 0. -1.
</event>
<event>
 7    1  0.3001243E-009  0.1035149E+03  0.7561462E-02  0.1273073E+00
          1   -1    0    0  501    0  0.00000000000E+00  0.00000000000E+00  0.64664123362E+02  0.64664123362E+02  0.00000000000E+00 0. -1.
         -1   -1    0    0    0  501 -0.00000000000E+00 -0.00000000000E+00 -0.33238799993E+03  0.33238799993E+03  0.00000000000E+00 0.  1.
         25    2    1    2    0    0  0.14444499629E+02  0.25454610848E+02 -0.18259805121E+02  0.12979776733E+03  0.12512976919E+03 0.  0.
          5    1    3    3  502    0 -0.50732191690E+02  0.77931866648E+01 -0.32178905247E+02  0.60724322762E+02  0.41800000000E+01 0.  1.
         -5    1    3    3    0  502  0.65176691319E+02  0.17661424184E+02  0.13919100126E+02  0.69073444563E+02  0.41800000000E+01 0.  1.
        -11    1    1    2    0    0 -0.40518782919E+02  0.11982807895E+02 -0.67305371828E+02  0.79469318175E+02  0.00000000000E+00 0. -1.
         11    1    1    2    0    0  0.26074283291E+02 -0.37437418744E+02 -0.18215869962E+03  0.18778503780E+03  0.00000000000E+00 0.  1.
</event>
<event>
 7    1  0.3001243E-009  0.1669384E+03  0.7561462E-02  0.1181079E+00
         -2   -1    0    0    0  501 -0.00000000000E+00  0.00000000000E+00  0.46858315331E+02  0.46858315331E+02  0.00000000000E+00 0.  1.
          2   -1    0    0  501    0  0.00000000000E+00 -0.00000000000E+00 -0.11800197781E+04  0.11800197781E+04  0.00000000000E+00 0. -1.
         25    2    1    2    0    0 -0.11761854368E+03  0.54208898252E+02 -0.10097979661E+04  0.10257255805E+04  0.12509319564E+03 0.  0.
          5    1    3    3  502    0  0.19276956837E+01  0.60091315632E+02 -0.32967548587E+03  0.33513889748E+03  0.41800000000E+01 0. -1.
         -5    1    3    3    0  502 -0.11954623936E+03 -0.58824173798E+01 -0.68012248026E+03  0.69058668300E+03  0.41800000000E+01 0. -1.
        -11    1    1    2    0    0  0.91821603451E+02 -0.76684033753E+02 -0.11497627704E+03  0.16592526081E+03  0.00000000000E+00 0. -1.
         11    1    1    2    0    0  0.25796940229E+02  0.22475135501E+02 -0.83872196117E+01  0.35227252147E+02  0.00000000000E+00 0.  1.
</event>
<event>
 7    1  0.3001243E-009  0.6545914E+02  0.7561462E-02  0.1376253E+00
         -1   -1    0    0    0  501 -0.00000000000E+00  0.00000000000E+00  0.15135090676E+03  0.15135090676E+03  0.00000000000E+00 0.  1.
          1   -1    0    0  501    0  0.00000000000E+00 -0.00000000000E+00 -0.83255130034E+02  0.83255130034E+02  0.00000000000E+00 0. -1.
         25    2    1    2    0    0 -0.13875547503E+02  0.22286003300E+02  0.36721989402E+02  0.13298351403E+03  0.12508762423E+03 0.  0.
          5    1    3    3  502    0 -0.28724265458E+02  0.41484934083E+02 -0.32057908688E+02  0.59927164887E+02  0.41800000000E+01 0.  1.
         -5    1    3    3    0  502  0.14848717954E+02 -0.19198930783E+02  0.68779898090E+02  0.73056349138E+02  0.41800000000E+01 0.  1.
        -11    1    1    2    0    0 -0.14302777772E+02 -0.23436975802E+02 -0.25923395871E+02  0.37760875787E+02  0.00000000000E+00 0. -1.
         11    1    1    2    0    0  0.28178325275E+02  0.11509725019E+01  0.57297183191E+02  0.63861646977E+02  0.00000000000E+00 0.  1.
</event>
<event>
 7    1  0.3001243E-009  0.1678661E+03  0.7561462E-02  0.1180092E+00
          2   -1    0    0  501    0  0.00000000000E+00  0.00000000000E+00  0.37871058707E+03  0.37871058707E+03  0.00000000000E+00 0. -1.
         -2   -1    0    0    0  501 -0.00000000000E+00 -0.00000000000E+00 -0.10329034986E+03  0.10329034986E+03  0.00000000000E+00 0.  1.
         25    2    1    2    0    0  0.79521652903E+02 -0.12345190746E+03  0.23621876535E+03  0.30497726704E+03  0.12509101316E+03 0.  0.
          5    1    3    3  502    0  0.10983702361E+03 -0.10702792769E+03  0.16245622604E+03  0.22344719027E+03  0.41800000000E+01 0. -1.
         -5    1    3    3    0  502 -0.30315370708E+02 -0.16423979766E+02  0.73762539304E+02  0.81530076763E+02  0.41800000000E+01 0. -1.
        -11    1    1    2    0    0 -0.58173147104E+02  0.10133242541E+03 -0.11837764525E+02  0.11744150950E+03  0.00000000000E+00 0.  1.
         11    1    1    2    0    0 -0.21348505799E+02  0.22119482041E+02  0.51039236390E+02  0.59582160391E+02  0.00000000000E+00 0. -1.
</event>
<event>
 7    1  0.3001243E-009  0.1254274E+03  0.7561462E-02  0.1234403E+00
         -1   -1    0    0    0  501 -0.00000000000E+00  0.00000000000E+00  0.23784878147E+02  0.23784878147E+02  0.00000000000E+00 0.  1.
          1   -1    0    0  501    0  0.00000000000E+00 -0.00000000000E+00 -0.76700540227E+03  0.76700540227E+03  0.00000000000E+00 0. -1.
         25    2    1    2    0    0  0.80458537613E+02  0.14177982002E+02 -0.39972666972E+03  0.42673451808E+03  0.12508535881E+03 0.  0.
          5    1    3    3  502    0 -0.30926744793E+02 -0.68448324917E+01 -0.13502407144E+03  0.13875261275E+03  0.41800000000E+01 0.  1.
         -5    1    3    3    0  502  0.11138528241E+03  0.21022814494E+02 -0.26470259828E+03  0.28798190534E+03  0.41800000000E+01 0.  1.
        -11    1    1    2    0    0 -0.63910010286E+02  0.20445838019E+02 -0.12175659301E+03  0.13902226314E+03  0.00000000000E+00 0.  1.
         11    1    1    2    0    0 -0.16548527327E+02 -0.34623820021E+02 -0.22173726139E+03  0.22503349919E+03  0.00000000000E+00 0. -1.
</event>
<event>
 7    1  0.3001243E-009  0.1295486E+03  0.7561462E-02  0.1228127E+00
         -1   -1    0    0    0  501 -0.00000000000E+00  0.00000000000E+00  0.21801312689E+02  0.21801312689E+02  0.00000000000E+00 0.  1.
          1   -1    0    0  501    0  0.00000000000E+00 -0.00000000000E+00 -0.97425484907E+03  0.97425484907E+03  0.00000000000E+00 0. -1.
         25    2    1    2    0    0 -0.16667199112E+02 -0.94699698658E+02 -0.48487886153E+03  0.50990670234E+03  0.12510598018E+03 0.  0.
          5    1    3    3  502    0  0.47711922473E+02 -0.14974420736E+02 -0.10418453518E+03  0.11563974487E+03  0.41800000000E+01 0.  1.
         -5    1    3    3    0  502 -0.64379121584E+02 -0.79725277922E+02 -0.38069432636E+03  0.39426695747E+03  0.41800000000E+01 0.  1.
        -11    1    1    2    0    0  0.24878115185E+02  0.22044135131E+02 -0.38387912581E+02  0.50778896612E+02  0.00000000000E+00 0.  1.
         11    1    1    2    0    0 -0.82109160728E+01  0.72655563527E+02 -0.42918676227E+03  0.43537056281E+03  0.00000000000E+00 0. -1.
</event>
<event>
 7    1  0.3001243E-009  0.1064998E+03  0.7561462E-02  0.1267192E+00
          1   -1    0    0  501    0  0.00000000000E+00  0.00000000000E+00  0.21561386127E+03  0.21561386127E+03  0.00000000000E+00 0. -1.
         -1   -1    0    0    0  501 -0.00000000000E+00 -0.00000000000E+00 -0.10639333553E+03  0.10639333553E+03  0.00000000000E+00 0.  1.
         25    2    1    2    0    0 -0.16816708421E+02 -0.93881960212E+02  0.11740949948E+02  0.15773845443E+03  0.12508775306E+03 0.  0.
          5    1    3    3  502    0 -0.13378441372E+02 -0.69847429724E+02  0.66649311286E+02  0.97556389988E+02  0.41800000000E+01 0. -1.
         -5    1    3    3    0  502 -0.34382670491E+01 -0.24034530488E+02 -0.54908361338E+02  0.60182064445E+02  0.41800000000E+01 0. -1.
        -11    1    1    2    0    0  0.35625755636E+02  0.19939652327E+02  0.44243151604E+00  0.40828665730E+02  0.00000000000E+00 0.  1.
         11    1    1    2    0    0 -0.18809047216E+02  0.73942307885E+02  0.97037144276E+02  0.12344007664E+03  0.00000000000E+00 0. -1.
</event>
<event>
 7    1  0.3001243E-009  0.1274447E+03  0.7561462E-02  0.1231297E+00
          1   -1    0    0  501    0  0.00000000000E+00  0.00000000000E+00  0.10542801152E+03  0.10542801152E+03  0.00000000000E+00 0. -1.
         -1   -1    0    0    0  501 -0.00000000000E+00 -0.00000000000E+00 -0.29534148503E+03  0.29534148503E+03  0.00000000000E+00 0.  1.
         25    2    1    2    0    0  0.24636682883E+02  0.10061695883E+03  0.87949288172E+01  0.16266567908E+03  0.12510808859E+03 0.  0.
          5    1    3    3  502    0 -0.36637965156E+02  0.76687095153E+02 -0.24869551568E+02  0.88652230931E+02  0.41800000000E+01 0. -1.
         -5    1    3    3    0  502  0.61274648039E+02  0.23929863677E+02  0.33664480386E+02  0.74013448153E+02  0.41800000000E+01 0. -1.
        -11    1    1    2    0    0 -0.85550275132E+01 -0.21339720900E+02 -0.12986016324E+03  0.13187962004E+03  0.00000000000E+00 0.  1.
         11    1    1    2    0    0 -0.16081655370E+02 -0.79277237929E+02 -0.68848239090E+02  0.10622419743E+03  0.00000000000E+00 0. -1.
</event>
<event>
 7    1  0.3001243E-009  0.1624919E+03  0.7561462E-02  0.1185912E+00
          4   -1    0    0  501    0  0.00000000000E+00  0.00000000000E+00  0.41806429554E+03  0.41806429554E+03  0.00000000000E+00 0.  1.
         -4   -1    0    0    0  501 -0.00000000000E+00 -0.00000000000E+00 -0.70753690235E+02  0.70753690235E+02  0.00000000000E+00 0. -1.
         25    2    1    2    0    0  0.16462187195E+02 -0.12748129442E+03  0.13824581235E+03  0.22645606070E+03  0.12509180134E+03 0.  0.
          5    1    3    3  502    0 -0.38556050158E+02 -0.13206901816E+02  0.73136103895E+02  0.83829310819E+02  0.41800000000E+01 0.  1.
         -5    1    3    3    0  502  0.55018237354E+02 -0.11427439261E+03  0.65109708455E+02  0.14262674988E+03  0.41800000000E+01 0.  1.
        -11    1    1    2    0    0 -0.70745948184E+01 -0.13808554879E+02  0.32635121986E+02  0.36135540217E+02  0.00000000000E+00 0. -1.
         11    1    1    2    0    0 -0.93875923771E+01  0.14128984930E+03  0.17642967097E+03  0.22622638485E+03  0.00000000000E+00 0.  1.
</event>
<event>
 7    1  0.3001243E-009  0.2306454E+03  0.7561462E-02  0.1126186E+00
          2   -1    0    0  501    0  0.00000000000E+00  0.00000000000E+00  0.60612823377E+03  0.60612823377E+03  0.00000000000E+00 0.  1.
         -2   -1    0    0    0  501 -0.00000000000E+00 -0.00000000000E+00 -0.20364066115E+03  0.20364066115E+03  0.00000000000E+00 0. -1.
         25    2    1    2    0    0 -0.21594193386E+03 -0.49387353095E+02  0.49255798799E+03  0.55437417381E+03  0.12508926259E+03 0.  0.
          5    1    3    3  502    0 -0.50763594105E+02  0.93448793352E+01  0.30361370910E+02  0.60029613524E+02  0.41800000000E+01 0. -1.
         -5    1    3    3    0  502 -0.16517833975E+03 -0.58732232430E+02  0.46219661708E+03  0.49434456029E+03  0.41800000000E+01 0. -1.
        -11    1    1    2    0    0  0.13048924125E+03  0.67321138747E+02 -0.31262819937E+02  0.15012308854E+03  0.00000000000E+00 0.  1.
         11    1    1    2    0    0  0.85452692611E+02 -0.17933785652E+02 -0.58807595430E+02  0.10527163256E+03  0.00000000000E+00 0. -1.
</event>
<event>
 7    1  0.3001243E-009  0.9808752E+02  0.7561462E-02  0.1284370E+00
         -1   -1    0    0    0  501 -0.00000000000E+00  0.00000000000E+00  0.53482013651E+02  0.53482013651E+02  0.00000000000E+00 0.  1.
          1   -1    0    0  501    0  0.00000000000E+00 -0.00000000000E+00 -0.25666306276E+03  0.25666306276E+03  0.00000000000E+00 0. -1.
         25    2    1    2    0    0  0.19228070221E+02  0.22872177563E+02 -0.66480064648E+02  0.14477699217E+03  0.12509165949E+03 0.  0.
          5    1    3    3  502    0  0.53881787482E+02  0.56542017151E+02 -0.52861270980E+02  0.94403565056E+02  0.41800000000E+01 0. -1.
         -5    1    3    3    0  502 -0.34653717261E+02 -0.33669839588E+02 -0.13618793669E+02  0.50373427111E+02  0.41800000000E+01 0. -1.
        -11    1    1    2    0    0 -0.36441985259E+02  0.49176614574E+01 -0.15620550222E+02  0.39952512725E+02  0.00000000000E+00 0.  1.
         11    1    1    2    0    0  0.17213915039E+02 -0.27789839020E+02 -0.12108043424E+03  0.12541557152E+03  0.00000000000E+00 0. -1.
</event>
<event>
 7    1  0.3001243E-009  0.1275243E+03  0.7561462E-02  0.1231176E+00
          3   -1    0    0  501    0  0.00000000000E+00  0.00000000000E+00  0.18018102752E+03  0.18018102752E+03  0.00000000000E+00 0. -1.
         -3   -1    0    0    0  501 -0.00000000000E+00 -0.00000000000E+00 -0.11294243085E+03  0.11294243085E+03  0.00000000000E+00 0.  1.
         25    2    1    2    0    0  0.43824495563E+02 -0.80289151597E+02  0.24823592119E+02  0.15694100106E+03  0.12508929935E+03 0.  0.
          5    1    3    3  502    0  0.14036281540E+02  0.19185640517E+02  0.45011946921E+02  0.51074981812E+02  0.41800000000E+01 0.  1.
         -5    1    3    3    0  502  0.29788214023E+02 -0.99474792115E+02 -0.20188354802E+02  0.10586601924E+03  0.41800000000E+01 0.  1.
        -11    1    1    2    0    0  0.27136726962E+02  0.26660689163E+02  0.97095370892E+00  0.38054395909E+02  0.00000000000E+00 0.  1.
         11    1    1    2    0    0 -0.70961222526E+02  0.53628462434E+02  0.41444050847E+02  0.98128061410E+02  0.00000000000E+00 0. -1.
</event>
<event>
 7    1  0.3001243E-009  0.1310432E+03  0.7561462E-02  0.1225916E+00
         -1   -1    0    0    0  501 -0.00000000000E+00  0.00000000000E+00  0.37660101004E+03  0.37660101004E+03  0.00000000000E+00 0.  1.
          1   -1    0    0  501    0  0.00000000000E+00 -0.00000000000E+00 -0.64946140459E+02  0.64946140459E+02  0.00000000000E+00 0. -1.
         25    2    1    2    0    0  0.88041162248E+02 -0.52914239983E+02  0.23408310454E+03  0.28459102707E+03  0.12508393107E+03 0.  0.
          5    1    3    3  502    0 -0.77114993207E+01 -0.48485147356E+02  0.26591012532E+02  0.55989562272E+02  0.41800000000E+01 0. -1.
         -5    1    3    3    0  502  0.95752661569E+02 -0.44290926264E+01  0.20749209201E+03  0.22860146479E+03  0.41800000000E+01 0. -1.
        -11    1    1    2    0    0 -0.34988651745E+02  0.53366416333E+02  0.10262720924E+01  0.63821887919E+02  0.00000000000E+00 0. -1.
         11    1    1    2    0    0 -0.53052510503E+02 -0.45217635028E+00  0.76545492942E+02  0.93134235509E+02  0.00000000000E+00 0.  1.
</event>
<event>
 7    1  0.3009666E-009  0.1052152E+03  0.7561462E-02  0.1269696E+00
          1   -1    0    0  501    0  0.00000000000E+00  0.00000000000E+00  0.43172779696E+03  0.43172779696E+03  0.00000000000E+00 0. -1.
         -1   -1    0    0    0  501 -0.00000000000E+00 -0.00000000000E+00 -0.46773843371E+02  0.46773843371E+02  0.00000000000E+00 0.  1.
         25    2    1    2    0    0  0.10395591652E+02  0.89070572132E+02  0.17496565500E+03  0.23302587478E+03  0.12508574155E+03 0.  0.
          5    1    3    3  502    0  0.27077519395E+02  0.85106179948E+02  0.41800928463E+02  0.98696727110E+02  0.41800000000E+01 0. -1.
         -5    1    3    3    0  502 -0.16681927743E+02  0.39643921839E+01  0.13316472654E+03  0.13432914767E+03  0.41800000000E+01 0. -1.
        -11    1    1    2    0    0 -0.31370677205E+02 -0.56761031900E+02  0.52777987454E+02  0.83614891559E+02  0.00000000000E+00 0.  1.
         11    1    1    2    0    0  0.20975085553E+02 -0.32309540232E+02  0.15721031113E+03  0.16186087399E+03  0.00000000000E+00 0. -1.
</event>
<event>
 7    1  0.3001243E-009  0.9909819E+02  0.7561462E-02  0.1282204E+00
         -2   -1    0    0    0  501 -0.00000000000E+00  0.00000000000E+00  0.55037546596E+02  0.55037546596E+02  0.00000000000E+00 0.  1.
          2   -1    0    0  501    0  0.00000000000E+00 -0.00000000000E+00 -0.21667339233E+03  0.21667339233E+03  0.00000000000E+00 0. -1.
         25    2    1    2    0    0  0.92975557585E+01 -0.86038694444E+01 -0.94991992020E+02  0.15758923750E+03  0.12510163115E+03 0.  0.
          5    1    3    3  502    0 -0.44841427684E+02 -0.22622965600E+02 -0.87545982118E+02  0.10101645210E+03  0.41800000000E+01 0. -1.
         -5    1    3    3    0  502  0.54138983442E+02  0.14019096155E+02 -0.74460099017E+01  0.56572785406E+02  0.41800000000E+01 0. -1.
        -11    1    1    2    0    0 -0.13077046612E+02 -0.40453345837E+02 -0.38958043826E+02  0.57664647022E+02  0.00000000000E+00 0.  1.
         11    1    1    2    0    0  0.37794908534E+01  0.49057215281E+02 -0.27685809885E+02  0.56457054398E+02  0.00000000000E+00 0. -1.
</event>
<event>
 7    1  0.3001243E-009  0.1051546E+03  0.7561462E-02  0.1269815E+00
         -2   -1    0    0    0  501 -0.00000000000E+00  0.00000000000E+00  0.20878260764E+02  0.20878260764E+02  0.00000000000E+00 0.  1.
          2   -1    0    0  501    0  0.00000000000E+00 -0.00000000000E+00 -0.61530463452E+03  0.61530463452E+03  0.00000000000E+00 0. -1.
         25    2    1    2    0    0  0.13072183653E+02 -0.54837201667E+01 -0.41005949233E+03  0.42894888248E+03  0.12508958133E+03 0.  0.
          5    1    3    3  502    0  0.46043825212E+02  0.45281315704E+02 -0.19250542734E+03  0.20309171167E+03  0.41800000000E+01 0. -1.
         -5    1    3    3    0  502 -0.32971641558E+02 -0.50765035871E+02 -0.21755406499E+03  0.22585717082E+03  0.41800000000E+01 0. -1.
        -11    1    1    2    0    0  0.30498183766E+02  0.22752868293E+02 -0.12999957350E+03  0.13545376089E+03  0.00000000000E+00 0. -1.
         11    1    1    2    0    0 -0.43570367419E+02 -0.17269148127E+02 -0.54367307922E+02  0.71780251913E+02  0.00000000000E+00 0.  1.
</event>
<event>
 7    1  0.3001243E-009  0.1616498E+03  0.7561462E-02  0.1186847E+00
          1   -1    0    0  501    0  0.00000000000E+00  0.00000000000E+00  0.14303438576E+03  0.14303438576E+03  0.00000000000E+00 0. -1.
         -1   -1    0    0    0  501 -0.00000000000E+00 -0.00000000000E+00 -0.22805852516E+03  0.22805852516E+03  0.00000000000E+00 0.  1.
         25    2    1    2    0    0 -0.11870024234E+03 -0.19530178278E+00 -0.12541798240E+03  0.21323060622E+03  0.12509130844E+03 0.  0.
          5    1    3    3  502    0 -0.97359509451E+01  0.50711910053E+02 -0.32090973971E+02  0.60940869476E+02  0.41800000000E+01 0. -1.
         -5    1    3    3    0  502 -0.10896429139E+03 -0.50907211836E+02 -0.93327008431E+02  0.15228973675E+03  0.41800000000E+01 0. -1.
        -11    1    1    2    0    0  0.55880529906E+02  0.46833377685E+02  0.86263736370E+01  0.73419433463E+02  0.00000000000E+00 0.  1.
         11    1    1    2    0    0  0.62819712430E+02 -0.46638075902E+02  0.31767469367E+02  0.84442871242E+02  0.00000000000E+00 0. -1.
</event>
<event>
 7    1  0.3001243E-009  0.2330094E+03  0.7561462E-02  0.1124539E+00
         -1   -1    0    0    0  501 -0.00000000000E+00  0.00000000000E+00  0.65004437929E+02  0.65004437929E+02  0.00000000000E+00 0.  1.
          1   -1    0    0  501    0  0.00000000000E+00 -0.00000000000E+00 -0.13617064330E+04  0.13617064330E+04  0.00000000000E+00 0. -1.
         25    2    1    2    0    0 -0.11280977556E+03 -0.18643368199E+03 -0.10688705138E+04  0.10980048486E+04  0.12508760615E+03 0.  0.
          5    1    3    3  502    0  0.23259211120E+02 -0.48086186475E+02 -0.31642881863E+03  0.32093292429E+03  0.41800000000E+01 0. -1.
         -5    1    3    3    0  502 -0.13606898667E+03 -0.13834749552E+03 -0.75244169513E+03  0.77707192436E+03  0.41800000000E+01 0. -1.
        -11    1    1    2    0    0  0.55458524716E+02  0.10496297151E+03 -0.58755409329E+02  0.13245781018E+03  0.00000000000E+00 0.  1.
         11    1    1    2    0    0  0.57351250839E+02  0.81470710479E+02 -0.16907607200E+03  0.19624821212E+03  0.00000000000E+00 0. -1.
</event>
<event>
 6    1  0.3001243E-009  0.1350412E+03  0.7561462E-02  0.1220162E+00
         -1   -1    0    0    0  501 -0.00000000000E+00  0.00000000000E+00  0.10584897629E+03  0.10584897629E+03  0.00000000000E+00 0.  1.
          1   -1    0    0  501    0  0.00000000000E+00 -0.00000000000E+00 -0.27715819930E+03  0.27715819930E+03  0.00000000000E+00 0. -1.
          5    1    1    2  502    0 -0.50448727264E+01 -0.14242405134E+02  0.44296344302E+02  0.46988672713E+02  0.41800000000E+01 0.  1.
         -5    1    1    2    0  502 -0.69082610629E+01 -0.10539364900E+03 -0.73677990266E+02  0.12884666844E+03  0.41800000000E+01 0.  1.
        -11    1    1    2    0    0 -0.87436543925E+01 -0.12334467414E+02 -0.51194830079E+01  0.15962446078E+02  0.00000000000E+00 0.  1.
         11    1    1    2    0    0  0.20696788182E+02  0.13197052154E+03 -0.13680809404E+03  0.19120938835E+03  0.00000000000E+00 0. -1.
</event>
<event>
 7    1  0.3001243E-009  0.2699826E+03  0.7561462E-02  0.1101290E+00
         -2   -1    0    0    0  501 -0.00000000000E+00  0.00000000000E+00  0.34181942153E+03  0.34181942153E+03  0.00000000000E+00 0. -1.
          2   -1    0    0  501    0  0.00000000000E+00 -0.00000000000E+00 -0.25392434290E+03  0.25392434290E+03  0.00000000000E+00 0.  1.
         25    2    1    2    0    0  0.84240550161E+02 -0.25630058697E+03 -0.69350805406E+01  0.29745967242E+03  0.12509076785E+03 0.  0.
          5    1    3    3  502    0  0.39649773461E+02 -0.12033524199E+03 -0.65621266415E+02  0.14274557088E+03  0.41800000000E+01 0. -1.
         -5    1    3    3    0  502  0.44590776699E+02 -0.13596534498E+03  0.58686185875E+02  0.15471410154E+03  0.41800000000E+01 0. -1.
        -11    1    1    2    0    0 -0.50074644930E+02  0.17021392723E+03  0.10325200784E+03  0.20528328770E+03  0.00000000000E+00 0. -1.
         11    1    1    2    0    0 -0.34165905231E+02  0.86086659745E+02 -0.84218486788E+01  0.93000804305E+02  0.00000000000E+00 0.  1.
</event>
<event>
 7    1  0.3001243E-009  0.9837944E+02  0.7561462E-02  0.1283741E+00
         -2   -1    0    0    0  501 -0.00000000000E+00  0.00000000000E+00  0.32513793604E+03  0.32513793604E+03  0.00000000000E+00 0.  1.
          2   -1    0    0  501    0  0.00000000000E+00 -0.00000000000E+00 -0.41461798355E+02  0.41461798355E+02  0.00000000000E+00 0. -1.
         25    2    1    2    0    0 -0.12228492838E+02 -0.43764847718E+02  0.17153346687E+03  0.21710914471E+03  0.12509097700E+03 0.  0.
          5    1    3    3  502    0 -0.15648990485E+02  0.40976894082E+02  0.34767998817E+02  0.56127380961E+02  0.41800000000E+01 0. -1.
         -5    1    3    3    0  502  0.34204976466E+01 -0.84741741799E+02  0.13676546805E+03  0.16098176375E+03  0.41800000000E+01 0. -1.
        -11    1    1    2    0    0  0.29545461267E+02  0.40547062359E+02  0.12010412299E+03  0.13016143402E+03  0.00000000000E+00 0.  1.
         11    1    1    2    0    0 -0.17316968429E+02  0.32177853585E+01 -0.79614521709E+01  0.19329155669E+02  0.00000000000E+00 0. -1.
</event>
<event>
 7    1  0.3001243E-009  0.1157965E+03  0.7561462E-02  0.1250197E+00
          1   -1    0    0  501    0  0.00000000000E+00  0.00000000000E+00  0.30105016390E+03  0.30105016390E+03  0.00000000000E+00 0. -1.
         -1   -1    0    0    0  501 -0.00000000000E+00 -0.00000000000E+00 -0.78414008135E+02  0.78414008135E+02  0.00000000000E+00 0.  1.
         25    2    1    2    0    0  0.97070094158E+02 -0.25485388914E+02  0.98049737917E+02  0.18797173519E+03  0.12509002317E+03 0.  0.
          5    1    3    3  502    0  0.30053052352E+02  0.28341546321E+02 -0.16515723496E+02  0.44684121633E+02  0.41800000000E+01 0. -1.
         -5    1    3    3    0  502  0.67017041806E+02 -0.53826935235E+02  0.11456546141E+03  0.14328761355E+03  0.41800000000E+01 0. -1.
        -11    1    1    2    0    0 -0.34412917158E+02  0.22837547165E+02 -0.10450975442E+02  0.42603113918E+02  0.00000000000E+00 0.  1.
         11    1    1    2    0    0 -0.62657177001E+02  0.26478417486E+01  0.13503739329E+03  0.14888932293E+03  0.00000000000E+00 0. -1.
</event>
<event>
 7    1  0.3001243E-009  0.9678150E+02  0.7561462E-02  0.1287213E+00
          1   -1    0    0  501    0  0.00000000000E+00  0.00000000000E+00  0.73436067325E+02  0.73436067325E+02  0.00000000000E+00 0. -1.
         -1   -1    0    0    0  501 -0.00000000000E+00 -0.00000000000E+00 -0.22986740859E+03  0.22986740859E+03  0.00000000000E+00 0.  1.
         25    2    1    2    0    0  0.38697872306E+01 -0.24283017691E+02 -0.92579093632E+01  0.12781923426E+03  0.12508959813E+03 0.  0.
          5    1    3    3  502    0  0.43327535797E+02 -0.55273756787E+02 -0.25627583415E+02  0.74877960571E+02  0.41800000000E+01 0. -1.
         -5    1    3    3    0  502 -0.39457748566E+02  0.30990739096E+02  0.16369674052E+02  0.52941273693E+02  0.41800000000E+01 0. -1.
        -11    1    1    2    0    0 -0.32072947724E+02 -0.47050095331E+01 -0.12545968972E+03  0.12957987820E+03  0.00000000000E+00 0.  1.
         11    1    1    2    0    0  0.28203160494E+02  0.28988027224E+02 -0.21713742182E+02  0.45904363450E+02  0.00000000000E+00 0. -1.
</event>
<event>
 7    1  0.3001243E-009  0.8797273E+02  0.7561462E-02  0.1307837E+00
         -1   -1    0    0    0  501 -0.00000000000E+00  0.00000000000E+00  0.86255791121E+02  0.86255791121E+02  0.00000000000E+00 0.  1.
          1   -1    0    0  501    0  0.00000000000E+00 -0.00000000000E+00 -0.13109147479E+03  0.13109147479E+03  0.00000000000E+00 0. -1.
         25    2    1    2    0    0  0.12613802689E+02 -0.17143190636E+01 -0.33188231037E+02  0.13004253807E+03  0.12509019195E+03 0.  0.
          5    1    3    3  502    0  0.79543205199E+01 -0.45148061460E+02 -0.62240681839E+02  0.77414427237E+02  0.41800000000E+01 0. -1.
         -5    1    3    3    0  502  0.46594821686E+01  0.43433742396E+02  0.29052450802E+02  0.52628110837E+02  0.41800000000E+01 0. -1.
        -11    1    1    2    0    0  0.29583442469E+02  0.24194869921E+02 -0.98151218712E+01  0.39457678798E+02  0.00000000000E+00 0.  1.
         11    1    1    2    0    0 -0.42197245157E+02 -0.22480550858E+02 -0.18323307600E+01  0.47847049039E+02  0.00000000000E+00 0. -1.
</event>
<event>
 7    1  0.3001243E-009  0.2393879E+03  0.7561462E-02  0.1120201E+00
          1   -1    0    0  501    0  0.00000000000E+00  0.00000000000E+00  0.12985438306E+03  0.12985438306E+03  0.00000000000E+00 0. -1.
         -1   -1    0    0    0  501 -0.00000000000E+00 -0.00000000000E+00 -0.10018141140E+04  0.10018141140E+04  0.00000000000E+00 0.  1.
         25    2    1    2    0    0 -0.10108731950E+03  0.19800793265E+03 -0.85308853206E+03  0.89041191488E+03  0.12509015577E+03 0.  0.
          5    1    3    3  502    0 -0.69054137938E+02  0.20961035575E+03 -0.74343580919E+03  0.77551225006E+03  0.41800000000E+01 0. -1.
         -5    1    3    3    0  502 -0.32033181562E+02 -0.11602423104E+02 -0.10965272287E+03  0.11489966482E+03  0.41800000000E+01 0. -1.
        -11    1    1    2    0    0  0.41426760798E+02 -0.55745494280E+02  0.35104207622E+02  0.77820575913E+02  0.00000000000E+00 0. -1.
         11    1    1    2    0    0  0.59660558703E+02 -0.14226243837E+03 -0.53975406482E+02  0.16343600625E+03  0.00000000000E+00 0.  1.
</event>
<event>
 7    1  0.3001243E-009  0.8332254E+02  0.7561462E-02  0.1319878E+00
          2   -1    0    0  501    0  0.00000000000E+00  0.00000000000E+00  0.24486932121E+03  0.24486932121E+03  0.00000000000E+00 0. -1.
         -2   -1    0    0    0  501 -0.00000000000E+00 -0.00000000000E+00 -0.52746166163E+02  0.52746166163E+02  0.00000000000E+00 0.  1.
         25    2    1    2    0    0 -0.21864666092E+02  0.26364061618E+02  0.11191355258E+03  0.17130526101E+03  0.12509085431E+03 0.  0.
          5    1    3    3  502    0  0.22817219429E+02 -0.22446062527E+02 -0.89082483766E+01  0.33485526942E+02  0.41800000000E+01 0.  1.
         -5    1    3    3    0  502 -0.44681885521E+02  0.48810124144E+02  0.12082180096E+03  0.13781973407E+03  0.41800000000E+01 0.  1.
        -11    1    1    2    0    0  0.62722927753E+01  0.19044106048E+02  0.75444829892E+02  0.78063704686E+02  0.00000000000E+00 0. -1.
         11    1    1    2    0    0  0.15592373317E+02 -0.45408167666E+02  0.47647725778E+01  0.48246521679E+02  0.00000000000E+00 0.  1.
</event>
<event>
 7    1  0.3001243E-009  0.1089032E+03  0.7561462E-02  0.1262615E+00
         -2   -1    0    0    0  501 -0.00000000000E+00  0.00000000000E+00  0.29680288341E+03  0.29680288341E+03  0.00000000000E+00 0. -1.
          2   -1    0    0  501    0  0.00000000000E+00 -0.00000000000E+00 -0.65055836255E+02  0.65055836255E+02  0.00000000000E+00 0.  1.
         25    2    1    2    0    0  0.29889242654E+02 -0.43036503661E+02  0.21633150104E+03  0.25532706259E+03  0.12508830111E+03 0.  0.
          5    1    3    3  502    0  0.19239584871E+01  0.43730820752E+02  0.61508198157E+02  0.75609636559E+02  0.41800000000E+01 0. -1.
         -5    1    3    3    0  502  0.27965284167E+02 -0.86767324413E+02  0.15482330288E+03  0.17971742603E+03  0.41800000000E+01 0. -1.
        -11    1    1    2    0    0 -0.49085282252E+02  0.21106045973E+02 -0.23117957222E+02  0.58217437736E+02  0.00000000000E+00 0.  1.
         11    1    1    2    0    0  0.19196039598E+02  0.21930457688E+02  0.38533503334E+02  0.48314219334E+02  0.00000000000E+00 0. -1.
</event>
<event>
 7    1  0.3001243E-009  0.1873803E+03  0.7561462E-02  0.1160846E+00
          3   -1    0    0  501    0  0.00000000000E+00  0.00000000000E+00  0.26068192971E+02  0.26068192971E+02  0.00000000000E+00 0. -1.
         -3   -1    0    0    0  501 -0.00000000000E+00 -0.00000000000E+00 -0.16420232125E+04  0.16420232125E+04  0.00000000000E+00 0.  1.
         25    2    1    2    0    0  0.15967368470E+03 -0.48252319220E+02 -0.61686711535E+03  0.65115094775E+03  0.12509415199E+03 0.  0.
          5    1    3    3  502    0  0.47656403622E+02 -0.55132442039E+02 -0.11017343276E+03  0.13216042016E+03  0.41800000000E+01 0.  1.
         -5    1    3    3    0  502  0.11201728108E+03  0.68801228190E+01 -0.50669368259E+03  0.51899052759E+03  0.41800000000E+01 0.  1.
        -11    1    1    2    0    0 -0.57276004766E+02 -0.26072999274E+02 -0.30754658137E+03  0.31391916432E+03  0.00000000000E+00 0.  1.
         11    1    1    2    0    0 -0.10239767993E+03  0.74325318494E+02 -0.69154132277E+03  0.70302129337E+03  0.00000000000E+00 0. -1.
</event>
<event>
 7    1  0.3001243E-009  0.1824918E+03  0.7561462E-02  0.1165413E+00
         -2   -1    0    0    0  501 -0.00000000000E+00  0.00000000000E+00  0.32547719033E+02  0.32547719033E+02  0.00000000000E+00 0.  1.
          2   -1    0    0  501    0  0.00000000000E+00 -0.00000000000E+00 -0.11938824503E+04  0.11938824503E+04  0.00000000000E+00 0. -1.
         25    2    1    2    0    0  0.80784978801E+02  0.13928314449E+03 -0.71170642605E+03  0.74034256051E+03  0.12512019374E+03 0.  0.
          5    1    3    3  502    0  0.20383442944E+02  0.14169403495E+03 -0.48901089713E+03  0.50955060024E+03  0.41800000000E+01 0.  1.
         -5    1    3    3    0  502  0.60401535856E+02 -0.24108904605E+01 -0.22269552892E+03  0.23079196028E+03  0.41800000000E+01 0.  1.
        -11    1    1    2    0    0 -0.27995133826E+02 -0.55235422370E+02 -0.30142372086E+03  0.30771892841E+03  0.00000000000E+00 0. -1.
         11    1    1    2    0    0 -0.52789844974E+02 -0.84047722124E+02 -0.14820458432E+03  0.17836868037E+03  0.00000000000E+00 0.  1.
</event>
<event>
 7    1  0.3001243E-009  0.9710221E+02  0.7561462E-02  0.1286510E+00
          1   -1    0    0  501    0  0.00000000000E+00  0.00000000000E+00  0.47919123914E+02  0.47919123914E+02  0.00000000000E+00 0. -1.
         -1   -1    0    0    0  501 -0.00000000000E+00 -0.00000000000E+00 -0.42647310535E+03  0.42647310535E+03  0.00000000000E+00 0.  1.
         25    2    1    2    0    0 -0.51763318407E+02  0.63442001733E+02 -0.27853755759E+03  0.31612429302E+03  0.12508824460E+03 0.  0.
          5    1    3    3  502    0 -0.35649377494E+02  0.29651081917E+02 -0.13572283520E+02  0.48494783787E+02  0.41800000000E+01 0. -1.
         -5    1    3    3    0  502 -0.16113940914E+02  0.33790919816E+02 -0.26496527407E+03  0.26762950924E+03  0.41800000000E+01 0. -1.
        -11    1    1    2    0    0  0.68206002148E+02 -0.63993518629E+02 -0.50923051327E+02  0.10649124993E+03  0.00000000000E+00 0. -1.
         11    1    1    2    0    0 -0.16442683741E+02  0.55151689665E+00 -0.49093372524E+02  0.51776686311E+02  0.00000000000E+00 0.  1.
</event>
<event>
 7    1  0.3001243E-009  0.1161904E+03  0.7561462E-02  0.1249517E+00
         -2   -1    0    0    0  501 -0.00000000000E+00  0.00000000000E+00  0.24609945207E+02  0.24609945207E+02  0.00000000000E+00 0. -1.
          2   -1    0    0  501    0  0.00000000000E+00 -0.00000000000E+00 -0.89014172036E+03  0.89014172036E+03  0.00000000000E+00 0.  1.
         25    2    1    2    0    0 -0.79845381280E+02 -0.69574995921E+01 -0.65376171369E+03  0.67042995587E+03  0.12509298836E+03 0.  0.
          5    1    3    3  502    0 -0.72017804311E+02 -0.55000496543E+02 -0.30317936430E+03  0.31645982066E+03  0.41800000000E+01 0. -1.
         -5    1    3    3    0  502 -0.78275769691E+01  0.48042996951E+02 -0.35058234939E+03  0.35397013521E+03  0.41800000000E+01 0. -1.
        -11    1    1    2    0    0  0.41329233341E+02 -0.19884842161E+02 -0.18431625767E+03  0.18993681928E+03  0.00000000000E+00 0.  1.
         11    1    1    2    0    0  0.38516147940E+02  0.26842341754E+02 -0.27453803800E+02  0.54384890420E+02  0.00000000000E+00 0. -1.
</event>
<event>
 7    1  0.3001243E-009  0.2254045E+03  0.7561462E-02  0.1129917E+00
         -1   -1    0    0    0  501 -0.00000000000E+00  0.00000000000E+00  0.73750867142E+02  0.73750867142E+02  0.00000000000E+00 0.  1.
          1   -1    0    0  501    0  0.00000000000E+00 -0.00000000000E+00 -0.75216350035E+03  0.75216350035E+03  0.00000000000E+00 0. -1.
         25    2    1    2    0    0 -0.19545157937E+03  0.69821017760E+02 -0.36839391221E+03  0.44095221503E+03  0.12509391270E+03 0.  0.
          5    1    3    3  502    0 -0.93658165382E+02 -0.24322138261E+02 -0.10232932249E+03  0.14089776788E+03  0.41800000000E+01 0.  1.
         -5    1    3    3    0  502 -0.10179341399E+03  0.94143156021E+02 -0.26606458971E+03  0.30005444715E+03  0.41800000000E+01 0.  1.
        -11    1    1    2    0    0  0.11852411253E+03 -0.71259494824E+02 -0.25595002932E+03  0.29092318292E+03  0.00000000000E+00 0. -1.
         11    1    1    2    0    0  0.76927466842E+02  0.14384770640E+01 -0.54068691688E+02  0.94038969538E+02  0.00000000000E+00 0.  1.
</event>
<event>
 7    1  0.3001243E-009  0.1753564E+03  0.7561462E-02  0.1172374E+00
          1   -1    0    0  501    0  0.00000000000E+00  0.00000000000E+00  0.53758103415E+03  0.53758103415E+03  0.00000000000E+00 0. -1.
         -1   -1    0    0    0  501 -0.00000000000E+00 -0.00000000000E+00 -0.75831627396E+02  0.75831627396E+02  0.00000000000E+00 0.  1.
         25    2    1    2    0    0  0.12386701443E+03 -0.54392229053E+02  0.39099168932E+03  0.43223094534E+03  0.12509011610E+03 0.  0.
          5    1    3    3  502    0  0.14907562541E+03 -0.53252190690E+02  0.32733439048E+03  0.36362702525E+03  0.41800000000E+01 0.  1.
         -5    1    3    3    0  502 -0.25208610982E+02 -0.11400383627E+01  0.63657298842E+02  0.68603920085E+02  0.41800000000E+01 0.  1.
        -11    1    1    2    0    0 -0.13925488845E+03  0.58197415213E+02  0.64756519867E+02  0.16423236575E+03  0.00000000000E+00 0.  1.
         11    1    1    2    0    0  0.15387874021E+02 -0.38051861601E+01  0.60011975639E+01  0.16949350454E+02  0.00000000000E+00 0. -1.
</event>
<event>
 7    1  0.3001243E-009  0.1126384E+03  0.7561462E-02  0.1255760E+00
         -2   -1    0    0    0  501 -0.00000000000E+00  0.00000000000E+00  0.33645723351E+02  0.33645723351E+02  0.00000000000E+00 0. -1.
          2   -1    0    0  501    0  0.00000000000E+00 -0.00000000000E+00 -0.59568945180E+03  0.59568945180E+03  0.00000000000E+00 0.  1.
         25    2    1    2    0    0  0.33513620942E+02 -0.46799380673E+02 -0.14962501755E+03  0.20334345585E+03  0.12509024878E+03 0.  0.
          5    1    3    3  502    0  0.62727079516E+02  0.14755545540E+01 -0.27274750732E+02  0.68543768450E+02  0.41800000000E+01 0. -1.
         -5    1    3    3    0  502 -0.29213458574E+02 -0.48274935227E+02 -0.12235026682E+03  0.13479968740E+03  0.41800000000E+01 0. -1.
        -11    1    1    2    0    0 -0.62217405227E+02  0.45500024546E+02 -0.32301346000E+03  0.33208275036E+03  0.00000000000E+00 0.  1.
         11    1    1    2    0    0  0.28703784285E+02  0.12993561271E+01 -0.89405250897E+02  0.93908968936E+02  0.00000000000E+00 0. -1.
</event>
<event>
 7    1  0.3001243E-009  0.9771528E+02  0.7561462E-02  0.1285175E+00
          1   -1    0    0  501    0  0.00000000000E+00  0.00000000000E+00  0.61293239144E+03  0.61293239144E+03  0.00000000000E+00 0. -1.
         -1   -1    0    0    0  501 -0.00000000000E+00 -0.00000000000E+00 -0.21948986317E+02  0.21948986317E+02  0.00000000000E+00 0.  1.
         25    2    1    2    0    0 -0.44313380644E+01 -0.39204879699E+02  0.35389139587E+03  0.37741771610E+03  0.12509337715E+03 0.  0.
          5    1    3    3  502    0 -0.17321184649E+02 -0.64449116234E+02  0.90766314552E+02  0.11273734199E+03  0.41800000000E+01 0. -1.
         -5    1    3    3    0  502  0.12889846584E+02  0.25244236535E+02  0.26312508132E+03  0.26468037411E+03  0.41800000000E+01 0. -1.
        -11    1    1    2    0    0  0.47089831835E+02  0.31258011017E+02  0.14620279137E+03  0.15674747755E+03  0.00000000000E+00 0. -1.
         11    1    1    2    0    0 -0.42658493770E+02  0.79468686824E+01  0.90889217890E+02  0.10071618411E+03  0.00000000000E+00 0.  1.
</event>
<event>
 7    1  0.3001243E-009  0.4592146E+02  0.7561462E-02  0.1468670E+00
         -2   -1    0    0    0  501 -0.00000000000E+00  0.00000000000E+00  0.17442774793E+03  0.17442774793E+03  0.00000000000E+00 0. -1.
          2   -1    0    0  501    0  0.00000000000E+00 -0.00000000000E+00 -0.79751656851E+02  0.79751656851E+02  0.00000000000E+00 0.  1.
         25    2    1    2    0    0  0.13651009235E+02 -0.36547129856E+02  0.29998821227E+02  0.13442235481E+03  0.12508955769E+03 0.  0.
          5    1    3    3  502    0 -0.96237583038E+01 -0.10051375225E+02  0.75396705362E+02  0.76783998641E+02  0.41800000000E+01 0.  1.
         -5    1    3    3    0  502  0.23274767539E+02 -0.26495754632E+02 -0.45397884135E+02  0.57638356165E+02  0.41800000000E+01 0.  1.
        -11    1    1    2    0    0  0.22702214518E+01  0.14086410749E+02 -0.23438832706E+02  0.27440112096E+02  0.00000000000E+00 0.  1.
         11    1    1    2    0    0 -0.15921230687E+02  0.22460719107E+02  0.88116102558E+02  0.92316937880E+02  0.00000000000E+00 0. -1.
</event>
<event>
 7    1  0.3001243E-009  0.9213423E+02  0.7561462E-02  0.1297764E+00
          2   -1    0    0  501    0  0.00000000000E+00  0.00000000000E+00  0.32438132425E+02  0.32438132425E+02  0.00000000000E+00 0. -1.
         -2   -1    0    0    0  501 -0.00000000000E+00 -0.00000000000E+00 -0.57202390029E+03  0.57202390029E+03  0.00000000000E+00 0.  1.
         25    2    1    2    0    0 -0.20168877185E+02 -0.76450649973E+02 -0.20084327002E+03  0.24947379886E+03  0.12509065400E+03 0.  0.
          5    1    3    3  502    0 -0.29825679542E+02 -0.62979347177E+02 -0.27090430867E+02  0.74882128546E+02  0.41800000000E+01 0.  1.
         -5    1    3    3    0  502  0.96568023577E+01 -0.13471302795E+02 -0.17375283915E+03  0.17459167032E+03  0.41800000000E+01 0.  1.
        -11    1    1    2    0    0  0.32198440050E+02  0.16425958507E+02 -0.20142729039E+03  0.20464482639E+03  0.00000000000E+00 0.  1.
         11    1    1    2    0    0 -0.12029562865E+02  0.60024691466E+02 -0.13731520746E+03  0.15034340746E+03  0.00000000000E+00 0. -1.
</event>
<event>
 7    1  0.3001243E-009  0.7270005E+02  0.7561462E-02  0.1351145E+00
         -2   -1    0    0    0  501 -0.00000000000E+00  0.00000000000E+00  0.35982496133E+02  0.35982496133E+02  0.00000000000E+00 0.  1.
          2   -1    0    0  501    0  0.00000000000E+00 -0.00000000000E+00 -0.37927228517E+03  0.37927228517E+03  0.00000000000E+00 0. -1.
         25    2    1    2    0    0  0.27361943114E+02 -0.15525631625E+02 -0.13765550806E+03  0.18864331714E+03  0.12509013164E+03 0.  0.
          5    1    3    3  502    0 -0.37714670990E+01  0.15130598562E+02 -0.14346266272E+03  0.14436816468E+03  0.41800000000E+01 0.  1.
         -5    1    3    3    0  502  0.31133410213E+02 -0.30656230186E+02  0.58071546604E+01  0.44275152467E+02  0.41800000000E+01 0.  1.
        -11    1    1    2    0    0 -0.29604014576E+02 -0.28610755103E+02 -0.15007325709E+03  0.15561797930E+03  0.00000000000E+00 0. -1.
         11    1    1    2    0    0  0.22420714619E+01  0.44136386728E+02 -0.55561023883E+02  0.70993484861E+02  0.00000000000E+00 0.  1.
</event>
<event>
 7    1  0.3718997E-009  0.2105381E+03  0.7561462E-02  0.1141141E+00
         -2   -1    0    0    0  501 -0.00000000000E+00  0.00000000000E+00  0.43242035469E+02  0.43242035469E+02  0.00000000000E+00 0. -1.
          2   -1    0    0  501    0  0.00000000000E+00 -0.00000000000E+00 -0.11664988977E+04  0.11664988977E+04  0.00000000000E+00 0.  1.
         25    2    1    2    0    0 -0.17526043611E+03 -0.84013521983E+02 -0.65698399337E+03  0.69644918277E+03  0.12505600466E+03 0.  0.
          5    1    3    3  502    0 -0.95288695463E+02 -0.10599756692E+03 -0.33831439350E+03  0.36713692395E+03  0.41800000000E+01 0. -1.
         -5    1    3    3    0  502 -0.79971740648E+02  0.21984044934E+02 -0.31866959986E+03  0.32931225882E+03  0.41800000000E+01 0. -1.
        -11    1    1    2    0    0  0.90127636156E+02  0.31816695555E+02 -0.33491143077E+03  0.34828287264E+03  0.00000000000E+00 0.  1.
         11    1    1    2    0    0  0.85132799955E+02  0.52196826428E+02 -0.13136143806E+03  0.16500887772E+03  0.00000000000E+00 0. -1.
</event>
<event>
 7    1  0.3001243E-009  0.2445597E+03  0.7561462E-02  0.1116792E+00
         -2   -1    0    0    0  501 -0.00000000000E+00  0.00000000000E+00  0.31098988887E+03  0.31098988887E+03  0.00000000000E+00 0.  1.
          2   -1    0    0  501    0  0.00000000000E+00 -0.00000000000E+00 -0.23320096584E+03  0.23320096584E+03  0.00000000000E+00 0. -1.
         25    2    1    2    0    0  0.55743067587E+02 -0.23339726739E+03  0.93048903601E+02  0.28615819986E+03  0.12508734099E+03 0.  0.
          5    1    3    3  502    0 -0.13612821593E+02 -0.27645774490E+02 -0.24160406531E+02  0.39380139697E+02  0.41800000000E+01 0. -1.
         -5    1    3    3    0  502  0.69355889180E+02 -0.20575149291E+03  0.11720931013E+03  0.24677806016E+03  0.41800000000E+01 0. -1.
        -11    1    1    2    0    0 -0.52309947734E+02  0.18268888309E+03 -0.49965148468E+02  0.19648937554E+03  0.00000000000E+00 0.  1.
         11    1    1    2    0    0 -0.34331198533E+01  0.50708384303E+02  0.34705167894E+02  0.61543279317E+02  0.00000000000E+00 0. -1.
</event>
<event>
 7    1  0.3001243E-009  0.9850582E+02  0.7561462E-02  0.1283470E+00
         -2   -1    0    0    0  501 -0.00000000000E+00  0.00000000000E+00  0.11650915875E+02  0.11650915875E+02  0.00000000000E+00 0.  1.
          2   -1    0    0  501    0  0.00000000000E+00 -0.00000000000E+00 -0.17303612332E+04  0.17303612332E+04  0.00000000000E+00 0. -1.
         25    2    1    2    0    0 -0.59717997133E+02 -0.23314824242E+02 -0.13338604558E+04  0.13412459935E+04  0.12508908496E+03 0.  0.
          5    1    3    3  502    0  0.12557875544E+02 -0.31095144278E+02 -0.94639817975E+03  0.94700137026E+03  0.41800000000E+01 0. -1.
         -5    1    3    3    0  502 -0.72275872677E+02  0.77803200364E+01 -0.38746227606E+03  0.39424462320E+03  0.41800000000E+01 0. -1.
        -11    1    1    2    0    0  0.55212259439E+02  0.43143276501E+02 -0.36724577752E+03  0.37387056184E+03  0.00000000000E+00 0. -1.
         11    1    1    2    0    0  0.45057376943E+01 -0.19828452259E+02 -0.17604083964E+02  0.26895593754E+02  0.00000000000E+00 0.  1.
</event>
<event>
 7    1  0.3001243E-009  0.7222493E+02  0.7561462E-02  0.1352686E+00
          2   -1    0    0  501    0  0.00000000000E+00  0.00000000000E+00  0.83497658981E+02  0.83497658981E+02  0.00000000000E+00 0.  1.
         -2   -1    0    0    0  501 -0.00000000000E+00 -0.00000000000E+00 -0.21276327029E+03  0.21276327029E+03  0.00000000000E+00 0. -1.
         25    2    1    2    0    0 -0.33895842180E+02  0.21066272222E+02 -0.14565682033E+03  0.19610162338E+03  0.12508885419E+03 0.  0.
          5    1    3    3  502    0 -0.55039398716E+02  0.32804728423E+02 -0.18818938199E+02  0.66911213208E+02  0.41800000000E+01 0. -1.
         -5    1    3    3    0  502  0.21143556536E+02 -0.11738456201E+02 -0.12683788213E+03  0.12919041018E+03  0.41800000000E+01 0. -1.
        -11    1    1    2    0    0  0.40967868215E+02 -0.93641525172E+01  0.49146960088E+02  0.64664343068E+02  0.00000000000E+00 0.  1.
         11    1    1    2    0    0 -0.70720260346E+01 -0.11702119705E+02 -0.32755751066E+02  0.35494962822E+02  0.00000000000E+00 0. -1.
</event>
<event>
 6    1  0.3001243E-009  0.6171630E+02  0.7561462E-02  0.1390767E+00
         -4   -1    0    0    0  501 -0.00000000000E+00  0.00000000000E+00  0.35654707682E+03  0.35654707682E+03  0.00000000000E+00 0.  1.
          4   -1    0    0  501    0  0.00000000000E+00 -0.00000000000E+00 -0.33337029277E+02  0.33337029277E+02  0.00000000000E+00 0. -1.
          5    1    1    2  502    0 -0.25484388583E+02  0.14448201881E+02  0.21302157653E+03  0.21506712689E+03  0.41800000000E+01 0. -1.
         -5    1    1    2    0  502  0.12889137254E+02 -0.17652185649E+02 -0.94189934042E+01  0.24164423314E+02  0.41800000000E+01 0. -1.
        -11    1    1    2    0    0 -0.28758969017E+02 -0.56188025066E+01  0.66610190733E+01  0.30050264818E+02  0.00000000000E+00 0. -1.
         11    1    1    2    0    0  0.41354220346E+02  0.88227862748E+01  0.11294644534E+03  0.12060229108E+03  0.00000000000E+00 0.  1.
</event>
<event>
 7    1  0.3001243E-009  0.1858361E+03  0.7561462E-02  0.1162271E+00
          2   -1    0    0  501    0  0.00000000000E+00  0.00000000000E+00  0.45801337977E+03  0.45801337977E+03  0.00000000000E+00 0. -1.
         -2   -1    0    0    0  501 -0.00000000000E+00 -0.00000000000E+00 -0.80778252131E+02  0.80778252131E+02  0.00000000000E+00 0.  1.
         25    2    1    2    0    0 -0.14520054046E+03 -0.41500829053E+02  0.13325194150E+03  0.23708208845E+03  0.12508525488E+03 0.  0.
          5    1    3    3  502    0 -0.14678047951E+03 -0.72384928024E+02  0.10183107207E+03  0.19279814991E+03  0.41800000000E+01 0. -1.
         -5    1    3    3    0  502  0.15799390494E+01  0.30884098970E+02  0.31420869427E+02  0.44283938535E+02  0.41800000000E+01 0. -1.
        -11    1    1    2    0    0  0.35454328123E+02 -0.29433591552E+02  0.52068724853E+02  0.69530553011E+02  0.00000000000E+00 0.  1.
         11    1    1    2    0    0  0.10974621234E+03  0.70934420606E+02  0.19191446129E+03  0.23217899044E+03  0.00000000000E+00 0. -1.
</event>
<event>
 7    1  0.3001243E-009  0.1082270E+03  0.7561462E-02  0.1263889E+00
         -1   -1    0    0    0  501 -0.00000000000E+00  0.00000000000E+00  0.13090674379E+03  0.13090674379E+03  0.00000000000E+00 0.  1.
          1   -1    0    0  501    0  0.00000000000E+00 -0.00000000000E+00 -0.11173341256E+03  0.11173341256E+03  0.00000000000E+00 0. -1.
         25    2    1    2    0    0 -0.13255692380E+02  0.51729211922E+02  0.71860080581E+01  0.13619309264E+03  0.12508115375E+03 0.  0.
          5    1    3    3  502    0 -0.27170995746E+02  0.78155492008E+02  0.39679827480E+02  0.91861335989E+02  0.41800000000E+01 0. -1.
         -5    1    3    3    0  502  0.13915303366E+02 -0.26426280086E+02 -0.32493819422E+02  0.44331756649E+02  0.41800000000E+01 0. -1.
        -11    1    1    2    0    0 -0.38044368061E+02 -0.18302086168E+02 -0.59716532694E+01  0.42638022257E+02  0.00000000000E+00 0. -1.
         11    1    1    2    0    0  0.51300060440E+02 -0.33427125754E+02  0.17958976438E+02  0.63809041460E+02  0.00000000000E+00 0.  1.
</event>
<event>
 7    1  0.3001243E-009  0.1182569E+03  0.7561462E-02  0.1246001E+00
          2   -1    0    0  501    0  0.00000000000E+00  0.00000000000E+00  0.11058084366E+03  0.11058084366E+03  0.00000000000E+00 0. -1.
         -2   -1    0    0    0  501 -0.00000000000E+00 -0.00000000000E+00 -0.13700663071E+03  0.13700663071E+03  0.00000000000E+00 0.  1.
         25    2    1    2    0    0  0.44940701401E+02  0.41459516581E+01  0.39178196423E+01  0.13304703600E+03  0.12509719789E+03 0.  0.
          5    1    3    3  502    0  0.42700854241E+00 -0.53679915731E+02 -0.17940766446E+02  0.56754375953E+02  0.41800000000E+01 0.  1.
         -5    1    3    3    0  502  0.44513692858E+02  0.57825867389E+02  0.21858586088E+02  0.76292660047E+02  0.41800000000E+01 0.  1.
        -11    1    1    2    0    0 -0.76660868188E+02 -0.10029367459E+02 -0.27872073414E+02  0.82184727288E+02  0.00000000000E+00 0. -1.
         11    1    1    2    0    0  0.31720166788E+02  0.58834158012E+01 -0.24715332803E+01  0.32355711077E+02  0.00000000000E+00 0.  1.
</event>
<event>
 7    1  0.3001243E-009  0.9825760E+02  0.7561462E-02  0.1284003E+00
          2   -1    0    0  501    0  0.00000000000E+00  0.00000000000E+00  0.40394146724E+03  0.40394146724E+03  0.00000000000E+00 0. -1.
         -2   -1    0    0    0  501 -0.00000000000E+00 -0.00000000000E+00 -0.30776922674E+02  0.30776922674E+02  0.00000000000E+00 0.  1.
         25    2    1    2    0    0  0.82276942215E+00 -0.41396313199E+01  0.16624808118E+03  0.20809340868E+03  0.12508648506E+03 0.  0.
          5    1    3    3  502    0  0.55060390692E+01  0.57906399107E+02  0.10809975301E+03  0.12282710012E+03  0.41800000000E+01 0. -1.
         -5    1    3    3    0  502 -0.46832696470E+01 -0.62046030427E+02  0.58148328167E+02  0.85266308558E+02  0.41800000000E+01 0. -1.
        -11    1    1    2    0    0  0.37059276768E+02  0.74771602655E+01  0.38463210767E+02  0.53932518046E+02  0.00000000000E+00 0.  1.
         11    1    1    2    0    0 -0.37882046190E+02 -0.33375289456E+01  0.16845325262E+03  0.17269246319E+03  0.00000000000E+00 0. -1.
</event>
<event>
 7    1  0.3001243E-009  0.1075605E+03  0.7561462E-02  0.1265155E+00
          2   -1    0    0  501    0  0.00000000000E+00  0.00000000000E+00  0.29720010440E+03  0.29720010440E+03  0.00000000000E+00 0. -1.
         -2   -1    0    0    0  501 -0.00000000000E+00 -0.00000000000E+00 -0.77209813716E+02  0.77209813716E+02  0.00000000000E+00 0.  1.
         25    2    1    2    0    0 -0.67300922514E+02  0.51654428163E+02  0.20639874366E+03  0.25582481188E+03  0.12509316077E+03 0.  0.
          5    1    3    3  502    0 -0.69574036018E+02  0.96706297272E+00  0.18992952011E+03  0.20231702031E+03  0.41800000000E+01 0. -1.
         -5    1    3    3    0  502  0.22731135046E+01  0.50687365190E+02  0.16469223551E+02  0.53507791576E+02  0.41800000000E+01 0. -1.
        -11    1    1    2    0    0  0.58317122237E+02 -0.58957440723E+02 -0.18070304542E+02  0.84872860614E+02  0.00000000000E+00 0.  1.
         11    1    1    2    0    0  0.89838002761E+01  0.73030125598E+01  0.31661851570E+02  0.33712245619E+02  0.00000000000E+00 0. -1.
</event>
<event>
 7    1  0.3001243E-009  0.1179232E+03  0.7561462E-02  0.1246563E+00
          2   -1    0    0  501    0  0.00000000000E+00  0.00000000000E+00  0.62076648712E+03  0.62076648712E+03  0.00000000000E+00 0. -1.
         -2   -1    0    0    0  501 -0.00000000000E+00 -0.00000000000E+00 -0.27452440376E+02  0.27452440376E+02  0.00000000000E+00 0.  1.
         25    2    1    2    0    0  0.41963092338E+02 -0.51468974322E+02  0.39563474635E+03  0.42021722700E+03  0.12508280824E+03 0.  0.
          5    1    3    3  502    0 -0.17285093994E+02 -0.68767656774E+02  0.13737672556E+03  0.15465316750E+03  0.41800000000E+01 0.  1.
         -5    1    3    3    0  502  0.59248186332E+02  0.17298682452E+02  0.25825802079E+03  0.26556405951E+03  0.41800000000E+01 0.  1.
        -11    1    1    2    0    0 -0.52372707985E+02  0.20104940610E+01  0.52110795912E+02  0.73908576489E+02  0.00000000000E+00 0.  1.
         11    1    1    2    0    0  0.10409615647E+02  0.49458480261E+02  0.14556850449E+03  0.15409312401E+03  0.00000000000E+00 0. -1.
</event>
<event>
 7    1  0.3001243E-009  0.1024642E+03  0.7561462E-02  0.1275198E+00
         -2   -1    0    0    0  501 -0.00000000000E+00  0.00000000000E+00  0.14904906793E+03  0.14904906793E+03  0.00000000000E+00 0.  1.
          2   -1    0    0  501    0  0.00000000000E+00 -0.00000000000E+00 -0.85756320387E+02  0.85756320387E+02  0.00000000000E+00 0. -1.
         25    2    1    2    0    0 -0.14700773760E+02 -0.14668723443E+02  0.89679465789E+01  0.12713735350E+03  0.12510874626E+03 0.  0.
          5    1    3    3  502    0 -0.40357290013E+02  0.45092585410E+02 -0.36025545259E+01  0.60765968397E+02  0.41800000000E+01 0.  1.
         -5    1    3    3    0  502  0.25656516253E+02 -0.59761308853E+02  0.12570501105E+02  0.66371385100E+02  0.41800000000E+01 0.  1.
        -11    1    1    2    0    0 -0.21779025004E+02  0.32002825977E+02 -0.15296707956E+01  0.38740762684E+02  0.00000000000E+00 0. -1.
         11    1    1    2    0    0  0.36479798764E+02 -0.17334102534E+02  0.55854471758E+02  0.68927272134E+02  0.00000000000E+00 0.  1.
</event>
<event>
 7    1  0.3001243E-009  0.9055504E+02  0.7561462E-02  0.1301513E+00
          1   -1    0    0  501    0  0.00000000000E+00  0.00000000000E+00  0.58398618874E+03  0.58398618874E+03  0.00000000000E+00 0. -1.
         -1   -1    0    0    0  501 -0.00000000000E+00 -0.00000000000E+00 -0.32620263042E+02  0.32620263042E+02  0.00000000000E+00 0.  1.
         25    2    1    2    0    0  0.36379178598E+02 -0.72037939443E+02  0.36532476530E+03  0.39448996599E+03  0.12508892743E+03 0.  0.
          5    1    3    3  502    0  0.12036200226E+02 -0.20846199401E+01  0.28445316222E+03  0.28474600902E+03  0.41800000000E+01 0.  1.
         -5    1    3    3    0  502  0.24342978372E+02 -0.69953319503E+02  0.80871603086E+02  0.10974395697E+03  0.41800000000E+01 0.  1.
        -11    1    1    2    0    0  0.15630909017E+01  0.50222542984E+02  0.26753369643E+02  0.56925300739E+02  0.00000000000E+00 0.  1.
         11    1    1    2    0    0 -0.37942269500E+02  0.21815396459E+02  0.15928779075E+03  0.16519118505E+03  0.00000000000E+00 0. -1.
</event>
<event>
 7    1  0.3001243E-009  0.7360538E+02  0.7561462E-02  0.1348245E+00
          2   -1    0    0  501    0  0.00000000000E+00  0.00000000000E+00  0.31518075835E+03  0.31518075835E+03  0.00000000000E+00 0. -1.
         -2   -1    0    0    0  501 -0.00000000000E+00 -0.00000000000E+00 -0.47749311442E+02  0.47749311442E+02  0.00000000000E+00 0.  1.
         25    2    1    2    0    0 -0.23591660863E+02 -0.48229984345E+02  0.18789558597E+03  0.23201673481E+03  0.12507724075E+03 0.  0.
          5    1    3    3  502    0  0.88724092614E+01 -0.32055603009E+02  0.19233778178E+03  0.19523723014E+03  0.41800000000E+01 0.  1.
         -5    1    3    3    0  502 -0.32464070124E+02 -0.16174381337E+02 -0.44421958130E+01  0.36779504677E+02  0.41800000000E+01 0.  1.
        -11    1    1    2    0    0 -0.17733299122E+02  0.78262916468E+01  0.69627935062E+02  0.72275653437E+02  0.00000000000E+00 0.  1.
         11    1    1    2    0    0  0.41324959985E+02  0.40403692698E+02  0.99079258765E+01  0.58637681542E+02  0.00000000000E+00 0. -1.
</event>
<event>
 7    1  0.3001243E-009  0.1138174E+03  0.7561462E-02  0.1253660E+00
         -1   -1    0    0    0  501 -0.00000000000E+00  0.00000000000E+00  0.18314346148E+03  0.18314346148E+03  0.00000000000E+00 0.  1.
          1   -1    0    0  501    0  0.00000000000E+00 -0.00000000000E+00 -0.13715727847E+03  0.13715727847E+03  0.00000000000E+00 0. -1.
         25    2    1    2    0    0  0.27130308581E+02  0.81059831430E+02 -0.52284345603E+02  0.16027299308E+03  0.12508808737E+03 0.  0.
          5    1    3    3  502    0  0.17128394972E+02  0.87232613000E+02  0.16374274171E+02  0.90490330642E+02  0.41800000000E+01 0. -1.
         -5    1    3    3    0  502  0.10001913609E+02 -0.61727815702E+01 -0.68658619774E+02  0.69782662441E+02  0.41800000000E+01 0. -1.
        -11    1    1    2    0    0 -0.61890008194E+02 -0.50440326481E+02  0.58574074433E+02  0.99022834970E+02  0.00000000000E+00 0.  1.
         11    1    1    2    0    0  0.34759699614E+02 -0.30619504949E+02  0.39696454180E+02  0.61004911893E+02  0.00000000000E+00 0. -1.
</event>
<event>
 7    1  0.3001243E-009  0.1304768E+03  0.7561462E-02  0.1226750E+00
         -1   -1    0    0    0  501 -0.00000000000E+00  0.00000000000E+00  0.21858995940E+02  0.21858995940E+02  0.00000000000E+00 0. -1.
          1   -1    0    0  501    0  0.00000000000E+00 -0.00000000000E+00 -0.10617259610E+04  0.10617259610E+04  0.00000000000E+00 0.  1.
         25    2    1    2    0    0  0.27830286326E+02  0.83168492991E+02 -0.77411602949E+03  0.78904663472E+03  0.12508973412E+03 0.  0.
          5    1    3    3  502    0  0.69383912042E+02  0.84054193159E+02 -0.61148210155E+03  0.62113369539E+03  0.41800000000E+01 0. -1.
         -5    1    3    3    0  502 -0.41553625716E+02 -0.88570016759E+00 -0.16263392794E+03  0.16791293932E+03  0.41800000000E+01 0. -1.
        -11    1    1    2    0    0 -0.37441959370E+02 -0.13532103950E+02 -0.17646531247E+03  0.18090059332E+03  0.00000000000E+00 0.  1.
         11    1    1    2    0    0  0.96116730444E+01 -0.69636389041E+02 -0.89285623097E+02  0.11363772890E+03  0.00000000000E+00 0. -1.
</event>
<event>
 7    1  0.3001243E-009  0.1826271E+03  0.7561462E-02  0.1165284E+00
          1   -1    0    0  501    0  0.00000000000E+00  0.00000000000E+00  0.35176309342E+03  0.35176309342E+03  0.00000000000E+00 0. -1.
         -1   -1    0    0    0  501 -0.00000000000E+00 -0.00000000000E+00 -0.11322606559E+03  0.11322606559E+03  0.00000000000E+00 0.  1.
         25    2    1    2    0    0  0.14147708686E+03  0.65772832131E+02  0.19448851881E+03  0.27895579052E+03  0.12509483427E+03 0.  0.
          5    1    3    3  502    0  0.14292512828E+03  0.11599460524E+02  0.12177185445E+03  0.18817012705E+03  0.41800000000E+01 0.  1.
         -5    1    3    3    0  502 -0.14480414178E+01  0.54173371608E+02  0.72716664358E+02  0.90785663464E+02  0.41800000000E+01 0.  1.
        -11    1    1    2    0    0 -0.20597629212E+02  0.11874168622E+02 -0.17716140540E+02  0.29649955232E+02  0.00000000000E+00 0.  1.
         11    1    1    2    0    0 -0.12087945765E+03 -0.77647000753E+02  0.61764649560E+02  0.15638341326E+03  0.00000000000E+00 0. -1.
</event>
<event>
 7    1  0.3001243E-009  0.1358766E+03  0.7561462E-02  0.1218987E+00
          2   -1    0    0  501    0  0.00000000000E+00  0.00000000000E+00  0.10172413371E+04  0.10172413371E+04  0.00000000000E+00 0. -1.
         -2   -1    0    0    0  501 -0.00000000000E+00 -0.00000000000E+00 -0.27787503590E+02  0.27787503590E+02  0.00000000000E+00 0.  1.
         25    2    1    2    0    0 -0.62524670920E+02 -0.60066229613E+02  0.81961699892E+03  0.83362874398E+03  0.12509025324E+03 0.  0.
          5    1    3    3  502    0  0.20731166194E+02 -0.65286452594E+02  0.38031127945E+03  0.38645341740E+03  0.41800000000E+01 0. -1.
         -5    1    3    3    0  502 -0.83255837115E+02  0.52202229807E+01  0.43930571947E+03  0.44717532658E+03  0.41800000000E+01 0. -1.
        -11    1    1    2    0    0  0.66931060902E+02  0.80648967895E+01  0.61962346907E+02  0.91564960044E+02  0.00000000000E+00 0.  1.
         11    1    1    2    0    0 -0.44063899814E+01  0.52001332823E+02  0.10787448773E+03  0.11983513671E+03  0.00000000000E+00 0. -1.
</event>
<event>
 7    1  0.3001243E-009  0.9278135E+02  0.7561462E-02  0.1296253E+00
         -1   -1    0    0    0  501 -0.00000000000E+00  0.00000000000E+00  0.14851161984E+03  0.14851161984E+03  0.00000000000E+00 0.  1.
          1   -1    0    0  501    0  0.00000000000E+00 -0.00000000000E+00 -0.12220147099E+03  0.12220147099E+03  0.00000000000E+00 0. -1.
         25    2    1    2    0    0 -0.25354945764E+02  0.60721037266E+02  0.59789874041E+02  0.15345715806E+03  0.12507738677E+03 0.  0.
          5    1    3    3  502    0 -0.16530819734E+02 -0.10789386487E+02 -0.31299763006E+02  0.37240118503E+02  0.41800000000E+01 0. -1.
         -5    1    3    3    0  502 -0.88241260300E+01  0.71510423753E+02  0.91089637047E+02  0.11621703955E+03  0.41800000000E+01 0. -1.
        -11    1    1    2    0    0  0.38583470033E+02 -0.87240992310E+01  0.17490398580E+02  0.43251683316E+02  0.00000000000E+00 0.  1.
         11    1    1    2    0    0 -0.13228524269E+02 -0.51996938035E+02 -0.50970123780E+02  0.74004249455E+02  0.00000000000E+00 0. -1.
</event>
<event>
 7    1  0.3001243E-009  0.1505658E+03  0.7561462E-02  0.1199779E+00
          2   -1    0    0  501    0  0.00000000000E+00  0.00000000000E+00  0.39794561784E+02  0.39794561784E+02  0.00000000000E+00 0. -1.
         -2   -1    0    0    0  501 -0.00000000000E+00 -0.00000000000E+00 -0.65271921434E+03  0.65271921434E+03  0.00000000000E+00 0.  1.
         25    2    1    2    0    0  0.79189115623E+02  0.80695417612E+02 -0.43745712161E+03  0.46882717988E+03  0.12509006709E+03 0.  0.
          5    1    3    3  502    0  0.11042207430E+03  0.41323399615E+02 -0.31690783775E+03  0.33815485783E+03  0.41800000000E+01 0. -1.
         -5    1    3    3    0  502 -0.31232958675E+02  0.39372017997E+02 -0.12054928386E+03  0.13067232205E+03  0.41800000000E+01 0. -1.
        -11    1    1    2    0    0  0.51299462180E+00  0.11126814651E+02 -0.40607573313E+02  0.42107531133E+02  0.00000000000E+00 0.  1.
         11    1    1    2    0    0 -0.79702110245E+02 -0.91822232263E+02 -0.13485995762E+03  0.18157906511E+03  0.00000000000E+00 0. -1.
</event>
<event>
 7    1  0.3001243E-009  0.5593906E+02  0.7561462E-02  0.1415709E+00
          2   -1    0    0  501    0  0.00000000000E+00  0.00000000000E+00  0.81797369606E+02  0.81797369606E+02  0.00000000000E+00 0. -1.
         -2   -1    0    0    0  501 -0.00000000000E+00 -0.00000000000E+00 -0.17131636511E+03  0.17131636511E+03  0.00000000000E+00 0.  1.
         25    2    1    2    0    0 -0.92118450387E+01 -0.30815847066E+02 -0.91762869071E+02  0.15843239769E+03  0.12508367590E+03 0.  0.
          5    1    3    3  502    0  0.22294349899E+02 -0.17156657426E+01  0.25102084298E+02  0.33875781651E+02  0.41800000000E+01 0. -1.
         -5    1    3    3    0  502 -0.31506194938E+02 -0.29100181324E+02 -0.11686495337E+03  0.12455661604E+03  0.41800000000E+01 0. -1.
        -11    1    1    2    0    0 -0.12302999380E+02  0.79832765831E+01 -0.39688763999E+02  0.42311871697E+02  0.00000000000E+00 0.  1.
         11    1    1    2    0    0  0.21514844419E+02  0.22832570483E+02  0.41932637570E+02  0.52369465328E+02  0.00000000000E+00 0. -1.
</event>
<event>
 7    1  0.3001243E-009  0.8178027E+02  0.7561462E-02  0.1324074E+00
          3   -1    0    0  501    0  0.00000000000E+00  0.00000000000E+00  0.12741057234E+03  0.12741057234E+03  0.00000000000E+00 0. -1.
         -3   -1    0    0    0  501 -0.00000000000E+00 -0.00000000000E+00 -0.13056669618E+03  0.13056669618E+03  0.00000000000E+00 0.  1.
         25    2    1    2    0    0  0.55389373809E+02 -0.14395050521E+02  0.36365557347E+02  0.14228965295E+03  0.12509472957E+03 0.  0.
          5    1    3    3  502    0  0.27822646205E+02 -0.96810662904E-01 -0.46136000604E+02  0.54038060345E+02  0.41800000000E+01 0. -1.
         -5    1    3    3    0  502  0.27566727604E+02 -0.14298239858E+02  0.82501557951E+02  0.88251592610E+02  0.41800000000E+01 0. -1.
        -11    1    1    2    0    0 -0.76467132073E+02  0.25060174417E+02 -0.43897067536E+02  0.91663445100E+02  0.00000000000E+00 0.  1.
         11    1    1    2    0    0  0.21077758265E+02 -0.10665123896E+02  0.43753863490E+01  0.24024170472E+02  0.00000000000E+00 0. -1.
</event>
<event>
 7    1  0.3001243E-009  0.1790596E+03  0.7561462E-02  0.1168716E+00
          3   -1    0    0  501    0  0.00000000000E+00  0.00000000000E+00  0.67266643456E+02  0.67266643456E+02  0.00000000000E+00 0. -1.
         -3   -1    0    0    0  501 -0.00000000000E+00 -0.00000000000E+00 -0.67071910098E+03  0.67071910098E+03  0.00000000000E+00 0.  1.
         25    2    1    2    0    0  0.13729304180E+03  0.82917020823E+02 -0.46319052388E+03  0.50588912352E+03  0.12511487605E+03 0.  0.
          5    1    3    3  502    0  0.39514762190E+02  0.67286597285E+02 -0.33423718989E+03  0.34325045391E+03  0.41800000000E+01 0. -1.
         -5    1    3    3    0  502  0.97778279609E+02  0.15630423538E+02 -0.12895333400E+03  0.16263866961E+03  0.41800000000E+01 0. -1.
        -11    1    1    2    0    0  0.73045454407E+01 -0.23377613131E+02 -0.38145743659E+02  0.45331743173E+02  0.00000000000E+00 0.  1.
         11    1    1    2    0    0 -0.14459758724E+03 -0.59539407692E+02 -0.10211618999E+03  0.18676487775E+03  0.00000000000E+00 0. -1.
</event>
<event>
 7    1  0.3001243E-009  0.1808720E+03  0.7561462E-02  0.1166962E+00
          1   -1    0    0  501    0  0.00000000000E+00  0.00000000000E+00  0.12143663343E+04  0.12143663343E+04  0.00000000000E+00 0. -1.
         -1   -1    0    0    0  501 -0.00000000000E+00 -0.00000000000E+00 -0.47728651574E+02  0.47728651574E+02  0.00000000000E+00 0.  1.
         25    2    1    2    0    0 -0.14068756535E+03 -0.67817948859E+02  0.99836429030E+03  0.10182163425E+04  0.12506397863E+03 0.  0.
          5    1    3    3  502    0  0.91084044077E+01  0.22707438383E+02  0.13923258761E+03  0.14142763748E+03  0.41800000000E+01 0.  1.
         -5    1    3    3    0  502 -0.14979596976E+03 -0.90525387242E+02  0.85913170269E+03  0.87678870502E+03  0.41800000000E+01 0.  1.
        -11    1    1    2    0    0  0.96614058452E+02  0.67350708331E+02  0.72109076346E+02  0.13809458025E+03  0.00000000000E+00 0.  1.
         11    1    1    2    0    0  0.44073506899E+02  0.46724052851E+00  0.96164316068E+02  0.10578406311E+03  0.00000000000E+00 0. -1.
</event>
<event>
 7    1  0.3001243E-009  0.1147601E+03  0.7561462E-02  0.1252000E+00
          1   -1    0    0  501    0  0.00000000000E+00  0.00000000000E+00  0.20321949924E+03  0.20321949924E+03  0.00000000000E+00 0. -1.
         -1   -1    0    0    0  501 -0.00000000000E+00 -0.00000000000E+00 -0.68310644801E+02  0.68310644801E+02  0.00000000000E+00 0.  1.
         25    2    1    2    0    0  0.42046036880E+02  0.17733711703E+02  0.57311597965E+02  0.14496444479E+03  0.12509083597E+03 0.  0.
          5    1    3    3  502    0  0.13657241047E+02  0.69350415262E+02  0.15167055802E+02  0.72412100589E+02  0.41800000000E+01 0. -1.
         -5    1    3    3    0  502  0.28388795833E+02 -0.51616703559E+02  0.42144542163E+02  0.72552344203E+02  0.41800000000E+01 0. -1.
        -11    1    1    2    0    0 -0.34707107489E+02 -0.53155882218E+02  0.54301979774E+02  0.83539428607E+02  0.00000000000E+00 0.  1.
         11    1    1    2    0    0 -0.73389293911E+01  0.35422170515E+02  0.23295276697E+02  0.43026270638E+02  0.00000000000E+00 0. -1.
</event>
<event>
 7    1  0.3001243E-009  0.1068428E+03  0.7561462E-02  0.1266531E+00
          2   -1    0    0  501    0  0.00000000000E+00  0.00000000000E+00  0.12261444127E+03  0.12261444127E+03  0.00000000000E+00 0. -1.
         -2   -1    0    0    0  501 -0.00000000000E+00 -0.00000000000E+00 -0.12907787516E+03  0.12907787516E+03  0.00000000000E+00 0.  1.
         25    2    1    2    0    0  0.17128194157E+02 -0.54051342928E+02  0.26773124831E+02  0.13992795727E+03  0.12509240707E+03 0.  0.
          5    1    3    3  502    0 -0.37585975613E+02 -0.16113253635E+02 -0.31152141800E+02  0.51577813488E+02  0.41800000000E+01 0.  1.
         -5    1    3    3    0  502  0.54714169770E+02 -0.37938089294E+02  0.57925266630E+02  0.88350143786E+02  0.41800000000E+01 0.  1.
        -11    1    1    2    0    0  0.69416135851E+01  0.74171288120E+02 -0.29686792488E+02  0.80192715559E+02  0.00000000000E+00 0. -1.
         11    1    1    2    0    0 -0.24069807742E+02 -0.20119945191E+02 -0.35497662250E+01  0.31571643598E+02  0.00000000000E+00 0.  1.
</event>
<event>
 7    1  0.3001243E-009  0.7985951E+02  0.7561462E-02  0.1329451E+00
          2   -1    0    0  501    0  0.00000000000E+00  0.00000000000E+00  0.48128529429E+03  0.48128529429E+03  0.00000000000E+00 0. -1.
         -2   -1    0    0    0  501 -0.00000000000E+00 -0.00000000000E+00 -0.32551762043E+02  0.32551762043E+02  0.00000000000E+00 0.  1.
         25    2    1    2    0    0  0.16460782851E+02  0.22180049002E+02  0.39521083462E+03  0.41545145950E+03  0.12508157118E+03 0.  0.
          5    1    3    3  502    0  0.49308236046E+02 -0.65793567099E+01  0.63109226153E+02  0.80466371251E+02  0.41800000000E+01 0.  1.
         -5    1    3    3    0  502 -0.32847453195E+02  0.28759405712E+02  0.33210160847E+03  0.33498508824E+03  0.41800000000E+01 0.  1.
        -11    1    1    2    0    0 -0.22829606101E+02  0.15585014385E+02 -0.53470582669E+01  0.28154477801E+02  0.00000000000E+00 0.  1.
         11    1    1    2    0    0  0.63688232496E+01 -0.37765063387E+02  0.58869755889E+02  0.70231119033E+02  0.00000000000E+00 0. -1.
</event>
<event>
 7    1  0.3001243E-009  0.1260256E+03  0.7561462E-02  0.1233475E+00
         -4   -1    0    0    0  501 -0.00000000000E+00  0.00000000000E+00  0.30911619390E+03  0.30911619390E+03  0.00000000000E+00 0. -1.
          4   -1    0    0  501    0  0.00000000000E+00 -0.00000000000E+00 -0.66388591572E+02  0.66388591572E+02  0.00000000000E+00 0.  1.
         25    2    1    2    0    0 -0.10494078330E+02 -0.92601724515E+02  0.14391735770E+03  0.21223569541E+03  0.12508628820E+03 0.  0.
          5    1    3    3  502    0 -0.48196682554E+02 -0.33688667467E+02  0.82289688497E+01  0.59523397528E+02  0.41800000000E+01 0. -1.
         -5    1    3    3    0  502  0.37702604223E+02 -0.58913057048E+02  0.13568838885E+03  0.15271229788E+03  0.41800000000E+01 0. -1.
        -11    1    1    2    0    0 -0.18686833635E+01 -0.14800867164E+02 -0.24774802669E+01  0.15122683452E+02  0.00000000000E+00 0.  1.
         11    1    1    2    0    0  0.12362761694E+02  0.10740259168E+03  0.10128772489E+03  0.14814640661E+03  0.00000000000E+00 0. -1.
</event>
<event>
 7    1  0.3001243E-009  0.1367155E+03  0.7561462E-02  0.1217818E+00
          1   -1    0    0  501    0  0.00000000000E+00  0.00000000000E+00  0.78081187406E+03  0.78081187406E+03  0.00000000000E+00 0. -1.
         -1   -1    0    0    0  501 -0.00000000000E+00 -0.00000000000E+00 -0.27276597679E+02  0.27276597679E+02  0.00000000000E+00 0.  1.
         25    2    1    2    0    0 -0.88184806620E+02 -0.42023855035E+02  0.44975263961E+03  0.47693920956E+03  0.12510398982E+03 0.  0.
          5    1    3    3  502    0 -0.31985834363E+02 -0.74253258823E+02  0.33926596349E+03  0.34879149420E+03  0.41800000000E+01 0. -1.
         -5    1    3    3    0  502 -0.56198972257E+02  0.32229403788E+02  0.11048667612E+03  0.12814771536E+03  0.41800000000E+01 0. -1.
        -11    1    1    2    0    0  0.46132994459E+02 -0.21877354808E+02  0.82540492895E+02  0.97055678858E+02  0.00000000000E+00 0.  1.
         11    1    1    2    0    0  0.42051812161E+02  0.63901209842E+02  0.22124214388E+03  0.23409358332E+03  0.00000000000E+00 0. -1.
</event>
<event>
 7    1  0.3001243E-009  0.1199679E+03  0.7561462E-02  0.1243150E+00
          2   -1    0    0  501    0  0.00000000000E+00  0.00000000000E+00  0.48330594711E+03  0.48330594711E+03  0.00000000000E+00 0. -1.
         -2   -1    0    0    0  501 -0.00000000000E+00 -0.00000000000E+00 -0.34117024573E+02  0.34117024573E+02  0.00000000000E+00 0.  1.
         25    2    1    2    0    0 -0.61750707343E+02 -0.35773081554E+01  0.31003575124E+03  0.33999369638E+03  0.12509036551E+03 0.  0.
          5    1    3    3  502    0 -0.15609641169E+01 -0.55420397415E+02  0.17097274255E+03  0.17978600656E+03  0.41800000000E+01 0. -1.
         -5    1    3    3    0  502 -0.60189743226E+02  0.51843089259E+02  0.13906300868E+03  0.16020768982E+03  0.41800000000E+01 0. -1.
        -11    1    1    2    0    0  0.60226111381E+02  0.37423972101E+02  0.11744665976E+03  0.13719131193E+03  0.00000000000E+00 0. -1.
         11    1    1    2    0    0  0.15245959618E+01 -0.33846663946E+02  0.21706511537E+02  0.40237963371E+02  0.00000000000E+00 0.  1.
</event>
<event>
 7    1  0.3001243E-009  0.1063940E+03  0.7561462E-02  0.1267397E+00
         -2   -1    0    0    0  501 -0.00000000000E+00  0.00000000000E+00  0.16820821294E+03  0.16820821294E+03  0.00000000000E+00 0.  1.
          2   -1    0    0  501    0  0.00000000000E+00 -0.00000000000E+00 -0.85257884219E+02  0.85257884219E+02  0.00000000000E+00 0. -1.
         25    2    1    2    0    0 -0.95146174258E+01 -0.23504836353E+02  0.87455656634E+02  0.15472406940E+03  0.12509212804E+03 0.  0.
          5    1    3    3  502    0  0.31166426502E+02 -0.63156204860E+02  0.51754930420E+02  0.87499129002E+02  0.41800000000E+01 0. -1.
         -5    1    3    3    0  502 -0.40681043928E+02  0.39651368507E+02  0.35700726214E+02  0.67224940400E+02  0.41800000000E+01 0. -1.
        -11    1    1    2    0    0  0.11488225282E+02  0.53750590971E+02  0.21287518118E+02  0.58942885724E+02  0.00000000000E+00 0.  1.
         11    1    1    2    0    0 -0.19736078564E+01 -0.30245754618E+02 -0.25792846030E+02  0.39799142035E+02  0.00000000000E+00 0. -1.
</event>
<event>
 7    1  0.3001243E-009  0.1696861E+03  0.7561462E-02  0.1178176E+00
          1   -1    0    0  501    0  0.00000000000E+00  0.00000000000E+00  0.39897642857E+03  0.39897642857E+03  0.00000000000E+00 0. -1.
         -1   -1    0    0    0  501 -0.00000000000E+00 -0.00000000000E+00 -0.92192835558E+02  0.92192835558E+02  0.00000000000E+00 0.  1.
         25    2    1    2    0    0  0.22968521093E+02 -0.15574209009E+03  0.15851453876E+03  0.25604112328E+03  0.12508815382E+03 0.  0.
          5    1    3    3  502    0  0.51908239176E+01 -0.68189186553E+02 -0.60111769280E+01  0.68777296136E+02  0.41800000000E+01 0.  1.
         -5    1    3    3    0  502  0.17777697175E+02 -0.87552903539E+02  0.16452571569E+03  0.18726382714E+03  0.41800000000E+01 0.  1.
        -11    1    1    2    0    0 -0.52742016326E+02  0.13554093702E+03  0.12849681469E+03  0.19407343270E+03  0.00000000000E+00 0.  1.
         11    1    1    2    0    0  0.29773495233E+02  0.20201153074E+02  0.19772239564E+02  0.41054708150E+02  0.00000000000E+00 0. -1.
</event>
<event>
 7    1  0.3001243E-009  0.9025344E+02  0.7561462E-02  0.1302239E+00
          1   -1    0    0  501    0  0.00000000000E+00  0.00000000000E+00  0.51520821833E+03  0.51520821833E+03  0.00000000000E+00 0. -1.
         -1   -1    0    0    0  501 -0.00000000000E+00 -0.00000000000E+00 -0.26939814460E+02  0.26939814460E+02  0.00000000000E+00 0.  1.
         25    2    1    2    0    0 -0.14311598880E+02 -0.35039343583E+02  0.31122177130E+03  0.33754981256E+03  0.12509319553E+03 0.  0.
          5    1    3    3  502    0  0.26421778330E+02 -0.43755787989E+02  0.28168194643E+03  0.28631254024E+03  0.41800000000E+01 0. -1.
         -5    1    3    3    0  502 -0.40733377211E+02  0.87164444059E+01  0.29539824874E+02  0.51237272328E+02  0.41800000000E+01 0. -1.
        -11    1    1    2    0    0  0.11871154798E+02  0.60563803663E+02  0.64907293003E+02  0.89564810698E+02  0.00000000000E+00 0.  1.
         11    1    1    2    0    0  0.24404440822E+01 -0.25524460080E+02  0.11213933956E+03  0.11503340952E+03  0.00000000000E+00 0. -1.
</event>
<event>
 7    1  0.3001243E-009  0.1563830E+03  0.7561462E-02  0.1192842E+00
          3   -1    0    0  501    0  0.00000000000E+00  0.00000000000E+00  0.58748931702E+02  0.58748931702E+02  0.00000000000E+00 0. -1.
         -3   -1    0    0    0  501 -0.00000000000E+00 -0.00000000000E+00 -0.50188921246E+03  0.50188921246E+03  0.00000000000E+00 0.  1.
         25    2    1    2    0    0  0.12725847851E+03  0.22415351044E+02 -0.27626346489E+03  0.32964581571E+03  0.12509074095E+03 0.  0.
          5    1    3    3  502    0  0.14144044157E+03  0.38162603431E+02 -0.18583092923E+03  0.23666936741E+03  0.41800000000E+01 0.  1.
         -5    1    3    3    0  502 -0.14181963059E+02 -0.15747252388E+02 -0.90432535654E+02  0.92976448301E+02  0.41800000000E+01 0.  1.
        -11    1    1    2    0    0 -0.12375399464E+03 -0.37349833896E+02 -0.17169180859E+03  0.21491425829E+03  0.00000000000E+00 0.  1.
         11    1    1    2    0    0 -0.35044838624E+01  0.14934482852E+02  0.48149927132E+01  0.16078070159E+02  0.00000000000E+00 0. -1.
</event>
<event>
 7    1  0.3001243E-009  0.1247466E+03  0.7561462E-02  0.1235466E+00
         -1   -1    0    0    0  501 -0.00000000000E+00  0.00000000000E+00  0.13707175956E+03  0.13707175956E+03  0.00000000000E+00 0.  1.
          1   -1    0    0  501    0  0.00000000000E+00 -0.00000000000E+00 -0.15711554055E+03  0.15711554055E+03  0.00000000000E+00 0. -1.
         25    2    1    2    0    0  0.12607120064E+01  0.75717021139E+02  0.50855822361E+02  0.15485845304E+03  0.12514059742E+03 0.  0.
          5    1    3    3  502    0  0.47440707133E+02  0.85983407481E+01 -0.14290221349E+02  0.50460231699E+02  0.41800000000E+01 0.  1.
         -5    1    3    3    0  502 -0.46179995127E+02  0.67118680390E+02  0.65146043710E+02  0.10439822134E+03  0.41800000000E+01 0.  1.
        -11    1    1    2    0    0  0.45608504244E+02 -0.37420279092E+02 -0.40823068146E+02  0.71742148278E+02  0.00000000000E+00 0.  1.
         11    1    1    2    0    0 -0.46869216250E+02 -0.38296742047E+02 -0.30076535206E+02  0.67586698790E+02  0.00000000000E+00 0. -1.
</event>
<event>
 7    1  0.3001243E-009  0.1372530E+03  0.7561462E-02  0.1217074E+00
          2   -1    0    0  501    0  0.00000000000E+00  0.00000000000E+00  0.44373368672E+03  0.44373368672E+03  0.00000000000E+00 0. -1.
         -2   -1    0    0    0  501 -0.00000000000E+00 -0.00000000000E+00 -0.97643750749E+02  0.97643750749E+02  0.00000000000E+00 0.  1.
         25    2    1    2    0    0  0.13537638917E+02  0.12494570870E+03  0.34367755476E+03  0.38672310571E+03  0.12508317655E+03 0.  0.
          5    1    3    3  502    0  0.22055332804E+02  0.10240705434E+03  0.11069792828E+03  0.15246358978E+03  0.41800000000E+01 0. -1.
         -5    1    3    3    0  502 -0.85176938865E+01  0.22538654359E+02  0.23297962648E+03  0.23425951593E+03  0.41800000000E+01 0. -1.
        -11    1    1    2    0    0  0.61819796247E+01 -0.12533721753E+03 -0.17409471914E+02  0.12669145465E+03  0.00000000000E+00 0.  1.
         11    1    1    2    0    0 -0.19719618542E+02  0.39150883120E+00  0.19821853122E+02  0.27962877101E+02  0.00000000000E+00 0. -1.
</event>
<event>
 7    1  0.3001243E-009  0.1067853E+03  0.7561462E-02  0.1266641E+00
          1   -1    0    0  501    0  0.00000000000E+00  0.00000000000E+00  0.31442008453E+03  0.31442008453E+03  0.00000000000E+00 0. -1.
         -1   -1    0    0    0  501 -0.00000000000E+00 -0.00000000000E+00 -0.50948769734E+02  0.50948769734E+02  0.00000000000E+00 0.  1.
         25    2    1    2    0    0  0.55881736069E+02  0.26478867508E+02  0.11240061660E+03  0.17917933971E+03  0.12508972107E+03 0.  0.
          5    1    3    3  502    0 -0.16328705982E+02  0.44928792534E+02  0.48068954457E+01  0.48226566138E+02  0.41800000000E+01 0.  1.
         -5    1    3    3    0  502  0.72210442051E+02 -0.18449925026E+02  0.10759372116E+03  0.13095277358E+03  0.41800000000E+01 0.  1.
        -11    1    1    2    0    0 -0.59132602927E+02  0.49508807634E+01  0.42170278712E+02  0.72797722189E+02  0.00000000000E+00 0.  1.
         11    1    1    2    0    0  0.32508668576E+01 -0.31429748271E+02  0.10890041948E+03  0.11339179236E+03  0.00000000000E+00 0. -1.
</event>
<event>
 7    1  0.3001243E-009  0.9442256E+02  0.7561462E-02  0.1292482E+00
         -2   -1    0    0    0  501 -0.00000000000E+00  0.00000000000E+00  0.77712178701E+02  0.77712178701E+02  0.00000000000E+00 0.  1.
          2   -1    0    0  501    0  0.00000000000E+00 -0.00000000000E+00 -0.22073873563E+03  0.22073873563E+03  0.00000000000E+00 0. -1.
         25    2    1    2    0    0  0.28568440673E+02  0.57467295769E+02 -0.71209724859E+02  0.15759761283E+03  0.12509011459E+03 0.  0.
          5    1    3    3  502    0  0.19118340900E+02 -0.17779128379E+02 -0.77011322852E+02  0.81423734943E+02  0.41800000000E+01 0. -1.
         -5    1    3    3    0  502  0.94500997732E+01  0.75246424149E+02  0.58015979929E+01  0.76173877886E+02  0.41800000000E+01 0. -1.
        -11    1    1    2    0    0  0.14645412304E+02 -0.34576269460E+02 -0.82636976748E+02  0.90768256771E+02  0.00000000000E+00 0. -1.
         11    1    1    2    0    0 -0.43213852977E+02 -0.22891026309E+02  0.10820144680E+02  0.50085044729E+02  0.00000000000E+00 0.  1.
</event>
<event>
 7    1  0.3001243E-009  0.1063832E+03  0.7561462E-02  0.1267418E+00
         -2   -1    0    0    0  501 -0.00000000000E+00  0.00000000000E+00  0.12083535632E+02  0.12083535632E+02  0.00000000000E+00 0.  1.
          2   -1    0    0  501    0  0.00000000000E+00 -0.00000000000E+00 -0.13262854769E+04  0.13262854769E+04  0.00000000000E+00 0. -1.
         25    2    1    2    0    0 -0.31137146905E+02  0.29285105587E+01 -0.97020745319E+03  0.97873810096E+03  0.12509064693E+03 0.  0.
          5    1    3    3  502    0 -0.63763768553E+02  0.33492736424E+02 -0.37749942064E+03  0.38433171422E+03  0.41800000000E+01 0.  1.
         -5    1    3    3    0  502  0.32626621648E+02 -0.30564225865E+02 -0.59270803255E+03  0.59440638674E+03  0.41800000000E+01 0.  1.
        -11    1    1    2    0    0  0.26537300764E+02  0.42474698035E+02 -0.25212355165E+03  0.25704982708E+03  0.00000000000E+00 0. -1.
         11    1    1    2    0    0  0.45998461407E+01 -0.45403208593E+02 -0.91870936389E+02  0.10258108446E+03  0.00000000000E+00 0.  1.
</event>
<event>
 7    1  0.3001243E-009  0.1424435E+03  0.7561462E-02  0.1210078E+00
         -1   -1    0    0    0  501 -0.00000000000E+00  0.00000000000E+00  0.42275657528E+03  0.42275657528E+03  0.00000000000E+00 0.  1.
          1   -1    0    0  501    0  0.00000000000E+00 -0.00000000000E+00 -0.64162403553E+02  0.64162403553E+02  0.00000000000E+00 0. -1.
         25    2    1    2    0    0 -0.10008727571E+03  0.60237725029E+02  0.13341311667E+03  0.21700689400E+03  0.12508751364E+03 0.  0.
          5    1    3    3  502    0 -0.73763901302E+02  0.75273758475E+02  0.30727812364E+02  0.10985864874E+03  0.41800000000E+01 0.  1.
         -5    1    3    3    0  502 -0.26323374412E+02 -0.15036033445E+02  0.10268530431E+03  0.10714824526E+03  0.41800000000E+01 0.  1.
        -11    1    1    2    0    0  0.85960548408E+02  0.99897519240E+00  0.13106373174E+03  0.15674155674E+03  0.00000000000E+00 0.  1.
         11    1    1    2    0    0  0.14126727306E+02 -0.61236700222E+02  0.94117323315E+02  0.11317052808E+03  0.00000000000E+00 0. -1.
</event>
<event>
 7    1  0.3001243E-009  0.1263791E+03  0.7561462E-02  0.1232930E+00
         -2   -1    0    0    0  501 -0.00000000000E+00  0.00000000000E+00  0.44285235234E+02  0.44285235234E+02  0.00000000000E+00 0.  1.
          2   -1    0    0  501    0  0.00000000000E+00 -0.00000000000E+00 -0.58430880999E+03  0.58430880999E+03  0.00000000000E+00 0. -1.
         25    2    1    2    0    0  0.84409259148E+02  0.48531871309E+02 -0.42167668955E+03  0.45049084777E+03  0.12510198981E+03 0.  0.
          5    1    3    3  502    0  0.40053329332E+02  0.86048185114E+02 -0.31416521092E+03  0.32821610488E+03  0.41800000000E+01 0. -1.
         -5    1    3    3    0  502  0.44355929816E+02 -0.37516313805E+02 -0.10751147863E+03  0.12227474289E+03  0.41800000000E+01 0. -1.
        -11    1    1    2    0    0 -0.30673801118E+02 -0.66677618395E+01 -0.10380857795E+03  0.10845073526E+03  0.00000000000E+00 0. -1.
         11    1    1    2    0    0 -0.53735458030E+02 -0.41864109470E+02 -0.14538307257E+02  0.69652462191E+02  0.00000000000E+00 0.  1.
</event>
<event>
 7    1  0.3001243E-009  0.1101290E+03  0.7561462E-02  0.1260331E+00
          4   -1    0    0  501    0  0.00000000000E+00  0.00000000000E+00  0.18719937367E+04  0.18719937367E+04  0.00000000000E+00 0. -1.
         -4   -1    0    0    0  501 -0.00000000000E+00 -0.00000000000E+00 -0.11898774213E+02  0.11898774213E+02  0.00000000000E+00 0.  1.
         25    2    1    2    0    0 -0.85417940473E+02 -0.45898654676E+01  0.11922443012E+04  0.12018365291E+04  0.12508907867E+03 0.  0.
          5    1    3    3  502    0 -0.72213232562E+02 -0.77649602328E+01  0.11821973996E+04  0.11844337084E+04  0.41800000000E+01 0.  1.
         -5    1    3    3    0  502 -0.13204707911E+02  0.31750947652E+01  0.10046901590E+02  0.17402820730E+02  0.41800000000E+01 0.  1.
        -11    1    1    2    0    0  0.95821164401E+02 -0.27398208432E+02  0.56839398126E+03  0.57706505293E+03  0.00000000000E+00 0. -1.
         11    1    1    2    0    0 -0.10403223928E+02  0.31988073900E+02  0.99456680064E+02  0.10499092889E+03  0.00000000000E+00 0.  1.
</event>
<event>
 7    1  0.3001243E-009  0.1339153E+03  0.7561462E-02  0.1221759E+00
          2   -1    0    0  501    0  0.00000000000E+00  0.00000000000E+00  0.91298582429E+03  0.91298582429E+03  0.00000000000E+00 0. -1.
         -2   -1    0    0    0  501 -0.00000000000E+00 -0.00000000000E+00 -0.34455168274E+02  0.34455168274E+02  0.00000000000E+00 0.  1.
         25    2    1    2    0    0 -0.57453097828E+02  0.67631553598E+02  0.75432437307E+03  0.76975856411E+03  0.12509237274E+03 0.  0.
          5    1    3    3  502    0 -0.47739902736E+02 -0.28572646530E+02  0.23918437963E+03  0.24560564795E+03  0.41800000000E+01 0.  1.
         -5    1    3    3    0  502 -0.97131950921E+01  0.96204200127E+02  0.51513999344E+03  0.52415291617E+03  0.41800000000E+01 0.  1.
        -11    1    1    2    0    0  0.33947585399E+02  0.89811079609E+01  0.77112918016E+02  0.84731936007E+02  0.00000000000E+00 0. -1.
         11    1    1    2    0    0  0.23505512430E+02 -0.76612661558E+02  0.47093364926E+02  0.92950492445E+02  0.00000000000E+00 0.  1.
</event>
<event>
 7    1  0.3001243E-009  0.1409899E+03  0.7561462E-02  0.1212003E+00
         -2   -1    0    0    0  501 -0.00000000000E+00  0.00000000000E+00  0.35202458843E+02  0.35202458843E+02  0.00000000000E+00 0.  1.
          2   -1    0    0  501    0  0.00000000000E+00 -0.00000000000E+00 -0.68412257043E+03  0.68412257043E+03  0.00000000000E+00 0. -1.
         25    2    1    2    0    0  0.48454274290E+02 -0.93669224142E+02 -0.39149672280E+03  0.42430982582E+03  0.12508958420E+03 0.  0.
          5    1    3    3  502    0  0.88723498594E+02 -0.45548717006E+02 -0.26142043971E+03  0.27982970451E+03  0.41800000000E+01 0.  1.
         -5    1    3    3    0  502 -0.40269224304E+02 -0.48120507136E+02 -0.13007628308E+03  0.14448012131E+03  0.41800000000E+01 0.  1.
        -11    1    1    2    0    0 -0.52553506152E+02  0.41552957108E+02 -0.57241589267E+02  0.88119911457E+02  0.00000000000E+00 0.  1.
         11    1    1    2    0    0  0.40992318621E+01  0.52116267033E+02 -0.20018179952E+03  0.20689529200E+03  0.00000000000E+00 0. -1.
</event>
<event>
 7    1  0.3001243E-009  0.1367963E+03  0.7561462E-02  0.1217706E+00
          2   -1    0    0  501    0  0.00000000000E+00  0.00000000000E+00  0.81410132517E+03  0.81410132517E+03  0.00000000000E+00 0. -1.
         -2   -1    0    0    0  501 -0.00000000000E+00 -0.00000000000E+00 -0.43897032113E+02  0.43897032113E+02  0.00000000000E+00 0.  1.
         25    2    1    2    0    0  0.78252628458E+02 -0.91350994288E+02  0.62464304269E+03  0.64830197459E+03  0.12509213184E+03 0.  0.
          5    1    3    3  502    0  0.76482676062E+02 -0.77057303311E+02  0.24092583112E+03  0.26429180129E+03  0.41800000000E+01 0.  1.
         -5    1    3    3    0  502  0.17699523965E+01 -0.14293690977E+02  0.38371721157E+03  0.38401017329E+03  0.41800000000E+01 0.  1.
        -11    1    1    2    0    0 -0.96838715974E+02  0.88413238733E+02  0.11852371325E+03  0.17675550429E+03  0.00000000000E+00 0.  1.
         11    1    1    2    0    0  0.18586087516E+02  0.29377555546E+01  0.27037537121E+02  0.32940878410E+02  0.00000000000E+00 0. -1.
</event>
<event>
 7    1  0.3001243E-009  0.1094004E+03  0.7561462E-02  0.1261684E+00
          1   -1    0    0  501    0  0.00000000000E+00  0.00000000000E+00  0.47954131903E+02  0.47954131903E+02  0.00000000000E+00 0. -1.
         -1   -1    0    0    0  501 -0.00000000000E+00 -0.00000000000E+00 -0.47184571831E+03  0.47184571831E+03  0.00000000000E+00 0.  1.
         25    2    1    2    0    0 -0.79084622514E+02  0.18377262211E+02 -0.15359648668E+03  0.21408218597E+03  0.12508876986E+03 0.  0.
          5    1    3    3  502    0 -0.67436025785E+02  0.25561786830E+02 -0.17443592899E+03  0.18880251122E+03  0.41800000000E+01 0. -1.
         -5    1    3    3    0  502 -0.11648596729E+02 -0.71845246192E+01  0.20839442309E+02  0.25279674751E+02  0.41800000000E+01 0. -1.
        -11    1    1    2    0    0 -0.25447681343E+02  0.27820011021E+01 -0.11170752077E+03  0.11460320332E+03  0.00000000000E+00 0.  1.
         11    1    1    2    0    0  0.10453230386E+03 -0.21159263313E+02 -0.15858757896E+03  0.19111446092E+03  0.00000000000E+00 0. -1.
</event>
<event>
 7    1  0.3001243E-009  0.1180962E+03  0.7561462E-02  0.1246271E+00
          2   -1    0    0  501    0  0.00000000000E+00  0.00000000000E+00  0.15768720215E+03  0.15768720215E+03  0.00000000000E+00 0. -1.
         -2   -1    0    0    0  501 -0.00000000000E+00 -0.00000000000E+00 -0.95097881080E+02  0.95097881080E+02  0.00000000000E+00 0.  1.
         25    2    1    2    0    0 -0.86846670702E+01 -0.50564677822E+02  0.59331874676E+02  0.14764761122E+03  0.12508931074E+03 0.  0.
          5    1    3    3  502    0  0.38192167828E+02 -0.72749430953E+02  0.27965010955E+02  0.86894393519E+02  0.41800000000E+01 0. -1.
         -5    1    3    3    0  502 -0.46876834898E+02  0.22184753131E+02  0.31366863721E+02  0.60753217703E+02  0.41800000000E+01 0. -1.
        -11    1    1    2    0    0  0.47549863747E+02  0.38543665310E+02 -0.10680368182E+02  0.62134321775E+02  0.00000000000E+00 0. -1.
         11    1    1    2    0    0 -0.38865196677E+02  0.12021012512E+02  0.13937814573E+02  0.43003150229E+02  0.00000000000E+00 0.  1.
</event>
<event>
 7    1  0.3001243E-009  0.1026437E+03  0.7561462E-02  0.1274833E+00
          1   -1    0    0  501    0  0.00000000000E+00  0.00000000000E+00  0.67913461002E+02  0.67913461002E+02  0.00000000000E+00 0. -1.
         -1   -1    0    0    0  501 -0.00000000000E+00 -0.00000000000E+00 -0.30669725072E+03  0.30669725072E+03  0.00000000000E+00 0.  1.
         25    2    1    2    0    0 -0.84770924195E+02 -0.10713123733E+02 -0.18474870676E+03  0.23891493828E+03  0.12508949786E+03 0.  0.
          5    1    3    3  502    0 -0.27780388509E+02  0.35316336431E+02 -0.57896122655E+01  0.45497094575E+02  0.41800000000E+01 0.  1.
         -5    1    3    3    0  502 -0.56990535686E+02 -0.46029460163E+02 -0.17895909449E+03  0.19341784370E+03  0.41800000000E+01 0.  1.
        -11    1    1    2    0    0  0.25734014099E+02 -0.37376358262E+01  0.24946343718E+02  0.36035114377E+02  0.00000000000E+00 0. -1.
         11    1    1    2    0    0  0.59036910096E+02  0.14450759559E+02 -0.78981426676E+02  0.99660659065E+02  0.00000000000E+00 0.  1.
</event>
<event>
 7    1  0.3001243E-009  0.2367785E+03  0.7561462E-02  0.1121958E+00
          2   -1    0    0  501    0  0.00000000000E+00  0.00000000000E+00  0.21270599067E+03  0.21270599067E+03  0.00000000000E+00 0. -1.
         -2   -1    0    0    0  501 -0.00000000000E+00 -0.00000000000E+00 -0.39446971140E+03  0.39446971140E+03  0.00000000000E+00 0.  1.
         25    2    1    2    0    0  0.17555989952E+03  0.14814628754E+03  0.52079952873E+02  0.26669986309E+03  0.12509154507E+03 0.  0.
          5    1    3    3  502    0  0.10114024405E+02  0.23303315036E+02  0.53519011214E+02  0.59389350414E+02  0.41800000000E+01 0.  1.
         -5    1    3    3    0  502  0.16544587512E+03  0.12484297250E+03 -0.14390583404E+01  0.20731051267E+03  0.41800000000E+01 0.  1.
        -11    1    1    2    0    0 -0.11034475921E+03 -0.46509119388E+02 -0.15655328989E+03  0.19709895141E+03  0.00000000000E+00 0.  1.
         11    1    1    2    0    0 -0.65215140310E+02 -0.10163716815E+03 -0.77290383716E+02  0.14337688757E+03  0.00000000000E+00 0. -1.
</event>
<event>
 7    1  0.3001243E-009  0.1077140E+03  0.7561462E-02  0.1264863E+00
          1   -1    0    0  501    0  0.00000000000E+00  0.00000000000E+00  0.21931148518E+02  0.21931148518E+02  0.00000000000E+00 0. -1.
         -1   -1    0    0    0  501 -0.00000000000E+00 -0.00000000000E+00 -0.86544212677E+03  0.86544212677E+03  0.00000000000E+00 0.  1.
         25    2    1    2    0    0 -0.51110296294E+02 -0.38431645402E+02 -0.64390935768E+03  0.65905689054E+03  0.12508984893E+03 0.  0.
          5    1    3    3  502    0  0.30566088139E+01 -0.48986916766E+02 -0.91807292804E+02  0.10418787014E+03  0.41800000000E+01 0.  1.
         -5    1    3    3    0  502 -0.54166905108E+02  0.10555271364E+02 -0.55210206488E+03  0.55486902040E+03  0.41800000000E+01 0.  1.
        -11    1    1    2    0    0  0.57744725394E+02  0.62950524390E+02 -0.15586330950E+03  0.17773742735E+03  0.00000000000E+00 0.  1.
         11    1    1    2    0    0 -0.66344290996E+01 -0.24518878988E+02 -0.43738311064E+02  0.50578957394E+02  0.00000000000E+00 0. -1.
</event>
<event>
 7    1  0.3001243E-009  0.2640287E+03  0.7561462E-02  0.1104747E+00
         -3   -1    0    0    0  501 -0.00000000000E+00  0.00000000000E+00  0.14108711405E+03  0.14108711405E+03  0.00000000000E+00 0.  1.
          3   -1    0    0  501    0  0.00000000000E+00 -0.00000000000E+00 -0.73791574606E+03  0.73791574606E+03  0.00000000000E+00 0. -1.
         25    2    1    2    0    0 -0.11696569816E+03 -0.22099297137E+03 -0.53707692859E+03  0.60548852858E+03  0.12508342443E+03 0.  0.
          5    1    3    3  502    0 -0.95266079175E+02 -0.56257281527E+02 -0.17496422712E+03  0.20705183104E+03  0.41800000000E+01 0.  1.
         -5    1    3    3    0  502 -0.21699618986E+02 -0.16473568984E+03 -0.36211270148E+03  0.39843669753E+03  0.41800000000E+01 0.  1.
        -11    1    1    2    0    0  0.51224749807E+02  0.72860749666E+02 -0.66743786292E+02  0.11129868303E+03  0.00000000000E+00 0. -1.
         11    1    1    2    0    0  0.65740948354E+02  0.14813222171E+03  0.69920828821E+01  0.16221564851E+03  0.00000000000E+00 0.  1.
</event>
<event>
 7    1  0.3001243E-009  0.1152061E+03  0.7561462E-02  0.1251222E+00
         -2   -1    0    0    0  501 -0.00000000000E+00  0.00000000000E+00  0.71985897237E+02  0.71985897237E+02  0.00000000000E+00 0.  1.
          2   -1    0    0  501    0  0.00000000000E+00 -0.00000000000E+00 -0.18746226596E+03  0.18746226596E+03  0.00000000000E+00 0. -1.
         25    2    1    2    0    0 -0.14958813921E+02  0.37818476005E+02 -0.62884887080E+02  0.14579252370E+03  0.12508776000E+03 0.  0.
          5    1    3    3  502    0 -0.57586528761E+02  0.59988038759E+02 -0.38007130324E+02  0.91524791419E+02  0.41800000000E+01 0.  1.
         -5    1    3    3    0  502  0.42627714840E+02 -0.22169562755E+02 -0.24877756756E+02  0.54267732276E+02  0.41800000000E+01 0.  1.
        -11    1    1    2    0    0  0.50617326497E+02 -0.37949927464E+02 -0.22990873625E+02  0.67311893498E+02  0.00000000000E+00 0. -1.
         11    1    1    2    0    0 -0.35658512576E+02  0.13145145946E+00 -0.29600608019E+02  0.46343746004E+02  0.00000000000E+00 0.  1.
</event>
<event>
 7    1  0.3001243E-009  0.1063192E+03  0.7561462E-02  0.1267542E+00
         -2   -1    0    0    0  501 -0.00000000000E+00  0.00000000000E+00  0.18056778109E+02  0.18056778109E+02  0.00000000000E+00 0.  1.
          2   -1    0    0  501    0  0.00000000000E+00 -0.00000000000E+00 -0.67290306845E+03  0.67290306845E+03  0.00000000000E+00 0. -1.
         25    2    1    2    0    0  0.23509412114E+02 -0.15107216669E+02 -0.37637203805E+03  0.39759871775E+03  0.12509160195E+03 0.  0.
          5    1    3    3  502    0  0.57223158790E+02  0.30971245311E+02 -0.25798404671E+03  0.26609575099E+03  0.41800000000E+01 0.  1.
         -5    1    3    3    0  502 -0.33713746676E+02 -0.46078461980E+02 -0.11838799134E+03  0.13150296676E+03  0.41800000000E+01 0.  1.
        -11    1    1    2    0    0 -0.49065847232E+02  0.32877019616E+02 -0.20993139130E+03  0.21808150962E+03  0.00000000000E+00 0.  1.
         11    1    1    2    0    0  0.25556435118E+02 -0.17769802947E+02 -0.68542860995E+02  0.75279619194E+02  0.00000000000E+00 0. -1.
</event>
<event>
 7    1  0.3001243E-009  0.8210069E+02  0.7561462E-02  0.1323193E+00
          4   -1    0    0  501    0  0.00000000000E+00  0.00000000000E+00  0.14565270055E+03  0.14565270055E+03  0.00000000000E+00 0. -1.
         -4   -1    0    0    0  501 -0.00000000000E+00 -0.00000000000E+00 -0.96827907706E+02  0.96827907706E+02  0.00000000000E+00 0.  1.
         25    2    1    2    0    0 -0.39840118362E+01 -0.48692588042E+02  0.24711025909E+02  0.13654528773E+03  0.12508852993E+03 0.  0.
          5    1    3    3  502    0 -0.39993643745E+02 -0.33995357094E+02  0.62795270819E+02  0.81950559981E+02  0.41800000000E+01 0.  1.
         -5    1    3    3    0  502  0.36009631909E+02 -0.14697230947E+02 -0.38084244910E+02  0.54594727750E+02  0.41800000000E+01 0.  1.
        -11    1    1    2    0    0 -0.16515850965E+02 -0.30296002325E+01  0.43808075988E+02  0.46915875057E+02  0.00000000000E+00 0. -1.
         11    1    1    2    0    0  0.20499862801E+02  0.51722188274E+02 -0.19694309049E+02  0.59019445470E+02  0.00000000000E+00 0.  1.
</event>
<event>
 7    1  0.3001243E-009  0.1138626E+03  0.7561462E-02  0.1253580E+00
          1   -1    0    0  501    0  0.00000000000E+00  0.00000000000E+00  0.28887863469E+02  0.28887863469E+02  0.00000000000E+00 0. -1.
         -1   -1    0    0    0  501 -0.00000000000E+00 -0.00000000000E+00 -0.61218921475E+03  0.61218921475E+03  0.00000000000E+00 0.  1.
         25    2    1    2    0    0  0.72054994926E+02 -0.16742785417E+02 -0.36556548714E+03  0.39339340371E+03  0.12509197231E+03 0.  0.
          5    1    3    3  502    0  0.98196085753E+02 -0.22836283332E+02 -0.34462706264E+03  0.35909504563E+03  0.41800000000E+01 0.  1.
         -5    1    3    3    0  502 -0.26141090827E+02  0.60934979149E+01 -0.20938424507E+02  0.34298358085E+02  0.41800000000E+01 0.  1.
        -11    1    1    2    0    0 -0.47237253786E+02 -0.23203704568E+02 -0.17955183284E+03  0.18710593451E+03  0.00000000000E+00 0.  1.
         11    1    1    2    0    0 -0.24817741139E+02  0.39946489986E+02 -0.38184031298E+02  0.60577740001E+02  0.00000000000E+00 0. -1.
</event>
<event>
 7    1  0.3001243E-009  0.7992057E+02  0.7561462E-02  0.1329277E+00
          2   -1    0    0  501    0  0.00000000000E+00  0.00000000000E+00  0.41621741481E+03  0.41621741481E+03  0.00000000000E+00 0. -1.
         -2   -1    0    0    0  501 -0.00000000000E+00 -0.00000000000E+00 -0.45536289598E+02  0.45536289598E+02  0.00000000000E+00 0.  1.
         25    2    1    2    0    0 -0.58631267998E+02 -0.85053968013E+01  0.30637780489E+03  0.33619272017E+03  0.12509283913E+03 0.  0.
          5    1    3    3  502    0 -0.41674339967E+02  0.57564495431E+01  0.31041965785E+03  0.31328537103E+03  0.41800000000E+01 0. -1.
         -5    1    3    3    0  502 -0.16956928032E+02 -0.14261846344E+02 -0.40418529530E+01  0.22907349142E+02  0.41800000000E+01 0. -1.
        -11    1    1    2    0    0  0.34590781124E+02  0.41605546947E+02  0.61433934725E+01  0.54454430113E+02  0.00000000000E+00 0.  1.
         11    1    1    2    0    0  0.24040486874E+02 -0.33100150146E+02  0.58159926850E+02  0.71106554129E+02  0.00000000000E+00 0. -1.
</event>
<event>
 7    1  0.3001243E-009  0.1377355E+03  0.7561462E-02  0.1216409E+00
         -3   -1    0    0    0  501 -0.00000000000E+00  0.00000000000E+00  0.26653498942E+02  0.26653498942E+02  0.00000000000E+00 0.  1.
          3   -1    0    0  501    0  0.00000000000E+00 -0.00000000000E+00 -0.74746682579E+03  0.74746682579E+03  0.00000000000E+00 0. -1.
         25    2    1    2    0    0  0.23677999963E+02 -0.72311397439E+02 -0.44645733281E+03  0.46985558813E+03  0.12510210946E+03 0.  0.
          5    1    3    3  502    0 -0.48881912563E+02 -0.14803824769E+02 -0.11968253566E+03  0.13019207482E+03  0.41800000000E+01 0. -1.
         -5    1    3    3    0  502  0.72559912526E+02 -0.57507572670E+02 -0.32677479715E+03  0.33966351331E+03  0.41800000000E+01 0. -1.
        -11    1    1    2    0    0  0.39798939068E+02  0.50777767312E+02 -0.13593714929E+03  0.15047008261E+03  0.00000000000E+00 0.  1.
         11    1    1    2    0    0 -0.63476939031E+02  0.21533630127E+02 -0.13841884475E+03  0.15379465399E+03  0.00000000000E+00 0. -1.
</event>
<event>
 7    1  0.3001243E-009  0.1589862E+03  0.7561462E-02  0.1189846E+00
         -2   -1    0    0    0  501 -0.00000000000E+00  0.00000000000E+00  0.10348068650E+04  0.10348068650E+04  0.00000000000E+00 0. -1.
          2   -1    0    0  501    0  0.00000000000E+00 -0.00000000000E+00 -0.36499202260E+02  0.36499202260E+02  0.00000000000E+00 0.  1.
         25    2    1    2    0    0  0.91914969968E+01  0.13431106138E+03  0.75878846350E+03  0.78072438762E+03  0.12508673896E+03 0.  0.
          5    1    3    3  502    0 -0.27860155298E+02 -0.13238023606E+02  0.15069014904E+03  0.15387146240E+03  0.41800000000E+01 0.  1.
         -5    1    3    3    0  502  0.37051652295E+02  0.14754908499E+03  0.60809831446E+03  0.62685292523E+03  0.41800000000E+01 0.  1.
        -11    1    1    2    0    0 -0.61419133550E+01 -0.10714068326E+03  0.24035814923E+03  0.26322782720E+03  0.00000000000E+00 0. -1.
         11    1    1    2    0    0 -0.30495836418E+01 -0.27170378120E+02 -0.83894996430E+00  0.27353852464E+02  0.00000000000E+00 0.  1.
</event>
<event>
 7    1  0.3001243E-009  0.1211989E+03  0.7561462E-02  0.1241132E+00
          2   -1    0    0  501    0  0.00000000000E+00  0.00000000000E+00  0.10939621269E+04  0.10939621269E+04  0.00000000000E+00 0.  1.
         -2   -1    0    0    0  501 -0.00000000000E+00 -0.00000000000E+00 -0.15559837668E+02  0.15559837668E+02  0.00000000000E+00 0. -1.
         25    2    1    2    0    0 -0.55536228280E+02 -0.46040739011E+02  0.63022438818E+03  0.64655601966E+03  0.12509150569E+03 0.  0.
          5    1    3    3  502    0 -0.31698413694E+02 -0.83211204470E+02  0.52262887196E+03  0.53017667262E+03  0.41800000000E+01 0. -1.
         -5    1    3    3    0  502 -0.23837814586E+02  0.37170465459E+02  0.10759551622E+03  0.11637934704E+03  0.41800000000E+01 0. -1.
        -11    1    1    2    0    0  0.20092088836E+02 -0.23457356194E+02  0.65499926383E+02  0.72416710430E+02  0.00000000000E+00 0. -1.
         11    1    1    2    0    0  0.35444139445E+02  0.69498095205E+02  0.38267797470E+03  0.39054923452E+03  0.00000000000E+00 0.  1.
</event>
<event>
 7    1  0.3001243E-009  0.9806721E+02  0.7561462E-02  0.1284414E+00
         -1   -1    0    0    0  501 -0.00000000000E+00  0.00000000000E+00  0.13334548750E+02  0.13334548750E+02  0.00000000000E+00 0.  1.
          1   -1    0    0  501    0  0.00000000000E+00 -0.00000000000E+00 -0.10731423366E+04  0.10731423366E+04  0.00000000000E+00 0. -1.
         25    2    1    2    0    0 -0.10190307778E+02  0.27419697195E+02 -0.80282531581E+03  0.81303868134E+03  0.12509087685E+03 0.  0.
          5    1    3    3  502    0 -0.24944659162E+02  0.60873088291E+02 -0.23637892185E+03  0.24539811734E+03  0.41800000000E+01 0. -1.
         -5    1    3    3    0  502  0.14754351385E+02 -0.33453391096E+02 -0.56644639397E+03  0.56764056400E+03  0.41800000000E+01 0. -1.
        -11    1    1    2    0    0 -0.25138710235E+02  0.21495548148E+02 -0.88994902092E+02  0.94942645533E+02  0.00000000000E+00 0.  1.
         11    1    1    2    0    0  0.35329018012E+02 -0.48915245343E+02 -0.16798756990E+03  0.17849555844E+03  0.00000000000E+00 0. -1.
</event>
<event>
 7    1  0.3001243E-009  0.1317479E+03  0.7561462E-02  0.1224885E+00
         -1   -1    0    0    0  501 -0.00000000000E+00  0.00000000000E+00  0.86107136600E+02  0.86107136600E+02  0.00000000000E+00 0.  1.
          1   -1    0    0  501    0  0.00000000000E+00 -0.00000000000E+00 -0.24642431767E+03  0.24642431767E+03  0.00000000000E+00 0. -1.
         25    2    1    2    0    0 -0.66795010884E+02 -0.61114942629E+02 -0.44941610648E+02  0.16082430226E+03  0.12509235843E+03 0.  0.
          5    1    3    3  502    0  0.18217193070E+02  0.19896628662E+02  0.12507393816E+02  0.30027475011E+02  0.41800000000E+01 0. -1.
         -5    1    3    3    0  502 -0.85012203954E+02 -0.81011571290E+02 -0.57449004464E+02  0.13079682725E+03  0.41800000000E+01 0. -1.
        -11    1    1    2    0    0  0.60477227306E+02  0.33362882638E+01 -0.27909663021E+02  0.66690142689E+02  0.00000000000E+00 0.  1.
         11    1    1    2    0    0  0.63177835782E+01  0.57778654365E+02 -0.87465907400E+02  0.10501700932E+03  0.00000000000E+00 0. -1.
</event>
<event>
 7    1  0.3001243E-009  0.8380314E+02  0.7561462E-02  0.1318592E+00
          1   -1    0    0  501    0  0.00000000000E+00  0.00000000000E+00  0.23106737961E+02  0.23106737961E+02  0.00000000000E+00 0. -1.
         -1   -1    0    0    0  501 -0.00000000000E+00 -0.00000000000E+00 -0.52910568990E+03  0.52910568990E+03  0.00000000000E+00 0.  1.
         25    2    1    2    0    0  0.24226915627E+02 -0.23454749440E+02 -0.32811276400E+03  0.35276221053E+03  0.12508446173E+03 0.  0.
          5    1    3    3  502    0  0.49510315918E+02 -0.29262294213E+02 -0.59462732324E+02  0.82830200895E+02  0.41800000000E+01 0. -1.
         -5    1    3    3    0  502 -0.25283400291E+02  0.58075447736E+01 -0.26865003168E+03  0.26993200964E+03  0.41800000000E+01 0. -1.
        -11    1    1    2    0    0  0.24697263520E+02 -0.74531459333E+01 -0.24772924051E+02  0.35765933173E+02  0.00000000000E+00 0. -1.
         11    1    1    2    0    0 -0.48924179146E+02  0.30907895373E+02 -0.15311326389E+03  0.16368428416E+03  0.00000000000E+00 0.  1.
</event>
<event>
 7    1  0.3001243E-009  0.9886826E+02  0.7561462E-02  0.1282694E+00
         -2   -1    0    0    0  501 -0.00000000000E+00  0.00000000000E+00  0.95941714044E+02  0.95941714044E+02  0.00000000000E+00 0.  1.
          2   -1    0    0  501    0  0.00000000000E+00 -0.00000000000E+00 -0.18124696383E+03  0.18124696383E+03  0.00000000000E+00 0. -1.
         25    2    1    2    0    0 -0.33557022743E+01  0.67869519075E+02 -0.31828999024E+02  0.14587000389E+03  0.12508972979E+03 0.  0.
          5    1    3    3  502    0 -0.55793639643E+02  0.24488838062E+02  0.15326184066E+02  0.62968227959E+02  0.41800000000E+01 0.  1.
         -5    1    3    3    0  502  0.52437937369E+02  0.43380681013E+02 -0.47155183091E+02  0.82901775933E+02  0.41800000000E+01 0.  1.
        -11    1    1    2    0    0 -0.13169394326E+01 -0.49683545083E+02  0.21408521566E+02  0.54115744263E+02  0.00000000000E+00 0.  1.
         11    1    1    2    0    0  0.46726417069E+01 -0.18185973992E+02 -0.74884772324E+02  0.77202929715E+02  0.00000000000E+00 0. -1.
</event>
<event>
 7    1  0.3001243E-009  0.1438687E+03  0.7561462E-02  0.1208216E+00
          3   -1    0    0  501    0  0.00000000000E+00  0.00000000000E+00  0.22300338401E+03  0.22300338401E+03  0.00000000000E+00 0. -1.
         -3   -1    0    0    0  501 -0.00000000000E+00 -0.00000000000E+00 -0.12826456127E+03  0.12826456127E+03  0.00000000000E+00 0.  1.
         25    2    1    2    0    0 -0.83537726163E+02  0.74499884413E+02 -0.16800713977E+02  0.16869684433E+03  0.12509027471E+03 0.  0.
          5    1    3    3  502    0 -0.62562333178E+02 -0.23929725236E+02 -0.79517971396E+01  0.67582399782E+02  0.41800000000E+01 0. -1.
         -5    1    3    3    0  502 -0.20975392985E+02  0.98429609649E+02 -0.88489168379E+01  0.10111444455E+03  0.41800000000E+01 0. -1.
        -11    1    1    2    0    0  0.69738729283E+02 -0.34942924316E+02  0.17963625487E+02  0.80044925900E+02  0.00000000000E+00 0.  1.
         11    1    1    2    0    0  0.13798996881E+02 -0.39556960096E+02  0.93575911237E+02  0.10252617505E+03  0.00000000000E+00 0. -1.
</event>
<event>
 7    1  0.3001243E-009  0.6513912E+02  0.7561462E-02  0.1377449E+00
          1   -1    0    0  501    0  0.00000000000E+00  0.00000000000E+00  0.89265195110E+02  0.89265195110E+02  0.00000000000E+00 0. -1.
         -1   -1    0    0    0  501 -0.00000000000E+00 -0.00000000000E+00 -0.14614502557E+03  0.14614502557E+03  0.00000000000E+00 0.  1.
         25    2    1    2    0    0 -0.99229725368E+01 -0.32506604572E+02 -0.21339083783E+02  0.13136667648E+03  0.12508677975E+03 0.  0.
          5    1    3    3  502    0  0.30970137925E+02 -0.25015885066E+02 -0.61520799603E+02  0.73397718851E+02  0.41800000000E+01 0. -1.
         -5    1    3    3    0  502 -0.40893110462E+02 -0.74907195053E+01  0.40181715820E+02  0.57968957626E+02  0.41800000000E+01 0. -1.
        -11    1    1    2    0    0 -0.12455944409E+02  0.17653434838E+02 -0.62414622132E+02  0.66048310869E+02  0.00000000000E+00 0.  1.
         11    1    1    2    0    0  0.22378916946E+02  0.14853169733E+02  0.26873875450E+02  0.37995233339E+02  0.00000000000E+00 0. -1.
</event>
<event>
 7    1  0.3001243E-009  0.1756212E+03  0.7561462E-02  0.1172109E+00
          1   -1    0    0  501    0  0.00000000000E+00  0.00000000000E+00  0.84333928230E+03  0.84333928230E+03  0.00000000000E+00 0. -1.
         -1   -1    0    0    0  501 -0.00000000000E+00 -0.00000000000E+00 -0.44255364572E+02  0.44255364572E+02  0.00000000000E+00 0.  1.
         25    2    1    2    0    0  0.12790255434E+03 -0.90073021428E+02  0.34859585988E+03  0.40204321637E+03  0.12508981457E+03 0.  0.
          5    1    3    3  502    0  0.91205999406E+02 -0.97366011093E+02  0.33728171057E+03  0.36273282059E+03  0.41800000000E+01 0. -1.
         -5    1    3    3    0  502  0.36696554929E+02  0.72929896658E+01  0.11314149305E+02  0.39310395781E+02  0.41800000000E+01 0. -1.
        -11    1    1    2    0    0 -0.12887917014E+03  0.47224754706E+02  0.31969383596E+03  0.34791402200E+03  0.00000000000E+00 0.  1.
         11    1    1    2    0    0  0.97661580878E+00  0.42848266722E+02  0.13079422189E+03  0.13763740850E+03  0.00000000000E+00 0. -1.
</event>
<event>
 7    1  0.3001243E-009  0.9646158E+02  0.7561462E-02  0.1287918E+00
         -2   -1    0    0    0  501 -0.00000000000E+00  0.00000000000E+00  0.84052929745E+02  0.84052929745E+02  0.00000000000E+00 0.  1.
          2   -1    0    0  501    0  0.00000000000E+00 -0.00000000000E+00 -0.22874357604E+03  0.22874357604E+03  0.00000000000E+00 0. -1.
         25    2    1    2    0    0 -0.42566677718E+02 -0.24337901208E+02  0.21959535721E+01  0.13437807306E+03  0.12509352029E+03 0.  0.
          5    1    3    3  502    0  0.42009881878E+02  0.18795294009E+01 -0.13480385691E+02  0.44357141528E+02  0.41800000000E+01 0. -1.
         -5    1    3    3    0  502 -0.84576559596E+02 -0.26217430609E+02  0.15676339264E+02  0.90020931530E+02  0.41800000000E+01 0. -1.
        -11    1    1    2    0    0  0.97056204358E+01  0.27348712705E+02 -0.14214948614E+03  0.14508145149E+03  0.00000000000E+00 0. -1.
         11    1    1    2    0    0  0.32861057283E+02 -0.30108114973E+01 -0.47371137220E+01  0.33336981237E+02  0.00000000000E+00 0.  1.
</event>
<event>
 7    1  0.3001243E-009  0.9349595E+02  0.7561462E-02  0.1294600E+00
          2   -1    0    0  501    0  0.00000000000E+00  0.00000000000E+00  0.93353377870E+02  0.93353377870E+02  0.00000000000E+00 0. -1.
         -2   -1    0    0    0  501 -0.00000000000E+00 -0.00000000000E+00 -0.15774838766E+03  0.15774838766E+03  0.00000000000E+00 0.  1.
         25    2    1    2    0    0  0.45557875107E+02 -0.19853359389E+02 -0.60460177410E+02  0.14755429381E+03  0.12508861142E+03 0.  0.
          5    1    3    3  502    0  0.74309333426E+01  0.39589815919E+02  0.15857777092E+02  0.43491536983E+02  0.41800000000E+01 0. -1.
         -5    1    3    3    0  502  0.38126941764E+02 -0.59443175308E+02 -0.76317954502E+02  0.10406275683E+03  0.41800000000E+01 0. -1.
        -11    1    1    2    0    0 -0.17583988071E+02  0.38367758885E+02 -0.37233057757E+02  0.56281277066E+02  0.00000000000E+00 0.  1.
         11    1    1    2    0    0 -0.27973887036E+02 -0.18514399496E+02  0.33298225372E+02  0.47266194658E+02  0.00000000000E+00 0. -1.
</event>
<event>
 7    1  0.3001243E-009  0.3247263E+03  0.7561462E-02  0.1073494E+00
         -1   -1    0    0    0  501 -0.00000000000E+00  0.00000000000E+00  0.29551417790E+03  0.29551417790E+03  0.00000000000E+00 0.  1.
          1   -1    0    0  501    0  0.00000000000E+00 -0.00000000000E+00 -0.37455270799E+03  0.37455270799E+03  0.00000000000E+00 0. -1.
         25    2    1    2    0    0  0.26287908987E+03 -0.16764816817E+03 -0.79066144970E+02  0.34512343313E+03  0.12508958644E+03 0.  0.
          5    1    3    3  502    0  0.21663963392E+03 -0.18644567390E+03 -0.66841740790E+02  0.29356432176E+03  0.41800000000E+01 0.  1.
         -5    1    3    3    0  502  0.46239455950E+02  0.18797505724E+02 -0.12224404181E+02  0.51559111373E+02  0.41800000000E+01 0.  1.
        -11    1    1    2    0    0 -0.11973709902E+03  0.95820283638E+02 -0.42696193098E+02  0.15919002652E+03  0.00000000000E+00 0. -1.
         11    1    1    2    0    0 -0.14314199085E+03  0.71827884534E+02  0.42723807973E+02  0.16575342624E+03  0.00000000000E+00 0.  1.
</event>
<event>
 7    1  0.3001243E-009  0.1411827E+03  0.7561462E-02  0.1211746E+00
         -1   -1    0    0    0  501 -0.00000000000E+00  0.00000000000E+00  0.10533248131E+03  0.10533248131E+03  0.00000000000E+00 0.  1.
          1   -1    0    0  501    0  0.00000000000E+00 -0.00000000000E+00 -0.25387612208E+03  0.25387612208E+03  0.00000000000E+00 0. -1.
         25    2    1    2    0    0  0.87132922291E+02  0.57458284186E+02 -0.12980314979E+03  0.20830172639E+03  0.12508857242E+03 0.  0.
          5    1    3    3  502    0 -0.17745283398E+02  0.31037267983E+02  0.39831427483E+01  0.36215258012E+02  0.41800000000E+01 0.  1.
         -5    1    3    3    0  502  0.10487820569E+03  0.26421016202E+02 -0.13378629254E+03  0.17208646837E+03  0.41800000000E+01 0.  1.
        -11    1    1    2    0    0 -0.17672421652E+02 -0.65839314693E+02  0.19855815322E+02  0.71002698881E+02  0.00000000000E+00 0.  1.
         11    1    1    2    0    0 -0.69460500639E+02  0.83810305075E+01 -0.38596306302E+02  0.79904178123E+02  0.00000000000E+00 0. -1.
</event>
<event>
 7    1  0.3001243E-009  0.1186079E+03  0.7561462E-02  0.1245411E+00
         -2   -1    0    0    0  501 -0.00000000000E+00  0.00000000000E+00  0.27897128459E+03  0.27897128459E+03  0.00000000000E+00 0. -1.
          2   -1    0    0  501    0  0.00000000000E+00 -0.00000000000E+00 -0.60466717883E+02  0.60466717883E+02  0.00000000000E+00 0.  1.
         25    2    1    2    0    0  0.61756155871E+02  0.24248991459E+02  0.78976502767E+02  0.16213166372E+03  0.12509017553E+03 0.  0.
          5    1    3    3  502    0  0.55037662519E+02  0.72056036202E+02  0.36991398827E+02  0.98015573435E+02  0.41800000000E+01 0.  1.
         -5    1    3    3    0  502  0.67184933523E+01 -0.47807044743E+02  0.41985103941E+02  0.64116090281E+02  0.41800000000E+01 0.  1.
        -11    1    1    2    0    0 -0.64390144013E+02 -0.44049860941E+02  0.13633325992E+03  0.15707717421E+03  0.00000000000E+00 0. -1.
         11    1    1    2    0    0  0.26339881425E+01  0.19800869482E+02  0.31948040167E+01  0.20229164552E+02  0.00000000000E+00 0.  1.
</event>
<event>
 7    1  0.3001243E-009  0.8356581E+02  0.7561462E-02  0.1319226E+00
         -1   -1    0    0    0  501 -0.00000000000E+00  0.00000000000E+00  0.25995976515E+03  0.25995976515E+03  0.00000000000E+00 0.  1.
          1   -1    0    0  501    0  0.00000000000E+00 -0.00000000000E+00 -0.59206744820E+02  0.59206744820E+02  0.00000000000E+00 0. -1.
         25    2    1    2    0    0  0.15273158334E+02 -0.13264976545E+01  0.18945528157E+03  0.22754769754E+03  0.12509844914E+03 0.  0.
          5    1    3    3  502    0  0.19326582325E+02 -0.37603136369E+02  0.18583414537E+03  0.19062873507E+03  0.41800000000E+01 0.  1.
         -5    1    3    3    0  502 -0.40534239914E+01  0.36276638715E+02  0.36211362064E+01  0.36918962471E+02  0.41800000000E+01 0.  1.
        -11    1    1    2    0    0  0.33617134200E+02 -0.14366657774E+02  0.16301974679E+02  0.40028326794E+02  0.00000000000E+00 0.  1.
         11    1    1    2    0    0 -0.48890292534E+02  0.15693155429E+02 -0.50042359209E+01  0.51590485639E+02  0.00000000000E+00 0. -1.
</event>
<event>
 7    1  0.3001243E-009  0.1206589E+03  0.7561462E-02  0.1242014E+00
          2   -1    0    0  501    0  0.00000000000E+00  0.00000000000E+00  0.45898843847E+03  0.45898843847E+03  0.00000000000E+00 0. -1.
         -2   -1    0    0    0  501 -0.00000000000E+00 -0.00000000000E+00 -0.54218212947E+02  0.54218212947E+02  0.00000000000E+00 0.  1.
         25    2    1    2    0    0 -0.80731883432E+02  0.43647003034E+02  0.10866003184E+03  0.18941871233E+03  0.12509895357E+03 0.  0.
          5    1    3    3  502    0 -0.45293666326E+02  0.64057787122E+02  0.12294072714E+03  0.14590000374E+03  0.41800000000E+01 0. -1.
         -5    1    3    3    0  502 -0.35438217107E+02 -0.20410784089E+02 -0.14280695303E+02  0.43518708588E+02  0.41800000000E+01 0. -1.
        -11    1    1    2    0    0  0.67959026638E+02  0.80119551278E+01  0.10438927366E+03  0.12481883345E+03  0.00000000000E+00 0. -1.
         11    1    1    2    0    0  0.12772856794E+02 -0.51658958162E+02  0.19172092002E+03  0.19896910565E+03  0.00000000000E+00 0.  1.
</event>
<event>
 7    1  0.3001243E-009  0.2393471E+03  0.7561462E-02  0.1120229E+00
          1   -1    0    0  501    0  0.00000000000E+00  0.00000000000E+00  0.13176179058E+04  0.13176179058E+04  0.00000000000E+00 0. -1.
         -1   -1    0    0    0  501 -0.00000000000E+00 -0.00000000000E+00 -0.53035359440E+02  0.53035359440E+02  0.00000000000E+00 0.  1.
         25    2    1    2    0    0  0.83842156742E+02  0.20172002349E+03  0.90473263384E+03  0.93910042257E+03  0.12509192545E+03 0.  0.
          5    1    3    3  502    0 -0.24610634240E+02  0.23989399015E+02  0.61927809721E+02  0.70948577150E+02  0.41800000000E+01 0.  1.
         -5    1    3    3    0  502  0.10845279098E+03  0.17773062447E+03  0.84280482412E+03  0.86815184542E+03  0.41800000000E+01 0.  1.
        -11    1    1    2    0    0 -0.96323775648E+01 -0.13705412418E+03  0.23913678405E+03  0.27579524495E+03  0.00000000000E+00 0.  1.
         11    1    1    2    0    0 -0.74209779178E+02 -0.64665899307E+02  0.12071312843E+03  0.15575759767E+03  0.00000000000E+00 0. -1.
</event>
<event>
 7    1  0.3001243E-009  0.1138001E+03  0.7561462E-02  0.1253690E+00
          1   -1    0    0  501    0  0.00000000000E+00  0.00000000000E+00  0.80182866372E+03  0.80182866372E+03  0.00000000000E+00 0. -1.
         -1   -1    0    0    0  501 -0.00000000000E+00 -0.00000000000E+00 -0.19499564825E+02  0.19499564825E+02  0.00000000000E+00 0.  1.
         25    2    1    2    0    0 -0.23371514846E+01  0.44347620576E+02  0.59197438414E+03  0.60667235021E+03  0.12508195435E+03 0.  0.
          5    1    3    3  502    0  0.48850548780E+02 -0.15294244492E+02  0.17704109453E+03  0.18434020609E+03  0.41800000000E+01 0. -1.
         -5    1    3    3    0  502 -0.51187700265E+02  0.59641865068E+02  0.41493328961E+03  0.42233214411E+03  0.41800000000E+01 0. -1.
        -11    1    1    2    0    0 -0.36822052917E+02 -0.45281935717E+02  0.94017885093E+02  0.11066020062E+03  0.00000000000E+00 0. -1.
         11    1    1    2    0    0  0.39159204402E+02  0.93431514126E+00  0.96336829664E+02  0.10399567772E+03  0.00000000000E+00 0.  1.
</event>
<event>
 7    1  0.3001243E-009  0.6389711E+02  0.7561462E-02  0.1382169E+00
         -2   -1    0    0    0  501 -0.00000000000E+00  0.00000000000E+00  0.78649827744E+02  0.78649827744E+02  0.00000000000E+00 0.  1.
          2   -1    0    0  501    0  0.00000000000E+00 -0.00000000000E+00 -0.17752899411E+03  0.17752899411E+03  0.00000000000E+00 0. -1.
         25    2    1    2    0    0 -0.23119314878E+02  0.18828502725E+02 -0.95484083912E+02  0.16016695759E+03  0.12508888355E+03 0.  0.
          5    1    3    3  502    0  0.31078618759E+01  0.45096519731E+02  0.11515785605E+02  0.46834182125E+02  0.41800000000E+01 0. -1.
         -5    1    3    3    0  502 -0.26227176753E+02 -0.26268017006E+02 -0.10699986952E+03  0.11333277546E+03  0.41800000000E+01 0. -1.
        -11    1    1    2    0    0 -0.38367215182E+01 -0.17649553095E+02 -0.43827442287E+02  0.47403289484E+02  0.00000000000E+00 0. -1.
         11    1    1    2    0    0  0.26956036396E+02 -0.11789496296E+01  0.40432359834E+02  0.48608574780E+02  0.00000000000E+00 0.  1.
</event>
<event>
 7    1  0.3001243E-009  0.1032496E+03  0.7561462E-02  0.1273607E+00
          2   -1    0    0  501    0  0.00000000000E+00  0.00000000000E+00  0.75477771275E+03  0.75477771275E+03  0.00000000000E+00 0. -1.
         -2   -1    0    0    0  501 -0.00000000000E+00 -0.00000000000E+00 -0.17540545851E+02  0.17540545851E+02  0.00000000000E+00 0.  1.
         25    2    1    2    0    0 -0.30750065467E+02  0.27946020714E+02  0.41068792978E+03  0.43132032591E+03  0.12508437663E+03 0.  0.
          5    1    3    3  502    0 -0.56319627909E+02 -0.16439805288E+02  0.33310783482E+03  0.33826094913E+03  0.41800000000E+01 0.  1.
         -5    1    3    3    0  502  0.25569562442E+02  0.44385826002E+02  0.77580094959E+02  0.93059376783E+02  0.41800000000E+01 0.  1.
        -11    1    1    2    0    0 -0.25879132982E+02 -0.29999902483E+02  0.10241816077E+03  0.10981440401E+03  0.00000000000E+00 0.  1.
         11    1    1    2    0    0  0.56629198448E+02  0.20538817690E+01  0.22413107635E+03  0.23118352868E+03  0.00000000000E+00 0. -1.
</event>
<event>
 7    1  0.3001243E-009  0.1160145E+03  0.7561462E-02  0.1249820E+00
          1   -1    0    0  501    0  0.00000000000E+00  0.00000000000E+00  0.12332953840E+04  0.12332953840E+04  0.00000000000E+00 0. -1.
         -1   -1    0    0    0  501 -0.00000000000E+00 -0.00000000000E+00 -0.11199967903E+02  0.11199967903E+02  0.00000000000E+00 0.  1.
         25    2    1    2    0    0 -0.38253837940E+02  0.15757830442E+02  0.76524226641E+03  0.77650159014E+03  0.12508927952E+03 0.  0.
          5    1    3    3  502    0  0.28133233344E+02  0.48956518882E+02  0.28934400067E+03  0.29483154967E+03  0.41800000000E+01 0.  1.
         -5    1    3    3    0  502 -0.66387071285E+02 -0.33198688440E+02  0.47589826574E+03  0.48167004047E+03  0.41800000000E+01 0.  1.
        -11    1    1    2    0    0 -0.30757984354E+02 -0.32231537679E+01  0.12052786380E+03  0.12443234416E+03  0.00000000000E+00 0.  1.
         11    1    1    2    0    0  0.69011822294E+02 -0.12534676674E+02  0.33632528588E+03  0.34356141759E+03  0.00000000000E+00 0. -1.
</event>
<event>
 7    1  0.3001243E-009  0.1165518E+03  0.7561462E-02  0.1248896E+00
          2   -1    0    0  501    0  0.00000000000E+00  0.00000000000E+00  0.66051088514E+02  0.66051088514E+02  0.00000000000E+00 0. -1.
         -2   -1    0    0    0  501 -0.00000000000E+00 -0.00000000000E+00 -0.28205129256E+03  0.28205129256E+03  0.00000000000E+00 0.  1.
         25    2    1    2    0    0  0.73030996579E+02 -0.32283619647E+02 -0.15167402187E+03  0.21220029909E+03  0.12509276344E+03 0.  0.
          5    1    3    3  502    0 -0.35134144313E+02 -0.70037318943E+01 -0.49275417621E+02  0.61065534786E+02  0.41800000000E+01 0.  1.
         -5    1    3    3    0  502  0.10816514089E+03 -0.25279887753E+02 -0.10239860425E+03  0.15113476431E+03  0.41800000000E+01 0.  1.
        -11    1    1    2    0    0 -0.44582036032E+02  0.24447627007E+01 -0.80145914411E+02  0.91743677701E+02  0.00000000000E+00 0.  1.
         11    1    1    2    0    0 -0.28448960547E+02  0.29838856946E+02  0.15819732241E+02  0.44158404277E+02  0.00000000000E+00 0. -1.
</event>
<event>
 7    1  0.3001243E-009  0.1036680E+03  0.7561462E-02  0.1272766E+00
          2   -1    0    0  501    0  0.00000000000E+00  0.00000000000E+00  0.89887803730E+03  0.89887803730E+03  0.00000000000E+00 0. -1.
         -2   -1    0    0    0  501 -0.00000000000E+00 -0.00000000000E+00 -0.16594679153E+02  0.16594679153E+02  0.00000000000E+00 0.  1.
         25    2    1    2    0    0  0.43898360101E+02 -0.20968984085E+01  0.36061704872E+03  0.38421744557E+03  0.12508767586E+03 0.  0.
          5    1    3    3  502    0  0.15704208623E+02  0.47230943618E+02  0.59166619727E+02  0.77430907869E+02  0.41800000000E+01 0.  1.
         -5    1    3    3    0  502  0.28194151477E+02 -0.49327842026E+02  0.30145042899E+03  0.30678653770E+03  0.41800000000E+01 0.  1.
        -11    1    1    2    0    0 -0.70887332787E+02 -0.85561897890E+01  0.36221528263E+03  0.36918577072E+03  0.00000000000E+00 0.  1.
         11    1    1    2    0    0  0.26988972686E+02  0.10653088198E+02  0.15945102680E+03  0.16206950016E+03  0.00000000000E+00 0. -1.
</event>
<event>
 7    1  0.3001243E-009  0.1086052E+03  0.7561462E-02  0.1263175E+00
          1   -1    0    0  501    0  0.00000000000E+00  0.00000000000E+00  0.41776586504E+02  0.41776586504E+02  0.00000000000E+00 0. -1.
         -1   -1    0    0    0  501 -0.00000000000E+00 -0.00000000000E+00 -0.30802513381E+03  0.30802513381E+03  0.00000000000E+00 0.  1.
         25    2    1    2    0    0  0.35458566385E+02  0.19616327173E+01 -0.14128841942E+03  0.19202352052E+03  0.12509778990E+03 0.  0.
          5    1    3    3  502    0 -0.28240801185E+02 -0.39697424784E+02 -0.30790743349E+02  0.57783826994E+02  0.41800000000E+01 0. -1.
         -5    1    3    3    0  502  0.63699367569E+02  0.41659057501E+02 -0.11049767607E+03  0.13423969352E+03  0.41800000000E+01 0. -1.
        -11    1    1    2    0    0  0.12939166168E+02  0.30958643792E+02 -0.24633985218E+02  0.41625627615E+02  0.00000000000E+00 0. -1.
         11    1    1    2    0    0 -0.48397732553E+02 -0.32920276509E+02 -0.10032614266E+03  0.11615257218E+03  0.00000000000E+00 0.  1.
</event>
<event>
 7    1  0.4973015E-009  0.1522302E+03  0.7561462E-02  0.1197759E+00
          2   -1    0    0  501    0  0.00000000000E+00  0.00000000000E+00  0.54960008436E+03  0.54960008436E+03  0.00000000000E+00 0. -1.
         -2   -1    0    0    0  501 -0.00000000000E+00 -0.00000000000E+00 -0.61775455496E+02  0.61775455496E+02  0.00000000000E+00 0.  1.
         25    2    1    2    0    0 -0.14073918451E+03  0.38992851490E+02  0.21361685072E+03  0.28740929732E+03  0.12507591593E+03 0.  0.
          5    1    3    3  502    0 -0.70306068339E+01 -0.11054624896E+02  0.11023976369E+03  0.11109415854E+03  0.41800000000E+01 0. -1.
         -5    1    3    3    0  502 -0.13370857768E+03  0.50047476386E+02  0.10337708703E+03  0.17631513877E+03  0.41800000000E+01 0. -1.
        -11    1    1    2    0    0  0.54499159274E+02 -0.34684124293E+01  0.29460692693E+02  0.62049340531E+02  0.00000000000E+00 0.  1.
         11    1    1    2    0    0  0.86240025236E+02 -0.35524439061E+02  0.24474708545E+03  0.26191690201E+03  0.00000000000E+00 0. -1.
</event>
<event>
 7    1  0.3001243E-009  0.1355112E+03  0.7561462E-02  0.1219500E+00
         -2   -1    0    0    0  501 -0.00000000000E+00  0.00000000000E+00  0.35243290499E+02  0.35243290499E+02  0.00000000000E+00 0.  1.
          2   -1    0    0  501    0  0.00000000000E+00 -0.00000000000E+00 -0.64788993278E+03  0.64788993278E+03  0.00000000000E+00 0. -1.
         25    2    1    2    0    0 -0.74612920189E+02 -0.72052610813E+02 -0.38035410561E+03  0.41361270829E+03  0.12509020831E+03 0.  0.
          5    1    3    3  502    0  0.26239674809E+02 -0.44136052192E+02 -0.18399057382E+03  0.19106678229E+03  0.41800000000E+01 0.  1.
         -5    1    3    3    0  502 -0.10085259500E+03 -0.27916558621E+02 -0.19636353179E+03  0.22254592600E+03  0.41800000000E+01 0.  1.
        -11    1    1    2    0    0  0.40293127733E+02  0.69534192923E+02 -0.21784979429E+03  0.23220050172E+03  0.00000000000E+00 0. -1.
         11    1    1    2    0    0  0.34319792457E+02  0.25184178899E+01 -0.14442742376E+02  0.37320013267E+02  0.00000000000E+00 0.  1.
</event>
<event>
 7    1  0.3001243E-009  0.1302294E+03  0.7561462E-02  0.1227116E+00
         -2   -1    0    0    0  501 -0.00000000000E+00  0.00000000000E+00  0.17852069964E+02  0.17852069964E+02  0.00000000000E+00 0.  1.
          2   -1    0    0  501    0  0.00000000000E+00 -0.00000000000E+00 -0.11045166320E+04  0.11045166320E+04  0.00000000000E+00 0. -1.
         25    2    1    2    0    0 -0.45633826923E+02  0.61998154308E+02 -0.76627278080E+03  0.78021845731E+03  0.12506258124E+03 0.  0.
          5    1    3    3  502    0  0.24908431504E+02 -0.23833942146E+02 -0.22280228325E+03  0.22549238696E+03  0.41800000000E+01 0. -1.
         -5    1    3    3    0  502 -0.70542258427E+02  0.85832096453E+02 -0.54347049756E+03  0.55472607034E+03  0.41800000000E+01 0. -1.
        -11    1    1    2    0    0  0.52243241479E+02 -0.40310127484E-01 -0.19844821230E+03  0.20520977284E+03  0.00000000000E+00 0.  1.
         11    1    1    2    0    0 -0.66094145563E+01 -0.61957844180E+02 -0.12194356893E+03  0.13694047181E+03  0.00000000000E+00 0. -1.
</event>
<event>
 7    1  0.3001243E-009  0.1720010E+03  0.7561462E-02  0.1175777E+00
          1   -1    0    0  501    0  0.00000000000E+00  0.00000000000E+00  0.60175202219E+03  0.60175202219E+03  0.00000000000E+00 0. -1.
         -1   -1    0    0    0  501 -0.00000000000E+00 -0.00000000000E+00 -0.58106136076E+02  0.58106136076E+02  0.00000000000E+00 0.  1.
         25    2    1    2    0    0 -0.10652241145E+03  0.10750793674E+03  0.27875767081E+03  0.34096657588E+03  0.12508951286E+03 0.  0.
          5    1    3    3  502    0 -0.50835950165E+02 -0.70820349255E+01  0.25560286286E+02  0.57491300932E+02  0.41800000000E+01 0. -1.
         -5    1    3    3    0  502 -0.55686461286E+02  0.11458997166E+03  0.25319738453E+03  0.28347527495E+03  0.41800000000E+01 0. -1.
        -11    1    1    2    0    0  0.48714818074E+02 -0.71787873168E+01  0.31771273681E+02  0.58601043664E+02  0.00000000000E+00 0.  1.
         11    1    1    2    0    0  0.57807593378E+02 -0.10032914942E+03  0.23311694162E+03  0.26029053872E+03  0.00000000000E+00 0. -1.
</event>
<event>
 7    1  0.3001243E-009  0.8880386E+02  0.7561462E-02  0.1305774E+00
         -1   -1    0    0    0  501 -0.00000000000E+00  0.00000000000E+00  0.33409520248E+02  0.33409520248E+02  0.00000000000E+00 0.  1.
          1   -1    0    0  501    0  0.00000000000E+00 -0.00000000000E+00 -0.12032574214E+04  0.12032574214E+04  0.00000000000E+00 0. -1.
         25    2    1    2    0    0 -0.53335584435E+02  0.89522825561E+01 -0.11034954218E+04  0.11118787984E+04  0.12508992161E+03 0.  0.
          5    1    3    3  502    0  0.25090821022E+02 -0.13032478943E+01 -0.57495614049E+02  0.62884543328E+02  0.41800000000E+01 0.  1.
         -5    1    3    3    0  502 -0.78426405457E+02  0.10255530450E+02 -0.10459998078E+04  0.10489942551E+04  0.41800000000E+01 0.  1.
        -11    1    1    2    0    0  0.41614405375E+02  0.16613888106E+02 -0.81379844430E+02  0.92900264221E+02  0.00000000000E+00 0. -1.
         11    1    1    2    0    0  0.11721179060E+02 -0.25566170662E+02  0.15027365145E+02  0.31887878952E+02  0.00000000000E+00 0.  1.
</event>
<event>
 7    1  0.3001243E-009  0.8114034E+02  0.7561462E-02  0.1325846E+00
          2   -1    0    0  501    0  0.00000000000E+00  0.00000000000E+00  0.82690378037E+02  0.82690378037E+02  0.00000000000E+00 0.  1.
         -2   -1    0    0    0  501 -0.00000000000E+00 -0.00000000000E+00 -0.26510602751E+03  0.26510602751E+03  0.00000000000E+00 0. -1.
         25    2    1    2    0    0 -0.64393404386E+02 -0.12510426293E+02 -0.18743017972E+03  0.23469248722E+03  0.12508984767E+03 0.  0.
          5    1    3    3  502    0 -0.48321726003E+02 -0.43457316256E+00 -0.24391300277E+01  0.48565417871E+02  0.41800000000E+01 0.  1.
         -5    1    3    3    0  502 -0.16071678383E+02 -0.12075853130E+02 -0.18499104970E+03  0.18612706934E+03  0.41800000000E+01 0.  1.
        -11    1    1    2    0    0  0.90490236223E+01 -0.24865436252E+02 -0.28069339102E+02  0.38575413752E+02  0.00000000000E+00 0.  1.
         11    1    1    2    0    0  0.55344380763E+02  0.37375862545E+02  0.33083869355E+02  0.74528504577E+02  0.00000000000E+00 0. -1.
</event>
<event>
 7    1  0.3001243E-009  0.1201732E+03  0.7561462E-02  0.1242812E+00
          2   -1    0    0  501    0  0.00000000000E+00  0.00000000000E+00  0.62977256226E+03  0.62977256226E+03  0.00000000000E+00 0. -1.
         -2   -1    0    0    0  501 -0.00000000000E+00 -0.00000000000E+00 -0.33933004468E+02  0.33933004468E+02  0.00000000000E+00 0.  1.
         25    2    1    2    0    0  0.86453693862E+02 -0.32629157391E+01  0.41613182530E+03  0.44305530716E+03  0.12508965335E+03 0.  0.
          5    1    3    3  502    0  0.23066997870E+02 -0.45516412582E+02  0.60148589538E+02  0.78988324634E+02  0.41800000000E+01 0. -1.
         -5    1    3    3    0  502  0.63386695992E+02  0.42253496843E+02  0.35598323576E+03  0.36406698252E+03  0.41800000000E+01 0. -1.
        -11    1    1    2    0    0 -0.93270366356E+02  0.19462117732E+02  0.96516717200E+02  0.13562305101E+03  0.00000000000E+00 0.  1.
         11    1    1    2    0    0  0.68166724941E+01 -0.16199201993E+02  0.83191015298E+02  0.85027208559E+02  0.00000000000E+00 0. -1.
</event>
<event>
 7    1  0.3001243E-009  0.3494128E+03  0.7561462E-02  0.1062856E+00
         -1   -1    0    0    0  501 -0.00000000000E+00  0.00000000000E+00  0.16933640087E+03  0.16933640087E+03  0.00000000000E+00 0.  1.
          1   -1    0    0  501    0  0.00000000000E+00 -0.00000000000E+00 -0.80268291526E+03  0.80268291526E+03  0.00000000000E+00 0. -1.
         25    2    1    2    0    0 -0.32382287490E+03  0.12993959895E+03 -0.38439956470E+03  0.53399998327E+03  0.12508958032E+03 0.  0.
          5    1    3    3  502    0 -0.13002582187E+02  0.22031947443E+01  0.90703702161E+01  0.16542830062E+02  0.41800000000E+01 0. -1.
         -5    1    3    3    0  502 -0.31082029271E+03  0.12773640421E+03 -0.39346993492E+03  0.51745715321E+03  0.41800000000E+01 0. -1.
        -11    1    1    2    0    0  0.12313103165E+03 -0.49571520168E+02 -0.14990841492E+03  0.20022766900E+03  0.00000000000E+00 0.  1.
         11    1    1    2    0    0  0.20069184325E+03 -0.80368078781E+02 -0.99038534766E+02  0.23779166386E+03  0.00000000000E+00 0. -1.
</event>
<event>
 7    1  0.3001243E-009  0.9625646E+02  0.7561462E-02  0.1288371E+00
         -1   -1    0    0    0  501 -0.00000000000E+00  0.00000000000E+00  0.25527912456E+02  0.25527912456E+02  0.00000000000E+00 0.  1.
          1   -1    0    0  501    0  0.00000000000E+00 -0.00000000000E+00 -0.48394478909E+03  0.48394478909E+03  0.00000000000E+00 0. -1.
         25    2    1    2    0    0  0.41544871066E+01  0.42098733512E+00 -0.32117562987E+03  0.34469865835E+03  0.12508374338E+03 0.  0.
          5    1    3    3  502    0  0.56956839936E+02 -0.81178229290E+01 -0.86510214108E+02  0.10397821988E+03  0.41800000000E+01 0.  1.
         -5    1    3    3    0  502 -0.52802352830E+02  0.85388102641E+01 -0.23466541576E+03  0.24072043847E+03  0.41800000000E+01 0.  1.
        -11    1    1    2    0    0  0.12641425266E+02  0.37569746342E+02 -0.29826645731E+02  0.49607663405E+02  0.00000000000E+00 0. -1.
         11    1    1    2    0    0 -0.16795912373E+02 -0.37990733677E+02 -0.10741460103E+03  0.11516637979E+03  0.00000000000E+00 0.  1.
</event>
<event>
 7    1  0.3001243E-009  0.1602796E+03  0.7561462E-02  0.1188381E+00
          1   -1    0    0  501    0  0.00000000000E+00  0.00000000000E+00  0.10380064391E+04  0.10380064391E+04  0.00000000000E+00 0. -1.
         -1   -1    0    0    0  501 -0.00000000000E+00 -0.00000000000E+00 -0.38416273745E+02  0.38416273745E+02  0.00000000000E+00 0.  1.
         25    2    1    2    0    0  0.12086174419E+03  0.10084503885E+03  0.36903392233E+03  0.42025066799E+03  0.12508918834E+03 0.  0.
          5    1    3    3  502    0  0.49745510037E+02  0.51674927734E+02  0.44825904786E+02  0.84686173990E+02  0.41800000000E+01 0. -1.
         -5    1    3    3    0  502  0.71116234155E+02  0.49170111117E+02  0.32420801755E+03  0.33556449400E+03  0.41800000000E+01 0. -1.
        -11    1    1    2    0    0 -0.85696440277E+02 -0.46722113761E+02  0.51165859233E+03  0.52088516094E+03  0.00000000000E+00 0. -1.
         11    1    1    2    0    0 -0.35165303915E+02 -0.54122925090E+02  0.11889765071E+03  0.13528688394E+03  0.00000000000E+00 0.  1.
</event>
<event>
 7    1  0.4435793E-009  0.1429842E+03  0.7561462E-02  0.1209369E+00
         -2   -1    0    0    0  501 -0.00000000000E+00  0.00000000000E+00  0.68210363953E+02  0.68210363953E+02  0.00000000000E+00 0.  1.
          2   -1    0    0  501    0  0.00000000000E+00 -0.00000000000E+00 -0.47534781199E+03  0.47534781199E+03  0.00000000000E+00 0. -1.
         25    2    1    2    0    0 -0.12404366447E+03  0.29133268650E+02 -0.11645585220E+03  0.21317891443E+03  0.12509079107E+03 0.  0.
          5    1    3    3  502    0 -0.71496990766E+02 -0.24537460193E+02 -0.11531184604E+03  0.13794274493E+03  0.41800000000E+01 0.  1.
         -5    1    3    3    0  502 -0.52546673702E+02  0.53670728843E+02 -0.11440061606E+01  0.75236169505E+02  0.41800000000E+01 0.  1.
        -11    1    1    2    0    0  0.93563781531E+02 -0.41226466014E+02 -0.12502647054E+03  0.16150981719E+03  0.00000000000E+00 0.  1.
         11    1    1    2    0    0  0.30479882936E+02  0.12093197364E+02 -0.16565512530E+03  0.16886944432E+03  0.00000000000E+00 0. -1.
</event>
<event>
 7    1  0.3001243E-009  0.1052552E+03  0.7561462E-02  0.1269618E+00
         -1   -1    0    0    0  501 -0.00000000000E+00  0.00000000000E+00  0.57386214041E+02  0.57386214041E+02  0.00000000000E+00 0.  1.
          1   -1    0    0  501    0  0.00000000000E+00 -0.00000000000E+00 -0.26210439185E+03  0.26210439185E+03  0.00000000000E+00 0. -1.
         25    2    1    2    0    0  0.29746381497E+01 -0.16260307457E+01 -0.18814359504E+03  0.22595832776E+03  0.12509061149E+03 0.  0.
          5    1    3    3  502    0  0.60752558702E+02  0.33063169955E+01 -0.13069885991E+03  0.14422714552E+03  0.41800000000E+01 0.  1.
         -5    1    3    3    0  502 -0.57777920553E+02 -0.49323477412E+01 -0.57444735124E+02  0.81731182245E+02  0.41800000000E+01 0.  1.
        -11    1    1    2    0    0 -0.17553617410E+02  0.43573988114E+02 -0.14129842258E+02  0.49055829079E+02  0.00000000000E+00 0.  1.
         11    1    1    2    0    0  0.14578979260E+02 -0.41947957368E+02 -0.24447405071E+01  0.44476449047E+02  0.00000000000E+00 0. -1.
</event>
<event>
 7    1  0.3001243E-009  0.6104467E+02  0.7561462E-02  0.1393499E+00
          1   -1    0    0  501    0  0.00000000000E+00  0.00000000000E+00  0.20586947628E+03  0.20586947628E+03  0.00000000000E+00 0. -1.
         -1   -1    0    0    0  501 -0.00000000000E+00 -0.00000000000E+00 -0.83502138522E+02  0.83502138522E+02  0.00000000000E+00 0.  1.
         25    2    1    2    0    0  0.40739495785E+02  0.16806912137E+02  0.13432377575E+03  0.18876415363E+03  0.12508737008E+03 0.  0.
          5    1    3    3  502    0  0.53601082553E+02  0.75714282088E+01  0.86177523652E+00  0.54301175241E+02  0.41800000000E+01 0.  1.
         -5    1    3    3    0  502 -0.12861586768E+02  0.92354839286E+01  0.13346200051E+03  0.13446297839E+03  0.41800000000E+01 0.  1.
        -11    1    1    2    0    0 -0.13178453887E+02  0.70683519880E+01  0.36800735747E+02  0.39723134295E+02  0.00000000000E+00 0. -1.
         11    1    1    2    0    0 -0.27561041898E+02 -0.23875264125E+02 -0.48757173739E+02  0.60884326872E+02  0.00000000000E+00 0.  1.
</event>
<event>
 7    1  0.3001243E-009  0.1130434E+03  0.7561462E-02  0.1255036E+00
         -2   -1    0    0    0  501 -0.00000000000E+00  0.00000000000E+00  0.12545125761E+03  0.12545125761E+03  0.00000000000E+00 0. -1.
          2   -1    0    0  501    0  0.00000000000E+00 -0.00000000000E+00 -0.15836262489E+03  0.15836262489E+03  0.00000000000E+00 0.  1.
         25    2    1    2    0    0  0.42437957620E+02  0.79225826941E+02 -0.13935428343E+02  0.15466031244E+03  0.12509158317E+03 0.  0.
          5    1    3    3  502    0  0.35924275777E+02  0.83788150998E+02 -0.59024599880E+02  0.10868479024E+03  0.41800000000E+01 0.  1.
         -5    1    3    3    0  502  0.65136818434E+01 -0.45623240565E+01  0.45089171536E+02  0.45975522202E+02  0.41800000000E+01 0.  1.
        -11    1    1    2    0    0 -0.93919331779E+01  0.19547891190E+02 -0.11950660172E+02  0.24761799962E+02  0.00000000000E+00 0.  1.
         11    1    1    2    0    0 -0.33046024442E+02 -0.98773718131E+02 -0.70252787638E+01  0.10439177011E+03  0.00000000000E+00 0. -1.
</event>
<event>
 7    1  0.3001243E-009  0.1860850E+03  0.7561462E-02  0.1162041E+00
         -1   -1    0    0    0  501 -0.00000000000E+00  0.00000000000E+00  0.39458831557E+02  0.39458831557E+02  0.00000000000E+00 0.  1.
          1   -1    0    0  501    0  0.00000000000E+00 -0.00000000000E+00 -0.11506795880E+04  0.11506795880E+04  0.00000000000E+00 0. -1.
         25    2    1    2    0    0  0.39299502643E+02  0.15161708170E+03 -0.31288310438E+03  0.37159566034E+03  0.12512117091E+03 0.  0.
          5    1    3    3  502    0 -0.27695379186E+02  0.12523684695E+03 -0.20245717082E+03  0.23970331720E+03  0.41800000000E+01 0.  1.
         -5    1    3    3    0  502  0.66994881829E+02  0.26380234751E+02 -0.11042593355E+03  0.13189234314E+03  0.41800000000E+01 0.  1.
        -11    1    1    2    0    0  0.20194806230E+02 -0.50607729436E+02 -0.14773255400E+03  0.15746072523E+03  0.00000000000E+00 0.  1.
         11    1    1    2    0    0 -0.59494308873E+02 -0.10100935226E+03 -0.65060509806E+03  0.66108203399E+03  0.00000000000E+00 0. -1.
</event>
<event>
 7    1  0.3001243E-009  0.1092760E+03  0.7561462E-02  0.1261917E+00
          2   -1    0    0  501    0  0.00000000000E+00  0.00000000000E+00  0.22824736092E+03  0.22824736092E+03  0.00000000000E+00 0.  1.
         -2   -1    0    0    0  501 -0.00000000000E+00 -0.00000000000E+00 -0.53758502379E+02  0.53758502379E+02  0.00000000000E+00 0. -1.
         25    2    1    2    0    0  0.87306730812E+01 -0.21121301143E+02  0.95195298054E+02  0.15884871056E+03  0.12509370113E+03 0.  0.
          5    1    3    3  502    0  0.16276484003E+02 -0.71739517982E+02  0.70084029346E+02  0.10168936002E+03  0.41800000000E+01 0. -1.
         -5    1    3    3    0  502 -0.75458109220E+01  0.50618216839E+02  0.25111268709E+02  0.57159350544E+02  0.41800000000E+01 0. -1.
        -11    1    1    2    0    0  0.40857190454E+02  0.15153578035E+02  0.29447372227E+02  0.52593618151E+02  0.00000000000E+00 0. -1.
         11    1    1    2    0    0 -0.49587863536E+02  0.59677231075E+01  0.49846188260E+02  0.70563534585E+02  0.00000000000E+00 0.  1.
</event>
<event>
 7    1  0.3001243E-009  0.1514204E+03  0.7561462E-02  0.1198738E+00
         -2   -1    0    0    0  501 -0.00000000000E+00  0.00000000000E+00  0.58106480819E+02  0.58106480819E+02  0.00000000000E+00 0.  1.
          2   -1    0    0  501    0  0.00000000000E+00 -0.00000000000E+00 -0.51934530306E+03  0.51934530306E+03  0.00000000000E+00 0. -1.
         25    2    1    2    0    0 -0.13120580917E+03  0.16557814645E+02 -0.19860730898E+03  0.26940851819E+03  0.12508781278E+03 0.  0.
          5    1    3    3  502    0 -0.42049526006E+02 -0.18309450161E+02 -0.15932321373E+03  0.16584558310E+03  0.41800000000E+01 0.  1.
         -5    1    3    3    0  502 -0.89156283168E+02  0.34867264805E+02 -0.39284095249E+02  0.10356293508E+03  0.41800000000E+01 0.  1.
        -11    1    1    2    0    0  0.53086064880E+02  0.38341123191E+02 -0.10907877453E+03  0.12722559123E+03  0.00000000000E+00 0. -1.
         11    1    1    2    0    0  0.78119744294E+02 -0.54898937836E+02 -0.15355273874E+03  0.18081767446E+03  0.00000000000E+00 0.  1.
</event>
<event>
 7    1  0.3001243E-009  0.1933168E+03  0.7561462E-02  0.1155503E+00
          3   -1    0    0  501    0  0.00000000000E+00  0.00000000000E+00  0.22687376234E+03  0.22687376234E+03  0.00000000000E+00 0. -1.
         -3   -1    0    0    0  501 -0.00000000000E+00 -0.00000000000E+00 -0.51392115809E+03  0.51392115809E+03  0.00000000000E+00 0.  1.
         25    2    1    2    0    0  0.25587657578E+02  0.16403214690E+03 -0.44693635897E+03  0.49291024994E+03  0.12508849705E+03 0.  0.
          5    1    3    3  502    0 -0.47986891280E+02  0.61585674862E+02 -0.21642593417E+03  0.23011561109E+03  0.41800000000E+01 0. -1.
         -5    1    3    3    0  502  0.73574548859E+02  0.10244647204E+03 -0.23051042479E+03  0.26279463886E+03  0.41800000000E+01 0. -1.
        -11    1    1    2    0    0 -0.21891392851E+02 -0.40964254742E+01  0.47233339932E+02  0.52220706465E+02  0.00000000000E+00 0. -1.
         11    1    1    2    0    0 -0.36962647277E+01 -0.15993572143E+03  0.11265562328E+03  0.19566396403E+03  0.00000000000E+00 0.  1.
</event>
<event>
 7    1  0.3001243E-009  0.1081438E+03  0.7561462E-02  0.1264046E+00
         -1   -1    0    0    0  501 -0.00000000000E+00  0.00000000000E+00  0.11632518859E+02  0.11632518859E+02  0.00000000000E+00 0.  1.
          1   -1    0    0  501    0  0.00000000000E+00 -0.00000000000E+00 -0.21915339696E+04  0.21915339696E+04  0.00000000000E+00 0. -1.
         25    2    1    2    0    0  0.55719191419E+02  0.17487998127E+02 -0.18687990821E+04  0.18738910766E+04  0.12508916544E+03 0.  0.
          5    1    3    3  502    0  0.10384680822E+02 -0.36317489767E+02 -0.19847932341E+03  0.20208492245E+03  0.41800000000E+01 0. -1.
         -5    1    3    3    0  502  0.45334510597E+02  0.53805487894E+02 -0.16703197587E+04  0.16718061541E+04  0.41800000000E+01 0. -1.
        -11    1    1    2    0    0  0.20362019745E+02 -0.23962862290E+02 -0.85226567539E+02  0.90842712596E+02  0.00000000000E+00 0. -1.
         11    1    1    2    0    0 -0.76081211164E+02  0.64748641629E+01 -0.22587580112E+03  0.23843269929E+03  0.00000000000E+00 0.  1.
</event>
<event>
 7    1  0.3001243E-009  0.3523973E+03  0.7561462E-02  0.1061635E+00
          2   -1    0    0  501    0  0.00000000000E+00  0.00000000000E+00  0.18806961702E+04  0.18806961702E+04  0.00000000000E+00 0. -1.
         -2   -1    0    0    0  501 -0.00000000000E+00 -0.00000000000E+00 -0.76289452331E+02  0.76289452331E+02  0.00000000000E+00 0.  1.
         25    2    1    2    0    0  0.70223729762E+02  0.33489867677E+03  0.12162634428E+04  0.12696581362E+04  0.12508606808E+03 0.  0.
          5    1    3    3  502    0  0.40636359891E+02  0.19180971112E+02  0.20165040244E+03  0.20663876839E+03  0.41800000000E+01 0.  1.
         -5    1    3    3    0  502  0.29587369872E+02  0.31571770566E+03  0.10146130404E+04  0.10630193678E+04  0.41800000000E+01 0.  1.
        -11    1    1    2    0    0 -0.33075725182E+02 -0.12117142379E+03  0.13190265077E+03  0.18213958060E+03  0.00000000000E+00 0.  1.
         11    1    1    2    0    0 -0.37148004580E+02 -0.21372725298E+03  0.45624062430E+03  0.50518790581E+03  0.00000000000E+00 0. -1.
</event>
<event>
 7    1  0.3001243E-009  0.1074817E+03  0.7561462E-02  0.1265306E+00
         -2   -1    0    0    0  501 -0.00000000000E+00  0.00000000000E+00  0.31196123134E+02  0.31196123134E+02  0.00000000000E+00 0.  1.
          2   -1    0    0  501    0  0.00000000000E+00 -0.00000000000E+00 -0.50532876652E+03  0.50532876652E+03  0.00000000000E+00 0. -1.
         25    2    1    2    0    0 -0.21054474191E+02  0.26966186685E+02 -0.15119547561E+03  0.19919284291E+03  0.12508897119E+03 0.  0.
          5    1    3    3  502    0  0.36450999665E+02  0.45670074980E+02 -0.11373693183E+03  0.12793745811E+03  0.41800000000E+01 0. -1.
         -5    1    3    3    0  502 -0.57505473857E+02 -0.18703888295E+02 -0.37458543772E+02  0.71255384796E+02  0.41800000000E+01 0. -1.
        -11    1    1    2    0    0 -0.34476710955E+02 -0.19844163869E+02 -0.16625219906E+03  0.17094510268E+03  0.00000000000E+00 0.  1.
         11    1    1    2    0    0  0.55531185147E+02 -0.71220228159E+01 -0.15668496872E+03  0.16638694407E+03  0.00000000000E+00 0. -1.
</event>
<event>
 6    1  0.3001243E-009  0.1194116E+03  0.7561462E-02  0.1244071E+00
         -2   -1    0    0    0  501 -0.00000000000E+00  0.00000000000E+00  0.22200273174E+02  0.22200273174E+02  0.00000000000E+00 0.  1.
          2   -1    0    0  501    0  0.00000000000E+00 -0.00000000000E+00 -0.85401289921E+03  0.85401289921E+03  0.00000000000E+00 0. -1.
          5    1    1    2  502    0  0.11480835889E+02 -0.23711940527E+02 -0.16646910667E+03  0.16859270919E+03  0.41800000000E+01 0.  1.
         -5    1    1    2    0  502 -0.23451351586E+02  0.93906542329E+02 -0.14407878472E+03  0.17362192600E+03  0.41800000000E+01 0.  1.
        -11    1    1    2    0    0 -0.11882863834E+02 -0.85893656423E+02 -0.36617882213E+03  0.37630553071E+03  0.00000000000E+00 0.  1.
         11    1    1    2    0    0  0.23853379531E+02  0.15699054622E+02 -0.15508591252E+03  0.15769300648E+03  0.00000000000E+00 0. -1.
</event>
<event>
 7    1  0.3001243E-009  0.1080884E+03  0.7561462E-02  0.1264151E+00
          2   -1    0    0  501    0  0.00000000000E+00  0.00000000000E+00  0.27641732875E+03  0.27641732875E+03  0.00000000000E+00 0. -1.
         -2   -1    0    0    0  501 -0.00000000000E+00 -0.00000000000E+00 -0.45907912031E+02  0.45907912031E+02  0.00000000000E+00 0.  1.
         25    2    1    2    0    0 -0.20950447110E+02  0.15131111653E+02  0.94104740654E+02  0.15865261848E+03  0.12508828627E+03 0.  0.
          5    1    3    3  502    0 -0.51256429243E+02 -0.39521068430E+02  0.43016427423E+02  0.77826870789E+02  0.41800000000E+01 0.  1.
         -5    1    3    3    0  502  0.30305982134E+02  0.54652180083E+02  0.51088313232E+02  0.80825747690E+02  0.41800000000E+01 0.  1.
        -11    1    1    2    0    0  0.20078441504E+02  0.34033011132E+02  0.77084993692E+02  0.86622663965E+02  0.00000000000E+00 0. -1.
         11    1    1    2    0    0  0.87200560604E+00 -0.49164122784E+02  0.59319682375E+02  0.77049958338E+02  0.00000000000E+00 0.  1.
</event>
<event>
 7    1  0.3001243E-009  0.1056009E+03  0.7561462E-02  0.1268940E+00
         -2   -1    0    0    0  501 -0.00000000000E+00  0.00000000000E+00  0.25304563858E+02  0.25304563858E+02  0.00000000000E+00 0.  1.
          2   -1    0    0  501    0  0.00000000000E+00 -0.00000000000E+00 -0.11731833692E+04  0.11731833692E+04  0.00000000000E+00 0. -1.
         25    2    1    2    0    0 -0.40920849706E+01  0.65927023720E+02 -0.10012398954E+04  0.10111833775E+04  0.12508947658E+03 0.  0.
          5    1    3    3  502    0  0.54309456481E+02  0.26907510742E+02 -0.65844303248E+03  0.66123991911E+03  0.41800000000E+01 0. -1.
         -5    1    3    3    0  502 -0.58401541452E+02  0.39019512977E+02 -0.34279686295E+03  0.34994345841E+03  0.41800000000E+01 0. -1.
        -11    1    1    2    0    0  0.24767846532E+02 -0.34570914188E+02 -0.14343747846E+03  0.14960917270E+03  0.00000000000E+00 0. -1.
         11    1    1    2    0    0 -0.20675761561E+02 -0.31356109531E+02 -0.32014314103E+01  0.37695382796E+02  0.00000000000E+00 0.  1.
</event>
<event>
 7    1  0.3001243E-009  0.1535654E+03  0.7561462E-02  0.1196159E+00
          2   -1    0    0  501    0  0.00000000000E+00  0.00000000000E+00  0.71706494622E+03  0.71706494622E+03  0.00000000000E+00 0. -1.
         -2   -1    0    0    0  501 -0.00000000000E+00 -0.00000000000E+00 -0.34067747155E+02  0.34067747155E+02  0.00000000000E+00 0.  1.
         25    2    1    2    0    0  0.94961050270E+01  0.11191775045E+03  0.34085462638E+03  0.38005906554E+03  0.12508900074E+03 0.  0.
          5    1    3    3  502    0 -0.17131231208E+02  0.12990490530E+03  0.30353030284E+03  0.33063103400E+03  0.41800000000E+01 0. -1.
         -5    1    3    3    0  502  0.26627336235E+02 -0.17987154853E+02  0.37324323534E+02  0.49428031540E+02  0.41800000000E+01 0. -1.
        -11    1    1    2    0    0  0.36556729728E+02 -0.78921060348E+02  0.20983595388E+03  0.22714765197E+03  0.00000000000E+00 0.  1.
         11    1    1    2    0    0 -0.46052834755E+02 -0.32996690097E+02  0.13230661882E+03  0.14392597587E+03  0.00000000000E+00 0. -1.
</event>
<event>
 7    1  0.3001243E-009  0.8497773E+02  0.7561462E-02  0.1315491E+00
         -2   -1    0    0    0  501 -0.00000000000E+00  0.00000000000E+00  0.29949358549E+02  0.29949358549E+02  0.00000000000E+00 0.  1.
          2   -1    0    0  501    0  0.00000000000E+00 -0.00000000000E+00 -0.43642849933E+03  0.43642849933E+03  0.00000000000E+00 0. -1.
         25    2    1    2    0    0  0.31980675990E+02 -0.64710340038E+01 -0.25863067456E+03  0.28913463964E+03  0.12507748038E+03 0.  0.
          5    1    3    3  502    0 -0.20991881598E+02  0.15173603650E+02 -0.21613867104E+01  0.26325678211E+02  0.41800000000E+01 0.  1.
         -5    1    3    3    0  502  0.52972557589E+02 -0.21644637654E+02 -0.25646928785E+03  0.26280896143E+03  0.41800000000E+01 0.  1.
        -11    1    1    2    0    0 -0.33265851116E+02  0.40431394941E+02 -0.12700986276E+03  0.13737838180E+03  0.00000000000E+00 0. -1.
         11    1    1    2    0    0  0.12851751256E+01 -0.33960360938E+02 -0.20838603457E+02  0.39864836437E+02  0.00000000000E+00 0.  1.
</event>
<event>
 7    1  0.3001243E-009  0.7245232E+02  0.7561462E-02  0.1351947E+00
         -4   -1    0    0    0  501 -0.00000000000E+00  0.00000000000E+00  0.34646715461E+02  0.34646715461E+02  0.00000000000E+00 0.  1.
          4   -1    0    0  501    0  0.00000000000E+00 -0.00000000000E+00 -0.36429896428E+03  0.36429896428E+03  0.00000000000E+00 0. -1.
         25    2    1    2    0    0 -0.10884186420E+02  0.21065785723E+02 -0.15378764630E+03  0.19965060929E+03  0.12508993882E+03 0.  0.
          5    1    3    3  502    0  0.27502920709E+02  0.11748872294E+02  0.94558280546E+01  0.31643826127E+02  0.41800000000E+01 0.  1.
         -5    1    3    3    0  502 -0.38387107129E+02  0.93169134286E+01 -0.16324347435E+03  0.16800678316E+03  0.41800000000E+01 0.  1.
        -11    1    1    2    0    0 -0.25678998663E+02 -0.27757651465E+02 -0.28599253446E+02  0.47411132499E+02  0.00000000000E+00 0. -1.
         11    1    1    2    0    0  0.36563185083E+02  0.66918657418E+01 -0.14726534908E+03  0.15188393796E+03  0.00000000000E+00 0.  1.
</event>
<event>
 7    1  0.3001243E-009  0.1021406E+03  0.7561462E-02  0.1275858E+00
          2   -1    0    0  501    0  0.00000000000E+00  0.00000000000E+00  0.81514841112E+03  0.81514841112E+03  0.00000000000E+00 0. -1.
         -2   -1    0    0    0  501 -0.00000000000E+00 -0.00000000000E+00 -0.17722625349E+02  0.17722625349E+02  0.00000000000E+00 0.  1.
         25    2    1    2    0    0  0.37150570825E+02  0.21762277053E+02  0.56171329249E+03  0.57708185310E+03  0.12509148890E+03 0.  0.
          5    1    3    3  502    0 -0.97694660923E+01 -0.45705709832E+02  0.26721851453E+03  0.27130731890E+03  0.41800000000E+01 0. -1.
         -5    1    3    3    0  502  0.46920036917E+02  0.67467986885E+02  0.29449477796E+03  0.30577453420E+03  0.41800000000E+01 0. -1.
        -11    1    1    2    0    0 -0.50513904672E+02 -0.11758621389E+01  0.22199474151E+03  0.22767235773E+03  0.00000000000E+00 0. -1.
         11    1    1    2    0    0  0.13363333847E+02 -0.20586414914E+02  0.13717751768E+02  0.28116825641E+02  0.00000000000E+00 0.  1.
</event>
<event>
 7    1  0.3001243E-009  0.1566542E+03  0.7561462E-02  0.1192527E+00
         -3   -1    0    0    0  501 -0.00000000000E+00  0.00000000000E+00  0.93226841646E+02  0.93226841646E+02  0.00000000000E+00 0.  1.
          3   -1    0    0  501    0  0.00000000000E+00 -0.00000000000E+00 -0.53276846852E+03  0.53276846852E+03  0.00000000000E+00 0. -1.
         25    2    1    2    0    0  0.10983740006E+03  0.10119926720E+03 -0.53109993907E+02  0.20192534236E+03  0.12509047245E+03 0.  0.
          5    1    3    3  502    0  0.48927801346E+02  0.55057372685E+01 -0.71521309982E+02  0.86931082294E+02  0.41800000000E+01 0.  1.
         -5    1    3    3    0  502  0.60909598719E+02  0.95693529935E+02  0.18411316075E+02  0.11499426006E+03  0.41800000000E+01 0.  1.
        -11    1    1    2    0    0 -0.94496782055E+02 -0.77793656176E+02 -0.37386853816E+03  0.39339443131E+03  0.00000000000E+00 0. -1.
         11    1    1    2    0    0 -0.15340618009E+02 -0.23405611027E+02 -0.12563094808E+02  0.30675536501E+02  0.00000000000E+00 0.  1.
</event>
<event>
 7    1  0.3001243E-009  0.1113615E+03  0.7561462E-02  0.1258069E+00
          2   -1    0    0  501    0  0.00000000000E+00  0.00000000000E+00  0.85966028663E+02  0.85966028663E+02  0.00000000000E+00 0. -1.
         -2   -1    0    0    0  501 -0.00000000000E+00 -0.00000000000E+00 -0.17293195078E+03  0.17293195078E+03  0.00000000000E+00 0.  1.
         25    2    1    2    0    0 -0.33570069787E+02  0.24390384374E+02 -0.84991126924E+01  0.13206785779E+03  0.12509134146E+03 0.  0.
          5    1    3    3  502    0 -0.78329732050E+02  0.64191468778E+01  0.11777443544E+02  0.79579726979E+02  0.41800000000E+01 0. -1.
         -5    1    3    3    0  502  0.44759662262E+02  0.17971237496E+02 -0.20276556237E+02  0.52488130809E+02  0.41800000000E+01 0. -1.
        -11    1    1    2    0    0  0.46403555585E+02 -0.49226589956E+02 -0.37839652736E+02  0.77513782315E+02  0.00000000000E+00 0. -1.
         11    1    1    2    0    0 -0.12833485798E+02  0.24836205582E+02 -0.40627156692E+02  0.49316339344E+02  0.00000000000E+00 0.  1.
</event>
<event>
 7    1  0.3001243E-009  0.1118062E+03  0.7561462E-02  0.1257261E+00
          2   -1    0    0  501    0  0.00000000000E+00  0.00000000000E+00  0.57410223221E+03  0.57410223221E+03  0.00000000000E+00 0.  1.
         -2   -1    0    0    0  501 -0.00000000000E+00 -0.00000000000E+00 -0.23641583194E+02  0.23641583194E+02  0.00000000000E+00 0. -1.
         25    2    1    2    0    0 -0.33205229786E+02 -0.18264784662E+02  0.28310292952E+03  0.31181841866E+03  0.12508903975E+03 0.  0.
          5    1    3    3  502    0 -0.13909909518E+02 -0.71916913678E+02  0.15129198601E+03  0.16814358593E+03  0.41800000000E+01 0.  1.
         -5    1    3    3    0  502 -0.19295320268E+02  0.53652129016E+02  0.13181094351E+03  0.14367483273E+03  0.41800000000E+01 0.  1.
        -11    1    1    2    0    0  0.44959920655E+02 -0.22764291800E+02  0.86584449561E+02  0.10018220577E+03  0.00000000000E+00 0. -1.
         11    1    1    2    0    0 -0.11754690869E+02  0.41029076463E+02  0.18077326993E+03  0.18574319098E+03  0.00000000000E+00 0.  1.
</event>
<event>
 7    1  0.3001243E-009  0.1174956E+03  0.7561462E-02  0.1247287E+00
         -2   -1    0    0    0  501 -0.00000000000E+00  0.00000000000E+00  0.75111526674E+02  0.75111526674E+02  0.00000000000E+00 0.  1.
          2   -1    0    0  501    0  0.00000000000E+00 -0.00000000000E+00 -0.31656409987E+03  0.31656409987E+03  0.00000000000E+00 0. -1.
         25    2    1    2    0    0 -0.53664047040E+02  0.93382303613E+02 -0.15859116157E+03  0.22890811302E+03  0.12509069952E+03 0.  0.
          5    1    3    3  502    0 -0.53227720385E+02  0.27387504958E+02 -0.15082704418E+03  0.16232539943E+03  0.41800000000E+01 0. -1.
         -5    1    3    3    0  502 -0.43632665541E+00  0.65994798656E+02 -0.77641173917E+01  0.66582713593E+02  0.41800000000E+01 0. -1.
        -11    1    1    2    0    0  0.29652791431E+02 -0.66502446030E+02 -0.44575288766E+00  0.72815259824E+02  0.00000000000E+00 0.  1.
         11    1    1    2    0    0  0.24011255609E+02 -0.26879857584E+02 -0.82415658737E+02  0.89952253695E+02  0.00000000000E+00 0. -1.
</event>
<event>
 7    1  0.3001243E-009  0.1086559E+03  0.7561462E-02  0.1263079E+00
          1   -1    0    0  501    0  0.00000000000E+00  0.00000000000E+00  0.10042761792E+04  0.10042761792E+04  0.00000000000E+00 0. -1.
         -1   -1    0    0    0  501 -0.00000000000E+00 -0.00000000000E+00 -0.18057122351E+02  0.18057122351E+02  0.00000000000E+00 0.  1.
         25    2    1    2    0    0 -0.29743399835E+02 -0.64513502566E+02  0.67252995998E+03  0.68774348475E+03  0.12509153405E+03 0.  0.
          5    1    3    3  502    0  0.86392872406E+01 -0.87394146540E+02  0.30298962790E+03  0.31548781458E+03  0.41800000000E+01 0.  1.
         -5    1    3    3    0  502 -0.38382687076E+02  0.22880643974E+02  0.36954033208E+03  0.37225567016E+03  0.41800000000E+01 0.  1.
        -11    1    1    2    0    0  0.11853062451E+02  0.65529643463E+02  0.30896260252E+03  0.31605777797E+03  0.00000000000E+00 0. -1.
         11    1    1    2    0    0  0.17890337384E+02 -0.10161408973E+01  0.47264943345E+01  0.18532038818E+02  0.00000000000E+00 0.  1.
</event>
<event>
 7    1  0.3001243E-009  0.8600534E+02  0.7561462E-02  0.1312824E+00
         -1   -1    0    0    0  501 -0.00000000000E+00  0.00000000000E+00  0.64187236951E+02  0.64187236951E+02  0.00000000000E+00 0.  1.
          1   -1    0    0  501    0  0.00000000000E+00 -0.00000000000E+00 -0.33559431828E+03  0.33559431828E+03  0.00000000000E+00 0. -1.
         25    2    1    2    0    0  0.50916004251E+02 -0.28063118566E+02 -0.38582506826E+02  0.14325119682E+03  0.12510922206E+03 0.  0.
          5    1    3    3  502    0  0.25517647614E+02 -0.35839951798E+02  0.40362839136E+02  0.59852181812E+02  0.41800000000E+01 0. -1.
         -5    1    3    3    0  502  0.25398356637E+02  0.77768332319E+01 -0.78945345962E+02  0.83399015006E+02  0.41800000000E+01 0. -1.
        -11    1    1    2    0    0 -0.35452969780E+02 -0.26469878250E+02 -0.14829925195E+03  0.15475863676E+03  0.00000000000E+00 0. -1.
         11    1    1    2    0    0 -0.15463034471E+02  0.54532996816E+02 -0.84525322547E+02  0.10177172165E+03  0.00000000000E+00 0.  1.
</event>
<event>
 7    1  0.3001243E-009  0.1074815E+03  0.7561462E-02  0.1265306E+00
          1   -1    0    0  501    0  0.00000000000E+00  0.00000000000E+00  0.30330883978E+02  0.30330883978E+02  0.00000000000E+00 0. -1.
         -1   -1    0    0    0  501 -0.00000000000E+00 -0.00000000000E+00 -0.68305269641E+03  0.68305269641E+03  0.00000000000E+00 0.  1.
         25    2    1    2    0    0 -0.89514349362E+02 -0.25718896899E+02 -0.38945229255E+03  0.41951727341E+03  0.12508946444E+03 0.  0.
          5    1    3    3  502    0 -0.28708567408E+02  0.37160530752E+01 -0.32414747066E+03  0.32546435447E+03  0.41800000000E+01 0.  1.
         -5    1    3    3    0  502 -0.60805781954E+02 -0.29434949974E+02 -0.65304821889E+02  0.94052918939E+02  0.41800000000E+01 0.  1.
        -11    1    1    2    0    0  0.42616357528E+02 -0.24630681136E+02 -0.17588838993E+03  0.18264596928E+03  0.00000000000E+00 0.  1.
         11    1    1    2    0    0  0.46897991834E+02  0.50349578036E+02 -0.87381129947E+02  0.11122033770E+03  0.00000000000E+00 0. -1.
</event>
<event>
 7    1  0.3001243E-009  0.9409535E+02  0.7561462E-02  0.1293227E+00
          1   -1    0    0  501    0  0.00000000000E+00  0.00000000000E+00  0.13212577663E+03  0.13212577663E+03  0.00000000000E+00 0. -1.
         -1   -1    0    0    0  501 -0.00000000000E+00 -0.00000000000E+00 -0.11182328934E+03  0.11182328934E+03  0.00000000000E+00 0.  1.
         25    2    1    2    0    0  0.19809737351E+02 -0.25139505665E+01  0.64793220411E+02  0.14228216713E+03  0.12508920029E+03 0.  0.
          5    1    3    3  502    0  0.28460642029E+02  0.53669449621E+02  0.59337747044E+02  0.85022694568E+02  0.41800000000E+01 0.  1.
         -5    1    3    3    0  502 -0.86509046776E+01 -0.56183400187E+02  0.54554733665E+01  0.57259472561E+02  0.41800000000E+01 0.  1.
        -11    1    1    2    0    0  0.12874360732E+02 -0.24644163287E+02 -0.51568507590E+02  0.58586644582E+02  0.00000000000E+00 0.  1.
         11    1    1    2    0    0 -0.32684098082E+02  0.27158113853E+02  0.70777744637E+01  0.43080254258E+02  0.00000000000E+00 0. -1.
</event>
<event>
 7    1  0.3001243E-009  0.2596663E+03  0.7561462E-02  0.1107344E+00
         -1   -1    0    0    0  501 -0.00000000000E+00  0.00000000000E+00  0.66374360930E+03  0.66374360930E+03  0.00000000000E+00 0.  1.
          1   -1    0    0  501    0  0.00000000000E+00 -0.00000000000E+00 -0.14248297928E+03  0.14248297928E+03  0.00000000000E+00 0. -1.
         25    2    1    2    0    0 -0.15051565735E+03 -0.18378690691E+03  0.53454267901E+02  0.27374562679E+03  0.12508684651E+03 0.  0.
          5    1    3    3  502    0 -0.70238164686E+01 -0.10317724567E+03  0.27339585978E+02  0.10705047120E+03  0.41800000000E+01 0.  1.
         -5    1    3    3    0  502 -0.14349184089E+03 -0.80609661234E+02  0.26114681922E+02  0.16669515559E+03  0.41800000000E+01 0.  1.
        -11    1    1    2    0    0  0.13871651067E+03  0.11156032752E+03  0.29102967245E+03  0.34115428659E+03  0.00000000000E+00 0.  1.
         11    1    1    2    0    0  0.11799146686E+02  0.72226579384E+02  0.17677668967E+03  0.19132667520E+03  0.00000000000E+00 0. -1.
</event>
<event>
 7    1  0.3001243E-009  0.1051366E+03  0.7561462E-02  0.1269851E+00
          2   -1    0    0  501    0  0.00000000000E+00  0.00000000000E+00  0.39811813747E+03  0.39811813747E+03  0.00000000000E+00 0. -1.
         -2   -1    0    0    0  501 -0.00000000000E+00 -0.00000000000E+00 -0.54551756605E+02  0.54551756605E+02  0.00000000000E+00 0.  1.
         25    2    1    2    0    0 -0.33423758276E+02 -0.64432143915E+02  0.77595856621E+02  0.16412426400E+03  0.12508800215E+03 0.  0.
          5    1    3    3  502    0 -0.47081158089E+02 -0.69647884807E+02 -0.89234419912E+00  0.84176790051E+02  0.41800000000E+01 0. -1.
         -5    1    3    3    0  502  0.13657399813E+02  0.52157408914E+01  0.78488200820E+02  0.79947473948E+02  0.41800000000E+01 0. -1.
        -11    1    1    2    0    0 -0.10964805598E+02  0.65582031990E+02  0.17777369092E+03  0.18980177835E+03  0.00000000000E+00 0.  1.
         11    1    1    2    0    0  0.44388563874E+02 -0.11498880749E+01  0.88196833330E+02  0.98743851732E+02  0.00000000000E+00 0. -1.
</event>
<event>
 7    1  0.3001243E-009  0.9803496E+02  0.7561462E-02  0.1284483E+00
         -1   -1    0    0    0  501 -0.00000000000E+00  0.00000000000E+00  0.82719400671E+03  0.82719400671E+03  0.00000000000E+00 0.  1.
          1   -1    0    0  501    0  0.00000000000E+00 -0.00000000000E+00 -0.24214416584E+02  0.24214416584E+02  0.00000000000E+00 0. -1.
         25    2    1    2    0    0 -0.39625119018E+00  0.78403046610E+02  0.29143627826E+03  0.32669523469E+03  0.12508987709E+03 0.  0.
          5    1    3    3  502    0  0.34837122152E+01  0.50375787780E+02  0.29366759973E+03  0.29800669083E+03  0.41800000000E+01 0.  1.
         -5    1    3    3    0  502 -0.38799634054E+01  0.28027258830E+02 -0.22313214703E+01  0.28688543864E+02  0.41800000000E+01 0.  1.
        -11    1    1    2    0    0 -0.42885581195E+02 -0.44676871098E+02  0.27636210675E+03  0.28321583631E+03  0.00000000000E+00 0. -1.
         11    1    1    2    0    0  0.43281832385E+02 -0.33726175512E+02  0.23518120511E+03  0.24149735230E+03  0.00000000000E+00 0.  1.
</event>
<event>
 6    1  0.3001243E-009  0.1294868E+03  0.7561462E-02  0.1228219E+00
          2   -1    0    0  501    0  0.00000000000E+00  0.00000000000E+00  0.18792570025E+04  0.18792570025E+04  0.00000000000E+00 0.  1.
         -2   -1    0    0    0  501 -0.00000000000E+00 -0.00000000000E+00 -0.16700295345E+02  0.16700295345E+02  0.00000000000E+00 0. -1.
          5    1    1    2  502    0 -0.24293282624E+02  0.10765093911E+01  0.54288591750E+02  0.59632592157E+02  0.41800000000E+01 0. -1.
         -5    1    1    2    0  502  0.11658248808E+02 -0.11683876691E+03  0.13176852069E+04  0.13229130694E+04  0.41800000000E+01 0. -1.
        -11    1    1    2    0    0  0.50401271659E+01  0.83908023504E+02  0.46307961186E+03  0.47064709307E+03  0.00000000000E+00 0.  1.
         11    1    1    2    0    0  0.75949066510E+01  0.31854234016E+02  0.27503296585E+02  0.42764543197E+02  0.00000000000E+00 0. -1.
</event>
<event>
 7    1  0.3001243E-009  0.7467795E+02  0.7561462E-02  0.1344871E+00
          2   -1    0    0  501    0  0.00000000000E+00  0.00000000000E+00  0.57553442569E+02  0.57553442569E+02  0.00000000000E+00 0. -1.
         -2   -1    0    0    0  501 -0.00000000000E+00 -0.00000000000E+00 -0.22941919745E+03  0.22941919745E+03  0.00000000000E+00 0.  1.
         25    2    1    2    0    0  0.36917815957E+02 -0.23990292107E+01 -0.10945499556E+03  0.17028439004E+03  0.12509075490E+03 0.  0.
          5    1    3    3  502    0 -0.74075097643E+01 -0.98055641521E+01 -0.12259218833E+03  0.12327748103E+03  0.41800000000E+01 0. -1.
         -5    1    3    3    0  502  0.44325325721E+02  0.74065349414E+01  0.13137192778E+02  0.47006909005E+02  0.41800000000E+01 0. -1.
        -11    1    1    2    0    0  0.51814879602E+01  0.36622143344E+02 -0.47915888256E+02  0.60530666178E+02  0.00000000000E+00 0.  1.
         11    1    1    2    0    0 -0.42099303917E+02 -0.34223114133E+02 -0.14494871066E+02  0.56157583802E+02  0.00000000000E+00 0. -1.
</event>
<event>
 7    1  0.3001243E-009  0.1227992E+03  0.7561462E-02  0.1238549E+00
         -2   -1    0    0    0  501 -0.00000000000E+00  0.00000000000E+00  0.32433427896E+02  0.32433427896E+02  0.00000000000E+00 0.  1.
          2   -1    0    0  501    0  0.00000000000E+00 -0.00000000000E+00 -0.19301925577E+04  0.19301925577E+04  0.00000000000E+00 0. -1.
         25    2    1    2    0    0  0.30138365030E+02 -0.86133323731E+02 -0.17800532542E+04  0.17867746016E+04  0.12508644476E+03 0.  0.
          5    1    3    3  502    0 -0.43087288787E+02 -0.64379350442E+02 -0.98412194705E+03  0.98717510822E+03  0.41800000000E+01 0. -1.
         -5    1    3    3    0  502  0.73225653817E+02 -0.21753973289E+02 -0.79593130715E+03  0.79959949340E+03  0.41800000000E+01 0. -1.
        -11    1    1    2    0    0 -0.22353950222E+02  0.53825792602E+02 -0.51707119822E+01  0.58511975716E+02  0.00000000000E+00 0.  1.
         11    1    1    2    0    0 -0.77844148074E+01  0.32307531129E+02 -0.11253516357E+03  0.11733940822E+03  0.00000000000E+00 0. -1.
</event>
<event>
 7    1  0.3001243E-009  0.6212389E+02  0.7561462E-02  0.1389129E+00
          2   -1    0    0  501    0  0.00000000000E+00  0.00000000000E+00  0.82567320670E+03  0.82567320670E+03  0.00000000000E+00 0. -1.
         -2   -1    0    0    0  501 -0.00000000000E+00 -0.00000000000E+00 -0.16924971724E+02  0.16924971724E+02  0.00000000000E+00 0.  1.
         25    2    1    2    0    0 -0.78693354165E+01 -0.17848835389E+02  0.61305483641E+03  0.62599008952E+03  0.12508737890E+03 0.  0.
          5    1    3    3  502    0  0.17136470956E+02 -0.14491641087E+02  0.14838144598E+02  0.27226994570E+02  0.41800000000E+01 0. -1.
         -5    1    3    3    0  502 -0.25005806372E+02 -0.33571943019E+01  0.59821669181E+03  0.59876309495E+03  0.41800000000E+01 0. -1.
        -11    1    1    2    0    0  0.18053950208E+02 -0.25540193659E+02  0.24562575105E+02  0.39768916330E+02  0.00000000000E+00 0.  1.
         11    1    1    2    0    0 -0.10184614791E+02  0.43389029048E+02  0.17113082346E+03  0.17683917258E+03  0.00000000000E+00 0. -1.
</event>
<event>
 7    1  0.3001243E-009  0.1398748E+03  0.7561462E-02  0.1213498E+00
         -1   -1    0    0    0  501 -0.00000000000E+00  0.00000000000E+00  0.23136759602E+03  0.23136759602E+03  0.00000000000E+00 0.  1.
          1   -1    0    0  501    0  0.00000000000E+00 -0.00000000000E+00 -0.11059762822E+03  0.11059762822E+03  0.00000000000E+00 0. -1.
         25    2    1    2    0    0  0.85269098123E+02 -0.34413795591E+02  0.13923521711E+03  0.20853921447E+03  0.12508808842E+03 0.  0.
          5    1    3    3  502    0  0.11091747592E+03  0.12263028097E+01  0.95628157100E+02  0.14651418742E+03  0.41800000000E+01 0. -1.
         -5    1    3    3    0  502 -0.25648377800E+02 -0.35640098400E+02  0.43607060012E+02  0.62025027050E+02  0.41800000000E+01 0. -1.
        -11    1    1    2    0    0 -0.50086696235E+02  0.62162456435E+02 -0.32908946960E+02  0.86347246162E+02  0.00000000000E+00 0. -1.
         11    1    1    2    0    0 -0.35182401888E+02 -0.27748660845E+02  0.14443697650E+02  0.47078763611E+02  0.00000000000E+00 0.  1.
</event>
<event>
 7    1  0.3001243E-009  0.7710136E+02  0.7561462E-02  0.1337485E+00
          2   -1    0    0  501    0  0.00000000000E+00  0.00000000000E+00  0.42620057163E+03  0.42620057163E+03  0.00000000000E+00 0.  1.
         -2   -1    0    0    0  501 -0.00000000000E+00 -0.00000000000E+00 -0.27932340117E+02  0.27932340117E+02  0.00000000000E+00 0. -1.
         25    2    1    2    0    0 -0.56615647371E+02  0.55159888581E+01  0.23135267546E+03  0.26908613121E+03  0.12509007917E+03 0.  0.
          5    1    3    3  502    0 -0.41711044604E+02 -0.31185282041E+02  0.23217791735E+02  0.57174044032E+02  0.41800000000E+01 0. -1.
         -5    1    3    3    0  502 -0.14904602767E+02  0.36701270899E+02  0.20813488373E+03  0.21191208718E+03  0.41800000000E+01 0. -1.
        -11    1    1    2    0    0  0.21507192668E+02 -0.14431333719E+02  0.17391060493E+02  0.31197302999E+02  0.00000000000E+00 0. -1.
         11    1    1    2    0    0  0.35108454703E+02  0.89153448611E+01  0.14952449556E+03  0.15384947754E+03  0.00000000000E+00 0.  1.
</event>
<event>
 7    1  0.3001243E-009  0.9551421E+02  0.7561462E-02  0.1290022E+00
         -1   -1    0    0    0  501 -0.00000000000E+00  0.00000000000E+00  0.40619161776E+03  0.40619161776E+03  0.00000000000E+00 0.  1.
          1   -1    0    0  501    0  0.00000000000E+00 -0.00000000000E+00 -0.36283240644E+02  0.36283240644E+02  0.00000000000E+00 0. -1.
         25    2    1    2    0    0  0.28005556491E+02 -0.44462522108E+02  0.17611872281E+03  0.22232982322E+03  0.12510602984E+03 0.  0.
          5    1    3    3  502    0 -0.23263947930E+02 -0.22834634829E+02  0.16127259891E+03  0.16458722727E+03  0.41800000000E+01 0. -1.
         -5    1    3    3    0  502  0.51269504421E+02 -0.21627887279E+02  0.14846123895E+02  0.57742595945E+02  0.41800000000E+01 0. -1.
        -11    1    1    2    0    0 -0.54828940316E+02  0.55622904265E+01  0.12586661209E+03  0.13740289593E+03  0.00000000000E+00 0. -1.
         11    1    1    2    0    0  0.26823383825E+02  0.38900231681E+02  0.67923042213E+02  0.82742139252E+02  0.00000000000E+00 0.  1.
</event>
<event>
 7    1  0.3001243E-009  0.1323135E+03  0.7561462E-02  0.1224063E+00
          1   -1    0    0  501    0  0.00000000000E+00  0.00000000000E+00  0.23895178675E+03  0.23895178675E+03  0.00000000000E+00 0. -1.
         -1   -1    0    0    0  501 -0.00000000000E+00 -0.00000000000E+00 -0.10148889699E+03  0.10148889699E+03  0.00000000000E+00 0.  1.
         25    2    1    2    0    0 -0.74432906897E+01 -0.10816792002E+03  0.53026668919E+02  0.17382448798E+03  0.12508966187E+03 0.  0.
          5    1    3    3  502    0  0.31698825913E+02 -0.77362287908E+02 -0.19300496178E+02  0.85905300811E+02  0.41800000000E+01 0.  1.
         -5    1    3    3    0  502 -0.39142116602E+02 -0.30805632115E+02  0.72327165097E+02  0.87919187173E+02  0.41800000000E+01 0.  1.
        -11    1    1    2    0    0  0.39369359476E+02  0.76105908233E+02  0.20183510967E+02  0.88030846006E+02  0.00000000000E+00 0.  1.
         11    1    1    2    0    0 -0.31926068786E+02  0.32062011790E+02  0.64252709873E+02  0.78585349742E+02  0.00000000000E+00 0. -1.
</event>
<event>
 7    1  0.3001243E-009  0.1367913E+03  0.7561462E-02  0.1217713E+00
          1   -1    0    0  501    0  0.00000000000E+00  0.00000000000E+00  0.75854052499E+03  0.75854052499E+03  0.00000000000E+00 0. -1.
         -1   -1    0    0    0  501 -0.00000000000E+00 -0.00000000000E+00 -0.26860201046E+02  0.26860201046E+02  0.00000000000E+00 0.  1.
         25    2    1    2    0    0 -0.97338004899E+01  0.86026786256E+02  0.48281067168E+03  0.50621049261E+03  0.12509022070E+03 0.  0.
          5    1    3    3  502    0 -0.38262295917E+01  0.11654800138E+03  0.32499055684E+03  0.34530336096E+03  0.41800000000E+01 0.  1.
         -5    1    3    3    0  502 -0.59075708982E+01 -0.30521215121E+02  0.15782011484E+03  0.16090713165E+03  0.41800000000E+01 0.  1.
        -11    1    1    2    0    0  0.85819052867E+01 -0.10558713724E+03  0.19583005657E+03  0.22264703839E+03  0.00000000000E+00 0.  1.
         11    1    1    2    0    0  0.11518952033E+01  0.19560350985E+02  0.53039595696E+02  0.56543195035E+02  0.00000000000E+00 0. -1.
</event>
<event>
 7    1  0.3001243E-009  0.3368335E+03  0.7561462E-02  0.1068153E+00
         -1   -1    0    0    0  501 -0.00000000000E+00  0.00000000000E+00  0.79989195448E+03  0.79989195448E+03  0.00000000000E+00 0.  1.
          1   -1    0    0  501    0  0.00000000000E+00 -0.00000000000E+00 -0.23824722089E+03  0.23824722089E+03  0.00000000000E+00 0. -1.
         25    2    1    2    0    0 -0.19332859672E+03 -0.25478534997E+03  0.61195283779E+03  0.70173530903E+03  0.12511853337E+03 0.  0.
          5    1    3    3  502    0  0.15665199263E+02 -0.36913746289E+01  0.26371450583E+02  0.31176120998E+02  0.41800000000E+01 0. -1.
         -5    1    3    3    0  502 -0.20899379598E+03 -0.25109397535E+03  0.58558138721E+03  0.67055918804E+03  0.41800000000E+01 0. -1.
        -11    1    1    2    0    0  0.58779354961E+02  0.14569237826E+03 -0.43663503286E+02  0.16305760691E+03  0.00000000000E+00 0.  1.
         11    1    1    2    0    0  0.13454924176E+03  0.10909297171E+03 -0.66446009106E+01  0.17334625942E+03  0.00000000000E+00 0. -1.
</event>
<event>
 7    1  0.3001243E-009  0.9411838E+02  0.7561462E-02  0.1293174E+00
          2   -1    0    0  501    0  0.00000000000E+00  0.00000000000E+00  0.98819555425E+03  0.98819555425E+03  0.00000000000E+00 0.  1.
         -2   -1    0    0    0  501 -0.00000000000E+00 -0.00000000000E+00 -0.12268819748E+02  0.12268819748E+02  0.00000000000E+00 0. -1.
         25    2    1    2    0    0 -0.19284954562E+02  0.12744335531E+02  0.61691342219E+03  0.62989239014E+03  0.12509166688E+03 0.  0.
          5    1    3    3  502    0  0.18645921018E+02  0.43492972832E+02  0.10053690223E+03  0.11119554922E+03  0.41800000000E+01 0.  1.
         -5    1    3    3    0  502 -0.37930875580E+02 -0.30748637301E+02  0.51637651995E+03  0.51869684092E+03  0.41800000000E+01 0.  1.
        -11    1    1    2    0    0  0.29139790612E+02  0.33523705115E+02  0.18282952590E+03  0.18814781886E+03  0.00000000000E+00 0.  1.
         11    1    1    2    0    0 -0.98548360503E+01 -0.46268040646E+02  0.17618378642E+03  0.18242416500E+03  0.00000000000E+00 0. -1.
</event>
<event>
 7    1  0.3001243E-009  0.1033252E+03  0.7561462E-02  0.1273455E+00
         -2   -1    0    0    0  501 -0.00000000000E+00  0.00000000000E+00  0.17716604384E+02  0.17716604384E+02  0.00000000000E+00 0.  1.
          2   -1    0    0  501    0  0.00000000000E+00 -0.00000000000E+00 -0.82981455519E+03  0.82981455519E+03  0.00000000000E+00 0. -1.
         25    2    1    2    0    0 -0.22485724719E+02  0.25132239676E+02 -0.60588018087E+03  0.61957707791E+03  0.12509086544E+03 0.  0.
          5    1    3    3  502    0  0.34102721388E+02 -0.20712771641E+02 -0.89636611838E+02  0.98204934178E+02  0.41800000000E+01 0. -1.
         -5    1    3    3    0  502 -0.56588446107E+02  0.45845011317E+02 -0.51624356903E+03  0.52137214374E+03  0.41800000000E+01 0. -1.
        -11    1    1    2    0    0  0.39523214326E+02 -0.49816264224E+02 -0.10876596484E+03  0.12599118922E+03  0.00000000000E+00 0.  1.
         11    1    1    2    0    0 -0.17037489607E+02  0.24684024548E+02 -0.97451805087E+02  0.10196289244E+03  0.00000000000E+00 0. -1.
</event>
<event>
 7    1  0.3001243E-009  0.9663168E+02  0.7561462E-02  0.1287543E+00
          2   -1    0    0  501    0  0.00000000000E+00  0.00000000000E+00  0.16133277397E+04  0.16133277397E+04  0.00000000000E+00 0.  1.
         -2   -1    0    0    0  501 -0.00000000000E+00 -0.00000000000E+00 -0.10459190871E+02  0.10459190871E+02  0.00000000000E+00 0. -1.
         25    2    1    2    0    0  0.61414306470E+01 -0.16830625837E+02  0.13424992370E+04  0.13484327684E+04  0.12508294213E+03 0.  0.
          5    1    3    3  502    0 -0.17704930258E+02 -0.55664889525E+02  0.11058419502E+04  0.11073915006E+04  0.41800000000E+01 0.  1.
         -5    1    3    3    0  502  0.23846360905E+02  0.38834263687E+02  0.23665728681E+03  0.24104126776E+03  0.41800000000E+01 0.  1.
        -11    1    1    2    0    0  0.62810505534E+01 -0.35041386329E+02  0.12093742356E+03  0.12606827821E+03  0.00000000000E+00 0. -1.
         11    1    1    2    0    0 -0.12422481200E+02  0.51872012166E+02  0.13943188824E+03  0.14928588394E+03  0.00000000000E+00 0.  1.
</event>
<event>
 7    1  0.3001243E-009  0.9635157E+02  0.7561462E-02  0.1288161E+00
          2   -1    0    0  501    0  0.00000000000E+00  0.00000000000E+00  0.39030356862E+02  0.39030356862E+02  0.00000000000E+00 0. -1.
         -2   -1    0    0    0  501 -0.00000000000E+00 -0.00000000000E+00 -0.54286496293E+03  0.54286496293E+03  0.00000000000E+00 0.  1.
         25    2    1    2    0    0  0.37299311640E+02 -0.40611031700E+02 -0.43031374779E+03  0.45150647370E+03  0.12509068593E+03 0.  0.
          5    1    3    3  502    0 -0.46411968743E+02 -0.17133021355E+02 -0.15327959406E+03  0.16112019618E+03  0.41800000000E+01 0. -1.
         -5    1    3    3    0  502  0.83711280383E+02 -0.23478010345E+02 -0.27703415373E+03  0.29038627751E+03  0.41800000000E+01 0. -1.
        -11    1    1    2    0    0 -0.25536638567E+02  0.20643144635E+02 -0.93932477543E+02  0.99506631272E+02  0.00000000000E+00 0.  1.
         11    1    1    2    0    0 -0.11762673073E+02  0.19967887065E+02  0.20411619264E+02  0.30882214827E+02  0.00000000000E+00 0. -1.
</event>
<event>
 7    1  0.3001243E-009  0.1005311E+03  0.7561462E-02  0.1279183E+00
          2   -1    0    0  501    0  0.00000000000E+00  0.00000000000E+00  0.19756442383E+03  0.19756442383E+03  0.00000000000E+00 0. -1.
         -2   -1    0    0    0  501 -0.00000000000E+00 -0.00000000000E+00 -0.64104664312E+02  0.64104664312E+02  0.00000000000E+00 0.  1.
         25    2    1    2    0    0  0.27267401506E+02  0.10105190308E+02  0.89848575100E+02  0.15673605015E+03  0.12509115441E+03 0.  0.
          5    1    3    3  502    0  0.27476307183E+02 -0.44221372834E+02  0.87860074982E+02  0.10221224216E+03  0.41800000000E+01 0. -1.
         -5    1    3    3    0  502 -0.20890567703E+00  0.54326563142E+02  0.19885001182E+01  0.54523807985E+02  0.41800000000E+01 0. -1.
        -11    1    1    2    0    0  0.22847717624E+02  0.24455952650E+02  0.23210259308E+02  0.40728711713E+02  0.00000000000E+00 0. -1.
         11    1    1    2    0    0 -0.50115119130E+02 -0.34561142958E+02  0.20400925109E+02  0.64204326282E+02  0.00000000000E+00 0.  1.
</event>
<event>
 7    1  0.3001243E-009  0.1222449E+03  0.7561462E-02  0.1239439E+00
          2   -1    0    0  501    0  0.00000000000E+00  0.00000000000E+00  0.50917311836E+03  0.50917311836E+03  0.00000000000E+00 0. -1.
         -2   -1    0    0    0  501 -0.00000000000E+00 -0.00000000000E+00 -0.53485462525E+02  0.53485462525E+02  0.00000000000E+00 0.  1.
         25    2    1    2    0    0 -0.53270083427E+02 -0.20278137149E+02  0.55657617062E+02  0.14831169795E+03  0.12509870014E+03 0.  0.
          5    1    3    3  502    0 -0.93956198596E+02 -0.10572276904E+02  0.45771510166E+02  0.10512870130E+03  0.41800000000E+01 0. -1.
         -5    1    3    3    0  502  0.40686115169E+02 -0.97058602442E+01  0.98861068967E+01  0.43182996656E+02  0.41800000000E+01 0. -1.
        -11    1    1    2    0    0  0.36040545513E+02 -0.34801530618E+02  0.17447954633E+03  0.18153010643E+03  0.00000000000E+00 0.  1.
         11    1    1    2    0    0  0.17229537915E+02  0.55079667767E+02  0.22555049245E+03  0.23281677650E+03  0.00000000000E+00 0. -1.
</event>
<event>
 7    1  0.3001243E-009  0.1459779E+03  0.7561462E-02  0.1205504E+00
         -1   -1    0    0    0  501 -0.00000000000E+00  0.00000000000E+00  0.13226830607E+03  0.13226830607E+03  0.00000000000E+00 0.  1.
          1   -1    0    0  501    0  0.00000000000E+00 -0.00000000000E+00 -0.17988605727E+03  0.17988605727E+03  0.00000000000E+00 0. -1.
         25    2    1    2    0    0 -0.64647894776E+02  0.89063279933E+02 -0.22304406385E+02  0.16809420897E+03  0.12508620393E+03 0.  0.
          5    1    3    3  502    0  0.20172956347E+02  0.60541261822E+02 -0.41816226144E+02  0.76408518633E+02  0.41800000000E+01 0.  1.
         -5    1    3    3    0  502 -0.84820851123E+02  0.28522018111E+02  0.19511819760E+02  0.91685690337E+02  0.41800000000E+01 0.  1.
        -11    1    1    2    0    0  0.59564375319E+02 -0.10553371780E+03 -0.11047522440E+02  0.12168536540E+03  0.00000000000E+00 0.  1.
         11    1    1    2    0    0  0.50835194569E+01  0.16470437869E+02 -0.14265822369E+02  0.22374788971E+02  0.00000000000E+00 0. -1.
</event>
<event>
 7    1  0.3001243E-009  0.2391058E+03  0.7561462E-02  0.1120390E+00
          1   -1    0    0  501    0  0.00000000000E+00  0.00000000000E+00  0.22656342924E+03  0.22656342924E+03  0.00000000000E+00 0. -1.
         -1   -1    0    0    0  501 -0.00000000000E+00 -0.00000000000E+00 -0.25910701698E+03  0.25910701698E+03  0.00000000000E+00 0.  1.
         25    2    1    2    0    0  0.19475009580E+03 -0.88404364837E+02  0.17206226344E+02  0.24837404164E+03  0.12510267304E+03 0.  0.
          5    1    3    3  502    0 -0.84542824596E+00  0.21480900324E+02 -0.62212341669E+01  0.22766641873E+02  0.41800000000E+01 0. -1.
         -5    1    3    3    0  502  0.19559552404E+03 -0.10988526516E+03  0.23427460511E+02  0.22560739977E+03  0.41800000000E+01 0. -1.
        -11    1    1    2    0    0  0.43253171235E+01 -0.92316267618E+01 -0.36294704807E+01  0.10821476649E+02  0.00000000000E+00 0. -1.
         11    1    1    2    0    0 -0.19907541292E+03  0.97635991599E+02 -0.46120343594E+02  0.22647492793E+03  0.00000000000E+00 0.  1.
</event>
<event>
 7    1  0.3001243E-009  0.9666775E+02  0.7561462E-02  0.1287463E+00
         -2   -1    0    0    0  501 -0.00000000000E+00  0.00000000000E+00  0.51694889926E+02  0.51694889926E+02  0.00000000000E+00 0. -1.
          2   -1    0    0  501    0  0.00000000000E+00 -0.00000000000E+00 -0.26816246024E+03  0.26816246024E+03  0.00000000000E+00 0.  1.
         25    2    1    2    0    0 -0.40841281948E+02  0.18873449737E+02 -0.13629888817E+03  0.19039678740E+03  0.12509729141E+03 0.  0.
          5    1    3    3  502    0 -0.18400858999E+02  0.66627107261E+02 -0.11308165053E+03  0.13259975535E+03  0.41800000000E+01 0.  1.
         -5    1    3    3    0  502 -0.22440422949E+02 -0.47753657524E+02 -0.23217237645E+02  0.57797032043E+02  0.41800000000E+01 0.  1.
        -11    1    1    2    0    0  0.19512438473E+02 -0.37867259985E+02 -0.89741446500E+02  0.99338773165E+02  0.00000000000E+00 0.  1.
         11    1    1    2    0    0  0.21328843476E+02  0.18993810248E+02  0.95727643554E+01  0.30121789607E+02  0.00000000000E+00 0. -1.
</event>
<event>
 7    1  0.3001243E-009  0.1596583E+03  0.7561462E-02  0.1189083E+00
          1   -1    0    0  501    0  0.00000000000E+00  0.00000000000E+00  0.45412121891E+03  0.45412121891E+03  0.00000000000E+00 0. -1.
         -1   -1    0    0    0  501 -0.00000000000E+00 -0.00000000000E+00 -0.76135718502E+02  0.76135718502E+02  0.00000000000E+00 0.  1.
         25    2    1    2    0    0  0.73455522686E+02  0.12961726100E+03  0.15082846846E+03  0.24615632435E+03  0.12508941186E+03 0.  0.
          5    1    3    3  502    0  0.28703288591E+02  0.16141746732E+02  0.11390076794E+03  0.11863933623E+03  0.41800000000E+01 0.  1.
         -5    1    3    3    0  502  0.44752234094E+02  0.11347551427E+03  0.36927700520E+02  0.12751698813E+03  0.41800000000E+01 0.  1.
        -11    1    1    2    0    0  0.22316148469E+01 -0.63589320139E+02  0.51935698377E+02  0.82133418938E+02  0.00000000000E+00 0.  1.
         11    1    1    2    0    0 -0.75687137533E+02 -0.66027940863E+02  0.17522133358E+03  0.20196719412E+03  0.00000000000E+00 0. -1.
</event>
<event>
 7    1  0.3001243E-009  0.6654672E+02  0.7561462E-02  0.1372246E+00
         -1   -1    0    0    0  501 -0.00000000000E+00  0.00000000000E+00  0.98110465539E+02  0.98110465539E+02  0.00000000000E+00 0.  1.
          1   -1    0    0  501    0  0.00000000000E+00 -0.00000000000E+00 -0.15007888070E+03  0.15007888070E+03  0.00000000000E+00 0. -1.
         25    2    1    2    0    0  0.29457530927E+02  0.25849835987E+02  0.13945481935E+02  0.13182182309E+03  0.12508619599E+03 0.  0.
          5    1    3    3  502    0  0.45177770095E+02  0.12158869142E+02  0.62868857217E+02  0.78478242956E+02  0.41800000000E+01 0.  1.
         -5    1    3    3    0  502 -0.15720239168E+02  0.13690966845E+02 -0.48923375282E+02  0.53343580135E+02  0.41800000000E+01 0.  1.
        -11    1    1    2    0    0 -0.44372827785E+02 -0.17003749081E+02 -0.80651660583E+02  0.93609645247E+02  0.00000000000E+00 0. -1.
         11    1    1    2    0    0  0.14915296858E+02 -0.88460869058E+01  0.14737763488E+02  0.22757877900E+02  0.00000000000E+00 0.  1.
</event>
<event>
 7    1  0.3001243E-009  0.9487133E+02  0.7561462E-02  0.1291466E+00
          3   -1    0    0  501    0  0.00000000000E+00  0.00000000000E+00  0.21449024534E+03  0.21449024534E+03  0.00000000000E+00 0. -1.
         -3   -1    0    0    0  501 -0.00000000000E+00 -0.00000000000E+00 -0.76329215401E+02  0.76329215401E+02  0.00000000000E+00 0.  1.
         25    2    1    2    0    0 -0.30978505512E+02  0.12249178625E+02  0.14396444234E+03  0.19360493363E+03  0.12508956586E+03 0.  0.
          5    1    3    3  502    0  0.46211219824E+02 -0.12239073389E+02  0.46524617269E+02  0.66837745078E+02  0.41800000000E+01 0. -1.
         -5    1    3    3    0  502 -0.77189725336E+02  0.24488252014E+02  0.97439825068E+02  0.12676718855E+03  0.41800000000E+01 0. -1.
        -11    1    1    2    0    0  0.44809210900E+02 -0.51022862974E+01 -0.39592018617E+02  0.60011887532E+02  0.00000000000E+00 0.  1.
         11    1    1    2    0    0 -0.13830705388E+02 -0.71468923279E+01  0.33788606222E+02  0.37202639583E+02  0.00000000000E+00 0. -1.
</event>
<event>
 7    1  0.3001243E-009  0.1424645E+03  0.7561462E-02  0.1210051E+00
         -1   -1    0    0    0  501 -0.00000000000E+00  0.00000000000E+00  0.64932722660E+02  0.64932722660E+02  0.00000000000E+00 0.  1.
          1   -1    0    0  501    0  0.00000000000E+00 -0.00000000000E+00 -0.38433785385E+03  0.38433785385E+03  0.00000000000E+00 0. -1.
         25    2    1    2    0    0  0.57338993931E+02  0.94077307456E+02 -0.21453545601E+03  0.27168348816E+03  0.12509258910E+03 0.  0.
          5    1    3    3  502    0  0.38924111229E+02  0.12199150119E+03 -0.19311900697E+03  0.23175296341E+03  0.41800000000E+01 0.  1.
         -5    1    3    3    0  502  0.18414882702E+02 -0.27914193736E+02 -0.21416449045E+02  0.39930524746E+02  0.41800000000E+01 0.  1.
        -11    1    1    2    0    0 -0.30904929440E+02 -0.91465651803E+02 -0.34757398448E+02  0.10261167999E+03  0.00000000000E+00 0.  1.
         11    1    1    2    0    0 -0.26434064490E+02 -0.26116556529E+01 -0.70112276728E+02  0.74975408360E+02  0.00000000000E+00 0. -1.
</event>
<event>
 7    1  0.3001243E-009  0.1589399E+03  0.7561462E-02  0.1189899E+00
          2   -1    0    0  501    0  0.00000000000E+00  0.00000000000E+00  0.45596948974E+03  0.45596948974E+03  0.00000000000E+00 0. -1.
         -2   -1    0    0    0  501 -0.00000000000E+00 -0.00000000000E+00 -0.79233128226E+02  0.79233128226E+02  0.00000000000E+00 0.  1.
         25    2    1    2    0    0  0.14774070107E+03  0.46495253037E+02  0.16209431525E+03  0.25672757907E+03  0.12508141152E+03 0.  0.
          5    1    3    3  502    0  0.10595388023E+03  0.95123470123E+01  0.26018922530E+02  0.10959546619E+03  0.41800000000E+01 0. -1.
         -5    1    3    3    0  502  0.41786820849E+02  0.36982906025E+02  0.13607539272E+03  0.14713211287E+03  0.41800000000E+01 0. -1.
        -11    1    1    2    0    0 -0.86036494041E+02 -0.20140092437E+02  0.51979063108E+02  0.10251694802E+03  0.00000000000E+00 0. -1.
         11    1    1    2    0    0 -0.61704207034E+02 -0.26355160600E+02  0.16266298315E+03  0.17595809088E+03  0.00000000000E+00 0.  1.
</event>
<event>
 7    1  0.3001243E-009  0.8239613E+02  0.7561462E-02  0.1322386E+00
          1   -1    0    0  501    0  0.00000000000E+00  0.00000000000E+00  0.96258113960E+02  0.96258113960E+02  0.00000000000E+00 0. -1.
         -1   -1    0    0    0  501 -0.00000000000E+00 -0.00000000000E+00 -0.17686383976E+03  0.17686383976E+03  0.00000000000E+00 0.  1.
         25    2    1    2    0    0 -0.43486225334E+02 -0.30214311977E+02  0.92548702383E+01  0.13614913825E+03  0.12508788423E+03 0.  0.
          5    1    3    3  502    0  0.23197784566E+02 -0.44817532031E+01  0.48782526318E+02  0.54363872144E+02  0.41800000000E+01 0.  1.
         -5    1    3    3    0  502 -0.66684009899E+02 -0.25732558774E+02 -0.39527656079E+02  0.81785266108E+02  0.41800000000E+01 0.  1.
        -11    1    1    2    0    0  0.29470501492E+02 -0.62575747887E+01 -0.93015951428E+02  0.97773385542E+02  0.00000000000E+00 0.  1.
         11    1    1    2    0    0  0.14015723841E+02  0.36471886765E+02  0.31553553873E+01  0.39199429927E+02  0.00000000000E+00 0. -1.
</event>
<event>
 7    1  0.3001243E-009  0.2246578E+03  0.7561462E-02  0.1130457E+00
         -2   -1    0    0    0  501 -0.00000000000E+00  0.00000000000E+00  0.44574204570E+02  0.44574204570E+02  0.00000000000E+00 0.  1.
          2   -1    0    0  501    0  0.00000000000E+00 -0.00000000000E+00 -0.13022637399E+04  0.13022637399E+04  0.00000000000E+00 0. -1.
         25    2    1    2    0    0  0.19438679496E+03 -0.84090595350E+02 -0.55287784017E+03  0.60512891333E+03  0.12509852645E+03 0.  0.
          5    1    3    3  502    0  0.54488318711E+02  0.34815639480E+01 -0.28687659650E+03  0.29205607712E+03  0.41800000000E+01 0. -1.
         -5    1    3    3    0  502  0.13989847624E+03 -0.87572159298E+02 -0.26600124367E+03  0.31307283621E+03  0.41800000000E+01 0. -1.
        -11    1    1    2    0    0 -0.14195669333E+02  0.42112006538E+02 -0.10518846560E+03  0.11419085523E+03  0.00000000000E+00 0.  1.
         11    1    1    2    0    0 -0.18019112562E+03  0.41978588812E+02 -0.59962322959E+03  0.62751817594E+03  0.00000000000E+00 0. -1.
</event>
<event>
 7    1  0.3001243E-009  0.1245615E+03  0.7561462E-02  0.1235756E+00
          2   -1    0    0  501    0  0.00000000000E+00  0.00000000000E+00  0.25212036856E+03  0.25212036856E+03  0.00000000000E+00 0. -1.
         -2   -1    0    0    0  501 -0.00000000000E+00 -0.00000000000E+00 -0.69709568953E+02  0.69709568953E+02  0.00000000000E+00 0.  1.
         25    2    1    2    0    0  0.65084500746E+02 -0.36268209815E+02  0.11365221166E+03  0.18470631317E+03  0.12509285204E+03 0.  0.
          5    1    3    3  502    0  0.22025749373E+02 -0.80480859146E+02  0.60508756219E+02  0.10315563147E+03  0.41800000000E+01 0. -1.
         -5    1    3    3    0  502  0.43058751373E+02  0.44212649331E+02  0.53143455441E+02  0.81550681707E+02  0.41800000000E+01 0. -1.
        -11    1    1    2    0    0 -0.23586812630E+01  0.40766008327E+02  0.61496215762E+02  0.73818800893E+02  0.00000000000E+00 0. -1.
         11    1    1    2    0    0 -0.62725819483E+02 -0.44977985113E+01  0.72623721795E+01  0.63304823441E+02  0.00000000000E+00 0.  1.
</event>
<event>
 7    1  0.3001243E-009  0.1270828E+03  0.7561462E-02  0.1231850E+00
         -1   -1    0    0    0  501 -0.00000000000E+00  0.00000000000E+00  0.27724227669E+02  0.27724227669E+02  0.00000000000E+00 0.  1.
          1   -1    0    0  501    0  0.00000000000E+00 -0.00000000000E+00 -0.10175496288E+04  0.10175496288E+04  0.00000000000E+00 0. -1.
         25    2    1    2    0    0  0.51666847349E+02  0.88297434261E+02 -0.28948764239E+03  0.33154254890E+03  0.12510582171E+03 0.  0.
          5    1    3    3  502    0  0.30979217367E+01  0.61885688784E+02 -0.26274775467E+03  0.26998757486E+03  0.41800000000E+01 0. -1.
         -5    1    3    3    0  502  0.48568925612E+02  0.26411745477E+02 -0.26739887720E+02  0.61554974044E+02  0.41800000000E+01 0. -1.
        -11    1    1    2    0    0 -0.21750921028E+02 -0.10158234455E+03 -0.56669718478E+03  0.57614041216E+03  0.00000000000E+00 0.  1.
         11    1    1    2    0    0 -0.29915926321E+02  0.13284910285E+02 -0.13364057400E+03  0.13759089544E+03  0.00000000000E+00 0. -1.
</event>
<event>
 7    1  0.3001243E-009  0.2121705E+03  0.7561462E-02  0.1139859E+00
         -1   -1    0    0    0  501 -0.00000000000E+00  0.00000000000E+00  0.58319363967E+02  0.58319363967E+02  0.00000000000E+00 0.  1.
          1   -1    0    0  501    0  0.00000000000E+00 -0.00000000000E+00 -0.98100751612E+03  0.98100751612E+03  0.00000000000E+00 0. -1.
         25    2    1    2    0    0 -0.19922449669E+03  0.12326855105E+00 -0.34079603009E+03  0.41410108329E+03  0.12508939916E+03 0.  0.
          5    1    3    3  502    0 -0.31434989670E+01 -0.82531820767E+01 -0.11287249694E+03  0.11329461402E+03  0.41800000000E+01 0.  1.
         -5    1    3    3    0  502 -0.19608099772E+03  0.83764506277E+01 -0.22792353315E+03  0.30080646927E+03  0.41800000000E+01 0.  1.
        -11    1    1    2    0    0  0.10798105732E+03 -0.44514894855E+02 -0.40273927414E+03  0.41933328933E+03  0.00000000000E+00 0. -1.
         11    1    1    2    0    0  0.91243439362E+02  0.44391626304E+02 -0.17915284793E+03  0.20589250747E+03  0.00000000000E+00 0.  1.
</event>
<event>
 7    1  0.3001243E-009  0.1098161E+03  0.7561462E-02  0.1260911E+00
          1   -1    0    0  501    0  0.00000000000E+00  0.00000000000E+00  0.31524173236E+03  0.31524173236E+03  0.00000000000E+00 0. -1.
         -1   -1    0    0    0  501 -0.00000000000E+00 -0.00000000000E+00 -0.70874479942E+02  0.70874479942E+02  0.00000000000E+00 0.  1.
         25    2    1    2    0    0 -0.71307689415E+02  0.15747243755E+02  0.22753279475E+03  0.26972352775E+03  0.12508735541E+03 0.  0.
          5    1    3    3  502    0 -0.31415897418E+02  0.50213736370E+02  0.32589388117E+02  0.67734175632E+02  0.41800000000E+01 0. -1.
         -5    1    3    3    0  502 -0.39891791998E+02 -0.34466492615E+02  0.19494340663E+03  0.20198935212E+03  0.41800000000E+01 0. -1.
        -11    1    1    2    0    0 -0.15797832538E+02  0.70952071980E+01  0.19784775400E+02  0.26293550839E+02  0.00000000000E+00 0. -1.
         11    1    1    2    0    0  0.87105521953E+02 -0.22842450953E+02 -0.29503177303E+01  0.90099133708E+02  0.00000000000E+00 0.  1.
</event>
<event>
 7    1  0.3001243E-009  0.1281406E+03  0.7561462E-02  0.1230241E+00
         -3   -1    0    0    0  501 -0.00000000000E+00  0.00000000000E+00  0.10140547647E+03  0.10140547647E+03  0.00000000000E+00 0.  1.
          3   -1    0    0  501    0  0.00000000000E+00 -0.00000000000E+00 -0.16538085038E+03  0.16538085038E+03  0.00000000000E+00 0. -1.
         25    2    1    2    0    0  0.43222191621E+02 -0.55156188685E+02 -0.17758569701E+02  0.14447727744E+03  0.12509178191E+03 0.  0.
          5    1    3    3  502    0  0.77475299141E+02 -0.71063631560E+02 -0.16149281493E+02  0.10644591772E+03  0.41800000000E+01 0. -1.
         -5    1    3    3    0  502 -0.34253107520E+02  0.15907442875E+02 -0.16092882080E+01  0.38031359720E+02  0.41800000000E+01 0. -1.
        -11    1    1    2    0    0  0.16834849736E+02  0.50039524369E+02 -0.24934889150E+02  0.58387625929E+02  0.00000000000E+00 0.  1.
         11    1    1    2    0    0 -0.60057041357E+02  0.51166643156E+01 -0.21281915062E+02  0.63921423474E+02  0.00000000000E+00 0. -1.
</event>
<event>
 6    1  0.3001243E-009  0.1371835E+03  0.7561462E-02  0.1217170E+00
          2   -1    0    0  501    0  0.00000000000E+00  0.00000000000E+00  0.19037634299E+03  0.19037634299E+03  0.00000000000E+00 0. -1.
         -2   -1    0    0    0  501 -0.00000000000E+00 -0.00000000000E+00 -0.10409105178E+03  0.10409105178E+03  0.00000000000E+00 0.  1.
          5    1    1    2  502    0 -0.59498172323E+02 -0.48989364426E+01  0.40519353349E+02  0.72272556921E+02  0.41800000000E+01 0.  1.
         -5    1    1    2    0  502  0.36303846688E+02 -0.81637444457E+02  0.12235995118E+02  0.90276428807E+02  0.41800000000E+01 0.  1.
        -11    1    1    2    0    0  0.55115347515E+02  0.37851390245E+02  0.48941571301E+01  0.67040152515E+02  0.00000000000E+00 0. -1.
         11    1    1    2    0    0 -0.31921021879E+02  0.48684990654E+02  0.28635785608E+02  0.64878256529E+02  0.00000000000E+00 0.  1.
</event>
<event>
 7    1  0.3001243E-009  0.7786171E+02  0.7561462E-02  0.1335231E+00
         -1   -1    0    0    0  501 -0.00000000000E+00  0.00000000000E+00  0.25232430967E+03  0.25232430967E+03  0.00000000000E+00 0.  1.
          1   -1    0    0  501    0  0.00000000000E+00 -0.00000000000E+00 -0.62398210928E+02  0.62398210928E+02  0.00000000000E+00 0. -1.
         25    2    1    2    0    0 -0.31700946463E+02 -0.24484649694E+02  0.45707007193E+02  0.13907441931E+03  0.12509242792E+03 0.  0.
          5    1    3    3  502    0 -0.20549085024E+02  0.19874986316E+02  0.77833764178E+02  0.83023172805E+02  0.41800000000E+01 0.  1.
         -5    1    3    3    0  502 -0.11151861439E+02 -0.44359636010E+02 -0.32126756985E+02  0.56051246506E+02  0.41800000000E+01 0.  1.
        -11    1    1    2    0    0 -0.22403705604E+02  0.11832926026E+02  0.10403539334E+03  0.10707617490E+03  0.00000000000E+00 0.  1.
         11    1    1    2    0    0  0.54104652067E+02  0.12651723668E+02  0.40183698209E+02  0.68571926390E+02  0.00000000000E+00 0. -1.
</event>
<event>
 7    1  0.3001243E-009  0.1101530E+03  0.7561462E-02  0.1260287E+00
          1   -1    0    0  501    0  0.00000000000E+00  0.00000000000E+00  0.75476363044E+02  0.75476363044E+02  0.00000000000E+00 0. -1.
         -1   -1    0    0    0  501 -0.00000000000E+00 -0.00000000000E+00 -0.22861811510E+03  0.22861811510E+03  0.00000000000E+00 0.  1.
         25    2    1    2    0    0  0.58298442482E+02 -0.13670289441E+02 -0.33259266426E+02  0.14260843019E+03  0.12508157478E+03 0.  0.
          5    1    3    3  502    0 -0.38545536807E+02  0.70573825919E+01 -0.12384661506E+02  0.41308804115E+02  0.41800000000E+01 0. -1.
         -5    1    3    3    0  502  0.96843979289E+02 -0.20727672033E+02 -0.20874604920E+02  0.10129962608E+03  0.41800000000E+01 0. -1.
        -11    1    1    2    0    0 -0.41095145802E+02  0.35272291104E+02 -0.12231081637E+03  0.13376427523E+03  0.00000000000E+00 0.  1.
         11    1    1    2    0    0 -0.17203296680E+02 -0.21602001663E+02  0.24283307389E+01  0.27721772719E+02  0.00000000000E+00 0. -1.
</event>
<event>
 6    1  0.3001243E-009  0.1297974E+03  0.7561462E-02  0.1227757E+00
          2   -1    0    0  501    0  0.00000000000E+00  0.00000000000E+00  0.59757501271E+03  0.59757501271E+03  0.00000000000E+00 0. -1.
         -2   -1    0    0    0  501 -0.00000000000E+00 -0.00000000000E+00 -0.33566611967E+02  0.33566611967E+02  0.00000000000E+00 0.  1.
          5    1    1    2  502    0  0.29338055280E+02  0.27076527283E+02  0.37098690897E+02  0.54659354950E+02  0.41800000000E+01 0. -1.
         -5    1    1    2    0  502 -0.28494856226E+02 -0.97133866025E+02  0.15028780758E+03  0.18124801314E+03  0.41800000000E+01 0. -1.
        -11    1    1    2    0    0  0.46271170185E+02  0.45971950179E+02  0.17420872256E+03  0.18601913990E+03  0.00000000000E+00 0.  1.
         11    1    1    2    0    0 -0.47114369238E+02  0.24085388563E+02  0.20241317970E+03  0.20921511668E+03  0.00000000000E+00 0. -1.
</event>
<event>
 7    1  0.3001243E-009  0.1579190E+03  0.7561462E-02  0.1191066E+00
          1   -1    0    0  501    0  0.00000000000E+00  0.00000000000E+00  0.75989401521E+02  0.75989401521E+02  0.00000000000E+00 0. -1.
         -1   -1    0    0    0  501 -0.00000000000E+00 -0.00000000000E+00 -0.36704874613E+03  0.36704874613E+03  0.00000000000E+00 0.  1.
         25    2    1    2    0    0 -0.52543304091E+02  0.10643264137E+03 -0.21718597975E+03  0.27733260935E+03  0.12511962458E+03 0.  0.
          5    1    3    3  502    0 -0.59604628732E+02 -0.40379958778E+01 -0.95983967915E+02  0.11313448490E+03  0.41800000000E+01 0.  1.
         -5    1    3    3    0  502  0.70613246405E+01  0.11047063725E+03 -0.12120201183E+03  0.16419812445E+03  0.41800000000E+01 0.  1.
        -11    1    1    2    0    0  0.75514514126E+02 -0.85807827967E+02 -0.71318269474E+02  0.13472832199E+03  0.00000000000E+00 0.  1.
         11    1    1    2    0    0 -0.22971210035E+02 -0.20624813403E+02 -0.25550953857E+01  0.30977216318E+02  0.00000000000E+00 0. -1.
</event>
<event>
 7    1  0.3001243E-009  0.1124699E+03  0.7561462E-02  0.1256063E+00
         -1   -1    0    0    0  501 -0.00000000000E+00  0.00000000000E+00  0.31218844531E+03  0.31218844531E+03  0.00000000000E+00 0.  1.
          1   -1    0    0  501    0  0.00000000000E+00 -0.00000000000E+00 -0.52173931327E+02  0.52173931327E+02  0.00000000000E+00 0. -1.
         25    2    1    2    0    0  0.56318724183E+02  0.34220431297E+02  0.12641648915E+03  0.18965985993E+03  0.12508755785E+03 0.  0.
          5    1    3    3  502    0 -0.13541458768E+02  0.57658593154E+02  0.25462901794E+02  0.64604305103E+02  0.41800000000E+01 0.  1.
         -5    1    3    3    0  502  0.69860182952E+02 -0.23438161856E+02  0.10095358736E+03  0.12505555483E+03  0.41800000000E+01 0.  1.
        -11    1    1    2    0    0 -0.69008698621E+02 -0.18287666672E+02  0.46370839621E+02  0.85128690844E+02  0.00000000000E+00 0. -1.
         11    1    1    2    0    0  0.12689974438E+02 -0.15932764625E+02  0.87227185207E+02  0.89573825859E+02  0.00000000000E+00 0.  1.
</event>
<event>
 7    1  0.3001243E-009  0.1056227E+03  0.7561462E-02  0.1268898E+00
         -2   -1    0    0    0  501 -0.00000000000E+00  0.00000000000E+00  0.85166780996E+02  0.85166780996E+02  0.00000000000E+00 0.  1.
          2   -1    0    0  501    0  0.00000000000E+00 -0.00000000000E+00 -0.19823382677E+03  0.19823382677E+03  0.00000000000E+00 0. -1.
         25    2    1    2    0    0  0.51686970390E+02  0.12697925076E+02 -0.11673137166E+03  0.17918753318E+03  0.12509667745E+03 0.  0.
          5    1    3    3  502    0 -0.15978477287E+02  0.53281113400E+02 -0.59949026596E+02  0.81887404229E+02  0.41800000000E+01 0.  1.
         -5    1    3    3    0  502  0.67665447677E+02 -0.40583188324E+02 -0.56782345060E+02  0.97300128954E+02  0.41800000000E+01 0.  1.
        -11    1    1    2    0    0  0.88371246847E+01 -0.13246212482E+02  0.33232383753E+02  0.36850349357E+02  0.00000000000E+00 0.  1.
         11    1    1    2    0    0 -0.60524095075E+02  0.54828740556E+00 -0.29568057871E+02  0.67362725227E+02  0.00000000000E+00 0. -1.
</event>
<event>
 7    1  0.3001243E-009  0.1556073E+03  0.7561462E-02  0.1193747E+00
          1   -1    0    0  501    0  0.00000000000E+00  0.00000000000E+00  0.52007027702E+03  0.52007027702E+03  0.00000000000E+00 0. -1.
         -1   -1    0    0    0  501 -0.00000000000E+00 -0.00000000000E+00 -0.74195108836E+02  0.74195108836E+02  0.00000000000E+00 0.  1.
         25    2    1    2    0    0  0.14416945025E+03  0.38034617683E+02  0.13272023575E+03  0.23559792485E+03  0.12514095529E+03 0.  0.
          5    1    3    3  502    0  0.14762501441E+03  0.43061834883E+02  0.15119614114E+03  0.21569703753E+03  0.41800000000E+01 0. -1.
         -5    1    3    3    0  502 -0.34555641677E+01 -0.50272172004E+01 -0.18475905385E+02  0.19900887324E+02  0.41800000000E+01 0. -1.
        -11    1    1    2    0    0 -0.27619271868E+02 -0.14072051009E+02  0.16866515226E+03  0.17148988420E+03  0.00000000000E+00 0. -1.
         11    1    1    2    0    0 -0.11655017838E+03 -0.23962566673E+02  0.14448978017E+03  0.18717757680E+03  0.00000000000E+00 0.  1.
</event>
<event>
 7    1  0.3001243E-009  0.1475688E+03  0.7561462E-02  0.1203493E+00
          1   -1    0    0  501    0  0.00000000000E+00  0.00000000000E+00  0.22206177011E+03  0.22206177011E+03  0.00000000000E+00 0. -1.
         -1   -1    0    0    0  501 -0.00000000000E+00 -0.00000000000E+00 -0.15779694369E+03  0.15779694369E+03  0.00000000000E+00 0.  1.
         25    2    1    2    0    0  0.11548675977E+03  0.31902786888E+02 -0.61482236754E+02  0.18379430219E+03  0.12508117599E+03 0.  0.
          5    1    3    3  502    0  0.76314517595E+02 -0.42435459341E+02 -0.18647898970E+02  0.89386186523E+02  0.41800000000E+01 0. -1.
         -5    1    3    3    0  502  0.39172242174E+02  0.74338246229E+02 -0.42834337784E+02  0.94408115662E+02  0.41800000000E+01 0. -1.
        -11    1    1    2    0    0 -0.78670183434E+02 -0.36051099370E+02  0.27087356698E+02  0.90677474713E+02  0.00000000000E+00 0.  1.
         11    1    1    2    0    0 -0.36816576334E+02  0.41483124818E+01  0.98659706474E+02  0.10538693691E+03  0.00000000000E+00 0. -1.
</event>
<event>
 7    1  0.3001243E-009  0.5153254E+02  0.7561462E-02  0.1437246E+00
         -2   -1    0    0    0  501 -0.00000000000E+00  0.00000000000E+00  0.14165663201E+03  0.14165663201E+03  0.00000000000E+00 0.  1.
          2   -1    0    0  501    0  0.00000000000E+00 -0.00000000000E+00 -0.12942165425E+03  0.12942165425E+03  0.00000000000E+00 0. -1.
         25    2    1    2    0    0  0.91273790409E+01  0.88269315001E+01 -0.73516576388E+02  0.14564763766E+03  0.12508926247E+03 0.  0.
          5    1    3    3  502    0  0.69337655057E+01 -0.11108753214E+02  0.33750110118E+02  0.36442061345E+02  0.41800000000E+01 0.  1.
         -5    1    3    3    0  502  0.21936135352E+01  0.19935684715E+02 -0.10726668651E+03  0.10920557632E+03  0.41800000000E+01 0.  1.
        -11    1    1    2    0    0  0.29536973499E+02 -0.23656774433E+01  0.80623283400E+02  0.85896117837E+02  0.00000000000E+00 0.  1.
         11    1    1    2    0    0 -0.38664352540E+02 -0.64612540568E+01  0.51282707458E+01  0.39534530757E+02  0.00000000000E+00 0. -1.
</event>
<event>
 7    1  0.3001243E-009  0.8350601E+02  0.7561462E-02  0.1319386E+00
         -2   -1    0    0    0  501 -0.00000000000E+00  0.00000000000E+00  0.63453845005E+02  0.63453845005E+02  0.00000000000E+00 0.  1.
          2   -1    0    0  501    0  0.00000000000E+00 -0.00000000000E+00 -0.24339716350E+03  0.24339716350E+03  0.00000000000E+00 0. -1.
         25    2    1    2    0    0  0.46834759155E+02  0.36164832495E+02 -0.14317371071E+03  0.19911706676E+03  0.12508998786E+03 0.  0.
          5    1    3    3  502    0 -0.94803010853E+01 -0.16167387448E+02  0.14225140982E+02  0.23897438389E+02  0.41800000000E+01 0. -1.
         -5    1    3    3    0  502  0.56315060240E+02  0.52332219944E+02 -0.15739885169E+03  0.17521962838E+03  0.41800000000E+01 0. -1.
        -11    1    1    2    0    0 -0.46361654017E+02 -0.13691745378E+02 -0.58894861304E+02  0.76193645028E+02  0.00000000000E+00 0. -1.
         11    1    1    2    0    0 -0.47310513845E+00 -0.22473087117E+02  0.22125253523E+02  0.31540296709E+02  0.00000000000E+00 0.  1.
</event>
<event>
 7    1  0.3001243E-009  0.1713968E+03  0.7561462E-02  0.1176399E+00
         -4   -1    0    0    0  501 -0.00000000000E+00  0.00000000000E+00  0.32605848286E+03  0.32605848286E+03  0.00000000000E+00 0.  1.
          4   -1    0    0  501    0  0.00000000000E+00 -0.00000000000E+00 -0.10768563300E+03  0.10768563300E+03  0.00000000000E+00 0. -1.
         25    2    1    2    0    0 -0.12451391671E+03  0.69230947242E+02  0.16642980722E+03  0.25227724107E+03  0.12509310980E+03 0.  0.
          5    1    3    3  502    0 -0.80605213184E+02  0.90581703534E+02  0.16294264059E+03  0.20315024472E+03  0.41800000000E+01 0. -1.
         -5    1    3    3    0  502 -0.43908703523E+02 -0.21350756292E+02  0.34871666332E+01  0.49126996351E+02  0.41800000000E+01 0. -1.
        -11    1    1    2    0    0  0.12790532024E+03 -0.27794270380E+02  0.29316318982E+02  0.13413328808E+03  0.00000000000E+00 0. -1.
         11    1    1    2    0    0 -0.33914035346E+01 -0.41436676862E+02  0.22626723652E+02  0.47333586707E+02  0.00000000000E+00 0.  1.
</event>
<event>
 7    1  0.3001243E-009  0.1224934E+03  0.7561462E-02  0.1239039E+00
          2   -1    0    0  501    0  0.00000000000E+00  0.00000000000E+00  0.37912910700E+03  0.37912910700E+03  0.00000000000E+00 0. -1.
         -2   -1    0    0    0  501 -0.00000000000E+00 -0.00000000000E+00 -0.66340655597E+02  0.66340655597E+02  0.00000000000E+00 0.  1.
         25    2    1    2    0    0 -0.11270268974E+03  0.10955062198E+02  0.19921059423E+03  0.26106778383E+03  0.12509843020E+03 0.  0.
          5    1    3    3  502    0 -0.97358228703E+02  0.31855978794E+02  0.20919803183E+03  0.23296934778E+03  0.41800000000E+01 0. -1.
         -5    1    3    3    0  502 -0.15344461033E+02 -0.20900916596E+02 -0.99874376000E+01  0.28098436055E+02  0.41800000000E+01 0. -1.
        -11    1    1    2    0    0  0.88221194476E+02  0.25170466288E+01  0.25306997100E+02  0.91813717824E+02  0.00000000000E+00 0.  1.
         11    1    1    2    0    0  0.24481495260E+02 -0.13472108827E+02  0.88270860064E+02  0.92588260935E+02  0.00000000000E+00 0. -1.
</event>
<event>
 7    1  0.3001243E-009  0.9698051E+02  0.7561462E-02  0.1286777E+00
          1   -1    0    0  501    0  0.00000000000E+00  0.00000000000E+00  0.11696078025E+04  0.11696078025E+04  0.00000000000E+00 0. -1.
         -1   -1    0    0    0  501 -0.00000000000E+00 -0.00000000000E+00 -0.11418733364E+02  0.11418733364E+02  0.00000000000E+00 0.  1.
         25    2    1    2    0    0  0.32693912369E+02 -0.16738179898E+02  0.78197976384E+03  0.79277274565E+03  0.12508883490E+03 0.  0.
          5    1    3    3  502    0  0.62633124366E+02  0.15260663329E+01  0.70816676734E+03  0.71094506111E+03  0.41800000000E+01 0. -1.
         -5    1    3    3    0  502 -0.29939211997E+02 -0.18264246231E+02  0.73812996501E+02  0.81827684544E+02  0.41800000000E+01 0. -1.
        -11    1    1    2    0    0 -0.69659535834E+01 -0.36268134383E+02  0.15387259168E+03  0.15824246128E+03  0.00000000000E+00 0. -1.
         11    1    1    2    0    0 -0.25727958786E+02  0.53006314281E+02  0.22233671358E+03  0.23001132890E+03  0.00000000000E+00 0.  1.
</event>
<event>
 7    1  0.3001243E-009  0.1123185E+03  0.7561462E-02  0.1256336E+00
          2   -1    0    0  501    0  0.00000000000E+00  0.00000000000E+00  0.73478938231E+03  0.73478938231E+03  0.00000000000E+00 0. -1.
         -2   -1    0    0    0  501 -0.00000000000E+00 -0.00000000000E+00 -0.22406844508E+02  0.22406844508E+02  0.00000000000E+00 0.  1.
         25    2    1    2    0    0 -0.26394993294E+02  0.13493994971E+02  0.57719399831E+03  0.59133699629E+03  0.12509095860E+03 0.  0.
          5    1    3    3  502    0  0.48766842104E+02  0.20246927517E+02  0.23474910325E+03  0.24065069466E+03  0.41800000000E+01 0. -1.
         -5    1    3    3    0  502 -0.75161835398E+02 -0.67529325457E+01  0.34244489506E+03  0.35068630163E+03  0.41800000000E+01 0. -1.
        -11    1    1    2    0    0 -0.20663378245E+02 -0.37833437228E+02  0.60174670870E+02  0.74022531619E+02  0.00000000000E+00 0. -1.
         11    1    1    2    0    0  0.47058371540E+02  0.24339442257E+02  0.75013868625E+02  0.91836698914E+02  0.00000000000E+00 0.  1.
</event>
<event>
 7    1  0.3001243E-009  0.1370875E+03  0.7561462E-02  0.1217303E+00
          1   -1    0    0  501    0  0.00000000000E+00  0.00000000000E+00  0.93424832469E+03  0.93424832469E+03  0.00000000000E+00 0. -1.
         -1   -1    0    0    0  501 -0.00000000000E+00 -0.00000000000E+00 -0.27366205169E+02  0.27366205169E+02  0.00000000000E+00 0.  1.
         25    2    1    2    0    0 -0.25867666451E+01 -0.11722470280E+03  0.52124011858E+03  0.54871291206E+03  0.12508507640E+03 0.  0.
          5    1    3    3  502    0  0.48582484159E+02 -0.79182495537E+02  0.19206085311E+03  0.21338924309E+03  0.41800000000E+01 0. -1.
         -5    1    3    3    0  502 -0.51169250804E+02 -0.38042207265E+02  0.32917926546E+03  0.33532366897E+03  0.41800000000E+01 0. -1.
        -11    1    1    2    0    0  0.21696980865E+01  0.40146290995E+02  0.33233899984E+02  0.52162480563E+02  0.00000000000E+00 0.  1.
         11    1    1    2    0    0  0.41706855861E+00  0.77078411807E+02  0.35240810096E+03  0.36073913724E+03  0.00000000000E+00 0. -1.
</event>
<event>
 7    1  0.3001243E-009  0.9104960E+02  0.7561462E-02  0.1300330E+00
          1   -1    0    0  501    0  0.00000000000E+00  0.00000000000E+00  0.19514008707E+03  0.19514008707E+03  0.00000000000E+00 0. -1.
         -1   -1    0    0    0  501 -0.00000000000E+00 -0.00000000000E+00 -0.72675883605E+02  0.72675883605E+02  0.00000000000E+00 0.  1.
         25    2    1    2    0    0  0.19906502228E+02  0.45115940429E+02  0.59715267575E+02  0.14712285496E+03  0.12508998504E+03 0.  0.
          5    1    3    3  502    0  0.40463315154E+02  0.55800856771E+02 -0.13372520659E+02  0.70337132430E+02  0.41800000000E+01 0.  1.
         -5    1    3    3    0  502 -0.20556812926E+02 -0.10684916342E+02  0.73087788234E+02  0.76785722526E+02  0.41800000000E+01 0.  1.
        -11    1    1    2    0    0 -0.24918487870E+02  0.15061877013E+02 -0.54280292289E+01  0.29618485414E+02  0.00000000000E+00 0.  1.
         11    1    1    2    0    0  0.50119856425E+01 -0.60177817442E+02  0.68176965115E+02  0.91074630301E+02  0.00000000000E+00 0. -1.
</event>
<event>
 7    1  0.3001243E-009  0.2203981E+03  0.7561462E-02  0.1133587E+00
          2   -1    0    0  501    0  0.00000000000E+00  0.00000000000E+00  0.16064736932E+03  0.16064736932E+03  0.00000000000E+00 0. -1.
         -2   -1    0    0    0  501 -0.00000000000E+00 -0.00000000000E+00 -0.36012537721E+03  0.36012537721E+03  0.00000000000E+00 0.  1.
         25    2    1    2    0    0 -0.19888642481E+03  0.44816169154E+02 -0.17428438266E+03  0.29595071239E+03  0.12508988422E+03 0.  0.
          5    1    3    3  502    0 -0.13358385266E+03  0.66747587543E+02 -0.17070744394E+03  0.22684441794E+03  0.41800000000E+01 0. -1.
         -5    1    3    3    0  502 -0.65302572152E+02 -0.21931418389E+02 -0.35769387240E+01  0.69106294452E+02  0.41800000000E+01 0. -1.
        -11    1    1    2    0    0  0.44678889480E+02  0.27083693676E+02  0.31054091692E+01  0.52339021718E+02  0.00000000000E+00 0. -1.
         11    1    1    2    0    0  0.15420753533E+03 -0.71899862830E+02 -0.28299034391E+02  0.17248301242E+03  0.00000000000E+00 0.  1.
</event>
<event>
 7    1  0.3001243E-009  0.8512507E+02  0.7561462E-02  0.1315106E+00
          1   -1    0    0  501    0  0.00000000000E+00  0.00000000000E+00  0.36571778227E+03  0.36571778227E+03  0.00000000000E+00 0. -1.
         -1   -1    0    0    0  501 -0.00000000000E+00 -0.00000000000E+00 -0.36025622203E+02  0.36025622203E+02  0.00000000000E+00 0.  1.
         25    2    1    2    0    0 -0.24520061920E+02 -0.72625883364E+01  0.13970785024E+03  0.18926027114E+03  0.12508872126E+03 0.  0.
          5    1    3    3  502    0 -0.35677961874E+02 -0.54227681193E+02  0.12089534546E+03  0.13728333958E+03  0.41800000000E+01 0. -1.
         -5    1    3    3    0  502  0.11157899954E+02  0.46965092857E+02  0.18812504781E+02  0.51976931562E+02  0.41800000000E+01 0. -1.
        -11    1    1    2    0    0 -0.11005206293E+02  0.16693803229E+02  0.10669703077E+01  0.20023387761E+02  0.00000000000E+00 0.  1.
         11    1    1    2    0    0  0.35525268214E+02 -0.94312148923E+01  0.18891733951E+03  0.19245974557E+03  0.00000000000E+00 0. -1.
</event>
<event>
 7    1  0.3001243E-009  0.1202639E+03  0.7561462E-02  0.1242662E+00
          2   -1    0    0  501    0  0.00000000000E+00  0.00000000000E+00  0.45423334258E+03  0.45423334258E+03  0.00000000000E+00 0. -1.
         -2   -1    0    0    0  501 -0.00000000000E+00 -0.00000000000E+00 -0.42151447124E+02  0.42151447124E+02  0.00000000000E+00 0.  1.
         25    2    1    2    0    0 -0.82977291312E+01  0.65750330305E+02  0.15883310101E+03  0.21276134372E+03  0.12508987633E+03 0.  0.
          5    1    3    3  502    0  0.23123955144E+02  0.95056719598E+02  0.11803611054E+03  0.15336392350E+03  0.41800000000E+01 0.  1.
         -5    1    3    3    0  502 -0.31421684275E+02 -0.29306389293E+02  0.40796990473E+02  0.59397420211E+02  0.41800000000E+01 0.  1.
        -11    1    1    2    0    0  0.35779808171E+02 -0.97897744408E+01  0.19434451841E+03  0.19785304191E+03  0.00000000000E+00 0. -1.
         11    1    1    2    0    0 -0.27482079040E+02 -0.55960555864E+02  0.58904276043E+02  0.85770404086E+02  0.00000000000E+00 0.  1.
</event>
<event>
 7    1  0.3001243E-009  0.1527456E+03  0.7561462E-02  0.1197139E+00
          4   -1    0    0  501    0  0.00000000000E+00  0.00000000000E+00  0.37008019925E+02  0.37008019925E+02  0.00000000000E+00 0.  1.
         -4   -1    0    0    0  501 -0.00000000000E+00 -0.00000000000E+00 -0.76194556853E+03  0.76194556853E+03  0.00000000000E+00 0. -1.
         25    2    1    2    0    0 -0.11777471486E+03  0.16867319375E+02 -0.50092950299E+03  0.52984308864E+03  0.12509173313E+03 0.  0.
          5    1    3    3  502    0 -0.13283135727E+03 -0.75216120245E+00 -0.30756728304E+03  0.33505199778E+03  0.41800000000E+01 0. -1.
         -5    1    3    3    0  502  0.15056642408E+02  0.17619480578E+02 -0.19336221995E+03  0.19479109086E+03  0.41800000000E+01 0. -1.
        -11    1    1    2    0    0  0.13169335795E+03 -0.68095107632E+01 -0.20111359000E+03  0.24049155089E+03  0.00000000000E+00 0.  1.
         11    1    1    2    0    0 -0.13918643088E+02 -0.10057808612E+02 -0.22894455617E+02  0.28618948923E+02  0.00000000000E+00 0. -1.
</event>
<event>
 7    1  0.3001243E-009  0.1805474E+03  0.7561462E-02  0.1167274E+00
          1   -1    0    0  501    0  0.00000000000E+00  0.00000000000E+00  0.14526226982E+04  0.14526226982E+04  0.00000000000E+00 0. -1.
         -1   -1    0    0    0  501 -0.00000000000E+00 -0.00000000000E+00 -0.24255221737E+02  0.24255221737E+02  0.00000000000E+00 0.  1.
         25    2    1    2    0    0 -0.80487572774E+02 -0.12921114243E+03  0.76320652463E+03  0.78822959685E+03  0.12509168404E+03 0.  0.
          5    1    3    3  502    0 -0.58428378333E+02 -0.73247460490E+01  0.40292752391E+03  0.40722916058E+03  0.41800000000E+01 0. -1.
         -5    1    3    3    0  502 -0.22059194442E+02 -0.12188639638E+03  0.36027900071E+03  0.38100043627E+03  0.41800000000E+01 0. -1.
        -11    1    1    2    0    0 -0.15441658482E+02  0.54177934445E+02  0.22559081959E+03  0.23251862566E+03  0.00000000000E+00 0.  1.
         11    1    1    2    0    0  0.95929231256E+02  0.75033207988E+02  0.43957013227E+03  0.45612969745E+03  0.00000000000E+00 0. -1.
</event>
<event>
 7    1  0.3001243E-009  0.1520721E+03  0.7561462E-02  0.1197950E+00
         -1   -1    0    0    0  501 -0.00000000000E+00  0.00000000000E+00  0.42165428721E+03  0.42165428721E+03  0.00000000000E+00 0.  1.
          1   -1    0    0  501    0  0.00000000000E+00 -0.00000000000E+00 -0.76899161020E+02  0.76899161020E+02  0.00000000000E+00 0. -1.
         25    2    1    2    0    0  0.12307997287E+03 -0.51850120084E+02  0.25296582274E+03  0.31221181845E+03  0.12508955764E+03 0.  0.
          5    1    3    3  502    0  0.25016057799E+02  0.15121177959E+02 -0.33255354074E+01  0.29715059421E+02  0.41800000000E+01 0.  1.
         -5    1    3    3    0  502  0.98063915069E+02 -0.66971298043E+02  0.25629135814E+03  0.28249675903E+03  0.41800000000E+01 0.  1.
        -11    1    1    2    0    0 -0.45048902539E+01  0.35861815524E+02  0.10178826590E+01  0.36157985757E+02  0.00000000000E+00 0. -1.
         11    1    1    2    0    0 -0.11857508261E+03  0.15988304560E+02  0.90771420789E+02  0.15018364402E+03  0.00000000000E+00 0.  1.
</event>
<event>
 7    1  0.3001243E-009  0.1009349E+03  0.7561462E-02  0.1278342E+00
         -2   -1    0    0    0  501 -0.00000000000E+00  0.00000000000E+00  0.12626942819E+02  0.12626942819E+02  0.00000000000E+00 0.  1.
          2   -1    0    0  501    0  0.00000000000E+00 -0.00000000000E+00 -0.17520692336E+04  0.17520692336E+04  0.00000000000E+00 0. -1.
         25    2    1    2    0    0 -0.13856202097E+02  0.45334683750E+02 -0.14781535710E+04  0.14841942487E+04  0.12508941017E+03 0.  0.
          5    1    3    3  502    0 -0.50652035491E+01 -0.43387404547E+02 -0.55749970539E+03  0.55922403120E+03  0.41800000000E+01 0. -1.
         -5    1    3    3    0  502 -0.87909985483E+01  0.88722088297E+02 -0.92065386556E+03  0.92497021746E+03  0.41800000000E+01 0. -1.
        -11    1    1    2    0    0 -0.15268719192E+02 -0.50894925462E+00 -0.15913796475E+01  0.15359860165E+02  0.00000000000E+00 0.  1.
         11    1    1    2    0    0  0.29124921289E+02 -0.44825734495E+02 -0.25969734015E+03  0.26514206756E+03  0.00000000000E+00 0. -1.
</event>
<event>
 7    1  0.3001243E-009  0.1252519E+03  0.7561462E-02  0.1234676E+00
         -2   -1    0    0    0  501 -0.00000000000E+00  0.00000000000E+00  0.10403311799E+03  0.10403311799E+03  0.00000000000E+00 0.  1.
          2   -1    0    0  501    0  0.00000000000E+00 -0.00000000000E+00 -0.22823552094E+03  0.22823552094E+03  0.00000000000E+00 0. -1.
         25    2    1    2    0    0  0.93920147308E+02  0.36324267742E+01 -0.56896557751E+01  0.15657111035E+03  0.12509177359E+03 0.  0.
          5    1    3    3  502    0  0.67677287159E+02 -0.57511458690E+02  0.49940979522E+01  0.89051650699E+02  0.41800000000E+01 0.  1.
         -5    1    3    3    0  502  0.26242860149E+02  0.61143885464E+02 -0.10683753727E+02  0.67519459655E+02  0.41800000000E+01 0.  1.
        -11    1    1    2    0    0 -0.45872800421E+02  0.48663694991E+01 -0.11822221385E+03  0.12690345629E+03  0.00000000000E+00 0. -1.
         11    1    1    2    0    0 -0.48047346887E+02 -0.84987962733E+01 -0.29053333175E+00  0.48794072290E+02  0.00000000000E+00 0.  1.
</event>
<event>
 7    1  0.3342064E-009  0.6028075E+02  0.7561462E-02  0.1396657E+00
          2   -1    0    0  501    0  0.00000000000E+00  0.00000000000E+00  0.35138661469E+03  0.35138661469E+03  0.00000000000E+00 0. -1.
         -2   -1    0    0    0  501 -0.00000000000E+00 -0.00000000000E+00 -0.59149904967E+02  0.59149904967E+02  0.00000000000E+00 0.  1.
         25    2    1    2    0    0 -0.54391348071E+02  0.64016080516E+01  0.26918530775E+03  0.30183983666E+03  0.12508859963E+03 0.  0.
          5    1    3    3  502    0 -0.11061157429E+02  0.11437645812E+02  0.25535947748E+03  0.25588885104E+03  0.41800000000E+01 0. -1.
         -5    1    3    3    0  502 -0.43330190642E+02 -0.50360377602E+01  0.13825830268E+02  0.45950985626E+02  0.41800000000E+01 0. -1.
        -11    1    1    2    0    0  0.34335086552E+02 -0.16202191541E+02 -0.31769825880E+02  0.49504858506E+02  0.00000000000E+00 0.  1.
         11    1    1    2    0    0  0.20056261519E+02  0.98005834889E+01  0.54821227855E+02  0.59191824490E+02  0.00000000000E+00 0. -1.
</event>
<event>
 7    1  0.3001243E-009  0.1031972E+03  0.7561462E-02  0.1273713E+00
          2   -1    0    0  501    0  0.00000000000E+00  0.00000000000E+00  0.24308302941E+02  0.24308302941E+02  0.00000000000E+00 0. -1.
         -2   -1    0    0    0  501 -0.00000000000E+00 -0.00000000000E+00 -0.71242696103E+03  0.71242696103E+03  0.00000000000E+00 0.  1.
         25    2    1    2    0    0  0.68767450546E+02  0.14399996786E+02 -0.31177771561E+03  0.34319262643E+03  0.12505803742E+03 0.  0.
          5    1    3    3  502    0  0.68209305554E+02 -0.13553640555E+02 -0.66567747736E+02  0.96358434893E+02  0.41800000000E+01 0.  1.
         -5    1    3    3    0  502  0.55814499179E+00  0.27953637341E+02 -0.24520996787E+03  0.24683419154E+03  0.41800000000E+01 0.  1.
        -11    1    1    2    0    0  0.13329154914E+02 -0.22300320843E+02 -0.43790375978E+02  0.50917263366E+02  0.00000000000E+00 0. -1.
         11    1    1    2    0    0 -0.82096605460E+02  0.79003240569E+01 -0.33255056650E+03  0.34262537417E+03  0.00000000000E+00 0.  1.
</event>
<event>
 7    1  0.3001243E-009  0.1065910E+03  0.7561462E-02  0.1267016E+00
         -2   -1    0    0    0  501 -0.00000000000E+00  0.00000000000E+00  0.28092166466E+03  0.28092166466E+03  0.00000000000E+00 0.  1.
          2   -1    0    0  501    0  0.00000000000E+00 -0.00000000000E+00 -0.48801463659E+02  0.48801463659E+02  0.00000000000E+00 0. -1.
         25    2    1    2    0    0 -0.27859826342E+02 -0.19818853696E+02  0.92733854057E+02  0.15942500469E+03  0.12509119692E+03 0.  0.
          5    1    3    3  502    0 -0.69328974836E+02 -0.34541572430E+02  0.31085070871E+02  0.83566626166E+02  0.41800000000E+01 0. -1.
         -5    1    3    3    0  502  0.41469148494E+02  0.14722718735E+02  0.61648783186E+02  0.75858378522E+02  0.41800000000E+01 0. -1.
        -11    1    1    2    0    0  0.24579124780E+02 -0.31517030894E+02  0.92213267136E+02  0.10050245394E+03  0.00000000000E+00 0.  1.
         11    1    1    2    0    0  0.32807015625E+01  0.51335884589E+02  0.47173079802E+02  0.69795669689E+02  0.00000000000E+00 0. -1.
</event>
<event>
 7    1  0.3001243E-009  0.2064183E+03  0.7561462E-02  0.1144434E+00
         -2   -1    0    0    0  501 -0.00000000000E+00  0.00000000000E+00  0.38197780731E+02  0.38197780731E+02  0.00000000000E+00 0.  1.
          2   -1    0    0  501    0  0.00000000000E+00 -0.00000000000E+00 -0.13339878625E+04  0.13339878625E+04  0.00000000000E+00 0. -1.
         25    2    1    2    0    0  0.18616011426E+03  0.71439920104E+01 -0.88205660206E+03  0.91015261017E+03  0.12508916743E+03 0.  0.
          5    1    3    3  502    0  0.80203809190E+01  0.41197071009E+02 -0.19856281873E+03  0.20299308006E+03  0.41800000000E+01 0.  1.
         -5    1    3    3    0  502  0.17813973334E+03 -0.34053078999E+02 -0.68349378332E+03  0.70715953011E+03  0.41800000000E+01 0.  1.
        -11    1    1    2    0    0 -0.10602528276E+03  0.12437814100E+02 -0.31914613295E+03  0.33652683991E+03  0.00000000000E+00 0. -1.
         11    1    1    2    0    0 -0.80134831505E+02 -0.19581806110E+02 -0.94587346764E+02  0.12550619315E+03  0.00000000000E+00 0.  1.
</event>
<event>
 7    1  0.3001243E-009  0.1574245E+03  0.7561462E-02  0.1191636E+00
         -2   -1    0    0    0  501 -0.00000000000E+00  0.00000000000E+00  0.80200498481E+02  0.80200498481E+02  0.00000000000E+00 0. -1.
          2   -1    0    0  501    0  0.00000000000E+00 -0.00000000000E+00 -0.38729413978E+03  0.38729413978E+03  0.00000000000E+00 0.  1.
         25    2    1    2    0    0 -0.14943676380E+02 -0.13591274371E+03 -0.19070919251E+03  0.26591704738E+03  0.12508514146E+03 0.  0.
          5    1    3    3  502    0  0.47331204350E+02 -0.84785350925E+02 -0.66357897530E+02  0.11768450026E+03  0.41800000000E+01 0.  1.
         -5    1    3    3    0  502 -0.62274880731E+02 -0.51127392789E+02 -0.12435129498E+03  0.14823254712E+03  0.41800000000E+01 0.  1.
        -11    1    1    2    0    0  0.14967319499E+02  0.10495026863E+03 -0.13000685701E+03  0.16775089391E+03  0.00000000000E+00 0.  1.
         11    1    1    2    0    0 -0.23643118688E-01  0.30962475081E+02  0.13622408218E+02  0.33826696969E+02  0.00000000000E+00 0. -1.
</event>
<event>
 7    1  0.3001243E-009  0.8539812E+02  0.7561462E-02  0.1314395E+00
          2   -1    0    0  501    0  0.00000000000E+00  0.00000000000E+00  0.24465293463E+02  0.24465293463E+02  0.00000000000E+00 0. -1.
         -2   -1    0    0    0  501 -0.00000000000E+00 -0.00000000000E+00 -0.74773003259E+03  0.74773003259E+03  0.00000000000E+00 0.  1.
         25    2    1    2    0    0  0.16196048824E+02  0.20599004379E+02 -0.61494453145E+03  0.62808539251E+03  0.12509137676E+03 0.  0.
          5    1    3    3  502    0  0.29318417742E+02 -0.29636168076E+02 -0.77304642717E+02  0.87928108490E+02  0.41800000000E+01 0.  1.
         -5    1    3    3    0  502 -0.13122368919E+02  0.50235172455E+02 -0.53763988873E+03  0.54015728402E+03  0.41800000000E+01 0.  1.
        -11    1    1    2    0    0 -0.27787705781E+02 -0.43226039975E+02 -0.10694396626E+03  0.11864931118E+03  0.00000000000E+00 0.  1.
         11    1    1    2    0    0  0.11591656957E+02  0.22627035596E+02 -0.13762414172E+01  0.25460622367E+02  0.00000000000E+00 0. -1.
</event>
<event>
 7    1  0.3001243E-009  0.7264349E+02  0.7561462E-02  0.1351328E+00
         -1   -1    0    0    0  501 -0.00000000000E+00  0.00000000000E+00  0.18190349887E+03  0.18190349887E+03  0.00000000000E+00 0.  1.
          1   -1    0    0  501    0  0.00000000000E+00 -0.00000000000E+00 -0.82443554649E+02  0.82443554649E+02  0.00000000000E+00 0. -1.
         25    2    1    2    0    0 -0.32668205339E+02 -0.93939730632E+01  0.48302494678E+01  0.12972871245E+03  0.12510295422E+03 0.  0.
          5    1    3    3  502    0 -0.36691704883E+02  0.25519404073E+01 -0.56185988414E+02  0.67283960207E+02  0.41800000000E+01 0. -1.
         -5    1    3    3    0  502  0.40234995437E+01 -0.11945913470E+02  0.61016237881E+02  0.62444752241E+02  0.41800000000E+01 0. -1.
        -11    1    1    2    0    0  0.49029443774E+02  0.38002591234E+02  0.69615654553E+02  0.93243888037E+02  0.00000000000E+00 0. -1.
         11    1    1    2    0    0 -0.16361238435E+02 -0.28608618171E+02  0.25014040197E+02  0.41374453032E+02  0.00000000000E+00 0.  1.
</event>
<event>
 7    1  0.3001243E-009  0.7680029E+02  0.7561462E-02  0.1338385E+00
          1   -1    0    0  501    0  0.00000000000E+00  0.00000000000E+00  0.43427861514E+02  0.43427861514E+02  0.00000000000E+00 0. -1.
         -1   -1    0    0    0  501 -0.00000000000E+00 -0.00000000000E+00 -0.37898504632E+03  0.37898504632E+03  0.00000000000E+00 0.  1.
         25    2    1    2    0    0  0.61099966817E+02  0.31705067999E+02 -0.17590545470E+03  0.22655380651E+03  0.12508189704E+03 0.  0.
          5    1    3    3  502    0  0.55181897541E+02  0.71246843608E+01 -0.18950098569E+03  0.19754467576E+03  0.41800000000E+01 0.  1.
         -5    1    3    3    0  502  0.59180692754E+01  0.24580383639E+02  0.13595530988E+02  0.29009130746E+02  0.41800000000E+01 0.  1.
        -11    1    1    2    0    0 -0.28506138566E+02 -0.28529677385E+01 -0.14806913686E+03  0.15081514729E+03  0.00000000000E+00 0.  1.
         11    1    1    2    0    0 -0.32593828250E+02 -0.28852100261E+02 -0.11582593245E+02  0.45043954042E+02  0.00000000000E+00 0. -1.
</event>
<event>
 7    1  0.3001243E-009  0.9738739E+02  0.7561462E-02  0.1285888E+00
          1   -1    0    0  501    0  0.00000000000E+00  0.00000000000E+00  0.29425784109E+03  0.29425784109E+03  0.00000000000E+00 0. -1.
         -1   -1    0    0    0  501 -0.00000000000E+00 -0.00000000000E+00 -0.45346816373E+02  0.45346816373E+02  0.00000000000E+00 0.  1.
         25    2    1    2    0    0  0.23931609522E+02  0.10674671815E+02  0.94103480167E+02  0.15871464463E+03  0.12509277712E+03 0.  0.
          5    1    3    3  502    0 -0.47467792763E+02 -0.98644697950E+01  0.58881832387E+02  0.76387444645E+02  0.41800000000E+01 0.  1.
         -5    1    3    3    0  502  0.71399402285E+02  0.20539141610E+02  0.35221647780E+02  0.82327199983E+02  0.41800000000E+01 0.  1.
        -11    1    1    2    0    0 -0.79083611737E+01  0.28393461637E+02  0.12689269935E+03  0.13027082555E+03  0.00000000000E+00 0. -1.
         11    1    1    2    0    0 -0.16023248349E+02 -0.39068133452E+02  0.27914845199E+02  0.50619187287E+02  0.00000000000E+00 0.  1.
</event>
<event>
 7    1  0.3001243E-009  0.1065456E+03  0.7561462E-02  0.1267104E+00
         -3   -1    0    0    0  501 -0.00000000000E+00  0.00000000000E+00  0.27240284570E+03  0.27240284570E+03  0.00000000000E+00 0.  1.
          3   -1    0    0  501    0  0.00000000000E+00 -0.00000000000E+00 -0.56862767226E+02  0.56862767226E+02  0.00000000000E+00 0. -1.
         25    2    1    2    0    0  0.26983156447E+02  0.44427667523E+02  0.77626444436E+02  0.15611865404E+03  0.12508101731E+03 0.  0.
          5    1    3    3  502    0  0.22978399952E+02 -0.30536756267E+02  0.70872825206E+02  0.80628345514E+02  0.41800000000E+01 0. -1.
         -5    1    3    3    0  502  0.40047564949E+01  0.74964423791E+02  0.67536192302E+01  0.75490308528E+02  0.41800000000E+01 0. -1.
        -11    1    1    2    0    0 -0.47943570399E+01  0.25576894929E+02  0.15196061058E+02  0.30134426912E+02  0.00000000000E+00 0.  1.
         11    1    1    2    0    0 -0.22188799407E+02 -0.70004562452E+02  0.12271757298E+03  0.14301253197E+03  0.00000000000E+00 0. -1.
</event>
<event>
 6    1  0.4176751E-009  0.8918249E+02  0.7561462E-02  0.1304844E+00
          2   -1    0    0  501    0  0.00000000000E+00  0.00000000000E+00  0.43994864667E+03  0.43994864667E+03  0.00000000000E+00 0. -1.
         -2   -1    0    0    0  501 -0.00000000000E+00 -0.00000000000E+00 -0.36246869363E+02  0.36246869363E+02  0.00000000000E+00 0.  1.
          5    1    1    2  502    0 -0.58107006530E+02  0.37924240855E+02  0.19142712924E+03  0.20365777781E+03  0.41800000000E+01 0.  1.
         -5    1    1    2    0  502  0.22361226863E+02 -0.56533914521E+02  0.13037780192E+03  0.14391647436E+03  0.41800000000E+01 0.  1.
        -11    1    1    2    0    0  0.10944524757E+02  0.20290551330E+02 -0.15710552980E+02  0.27898218050E+02  0.00000000000E+00 0.  1.
         11    1    1    2    0    0  0.24801254910E+02 -0.16808776638E+01  0.97607399128E+02  0.10072304582E+03  0.00000000000E+00 0. -1.
</event>
<event>
 7    1  0.3403752E-009  0.1342185E+03  0.7561462E-02  0.1221327E+00
         -2   -1    0    0    0  501 -0.00000000000E+00  0.00000000000E+00  0.22282838820E+02  0.22282838820E+02  0.00000000000E+00 0.  1.
          2   -1    0    0  501    0  0.00000000000E+00 -0.00000000000E+00 -0.11646951028E+04  0.11646951028E+04  0.00000000000E+00 0. -1.
         25    2    1    2    0    0 -0.11260732118E+03  0.37654348859E+02 -0.62314713737E+03  0.64657277916E+03  0.12508295314E+03 0.  0.
          5    1    3    3  502    0 -0.55504822917E+02  0.16480850397E+02 -0.54163049057E+03  0.54473247059E+03  0.41800000000E+01 0.  1.
         -5    1    3    3    0  502 -0.57102498258E+02  0.21173498462E+02 -0.81516646797E+02  0.10184030857E+03  0.41800000000E+01 0.  1.
        -11    1    1    2    0    0  0.54769525298E+02 -0.65306808489E+02 -0.31394607236E+03  0.32531033873E+03  0.00000000000E+00 0. -1.
         11    1    1    2    0    0  0.57837795878E+02  0.27652459631E+02 -0.20531905422E+03  0.21509482370E+03  0.00000000000E+00 0.  1.
</event>
<event>
 7    1  0.3001243E-009  0.1108623E+03  0.7561462E-02  0.1258981E+00
          2   -1    0    0  501    0  0.00000000000E+00  0.00000000000E+00  0.16236281989E+02  0.16236281989E+02  0.00000000000E+00 0. -1.
         -2   -1    0    0    0  501 -0.00000000000E+00 -0.00000000000E+00 -0.81049867416E+03  0.81049867416E+03  0.00000000000E+00 0.  1.
         25    2    1    2    0    0  0.15641797126E+02  0.25837396502E+02 -0.51684695444E+03  0.53263091585E+03  0.12511067632E+03 0.  0.
          5    1    3    3  502    0 -0.42925713565E+02 -0.21936105059E+02 -0.27467373359E+03  0.27890310489E+03  0.41800000000E+01 0. -1.
         -5    1    3    3    0  502  0.58567510691E+02  0.47773501562E+02 -0.24217322085E+03  0.25372781096E+03  0.41800000000E+01 0. -1.
        -11    1    1    2    0    0 -0.55826075010E+00 -0.60153840452E+02 -0.17382856042E+03  0.18394337334E+03  0.00000000000E+00 0.  1.
         11    1    1    2    0    0 -0.15083536376E+02  0.34316443950E+02 -0.10358687731E+03  0.11016066697E+03  0.00000000000E+00 0. -1.
</event>
<event>
 7    1  0.3001243E-009  0.8732796E+02  0.7561462E-02  0.1309455E+00
          2   -1    0    0  501    0  0.00000000000E+00  0.00000000000E+00  0.55333561768E+03  0.55333561768E+03  0.00000000000E+00 0. -1.
         -2   -1    0    0    0  501 -0.00000000000E+00 -0.00000000000E+00 -0.24312235609E+02  0.24312235609E+02  0.00000000000E+00 0.  1.
         25    2    1    2    0    0 -0.12809236004E+02 -0.14791589031E+02  0.40133506762E+03  0.42083212927E+03  0.12508787669E+03 0.  0.
          5    1    3    3  502    0  0.49114535539E+02 -0.84761333658E+01  0.86877339924E+02  0.10024583298E+03  0.41800000000E+01 0.  1.
         -5    1    3    3    0  502 -0.61923771543E+02 -0.63154556655E+01  0.31445772769E+03  0.32058629629E+03  0.41800000000E+01 0.  1.
        -11    1    1    2    0    0  0.58931029428E+00 -0.22758829146E+02 -0.40876442433E+00  0.22770126900E+02  0.00000000000E+00 0.  1.
         11    1    1    2    0    0  0.12219925710E+02  0.37550418177E+02  0.12809707888E+03  0.13404559712E+03  0.00000000000E+00 0. -1.
</event>
<event>
 7    1  0.3001243E-009  0.9440638E+02  0.7561462E-02  0.1292519E+00
         -1   -1    0    0    0  501 -0.00000000000E+00  0.00000000000E+00  0.20181833003E+02  0.20181833003E+02  0.00000000000E+00 0.  1.
          1   -1    0    0  501    0  0.00000000000E+00 -0.00000000000E+00 -0.68204047394E+03  0.68204047394E+03  0.00000000000E+00 0. -1.
         25    2    1    2    0    0  0.28749555671E+02 -0.14293318503E+02 -0.46558554305E+03  0.48316482311E+03  0.12509001754E+03 0.  0.
          5    1    3    3  502    0  0.34960767130E+02 -0.51752341026E+02 -0.41542778073E+03  0.42011697590E+03  0.41800000000E+01 0. -1.
         -5    1    3    3    0  502 -0.62112114585E+01  0.37459022523E+02 -0.50157762317E+02  0.63047847202E+02  0.41800000000E+01 0. -1.
        -11    1    1    2    0    0  0.93935169677E+01 -0.28903612777E+02 -0.11804920333E+03  0.12189861114E+03  0.00000000000E+00 0. -1.
         11    1    1    2    0    0 -0.38143072639E+02  0.43196931280E+02 -0.78223894562E+02  0.97158872692E+02  0.00000000000E+00 0.  1.
</event>
<event>
 7    1  0.3001243E-009  0.1510348E+03  0.7561462E-02  0.1199207E+00
          1   -1    0    0  501    0  0.00000000000E+00  0.00000000000E+00  0.22496876919E+04  0.22496876919E+04  0.00000000000E+00 0. -1.
         -1   -1    0    0    0  501 -0.00000000000E+00 -0.00000000000E+00 -0.13290323402E+02  0.13290323402E+02  0.00000000000E+00 0.  1.
         25    2    1    2    0    0  0.35444790804E+02 -0.11182379503E+03  0.15211003058E+04  0.15307365019E+04  0.12508878297E+03 0.  0.
          5    1    3    3  502    0 -0.27314098480E+02 -0.18931378452E+02  0.10530780043E+03  0.11050639030E+03  0.41800000000E+01 0. -1.
         -5    1    3    3    0  502  0.62758889284E+02 -0.92892416578E+02  0.14157925054E+04  0.14202301116E+04  0.41800000000E+01 0. -1.
        -11    1    1    2    0    0  0.15820683085E+02  0.10319933531E+03  0.45879954394E+03  0.47052887090E+03  0.00000000000E+00 0.  1.
         11    1    1    2    0    0 -0.51265473889E+02  0.86244597166E+01  0.25649751871E+03  0.26171264246E+03  0.00000000000E+00 0. -1.
</event>
<event>
 7    1  0.3001243E-009  0.9053167E+02  0.7561462E-02  0.1301569E+00
         -1   -1    0    0    0  501 -0.00000000000E+00  0.00000000000E+00  0.13736687241E+03  0.13736687241E+03  0.00000000000E+00 0.  1.
          1   -1    0    0  501    0  0.00000000000E+00 -0.00000000000E+00 -0.11381527485E+03  0.11381527485E+03  0.00000000000E+00 0. -1.
         25    2    1    2    0    0 -0.28121850288E+02  0.43373298531E+02  0.46330496701E+02  0.14305537753E+03  0.12508494964E+03 0.  0.
          5    1    3    3  502    0 -0.13842332070E+02 -0.40446243512E+02 -0.56302423951E+01  0.43320674058E+02  0.41800000000E+01 0. -1.
         -5    1    3    3    0  502 -0.14279518218E+02  0.83819542043E+02  0.51960739096E+02  0.99734703470E+02  0.41800000000E+01 0. -1.
        -11    1    1    2    0    0  0.13266924036E+02 -0.30736409284E+02 -0.58515302227E+02  0.67414974032E+02  0.00000000000E+00 0. -1.
         11    1    1    2    0    0  0.14854926253E+02 -0.12636889247E+02  0.35736403084E+02  0.40711795701E+02  0.00000000000E+00 0.  1.
</event>
<event>
 7    1  0.3001243E-009  0.1410735E+03  0.7561462E-02  0.1211892E+00
          1   -1    0    0  501    0  0.00000000000E+00  0.00000000000E+00  0.28353599669E+03  0.28353599669E+03  0.00000000000E+00 0.  1.
         -1   -1    0    0    0  501 -0.00000000000E+00 -0.00000000000E+00 -0.83017705324E+02  0.83017705324E+02  0.00000000000E+00 0. -1.
         25    2    1    2    0    0  0.81973074269E+02 -0.68905581168E+02  0.12250858511E+03  0.20523911579E+03  0.12508867736E+03 0.  0.
          5    1    3    3  502    0 -0.30803130659E+02 -0.26650226908E+02  0.14569194376E+02  0.43460341432E+02  0.41800000000E+01 0. -1.
         -5    1    3    3    0  502  0.11277620493E+03 -0.42255354260E+02  0.10793939073E+03  0.16177877436E+03  0.41800000000E+01 0. -1.
        -11    1    1    2    0    0 -0.83687790822E+02  0.41817221032E+02  0.17748252811E+02  0.95222511967E+02  0.00000000000E+00 0. -1.
         11    1    1    2    0    0  0.17147165531E+01  0.27088360136E+02  0.60261453452E+02  0.66092074259E+02  0.00000000000E+00 0.  1.
</event>
<event>
 6    1  0.3001243E-009  0.2601165E+03  0.7561462E-02  0.1107073E+00
          2   -1    0    0  501    0  0.00000000000E+00  0.00000000000E+00  0.67309900436E+03  0.67309900436E+03  0.00000000000E+00 0. -1.
         -2   -1    0    0    0  501 -0.00000000000E+00 -0.00000000000E+00 -0.11428099880E+03  0.11428099880E+03  0.00000000000E+00 0.  1.
          5    1    1    2  502    0  0.41733277236E+02 -0.74911894847E+02  0.48343828377E+02  0.98529470518E+02  0.41800000000E+01 0.  1.
         -5    1    1    2    0  502 -0.53083677297E+01 -0.17078412324E+03  0.32234120676E+03  0.36485164313E+03  0.41800000000E+01 0.  1.
        -11    1    1    2    0    0  0.27141382154E+02  0.11455321342E+03  0.92040414114E+02  0.14943403615E+03  0.00000000000E+00 0. -1.
         11    1    1    2    0    0 -0.63566291661E+02  0.13114280466E+03  0.96092556307E+02  0.17456485336E+03  0.00000000000E+00 0.  1.
</event>
<event>
 7    1  0.3001243E-009  0.2107643E+03  0.7561462E-02  0.1140962E+00
         -2   -1    0    0    0  501 -0.00000000000E+00  0.00000000000E+00  0.47900702175E+02  0.47900702175E+02  0.00000000000E+00 0. -1.
          2   -1    0    0  501    0  0.00000000000E+00 -0.00000000000E+00 -0.11631949488E+04  0.11631949488E+04  0.00000000000E+00 0.  1.
         25    2    1    2    0    0 -0.15895822478E+03  0.11942756089E+03 -0.74123654420E+03  0.77756667772E+03  0.12509062442E+03 0.  0.
          5    1    3    3  502    0 -0.11157887573E+03  0.46869998387E+02 -0.23938173658E+03  0.26826801983E+03  0.41800000000E+01 0. -1.
         -5    1    3    3    0  502 -0.47379349051E+02  0.72557562500E+02 -0.50185480762E+03  0.50929865789E+03  0.41800000000E+01 0. -1.
        -11    1    1    2    0    0  0.50162476435E+02 -0.86523358255E+02 -0.22373956903E+03  0.24507541761E+03  0.00000000000E+00 0.  1.
         11    1    1    2    0    0  0.10879574834E+03 -0.32904202632E+02 -0.15031813338E+03  0.18845355563E+03  0.00000000000E+00 0. -1.
</event>
<event>
 7    1  0.3001243E-009  0.1005699E+03  0.7561462E-02  0.1279102E+00
          2   -1    0    0  501    0  0.00000000000E+00  0.00000000000E+00  0.41929424635E+03  0.41929424635E+03  0.00000000000E+00 0. -1.
         -2   -1    0    0    0  501 -0.00000000000E+00 -0.00000000000E+00 -0.45432364459E+02  0.45432364459E+02  0.00000000000E+00 0.  1.
         25    2    1    2    0    0  0.65531475031E+02 -0.36358873373E+02  0.27451156602E+03  0.31083821289E+03  0.12508977905E+03 0.  0.
          5    1    3    3  502    0  0.67704111435E+02 -0.25202899562E+02  0.28547440415E+03  0.29450320996E+03  0.41800000000E+01 0. -1.
         -5    1    3    3    0  502 -0.21726364035E+01 -0.11155973811E+02 -0.10962838138E+02  0.16335002928E+02  0.41800000000E+01 0. -1.
        -11    1    1    2    0    0  0.89556474307E+01 -0.20884729359E+02  0.27158625110E+02  0.35411388834E+02  0.00000000000E+00 0. -1.
         11    1    1    2    0    0 -0.74487122462E+02  0.57243602732E+02  0.72191690766E+02  0.11847700909E+03  0.00000000000E+00 0.  1.
</event>
<event>
 7    1  0.3001243E-009  0.1115575E+03  0.7561462E-02  0.1257713E+00
         -2   -1    0    0    0  501 -0.00000000000E+00  0.00000000000E+00  0.75480079788E+02  0.75480079788E+02  0.00000000000E+00 0.  1.
          2   -1    0    0  501    0  0.00000000000E+00 -0.00000000000E+00 -0.23668418367E+03  0.23668418367E+03  0.00000000000E+00 0. -1.
         25    2    1    2    0    0  0.27263274283E+02 -0.38366059260E+02 -0.16283205367E+03  0.21065888476E+03  0.12509055679E+03 0.  0.
          5    1    3    3  502    0  0.39551159119E+02  0.38608805862E+02 -0.62546719681E+02  0.83573312849E+02  0.41800000000E+01 0.  1.
         -5    1    3    3    0  502 -0.12287884836E+02 -0.76974865123E+02 -0.10028533399E+03  0.12708557191E+03  0.41800000000E+01 0.  1.
        -11    1    1    2    0    0  0.26615885029E+02  0.17457135466E+02  0.23653509664E+02  0.39656593827E+02  0.00000000000E+00 0.  1.
         11    1    1    2    0    0 -0.53879159312E+02  0.20908923795E+02 -0.22025559878E+02  0.61848784873E+02  0.00000000000E+00 0. -1.
</event>
<event>
 7    1  0.3001243E-009  0.1289606E+03  0.7561462E-02  0.1229006E+00
          2   -1    0    0  501    0  0.00000000000E+00  0.00000000000E+00  0.17001233186E+03  0.17001233186E+03  0.00000000000E+00 0. -1.
         -2   -1    0    0    0  501 -0.00000000000E+00 -0.00000000000E+00 -0.10594097789E+03  0.10594097789E+03  0.00000000000E+00 0.  1.
         25    2    1    2    0    0  0.11482635619E+02 -0.77428401561E+02  0.31761512707E+02  0.15094196161E+03  0.12509066230E+03 0.  0.
          5    1    3    3  502    0  0.61674322571E+02 -0.52808302346E+02 -0.87565874156E+01  0.81771566479E+02  0.41800000000E+01 0. -1.
         -5    1    3    3    0  502 -0.50191686952E+02 -0.24620099215E+02  0.40518100123E+02  0.69170395127E+02  0.41800000000E+01 0. -1.
        -11    1    1    2    0    0 -0.34225652945E+02 -0.54141000013E+01  0.12605999415E+02  0.36873012077E+02  0.00000000000E+00 0.  1.
         11    1    1    2    0    0  0.22743017327E+02  0.82842501562E+02  0.19703841847E+02  0.88138336073E+02  0.00000000000E+00 0. -1.
</event>
<event>
 7    1  0.3001243E-009  0.1301222E+03  0.7561462E-02  0.1227275E+00
          2   -1    0    0  501    0  0.00000000000E+00  0.00000000000E+00  0.14986444044E+04  0.14986444044E+04  0.00000000000E+00 0. -1.
         -2   -1    0    0    0  501 -0.00000000000E+00 -0.00000000000E+00 -0.12397191155E+02  0.12397191155E+02  0.00000000000E+00 0.  1.
         25    2    1    2    0    0 -0.97805772809E+01  0.77578926196E+02  0.91410179056E+03  0.92592955642E+03  0.12509720403E+03 0.  0.
          5    1    3    3  502    0 -0.10610074591E+02 -0.29925150139E+02  0.36396164948E+03  0.36536781876E+03  0.41800000000E+01 0. -1.
         -5    1    3    3    0  502  0.82949731014E+00  0.10750407633E+03  0.55014014108E+03  0.56056173765E+03  0.41800000000E+01 0. -1.
        -11    1    1    2    0    0  0.49957941430E+02 -0.55928710998E+02  0.30418504918E+03  0.31329277165E+03  0.00000000000E+00 0.  1.
         11    1    1    2    0    0 -0.40177364149E+02 -0.21650215198E+02  0.26796037352E+03  0.27181926750E+03  0.00000000000E+00 0. -1.
</event>
<event>
 7    1  0.3001243E-009  0.1179530E+03  0.7561462E-02  0.1246513E+00
         -1   -1    0    0    0  501 -0.00000000000E+00  0.00000000000E+00  0.12411859890E+03  0.12411859890E+03  0.00000000000E+00 0.  1.
          1   -1    0    0  501    0  0.00000000000E+00 -0.00000000000E+00 -0.17524615245E+03  0.17524615245E+03  0.00000000000E+00 0. -1.
         25    2    1    2    0    0 -0.16024282427E+02  0.97492809485E+02 -0.79471241111E+02  0.17810746588E+03  0.12507983734E+03 0.  0.
          5    1    3    3  502    0 -0.46201297861E+02  0.62267789668E+02 -0.10050498086E+03  0.12700614604E+03  0.41800000000E+01 0. -1.
         -5    1    3    3    0  502  0.30177015435E+02  0.35225019818E+02  0.21033739748E+02  0.51101319841E+02  0.41800000000E+01 0. -1.
        -11    1    1    2    0    0  0.13624320577E+02  0.52889489897E+00 -0.89982841887E+01  0.16336185581E+02  0.00000000000E+00 0.  1.
         11    1    1    2    0    0  0.23999618494E+01 -0.98021704384E+02  0.37341971756E+02  0.10492109989E+03  0.00000000000E+00 0. -1.
</event>
<event>
 7    1  0.3001243E-009  0.1177048E+03  0.7561462E-02  0.1246932E+00
         -1   -1    0    0    0  501 -0.00000000000E+00  0.00000000000E+00  0.15199042628E+02  0.15199042628E+02  0.00000000000E+00 0.  1.
          1   -1    0    0  501    0  0.00000000000E+00 -0.00000000000E+00 -0.11300514350E+04  0.11300514350E+04  0.00000000000E+00 0. -1.
         25    2    1    2    0    0  0.54327210851E+02  0.39511078376E+02 -0.62495773722E+03  0.64088435190E+03  0.12509199836E+03 0.  0.
          5    1    3    3  502    0 -0.21102291383E+01  0.57501011161E+02 -0.12811284147E+03  0.14050335192E+03  0.41800000000E+01 0. -1.
         -5    1    3    3    0  502  0.56437439990E+02 -0.17989932785E+02 -0.49684489574E+03  0.50038099998E+03  0.41800000000E+01 0. -1.
        -11    1    1    2    0    0 -0.42523525212E+02  0.27272068640E+02 -0.25091809005E+03  0.25595293286E+03  0.00000000000E+00 0. -1.
         11    1    1    2    0    0 -0.11803685639E+02 -0.66783147016E+02 -0.23897656507E+03  0.24841319284E+03  0.00000000000E+00 0.  1.
</event>
<event>
 7    1  0.3001243E-009  0.1743789E+03  0.7561462E-02  0.1173357E+00
          1   -1    0    0  501    0  0.00000000000E+00  0.00000000000E+00  0.90274777568E+03  0.90274777568E+03  0.00000000000E+00 0. -1.
         -1   -1    0    0    0  501 -0.00000000000E+00 -0.00000000000E+00 -0.37922450110E+02  0.37922450110E+02  0.00000000000E+00 0.  1.
         25    2    1    2    0    0  0.12346301103E+02  0.15271600862E+03  0.46739676131E+03  0.50752570784E+03  0.12509197094E+03 0.  0.
          5    1    3    3  502    0 -0.17624108339E+02  0.16267664657E+03  0.41616070427E+03  0.44719291666E+03  0.41800000000E+01 0. -1.
         -5    1    3    3    0  502  0.29970409442E+02 -0.99606379421E+01  0.51236057039E+02  0.60332791177E+02  0.41800000000E+01 0. -1.
        -11    1    1    2    0    0 -0.59691251932E+01 -0.80664600078E+02  0.10869270678E+03  0.13548620841E+03  0.00000000000E+00 0.  1.
         11    1    1    2    0    0 -0.63771759099E+01 -0.72051408545E+02  0.28873585748E+03  0.29765830954E+03  0.00000000000E+00 0. -1.
</event>
<event>
 7    1  0.3001243E-009  0.1644563E+03  0.7561462E-02  0.1183756E+00
          3   -1    0    0  501    0  0.00000000000E+00  0.00000000000E+00  0.21723149983E+03  0.21723149983E+03  0.00000000000E+00 0. -1.
         -3   -1    0    0    0  501 -0.00000000000E+00 -0.00000000000E+00 -0.19286177001E+03  0.19286177001E+03  0.00000000000E+00 0.  1.
         25    2    1    2    0    0  0.42820893264E+02 -0.12018943653E+03  0.13161607458E+03  0.22192239170E+03  0.12509047645E+03 0.  0.
          5    1    3    3  502    0  0.36996853336E+02 -0.14638104223E+03  0.11719188819E+03  0.19117423398E+03  0.41800000000E+01 0. -1.
         -5    1    3    3    0  502  0.58240399284E+01  0.26191605700E+02  0.14424186390E+02  0.30748157721E+02  0.41800000000E+01 0. -1.
        -11    1    1    2    0    0 -0.64230136486E+02  0.10910485849E+03 -0.10399823044E+03  0.16384447660E+03  0.00000000000E+00 0.  1.
         11    1    1    2    0    0  0.21409243221E+02  0.11084578040E+02 -0.32481143169E+01  0.24326401547E+02  0.00000000000E+00 0. -1.
</event>
<event>
 7    1  0.3001243E-009  0.1429867E+03  0.7561462E-02  0.1209366E+00
          1   -1    0    0  501    0  0.00000000000E+00  0.00000000000E+00  0.73062435364E+03  0.73062435364E+03  0.00000000000E+00 0. -1.
         -1   -1    0    0    0  501 -0.00000000000E+00 -0.00000000000E+00 -0.33295022238E+02  0.33295022238E+02  0.00000000000E+00 0.  1.
         25    2    1    2    0    0  0.11201231110E+03  0.22390075490E+00  0.34482349270E+03  0.38353259120E+03  0.12508876618E+03 0.  0.
          5    1    3    3  502    0  0.13304258864E+03 -0.21893213406E+02  0.25355711076E+03  0.28720780630E+03  0.41800000000E+01 0.  1.
         -5    1    3    3    0  502 -0.21030277543E+02  0.22117114161E+02  0.91266381940E+02  0.96324784894E+02  0.41800000000E+01 0.  1.
        -11    1    1    2    0    0 -0.65065625071E+02 -0.21778721496E+02  0.91779020543E+02  0.11459160915E+03  0.00000000000E+00 0.  1.
         11    1    1    2    0    0 -0.46946686030E+02  0.21554820741E+02  0.26072681816E+03  0.26579517553E+03  0.00000000000E+00 0. -1.
</event>
<event>
 7    1  0.3001243E-009  0.1424698E+03  0.7561462E-02  0.1210044E+00
          2   -1    0    0  501    0  0.00000000000E+00  0.00000000000E+00  0.82314137684E+02  0.82314137684E+02  0.00000000000E+00 0. -1.
         -2   -1    0    0    0  501 -0.00000000000E+00 -0.00000000000E+00 -0.37710203300E+03  0.37710203300E+03  0.00000000000E+00 0.  1.
         25    2    1    2    0    0 -0.29225570653E+02 -0.12776284588E+03 -0.21668228686E+03  0.28244678217E+03  0.12508993784E+03 0.  0.
          5    1    3    3  502    0 -0.52515283211E+02 -0.97386493144E+02 -0.70461709493E+02  0.13124141466E+03  0.41800000000E+01 0. -1.
         -5    1    3    3    0  502  0.23289712558E+02 -0.30376352734E+02 -0.14622057737E+03  0.15120536751E+03  0.41800000000E+01 0. -1.
        -11    1    1    2    0    0  0.30008008027E+02  0.52691797055E+02 -0.81775741399E+02  0.10180460650E+03  0.00000000000E+00 0.  1.
         11    1    1    2    0    0 -0.78243737315E+00  0.75071048823E+02  0.36701329488E+01  0.75164782016E+02  0.00000000000E+00 0. -1.
</event>
<event>
 7    1  0.3001243E-009  0.1359879E+03  0.7561462E-02  0.1218832E+00
          2   -1    0    0  501    0  0.00000000000E+00  0.00000000000E+00  0.86728845280E+02  0.86728845280E+02  0.00000000000E+00 0.  1.
         -2   -1    0    0    0  501 -0.00000000000E+00 -0.00000000000E+00 -0.22525925729E+03  0.22525925729E+03  0.00000000000E+00 0. -1.
         25    2    1    2    0    0  0.19845298820E+02  0.82633122546E+02 -0.85712250599E+02  0.17382296641E+03  0.12508303211E+03 0.  0.
          5    1    3    3  502    0  0.57996696668E+02  0.55936403163E+01 -0.60584617229E+02  0.84159811556E+02  0.41800000000E+01 0. -1.
         -5    1    3    3    0  502 -0.38151397848E+02  0.77039482229E+02 -0.25127633371E+02  0.89663154856E+02  0.41800000000E+01 0. -1.
        -11    1    1    2    0    0 -0.48022890495E+02 -0.86610362550E+02 -0.37924132235E+02  0.10604618201E+03  0.00000000000E+00 0. -1.
         11    1    1    2    0    0  0.28177591676E+02  0.39772400038E+01 -0.14894029175E+02  0.32118954151E+02  0.00000000000E+00 0.  1.
</event>
<event>
 7    1  0.3001243E-009  0.2602344E+03  0.7561462E-02  0.1107002E+00
         -2   -1    0    0    0  501 -0.00000000000E+00  0.00000000000E+00  0.10946327863E+03  0.10946327863E+03  0.00000000000E+00 0.  1.
          2   -1    0    0  501    0  0.00000000000E+00 -0.00000000000E+00 -0.71927705068E+03  0.71927705068E+03  0.00000000000E+00 0. -1.
         25    2    1    2    0    0  0.20330720769E+03  0.14683942439E+03 -0.40563032915E+03  0.49303021133E+03  0.12508872092E+03 0.  0.
          5    1    3    3  502    0  0.20285655501E+03  0.15016801943E+03 -0.41292975677E+03  0.48397280130E+03  0.41800000000E+01 0. -1.
         -5    1    3    3    0  502  0.45065267898E+00 -0.33285950484E+01  0.72994276189E+01  0.90574100270E+01  0.41800000000E+01 0. -1.
        -11    1    1    2    0    0 -0.97906499181E+02 -0.11815223846E+03 -0.90944629944E+02  0.17837197019E+03  0.00000000000E+00 0.  1.
         11    1    1    2    0    0 -0.10540070851E+03 -0.28687185926E+02 -0.11323881295E+03  0.15733814779E+03  0.00000000000E+00 0. -1.
</event>
<event>
 7    1  0.3001243E-009  0.7652268E+02  0.7561462E-02  0.1339220E+00
         -1   -1    0    0    0  501 -0.00000000000E+00  0.00000000000E+00  0.50881281955E+02  0.50881281955E+02  0.00000000000E+00 0.  1.
          1   -1    0    0  501    0  0.00000000000E+00 -0.00000000000E+00 -0.29871261403E+03  0.29871261403E+03  0.00000000000E+00 0. -1.
         25    2    1    2    0    0 -0.57179640926E+02  0.17124571980E+02 -0.14012468857E+03  0.19710251212E+03  0.12510679291E+03 0.  0.
          5    1    3    3  502    0 -0.34614180613E+02 -0.39245060501E+01  0.15525775036E+02  0.38367503668E+02  0.41800000000E+01 0. -1.
         -5    1    3    3    0  502 -0.22565460313E+02  0.21049078030E+02 -0.15565046361E+03  0.15873500845E+03  0.41800000000E+01 0. -1.
        -11    1    1    2    0    0  0.33074496273E+02  0.22807072626E+02 -0.96487853174E+02  0.10451789644E+03  0.00000000000E+00 0.  1.
         11    1    1    2    0    0  0.24105144653E+02 -0.39931644606E+02 -0.11218790325E+02  0.47973487428E+02  0.00000000000E+00 0. -1.
</event>
<event>
 7    1  0.3001243E-009  0.1118796E+03  0.7561462E-02  0.1257128E+00
         -2   -1    0    0    0  501 -0.00000000000E+00  0.00000000000E+00  0.69083330957E+02  0.69083330957E+02  0.00000000000E+00 0.  1.
          2   -1    0    0  501    0  0.00000000000E+00 -0.00000000000E+00 -0.33449402702E+03  0.33449402702E+03  0.00000000000E+00 0. -1.
         25    2    1    2    0    0  0.77963234017E+02  0.40517705569E+01 -0.47865431125E+02  0.15502037190E+03  0.12508210705E+03 0.  0.
          5    1    3    3  502    0 -0.14833880912E+00 -0.23900974320E+02  0.31749976472E+02  0.39960129928E+02  0.41800000000E+01 0. -1.
         -5    1    3    3    0  502  0.78111572826E+02  0.27952744877E+02 -0.79615407597E+02  0.11506024197E+03  0.41800000000E+01 0. -1.
        -11    1    1    2    0    0 -0.52062841328E+02  0.39776041180E+02 -0.15234190299E+03  0.16583343543E+03  0.00000000000E+00 0.  1.
         11    1    1    2    0    0 -0.25900392690E+02 -0.43827811737E+02 -0.65203361947E+02  0.82723550651E+02  0.00000000000E+00 0. -1.
</event>
<event>
 7    1  0.3001243E-009  0.9094253E+02  0.7561462E-02  0.1300585E+00
         -1   -1    0    0    0  501 -0.00000000000E+00  0.00000000000E+00  0.26500394525E+03  0.26500394525E+03  0.00000000000E+00 0.  1.
          1   -1    0    0  501    0  0.00000000000E+00 -0.00000000000E+00 -0.66438410110E+02  0.66438410110E+02  0.00000000000E+00 0. -1.
         25    2    1    2    0    0 -0.65051757768E+02  0.20132436284E+02  0.15200176029E+03  0.20833082349E+03  0.12514052383E+03 0.  0.
          5    1    3    3  502    0 -0.42511430097E+02  0.11748456908E+02  0.17147477077E+03  0.17710538484E+03  0.41800000000E+01 0. -1.
         -5    1    3    3    0  502 -0.22540327671E+02  0.83839793759E+01 -0.19473010479E+02  0.31225438649E+02  0.41800000000E+01 0. -1.
        -11    1    1    2    0    0  0.48360828358E+02 -0.55771517120E+02  0.37184203818E+02  0.82655289334E+02  0.00000000000E+00 0.  1.
         11    1    1    2    0    0  0.16690929410E+02  0.35639080836E+02  0.93795710292E+01  0.40456242536E+02  0.00000000000E+00 0. -1.
</event>
<event>
 7    1  0.3001243E-009  0.1128209E+03  0.7561462E-02  0.1255433E+00
          2   -1    0    0  501    0  0.00000000000E+00  0.00000000000E+00  0.20330649939E+04  0.20330649939E+04  0.00000000000E+00 0.  1.
         -2   -1    0    0    0  501 -0.00000000000E+00 -0.00000000000E+00 -0.96458819541E+01  0.96458819541E+01  0.00000000000E+00 0. -1.
         25    2    1    2    0    0  0.16266517333E+02 -0.59957986291E+02  0.15724166431E+04  0.15786072576E+04  0.12508882667E+03 0.  0.
          5    1    3    3  502    0 -0.56255563153E+01  0.26530329945E+02  0.10670127401E+03  0.11017322527E+03  0.41800000000E+01 0.  1.
         -5    1    3    3    0  502  0.21892073648E+02 -0.86488316236E+02  0.14657153691E+04  0.14684340324E+04  0.41800000000E+01 0.  1.
        -11    1    1    2    0    0  0.14157678390E+02 -0.19331542314E+02  0.80381850995E+02  0.83877233830E+02  0.00000000000E+00 0.  1.
         11    1    1    2    0    0 -0.30424195723E+02  0.79289528604E+02  0.37062061780E+03  0.38022638437E+03  0.00000000000E+00 0. -1.
</event>
<event>
 7    1  0.3001243E-009  0.1285392E+03  0.7561462E-02  0.1229640E+00
         -1   -1    0    0    0  501 -0.00000000000E+00  0.00000000000E+00  0.19690985250E+02  0.19690985250E+02  0.00000000000E+00 0.  1.
          1   -1    0    0  501    0  0.00000000000E+00 -0.00000000000E+00 -0.14601265594E+04  0.14601265594E+04  0.00000000000E+00 0. -1.
         25    2    1    2    0    0  0.11273608165E+03  0.15516829494E+02 -0.10333754736E+04  0.10471220479E+04  0.12509803244E+03 0.  0.
          5    1    3    3  502    0 -0.27160972032E+01 -0.14061513133E+01  0.17233535837E+01  0.54586438890E+01  0.41800000000E+01 0. -1.
         -5    1    3    3    0  502  0.11545217885E+03  0.16922980807E+02 -0.10350988272E+04  0.10416634040E+04  0.41800000000E+01 0. -1.
        -11    1    1    2    0    0 -0.60802308805E+02  0.28415843997E+02 -0.28662441971E+03  0.29437720516E+03  0.00000000000E+00 0. -1.
         11    1    1    2    0    0 -0.51933772841E+02 -0.43932673490E+02 -0.12043568090E+03  0.13831829161E+03  0.00000000000E+00 0.  1.
</event>
<event>
 7    1  0.3001243E-009  0.1217147E+03  0.7561462E-02  0.1240295E+00
         -2   -1    0    0    0  501 -0.00000000000E+00  0.00000000000E+00  0.25996896215E+02  0.25996896215E+02  0.00000000000E+00 0.  1.
          2   -1    0    0  501    0  0.00000000000E+00 -0.00000000000E+00 -0.65399836047E+03  0.65399836047E+03  0.00000000000E+00 0. -1.
         25    2    1    2    0    0 -0.65299374990E+02  0.11600473459E+02 -0.43457657174E+03  0.45705924702E+03  0.12509108368E+03 0.  0.
          5    1    3    3  502    0 -0.46303536631E+02  0.62615479782E+02 -0.32997961900E+03  0.33907040149E+03  0.41800000000E+01 0.  1.
         -5    1    3    3    0  502 -0.18995838359E+02 -0.51015006323E+02 -0.10459695275E+03  0.11798884553E+03  0.41800000000E+01 0.  1.
        -11    1    1    2    0    0  0.90646560822E+01 -0.44687378436E+02 -0.78620357387E+02  0.90886139631E+02  0.00000000000E+00 0.  1.
         11    1    1    2    0    0  0.56234718908E+02  0.33086904977E+02 -0.11480453513E+03  0.13204987004E+03  0.00000000000E+00 0. -1.
</event>
<event>
 7    1  0.3001243E-009  0.1662710E+03  0.7561462E-02  0.1181793E+00
          1   -1    0    0  501    0  0.00000000000E+00  0.00000000000E+00  0.10678875557E+04  0.10678875557E+04  0.00000000000E+00 0. -1.
         -1   -1    0    0    0  501 -0.00000000000E+00 -0.00000000000E+00 -0.34819079735E+02  0.34819079735E+02  0.00000000000E+00 0.  1.
         25    2    1    2    0    0  0.15233342492E+03  0.85309469469E+01  0.40577772098E+03  0.45119979374E+03  0.12508975028E+03 0.  0.
          5    1    3    3  502    0  0.11600511003E+03 -0.26396571166E+02  0.15534606843E+03  0.19571366304E+03  0.41800000000E+01 0. -1.
         -5    1    3    3    0  502  0.36328314892E+02  0.34927518113E+02  0.25043165255E+03  0.25548613070E+03  0.41800000000E+01 0. -1.
        -11    1    1    2    0    0 -0.83991121342E+02  0.23839783181E+02  0.21011740434E+03  0.22753498046E+03  0.00000000000E+00 0.  1.
         11    1    1    2    0    0 -0.68342303583E+02 -0.32370730128E+02  0.41717335062E+03  0.42397186120E+03  0.00000000000E+00 0. -1.
</event>
<event>
 7    1  0.3001243E-009  0.8614841E+02  0.7561462E-02  0.1312456E+00
         -3   -1    0    0    0  501 -0.00000000000E+00  0.00000000000E+00  0.18672868141E+03  0.18672868141E+03  0.00000000000E+00 0.  1.
          3   -1    0    0  501    0  0.00000000000E+00 -0.00000000000E+00 -0.10090433026E+03  0.10090433026E+03  0.00000000000E+00 0. -1.
         25    2    1    2    0    0  0.49140210169E+02  0.21746272655E+02  0.12089173602E+03  0.18207003933E+03  0.12508807599E+03 0.  0.
          5    1    3    3  502    0 -0.31723489551E+02  0.18313884694E+02  0.86502111596E+02  0.94031196273E+02  0.41800000000E+01 0.  1.
         -5    1    3    3    0  502  0.80863699720E+02  0.34323879606E+01  0.34389624420E+02  0.88038843059E+02  0.41800000000E+01 0.  1.
        -11    1    1    2    0    0 -0.36623973077E+02 -0.12062149953E+02 -0.62765035591E+02  0.73663156042E+02  0.00000000000E+00 0. -1.
         11    1    1    2    0    0 -0.12516237092E+02 -0.96841227019E+01  0.27697650726E+02  0.31899816287E+02  0.00000000000E+00 0.  1.
</event>
<event>
 7    1  0.3001243E-009  0.1385438E+03  0.7561462E-02  0.1215302E+00
          2   -1    0    0  501    0  0.00000000000E+00  0.00000000000E+00  0.44670618511E+02  0.44670618511E+02  0.00000000000E+00 0. -1.
         -2   -1    0    0    0  501 -0.00000000000E+00 -0.00000000000E+00 -0.57813812474E+03  0.57813812474E+03  0.00000000000E+00 0.  1.
         25    2    1    2    0    0  0.10967894233E+03 -0.48651841119E+00 -0.20210155923E+03  0.26176726146E+03  0.12508937540E+03 0.  0.
          5    1    3    3  502    0  0.13131280503E+03  0.20567116254E+02 -0.18141855645E+03  0.22493604438E+03  0.41800000000E+01 0. -1.
         -5    1    3    3    0  502 -0.21633862697E+02 -0.21053634665E+02 -0.20683002779E+02  0.36831217082E+02  0.41800000000E+01 0. -1.
        -11    1    1    2    0    0 -0.90672281890E+02  0.11919462519E+02 -0.32549350193E+03  0.33809696256E+03  0.00000000000E+00 0.  1.
         11    1    1    2    0    0 -0.19006660438E+02 -0.11432944108E+02 -0.58724450672E+01  0.22944519238E+02  0.00000000000E+00 0. -1.
</event>
<event>
 7    1  0.3001243E-009  0.9112617E+02  0.7561462E-02  0.1300147E+00
         -2   -1    0    0    0  501 -0.00000000000E+00  0.00000000000E+00  0.16622069047E+02  0.16622069047E+02  0.00000000000E+00 0.  1.
          2   -1    0    0  501    0  0.00000000000E+00 -0.00000000000E+00 -0.10538674140E+04  0.10538674140E+04  0.00000000000E+00 0. -1.
         25    2    1    2    0    0  0.42030179357E+02  0.48381827428E+02 -0.76550496116E+03  0.77830111939E+03  0.12508976653E+03 0.  0.
          5    1    3    3  502    0  0.23752208477E+02 -0.19172116204E+01 -0.65501318362E+03  0.65545982807E+03  0.41800000000E+01 0. -1.
         -5    1    3    3    0  502  0.18277970880E+02  0.50299039048E+02 -0.11049177754E+03  0.12284129132E+03  0.41800000000E+01 0. -1.
        -11    1    1    2    0    0 -0.64859225760E+02 -0.19830758121E+02 -0.14149556525E+03  0.15691071703E+03  0.00000000000E+00 0.  1.
         11    1    1    2    0    0  0.22829046403E+02 -0.28551069307E+02 -0.13024481859E+03  0.13527764667E+03  0.00000000000E+00 0. -1.
</event>
<event>
 7    1  0.3001243E-009  0.9347464E+02  0.7561462E-02  0.1294649E+00
         -1   -1    0    0    0  501 -0.00000000000E+00  0.00000000000E+00  0.29385475692E+02  0.29385475692E+02  0.00000000000E+00 0.  1.
          1   -1    0    0  501    0  0.00000000000E+00 -0.00000000000E+00 -0.54712926035E+03  0.54712926035E+03  0.00000000000E+00 0. -1.
         25    2    1    2    0    0  0.47004741666E+02 -0.11073278350E+02 -0.19099550544E+03  0.23336372285E+03  0.12508909151E+03 0.  0.
          5    1    3    3  502    0  0.28928752288E+02  0.41230950051E+02 -0.21338618673E+02  0.54860486672E+02  0.41800000000E+01 0.  1.
         -5    1    3    3    0  502  0.18075989378E+02 -0.52304228401E+02 -0.16965688676E+03  0.17850323618E+03  0.41800000000E+01 0.  1.
        -11    1    1    2    0    0 -0.59883905418E+02 -0.52564373486E+01 -0.31179193776E+03  0.31753413157E+03  0.00000000000E+00 0. -1.
         11    1    1    2    0    0  0.12879163752E+02  0.16329715699E+02 -0.14956341457E+02  0.25616881612E+02  0.00000000000E+00 0.  1.
</event>
<event>
 7    1  0.3001243E-009  0.9505657E+02  0.7561462E-02  0.1291049E+00
          1   -1    0    0  501    0  0.00000000000E+00  0.00000000000E+00  0.41811770004E+03  0.41811770004E+03  0.00000000000E+00 0. -1.
         -1   -1    0    0    0  501 -0.00000000000E+00 -0.00000000000E+00 -0.43524670661E+02  0.43524670661E+02  0.00000000000E+00 0.  1.
         25    2    1    2    0    0 -0.33513891435E+02  0.58347031321E+01  0.97892077142E+02  0.16244267677E+03  0.12509012667E+03 0.  0.
          5    1    3    3  502    0  0.11674934039E+02 -0.20797199186E+02 -0.21238843541E+02  0.32208515236E+02  0.41800000000E+01 0. -1.
         -5    1    3    3    0  502 -0.45188825474E+02  0.26631902318E+02  0.11913092068E+03  0.13023416154E+03  0.41800000000E+01 0. -1.
        -11    1    1    2    0    0 -0.16363985279E+02  0.41442869367E+02  0.12345266233E+03  0.13124729053E+03  0.00000000000E+00 0. -1.
         11    1    1    2    0    0  0.49877876714E+02 -0.47277572499E+02  0.15324828991E+03  0.16795240340E+03  0.00000000000E+00 0.  1.
</event>
<event>
 7    1  0.3001243E-009  0.7121332E+02  0.7561462E-02  0.1356015E+00
          3   -1    0    0  501    0  0.00000000000E+00  0.00000000000E+00  0.64869519985E+02  0.64869519985E+02  0.00000000000E+00 0. -1.
         -3   -1    0    0    0  501 -0.00000000000E+00 -0.00000000000E+00 -0.19472172399E+03  0.19472172399E+03  0.00000000000E+00 0.  1.
         25    2    1    2    0    0  0.60577182547E+01 -0.28883257392E+02 -0.64849871714E+02  0.14395957184E+03  0.12509162224E+03 0.  0.
          5    1    3    3  502    0 -0.35580646496E+02 -0.16949510107E+02 -0.86653520162E+02  0.95286794754E+02  0.41800000000E+01 0. -1.
         -5    1    3    3    0  502  0.41638364751E+02 -0.11933747285E+02  0.21803648448E+02  0.48672777084E+02  0.41800000000E+01 0. -1.
        -11    1    1    2    0    0  0.22161640642E+02  0.60350265136E+01 -0.74615944768E+02  0.78071115495E+02  0.00000000000E+00 0.  1.
         11    1    1    2    0    0 -0.28219358897E+02  0.22848230879E+02  0.96136124725E+01  0.37560556646E+02  0.00000000000E+00 0. -1.
</event>
<event>
 7    1  0.3001243E-009  0.1665763E+03  0.7561462E-02  0.1181466E+00
         -1   -1    0    0    0  501 -0.00000000000E+00  0.00000000000E+00  0.13889475420E+03  0.13889475420E+03  0.00000000000E+00 0.  1.
          1   -1    0    0  501    0  0.00000000000E+00 -0.00000000000E+00 -0.29366979593E+03  0.29366979593E+03  0.00000000000E+00 0. -1.
         25    2    1    2    0    0 -0.79832161632E+02  0.13927474179E+03 -0.14028999483E+03  0.24718356802E+03  0.12509119040E+03 0.  0.
          5    1    3    3  502    0 -0.65520241016E+02  0.13624279986E+03 -0.55592604149E+02  0.16113042088E+03  0.41800000000E+01 0.  1.
         -5    1    3    3    0  502 -0.14311920616E+02  0.30319419331E+01 -0.84697390685E+02  0.86053147139E+02  0.41800000000E+01 0.  1.
        -11    1    1    2    0    0  0.40833198417E+02 -0.11172390919E+03 -0.46689351417E+02  0.12778684406E+03  0.00000000000E+00 0. -1.
         11    1    1    2    0    0  0.38998963215E+02 -0.27550832598E+02  0.32204304524E+02  0.57594138057E+02  0.00000000000E+00 0.  1.
</event>
<event>
 7    1  0.3001243E-009  0.1406122E+03  0.7561462E-02  0.1212508E+00
         -2   -1    0    0    0  501 -0.00000000000E+00  0.00000000000E+00  0.23298828622E+02  0.23298828622E+02  0.00000000000E+00 0.  1.
          2   -1    0    0  501    0  0.00000000000E+00 -0.00000000000E+00 -0.89259192689E+03  0.89259192689E+03  0.00000000000E+00 0. -1.
         25    2    1    2    0    0 -0.60359097629E+02 -0.71088627902E+02 -0.41769097151E+03  0.44588091962E+03  0.12508890085E+03 0.  0.
          5    1    3    3  502    0 -0.98528215633E+02 -0.41256791657E+02 -0.30318580832E+03  0.32147945331E+03  0.41800000000E+01 0.  1.
         -5    1    3    3    0  502  0.38169118003E+02 -0.29831836245E+02 -0.11450516319E+03  0.12440146631E+03  0.41800000000E+01 0.  1.
        -11    1    1    2    0    0  0.69630277855E+02  0.18149947828E+02 -0.19532089080E+03  0.20815390120E+03  0.00000000000E+00 0. -1.
         11    1    1    2    0    0 -0.92711802262E+01  0.52938680075E+02 -0.25628123596E+03  0.26185593470E+03  0.00000000000E+00 0.  1.
</event>
<event>
 7    1  0.3001243E-009  0.1041303E+03  0.7561462E-02  0.1271843E+00
         -1   -1    0    0    0  501 -0.00000000000E+00  0.00000000000E+00  0.49413158580E+02  0.49413158580E+02  0.00000000000E+00 0.  1.
          1   -1    0    0  501    0  0.00000000000E+00 -0.00000000000E+00 -0.25881718948E+03  0.25881718948E+03  0.00000000000E+00 0. -1.
         25    2    1    2    0    0 -0.25292763577E+02  0.26691926841E+02 -0.13125855020E+03  0.18500841469E+03  0.12508846333E+03 0.  0.
          5    1    3    3  502    0  0.26552699596E+02  0.52875453417E+02 -0.26101675238E+02  0.64804546756E+02  0.41800000000E+01 0. -1.
         -5    1    3    3    0  502 -0.51845463173E+02 -0.26183526577E+02 -0.10515687496E+03  0.12020386794E+03  0.41800000000E+01 0. -1.
        -11    1    1    2    0    0 -0.26987369123E+02  0.77851148267E+01 -0.80345670864E+01  0.29214386410E+02  0.00000000000E+00 0.  1.
         11    1    1    2    0    0  0.52280132700E+02 -0.34477041667E+02 -0.70110913620E+02  0.94007546962E+02  0.00000000000E+00 0. -1.
</event>
<event>
 7    1  0.3001243E-009  0.1231317E+03  0.7561462E-02  0.1238018E+00
         -1   -1    0    0    0  501 -0.00000000000E+00  0.00000000000E+00  0.70325658020E+03  0.70325658020E+03  0.00000000000E+00 0.  1.
          1   -1    0    0  501    0  0.00000000000E+00 -0.00000000000E+00 -0.26789395487E+02  0.26789395487E+02  0.00000000000E+00 0. -1.
         25    2    1    2    0    0 -0.20742491455E+02 -0.86037403656E+02  0.28115454843E+03  0.32019960874E+03  0.12508886263E+03 0.  0.
          5    1    3    3  502    0  0.32839488805E+02  0.50847546803E+01  0.21444965453E+02  0.39769909459E+02  0.41800000000E+01 0. -1.
         -5    1    3    3    0  502 -0.53581980260E+02 -0.91122158337E+02  0.25970958298E+03  0.28042969928E+03  0.41800000000E+01 0. -1.
        -11    1    1    2    0    0 -0.20229873837E+02  0.43202977634E+02  0.20696132169E+03  0.21238816763E+03  0.00000000000E+00 0.  1.
         11    1    1    2    0    0  0.40972365292E+02  0.42834426022E+02  0.18835131459E+03  0.19745819931E+03  0.00000000000E+00 0. -1.
</event>
<event>
 7    1  0.3001243E-009  0.1070890E+03  0.7561462E-02  0.1266058E+00
         -1   -1    0    0    0  501 -0.00000000000E+00  0.00000000000E+00  0.44814868331E+03  0.44814868331E+03  0.00000000000E+00 0.  1.
          1   -1    0    0  501    0  0.00000000000E+00 -0.00000000000E+00 -0.42646801823E+02  0.42646801823E+02  0.00000000000E+00 0. -1.
         25    2    1    2    0    0  0.44549863625E+02 -0.60277354045E+02  0.29092754262E+03  0.32542689380E+03  0.12508308597E+03 0.  0.
          5    1    3    3  502    0 -0.37380882606E+02 -0.13577633048E+02  0.15404258523E+03  0.15914858770E+03  0.41800000000E+01 0. -1.
         -5    1    3    3    0  502  0.81930746231E+02 -0.46699720998E+02  0.13688495739E+03  0.16627830610E+03  0.41800000000E+01 0. -1.
        -11    1    1    2    0    0 -0.14154771257E+01  0.22226465144E+02  0.10465737143E+03  0.10700086319E+03  0.00000000000E+00 0.  1.
         11    1    1    2    0    0 -0.43134386499E+02  0.38050888901E+02  0.99169674308E+01  0.58367728137E+02  0.00000000000E+00 0. -1.
</event>
<event>
 7    1  0.3001243E-009  0.1575625E+03  0.7561462E-02  0.1191476E+00
         -1   -1    0    0    0  501 -0.00000000000E+00  0.00000000000E+00  0.61421487598E+02  0.61421487598E+02  0.00000000000E+00 0.  1.
          1   -1    0    0  501    0  0.00000000000E+00 -0.00000000000E+00 -0.61626673531E+03  0.61626673531E+03  0.00000000000E+00 0. -1.
         25    2    1    2    0    0  0.11011555352E+03  0.49735143636E+02 -0.10388793217E+03  0.20258763661E+03  0.12510007360E+03 0.  0.
          5    1    3    3  502    0  0.29469785199E+02  0.78063906370E+02 -0.27727143400E+02  0.88026749336E+02  0.41800000000E+01 0. -1.
         -5    1    3    3    0  502  0.80645768318E+02 -0.28328762734E+02 -0.76160788774E+02  0.11456088727E+03  0.41800000000E+01 0. -1.
        -11    1    1    2    0    0 -0.12331105791E+03 -0.49290021706E+02 -0.43235048782E+03  0.45228538287E+03  0.00000000000E+00 0. -1.
         11    1    1    2    0    0  0.13195504394E+02 -0.44512192993E+00 -0.18606827717E+02  0.22815203428E+02  0.00000000000E+00 0.  1.
</event>
<event>
 7    1  0.3001243E-009  0.1756295E+03  0.7561462E-02  0.1172101E+00
         -3   -1    0    0    0  501 -0.00000000000E+00  0.00000000000E+00  0.69722779544E+03  0.69722779544E+03  0.00000000000E+00 0.  1.
          3   -1    0    0  501    0  0.00000000000E+00 -0.00000000000E+00 -0.60067679746E+02  0.60067679746E+02  0.00000000000E+00 0. -1.
         25    2    1    2    0    0 -0.66708841751E+02 -0.15765178436E+03  0.37393090407E+03  0.42985514828E+03  0.12508786034E+03 0.  0.
          5    1    3    3  502    0 -0.28314209650E+02 -0.11129586140E+03  0.10986952972E+03  0.15898820458E+03  0.41800000000E+01 0.  1.
         -5    1    3    3    0  502 -0.38394632101E+02 -0.46355922959E+02  0.26406137435E+03  0.27086694370E+03  0.41800000000E+01 0.  1.
        -11    1    1    2    0    0  0.69887080558E+02  0.12508990511E+03  0.25683918291E+03  0.29410551553E+03  0.00000000000E+00 0.  1.
         11    1    1    2    0    0 -0.31782388077E+01  0.32561879250E+02  0.63900287159E+01  0.33334811372E+02  0.00000000000E+00 0. -1.
</event>
<event>
 7    1  0.3001243E-009  0.1006920E+03  0.7561462E-02  0.1278848E+00
         -2   -1    0    0    0  501 -0.00000000000E+00  0.00000000000E+00  0.16040177333E+03  0.16040177333E+03  0.00000000000E+00 0.  1.
          2   -1    0    0  501    0  0.00000000000E+00 -0.00000000000E+00 -0.17336017846E+03  0.17336017846E+03  0.00000000000E+00 0. -1.
         25    2    1    2    0    0  0.71980600317E+01 -0.59606182312E+02 -0.11781210307E+03  0.18201966075E+03  0.12508699465E+03 0.  0.
          5    1    3    3  502    0 -0.48931582689E+02 -0.55231242373E+02 -0.34951674263E+02  0.81755011176E+02  0.41800000000E+01 0.  1.
         -5    1    3    3    0  502  0.56129642721E+02 -0.43749399389E+01 -0.82860428812E+02  0.10026464957E+03  0.41800000000E+01 0.  1.
        -11    1    1    2    0    0  0.14216211910E+02  0.38129298467E+02 -0.19261489516E+01  0.40738852861E+02  0.00000000000E+00 0. -1.
         11    1    1    2    0    0 -0.21414271941E+02  0.21476883845E+02  0.10677984690E+03  0.11100343818E+03  0.00000000000E+00 0.  1.
</event>
<event>
 7    1  0.3001243E-009  0.1579113E+03  0.7561462E-02  0.1191075E+00
          1   -1    0    0  501    0  0.00000000000E+00  0.00000000000E+00  0.98508891151E+03  0.98508891151E+03  0.00000000000E+00 0. -1.
         -1   -1    0    0    0  501 -0.00000000000E+00 -0.00000000000E+00 -0.33157427415E+02  0.33157427415E+02  0.00000000000E+00 0.  1.
         25    2    1    2    0    0 -0.12072549724E+03  0.79385652413E+02  0.53098970918E+03  0.56433474716E+03  0.12508760172E+03 0.  0.
          5    1    3    3  502    0 -0.91485468322E+02  0.61320971403E+01  0.15499543374E+03  0.18013397906E+03  0.41800000000E+01 0. -1.
         -5    1    3    3    0  502 -0.29240028921E+02  0.73253555273E+02  0.37599427544E+03  0.38420076810E+03  0.41800000000E+01 0. -1.
        -11    1    1    2    0    0  0.57090258154E+02 -0.45190576926E+02  0.32912323151E+03  0.33708098039E+03  0.00000000000E+00 0. -1.
         11    1    1    2    0    0  0.63635239089E+02 -0.34195075487E+02  0.91818543403E+02  0.11683061137E+03  0.00000000000E+00 0.  1.
</event>
<event>
 7    1  0.3001243E-009  0.1101268E+03  0.7561462E-02  0.1260335E+00
          2   -1    0    0  501    0  0.00000000000E+00  0.00000000000E+00  0.35197596523E+03  0.35197596523E+03  0.00000000000E+00 0. -1.
         -2   -1    0    0    0  501 -0.00000000000E+00 -0.00000000000E+00 -0.43343255706E+02  0.43343255706E+02  0.00000000000E+00 0.  1.
         25    2    1    2    0    0  0.22893506011E+02 -0.31325632719E+02  0.24136247459E+03  0.27460623013E+03  0.12508928653E+03 0.  0.
          5    1    3    3  502    0 -0.49734971308E+02 -0.20796308030E+01  0.12159549000E+03  0.13145656250E+03  0.41800000000E+01 0.  1.
         -5    1    3    3    0  502  0.72628477320E+02 -0.29246001916E+02  0.11976698459E+03  0.14314966763E+03  0.41800000000E+01 0.  1.
        -11    1    1    2    0    0 -0.36611257009E+02 -0.17927484070E+02  0.54420264672E+02  0.67995176533E+02  0.00000000000E+00 0.  1.
         11    1    1    2    0    0  0.13717750998E+02  0.49253116789E+02  0.12849970263E+02  0.52717814272E+02  0.00000000000E+00 0. -1.
</event>
<event>
 7    1  0.3001243E-009  0.2269249E+03  0.7561462E-02  0.1128823E+00
          2   -1    0    0  501    0  0.00000000000E+00  0.00000000000E+00  0.24687727218E+04  0.24687727218E+04  0.00000000000E+00 0. -1.
         -2   -1    0    0    0  501 -0.00000000000E+00 -0.00000000000E+00 -0.22072280558E+02  0.22072280558E+02  0.00000000000E+00 0.  1.
         25    2    1    2    0    0  0.17524234021E+03 -0.10100695301E+03  0.14997806229E+04  0.15185192870E+04  0.12508647255E+03 0.  0.
          5    1    3    3  502    0 -0.10521051384E+02  0.11246808242E+02  0.20923845412E+03  0.20984610147E+03  0.41800000000E+01 0. -1.
         -5    1    3    3    0  502  0.18576339159E+03 -0.11225376125E+03  0.12905421688E+04  0.13086731855E+04  0.41800000000E+01 0. -1.
        -11    1    1    2    0    0 -0.52035276042E+02  0.80573986998E+02  0.41622216347E+03  0.42713080748E+03  0.00000000000E+00 0.  1.
         11    1    1    2    0    0 -0.12320706417E+03  0.20432966011E+02  0.53069765486E+03  0.54519490793E+03  0.00000000000E+00 0. -1.
</event>
<event>
 7    1  0.3001243E-009  0.8768068E+02  0.7561462E-02  0.1308567E+00
          1   -1    0    0  501    0  0.00000000000E+00  0.00000000000E+00  0.20713880663E+03  0.20713880663E+03  0.00000000000E+00 0. -1.
         -1   -1    0    0    0  501 -0.00000000000E+00 -0.00000000000E+00 -0.71133861516E+02  0.71133861516E+02  0.00000000000E+00 0.  1.
         25    2    1    2    0    0 -0.84991948517E+01 -0.28634402714E+02  0.12857827191E+03  0.18185664589E+03  0.12508917746E+03 0.  0.
          5    1    3    3  502    0 -0.22783129268E+00 -0.59988249662E+02  0.12708329371E+02  0.61462313982E+02  0.41800000000E+01 0.  1.
         -5    1    3    3    0  502 -0.82713635590E+01  0.31353846948E+02  0.11586994253E+03  0.12039433191E+03  0.41800000000E+01 0.  1.
        -11    1    1    2    0    0  0.25125145092E+02  0.49703765031E+02 -0.18907382892E+02  0.58815187682E+02  0.00000000000E+00 0.  1.
         11    1    1    2    0    0 -0.16625950241E+02 -0.21069362318E+02  0.26334056105E+02  0.37600834576E+02  0.00000000000E+00 0. -1.
</event>
<event>
 7    1  0.4175931E-009  0.1184754E+03  0.7561462E-02  0.1245634E+00
         -2   -1    0    0    0  501 -0.00000000000E+00  0.00000000000E+00  0.72693829559E+02  0.72693829559E+02  0.00000000000E+00 0.  1.
          2   -1    0    0  501    0  0.00000000000E+00 -0.00000000000E+00 -0.29401120619E+03  0.29401120619E+03  0.00000000000E+00 0. -1.
         25    2    1    2    0    0  0.83337740010E+02  0.32448483131E+02 -0.16865616062E+03  0.22824329226E+03  0.12510802125E+03 0.  0.
          5    1    3    3  502    0 -0.79034817562E+01  0.52895590366E+02 -0.31550930479E+02  0.62236180138E+02  0.41800000000E+01 0. -1.
         -5    1    3    3    0  502  0.91241221766E+02 -0.20447107235E+02 -0.13710523014E+03  0.16600711213E+03  0.41800000000E+01 0. -1.
        -11    1    1    2    0    0 -0.54781556870E+02 -0.24869665251E+02  0.17231092013E+02  0.62581385050E+02  0.00000000000E+00 0.  1.
         11    1    1    2    0    0 -0.28556183139E+02 -0.75788178806E+01 -0.69892308023E+02  0.75880358439E+02  0.00000000000E+00 0. -1.
</event>
<event>
 7    1  0.3001243E-009  0.1068848E+03  0.7561462E-02  0.1266450E+00
          1   -1    0    0  501    0  0.00000000000E+00  0.00000000000E+00  0.72727943872E+03  0.72727943872E+03  0.00000000000E+00 0. -1.
         -1   -1    0    0    0  501 -0.00000000000E+00 -0.00000000000E+00 -0.45854597077E+02  0.45854597077E+02  0.00000000000E+00 0.  1.
         25    2    1    2    0    0  0.35449400225E+02  0.37068837940E+02  0.64883838219E+03  0.66277302118E+03  0.12508426234E+03 0.  0.
          5    1    3    3  502    0 -0.28185857192E+02  0.55444650024E+02  0.21384138040E+03  0.22274236268E+03  0.41800000000E+01 0. -1.
         -5    1    3    3    0  502  0.63635257417E+02 -0.18375812084E+02  0.43499700179E+03  0.44003065850E+03  0.41800000000E+01 0. -1.
        -11    1    1    2    0    0  0.16959977836E+02  0.51943452285E+01 -0.18663149798E+02  0.25747528637E+02  0.00000000000E+00 0.  1.
         11    1    1    2    0    0 -0.52409378061E+02 -0.42263183169E+02  0.51249609253E+02  0.84613485975E+02  0.00000000000E+00 0. -1.
</event>
<event>
 7    1  0.3001243E-009  0.9907053E+02  0.7561462E-02  0.1282263E+00
         -1   -1    0    0    0  501 -0.00000000000E+00  0.00000000000E+00  0.23544363963E+02  0.23544363963E+02  0.00000000000E+00 0.  1.
          1   -1    0    0  501    0  0.00000000000E+00 -0.00000000000E+00 -0.81871316608E+03  0.81871316608E+03  0.00000000000E+00 0. -1.
         25    2    1    2    0    0  0.17071877732E+02 -0.76451021511E+02 -0.55708480407E+03  0.57630459780E+03  0.12508917946E+03 0.  0.
          5    1    3    3  502    0  0.40861883965E+02 -0.73016257829E+01 -0.40872397315E+03  0.41084761886E+03  0.41800000000E+01 0. -1.
         -5    1    3    3    0  502 -0.23790006233E+02 -0.69149395729E+02 -0.14836083092E+03  0.16545697893E+03  0.41800000000E+01 0. -1.
        -11    1    1    2    0    0  0.68880131482E+01  0.31426905241E+02 -0.12241553924E+02  0.34423113465E+02  0.00000000000E+00 0.  1.
         11    1    1    2    0    0 -0.23959890880E+02  0.45024116271E+02 -0.22584244412E+03  0.23152981878E+03  0.00000000000E+00 0. -1.
</event>
<event>
 7    1  0.3001243E-009  0.2770991E+03  0.7561462E-02  0.1097284E+00
         -2   -1    0    0    0  501 -0.00000000000E+00  0.00000000000E+00  0.13406336292E+03  0.13406336292E+03  0.00000000000E+00 0.  1.
          2   -1    0    0  501    0  0.00000000000E+00 -0.00000000000E+00 -0.96563686044E+03  0.96563686044E+03  0.00000000000E+00 0. -1.
         25    2    1    2    0    0  0.15311629274E+03 -0.20968529704E+03 -0.76306815317E+03  0.81567940995E+03  0.12508945009E+03 0.  0.
          5    1    3    3  502    0  0.80005020548E+01 -0.11256337122E+03 -0.27408646363E+03  0.29643782235E+03  0.41800000000E+01 0. -1.
         -5    1    3    3    0  502  0.14511579069E+03 -0.97121925819E+02 -0.48898168954E+03  0.51924158760E+03  0.41800000000E+01 0. -1.
        -11    1    1    2    0    0 -0.26204208827E+02  0.64285034422E+01  0.14244324861E+02  0.30510440958E+02  0.00000000000E+00 0. -1.
         11    1    1    2    0    0 -0.12691208392E+03  0.20325679359E+03 -0.82749669205E+02  0.25351037245E+03  0.00000000000E+00 0.  1.
</event>
<event>
 7    1  0.3001243E-009  0.1414130E+03  0.7561462E-02  0.1211440E+00
          2   -1    0    0  501    0  0.00000000000E+00  0.00000000000E+00  0.11271985714E+04  0.11271985714E+04  0.00000000000E+00 0. -1.
         -2   -1    0    0    0  501 -0.00000000000E+00 -0.00000000000E+00 -0.21540386900E+02  0.21540386900E+02  0.00000000000E+00 0.  1.
         25    2    1    2    0    0  0.19158991401E+02  0.11015363719E+03  0.58677370164E+03  0.61028847999E+03  0.12509101142E+03 0.  0.
          5    1    3    3  502    0 -0.30829277710E+02  0.23919466366E+02  0.46342246513E+02  0.60726118328E+02  0.41800000000E+01 0.  1.
         -5    1    3    3    0  502  0.49988269111E+02  0.86234170821E+02  0.54043145513E+03  0.54956236167E+03  0.41800000000E+01 0.  1.
        -11    1    1    2    0    0  0.19873046191E+02 -0.10203482827E+03  0.37178745231E+03  0.38604656952E+03  0.00000000000E+00 0.  1.
         11    1    1    2    0    0 -0.39032037592E+02 -0.81188089217E+01  0.14709703056E+03  0.15240390880E+03  0.00000000000E+00 0. -1.
</event>
<event>
 7    1  0.3001243E-009  0.9140529E+02  0.7561462E-02  0.1299484E+00
         -3   -1    0    0    0  501 -0.00000000000E+00  0.00000000000E+00  0.47467965280E+03  0.47467965280E+03  0.00000000000E+00 0.  1.
          3   -1    0    0  501    0  0.00000000000E+00 -0.00000000000E+00 -0.27026075470E+02  0.27026075470E+02  0.00000000000E+00 0. -1.
         25    2    1    2    0    0 -0.25148369928E+02  0.49809679314E+01  0.29580962210E+03  0.32219360506E+03  0.12509251002E+03 0.  0.
          5    1    3    3  502    0  0.41843530647E+02 -0.30247764362E+02  0.12595227914E+03  0.13618831567E+03  0.41800000000E+01 0.  1.
         -5    1    3    3    0  502 -0.66991900574E+02  0.35228732293E+02  0.16985734296E+03  0.18600528939E+03  0.41800000000E+01 0.  1.
        -11    1    1    2    0    0  0.11610659816E+02 -0.26981055752E+02  0.42551764007E+01  0.29679813292E+02  0.00000000000E+00 0. -1.
         11    1    1    2    0    0  0.13537710112E+02  0.22000087820E+02  0.14758877883E+03  0.14983230992E+03  0.00000000000E+00 0.  1.
</event>
<event>
 7    1  0.3001243E-009  0.1426259E+03  0.7561462E-02  0.1209839E+00
          2   -1    0    0  501    0  0.00000000000E+00  0.00000000000E+00  0.33399468135E+02  0.33399468135E+02  0.00000000000E+00 0.  1.
         -2   -1    0    0    0  501 -0.00000000000E+00 -0.00000000000E+00 -0.94588937771E+03  0.94588937771E+03  0.00000000000E+00 0. -1.
         25    2    1    2    0    0  0.71631878831E+02  0.11455101962E+03 -0.49976525682E+03  0.53260336072E+03  0.12509182935E+03 0.  0.
          5    1    3    3  502    0  0.19060986351E+02  0.55989702882E+02 -0.40515434668E+03  0.40947000508E+03  0.41800000000E+01 0. -1.
         -5    1    3    3    0  502  0.52570892479E+02  0.58561316734E+02 -0.94610910142E+02  0.12313335564E+03  0.41800000000E+01 0. -1.
        -11    1    1    2    0    0 -0.19307293497E+02 -0.84779529463E+02 -0.12212839122E+03  0.14991892523E+03  0.00000000000E+00 0.  1.
         11    1    1    2    0    0 -0.52324585334E+02 -0.29771490153E+02 -0.29059626154E+03  0.29676655990E+03  0.00000000000E+00 0. -1.
</event>
<event>
 7    1  0.4392388E-009  0.1129648E+03  0.7561462E-02  0.1255176E+00
         -1   -1    0    0    0  501 -0.00000000000E+00  0.00000000000E+00  0.21733118913E+02  0.21733118913E+02  0.00000000000E+00 0.  1.
          1   -1    0    0  501    0  0.00000000000E+00 -0.00000000000E+00 -0.95934561090E+03  0.95934561090E+03  0.00000000000E+00 0. -1.
         25    2    1    2    0    0  0.83709281918E+02  0.42652265053E+02 -0.55870028444E+03  0.58018979563E+03  0.12509089307E+03 0.  0.
          5    1    3    3  502    0  0.55430096290E+02  0.60316188119E+01 -0.71438233579E+02  0.90718077676E+02  0.41800000000E+01 0. -1.
         -5    1    3    3    0  502  0.28279185628E+02  0.36620646241E+02 -0.48726205086E+03  0.48947171796E+03  0.41800000000E+01 0. -1.
        -11    1    1    2    0    0 -0.49837950712E+02 -0.65792366332E+02 -0.18335872395E+03  0.20107928399E+03  0.00000000000E+00 0.  1.
         11    1    1    2    0    0 -0.33871331206E+02  0.23140101279E+02 -0.19555348360E+03  0.19980965020E+03  0.00000000000E+00 0. -1.
</event>
<event>
 7    1  0.3001243E-009  0.2265465E+03  0.7561462E-02  0.1129094E+00
         -2   -1    0    0    0  501 -0.00000000000E+00  0.00000000000E+00  0.31674477618E+02  0.31674477618E+02  0.00000000000E+00 0.  1.
          2   -1    0    0  501    0  0.00000000000E+00 -0.00000000000E+00 -0.20573106539E+04  0.20573106539E+04  0.00000000000E+00 0. -1.
         25    2    1    2    0    0  0.52794030278E+02  0.19937985440E+03 -0.14599311356E+04  0.14797241126E+04  0.12507994562E+03 0.  0.
          5    1    3    3  502    0 -0.39267460765E+01 -0.16694063474E+02 -0.94928510902E+02  0.96555712789E+02  0.41800000000E+01 0. -1.
         -5    1    3    3    0  502  0.56720776354E+02  0.21607391788E+03 -0.13650026247E+04  0.13831683998E+04  0.41800000000E+01 0. -1.
        -11    1    1    2    0    0 -0.85640546843E+01 -0.12626662784E+03 -0.22650417135E+03  0.25946241342E+03  0.00000000000E+00 0.  1.
         11    1    1    2    0    0 -0.44229975593E+02 -0.73113226560E+02 -0.33920086942E+03  0.34979860556E+03  0.00000000000E+00 0. -1.
</event>
<event>
 6    1  0.3001243E-009  0.1090311E+03  0.7561462E-02  0.1262375E+00
         -2   -1    0    0    0  501 -0.00000000000E+00  0.00000000000E+00  0.80866931490E+02  0.80866931490E+02  0.00000000000E+00 0.  1.
          2   -1    0    0  501    0  0.00000000000E+00 -0.00000000000E+00 -0.20789819491E+03  0.20789819491E+03  0.00000000000E+00 0. -1.
          5    1    1    2  502    0 -0.39481564422E+02  0.59392127791E+02  0.18664742462E+02  0.73838091686E+02  0.41800000000E+01 0.  1.
         -5    1    1    2    0  502 -0.26400057651E+01 -0.52256229991E+02 -0.26184644431E+02  0.58658257793E+02  0.41800000000E+01 0.  1.
        -11    1    1    2    0    0  0.82763572007E+01 -0.43601944149E+02 -0.84457056650E+02  0.95407662376E+02  0.00000000000E+00 0. -1.
         11    1    1    2    0    0  0.33845212986E+02  0.36466046350E+02 -0.35054304796E+02  0.60861114541E+02  0.00000000000E+00 0.  1.
</event>
<event>
 7    1  0.3001243E-009  0.1226628E+03  0.7561462E-02  0.1238768E+00
         -2   -1    0    0    0  501 -0.00000000000E+00  0.00000000000E+00  0.27145344682E+02  0.27145344682E+02  0.00000000000E+00 0. -1.
          2   -1    0    0  501    0  0.00000000000E+00 -0.00000000000E+00 -0.59179342814E+03  0.59179342814E+03  0.00000000000E+00 0.  1.
         25    2    1    2    0    0 -0.14673221032E+02 -0.58459067319E+02 -0.36262423238E+03  0.38830482921E+03  0.12510611700E+03 0.  0.
          5    1    3    3  502    0 -0.14577460766E+02  0.38670360539E+02 -0.10156034769E+03  0.10972636771E+03  0.41800000000E+01 0. -1.
         -5    1    3    3    0  502 -0.95760266029E-01 -0.97129427858E+02 -0.26106388469E+03  0.27857846150E+03  0.41800000000E+01 0. -1.
        -11    1    1    2    0    0 -0.33988264664E+02  0.51271324356E+01 -0.36965607153E+02  0.50477180330E+02  0.00000000000E+00 0. -1.
         11    1    1    2    0    0  0.48661485696E+02  0.53331934883E+02 -0.16505824393E+03  0.18015676329E+03  0.00000000000E+00 0.  1.
</event>
<event>
 6    1  0.3001243E-009  0.2943057E+03  0.7561462E-02  0.1088122E+00
         -1   -1    0    0    0  501 -0.00000000000E+00  0.00000000000E+00  0.24159201565E+03  0.24159201565E+03  0.00000000000E+00 0.  1.
          1   -1    0    0  501    0  0.00000000000E+00 -0.00000000000E+00 -0.38246225839E+03  0.38246225839E+03  0.00000000000E+00 0. -1.
          5    1    1    2  502    0 -0.17877830062E+02 -0.15024449749E+01 -0.19960711861E+01  0.18529189103E+02  0.41800000000E+01 0.  1.
         -5    1    1    2    0  502  0.12845823384E+03  0.24542041561E+03  0.81327221545E+01  0.27715755773E+03  0.41800000000E+01 0.  1.
        -11    1    1    2    0    0 -0.12954077576E+03 -0.15391419943E+03 -0.92167021088E+02  0.22128071119E+03  0.00000000000E+00 0. -1.
         11    1    1    2    0    0  0.18960371979E+02 -0.90003771206E+02 -0.54839872619E+02  0.10708681602E+03  0.00000000000E+00 0.  1.
</event>
<event>
 7    1  0.3001243E-009  0.1186470E+03  0.7561462E-02  0.1245346E+00
          1   -1    0    0  501    0  0.00000000000E+00  0.00000000000E+00  0.98863732695E+03  0.98863732695E+03  0.00000000000E+00 0. -1.
         -1   -1    0    0    0  501 -0.00000000000E+00 -0.00000000000E+00 -0.23592768143E+02  0.23592768143E+02  0.00000000000E+00 0.  1.
         25    2    1    2    0    0  0.65914001684E+02 -0.30470285777E+02  0.78249246853E+03  0.79574899511E+03  0.12509558742E+03 0.  0.
          5    1    3    3  502    0  0.88125220369E+01 -0.72425505166E+02  0.36118123779E+03  0.36850030295E+03  0.41800000000E+01 0.  1.
         -5    1    3    3    0  502  0.57101479647E+02  0.41955219389E+02  0.42131123073E+03  0.42724869216E+03  0.41800000000E+01 0.  1.
        -11    1    1    2    0    0 -0.58994711935E+01  0.32650897887E+02  0.13739222369E+03  0.14134181272E+03  0.00000000000E+00 0. -1.
         11    1    1    2    0    0 -0.60014530490E+02 -0.21806121106E+01  0.45159866595E+02  0.75139287260E+02  0.00000000000E+00 0.  1.
</event>
<event>
 7    1  0.3001243E-009  0.1079494E+03  0.7561462E-02  0.1264415E+00
          3   -1    0    0  501    0  0.00000000000E+00  0.00000000000E+00  0.17818787794E+03  0.17818787794E+03  0.00000000000E+00 0. -1.
         -3   -1    0    0    0  501 -0.00000000000E+00 -0.00000000000E+00 -0.80271430666E+02  0.80271430666E+02  0.00000000000E+00 0.  1.
         25    2    1    2    0    0  0.14207007523E+02  0.40642277926E+02  0.27660033369E+02  0.13515359666E+03  0.12509110051E+03 0.  0.
          5    1    3    3  502    0 -0.31009638285E+02  0.61407999615E+02 -0.13756910075E+02  0.70279905080E+02  0.41800000000E+01 0.  1.
         -5    1    3    3    0  502  0.45216645808E+02 -0.20765721689E+02  0.41416943444E+02  0.64873691583E+02  0.41800000000E+01 0.  1.
        -11    1    1    2    0    0 -0.95514696633E+01 -0.68317602673E+02  0.32481493853E+02  0.76246789117E+02  0.00000000000E+00 0.  1.
         11    1    1    2    0    0 -0.46555378600E+01  0.27675324747E+02  0.37774920050E+02  0.47058922824E+02  0.00000000000E+00 0. -1.
</event>
<event>
 7    1  0.3001243E-009  0.1135981E+03  0.7561462E-02  0.1254048E+00
          2   -1    0    0  501    0  0.00000000000E+00  0.00000000000E+00  0.68057916218E+02  0.68057916218E+02  0.00000000000E+00 0. -1.
         -2   -1    0    0    0  501 -0.00000000000E+00 -0.00000000000E+00 -0.25707662672E+03  0.25707662672E+03  0.00000000000E+00 0.  1.
         25    2    1    2    0    0  0.31491353967E+02  0.62159255141E+02 -0.13952621938E+03  0.19992526879E+03  0.12508824418E+03 0.  0.
          5    1    3    3  502    0  0.27143465072E+02 -0.26677085644E+02 -0.90531569229E+02  0.98294821948E+02  0.41800000000E+01 0.  1.
         -5    1    3    3    0  502  0.43478888946E+01  0.88836340786E+02 -0.48994650151E+02  0.10163044684E+03  0.41800000000E+01 0.  1.
        -11    1    1    2    0    0 -0.46275345521E+01 -0.71331615310E+02 -0.40082448824E+01  0.71593850615E+02  0.00000000000E+00 0. -1.
         11    1    1    2    0    0 -0.26863819415E+02  0.91723601690E+01 -0.45484246244E+02  0.53615423537E+02  0.00000000000E+00 0.  1.
</event>
<event>
 7    1  0.3001243E-009  0.9825647E+02  0.7561462E-02  0.1284006E+00
          2   -1    0    0  501    0  0.00000000000E+00  0.00000000000E+00  0.16797265230E+04  0.16797265230E+04  0.00000000000E+00 0.  1.
         -2   -1    0    0    0  501 -0.00000000000E+00 -0.00000000000E+00 -0.10796840630E+02  0.10796840630E+02  0.00000000000E+00 0. -1.
         25    2    1    2    0    0 -0.66702223549E+02 -0.36720488583E+02  0.10710982681E+04  0.10810624077E+04  0.12508736411E+03 0.  0.
          5    1    3    3  502    0 -0.14280455590E+01 -0.11343032586E+01  0.79748313846E+03  0.79749617835E+03  0.41800000000E+01 0. -1.
         -5    1    3    3    0  502 -0.65274177990E+02 -0.35586185325E+02  0.27361512959E+03  0.28356622937E+03  0.41800000000E+01 0. -1.
        -11    1    1    2    0    0  0.78869493924E+02  0.66129815566E-01  0.43676843796E+03  0.44383225417E+03  0.00000000000E+00 0.  1.
         11    1    1    2    0    0 -0.12167270375E+02  0.36654358768E+02  0.16106297636E+03  0.16562870174E+03  0.00000000000E+00 0. -1.
</event>
<event>
 7    1  0.3001243E-009  0.1333452E+03  0.7561462E-02  0.1222575E+00
         -1   -1    0    0    0  501 -0.00000000000E+00  0.00000000000E+00  0.10184148902E+03  0.10184148902E+03  0.00000000000E+00 0.  1.
          1   -1    0    0  501    0  0.00000000000E+00 -0.00000000000E+00 -0.19465068302E+03  0.19465068302E+03  0.00000000000E+00 0. -1.
         25    2    1    2    0    0 -0.16187825214E+02 -0.88695435096E+02 -0.62938338377E+02  0.16654745364E+03  0.12509154242E+03 0.  0.
          5    1    3    3  502    0 -0.62297328999E+02 -0.87496434660E+02 -0.49379334140E+02  0.11828936689E+03  0.41800000000E+01 0. -1.
         -5    1    3    3    0  502  0.46109503785E+02 -0.11990004360E+01 -0.13559004236E+02  0.48258086755E+02  0.41800000000E+01 0. -1.
        -11    1    1    2    0    0  0.36673719869E+02  0.84303567916E+02 -0.46658403575E+02  0.10309733225E+03  0.00000000000E+00 0. -1.
         11    1    1    2    0    0 -0.20485894655E+02  0.43918671797E+01  0.16787547944E+02  0.26847386150E+02  0.00000000000E+00 0.  1.
</event>
<event>
 7    1  0.3001243E-009  0.2384748E+03  0.7561462E-02  0.1120813E+00
         -2   -1    0    0    0  501 -0.00000000000E+00  0.00000000000E+00  0.13859667423E+03  0.13859667423E+03  0.00000000000E+00 0.  1.
          2   -1    0    0  501    0  0.00000000000E+00 -0.00000000000E+00 -0.44649207897E+03  0.44649207897E+03  0.00000000000E+00 0. -1.
         25    2    1    2    0    0 -0.18150814045E+03  0.13022058818E+03 -0.14831814606E+03  0.29588516877E+03  0.12508858465E+03 0.  0.
          5    1    3    3  502    0 -0.85079913660E+02 -0.73094364221E+01 -0.30919372832E+02  0.90914792996E+02  0.41800000000E+01 0. -1.
         -5    1    3    3    0  502 -0.96428226792E+02  0.13753002460E+03 -0.11739877323E+03  0.20497037577E+03  0.41800000000E+01 0. -1.
        -11    1    1    2    0    0  0.40621201244E+02 -0.31496912589E+02  0.43356782146E+01  0.51584257276E+02  0.00000000000E+00 0.  1.
         11    1    1    2    0    0  0.14088693921E+03 -0.98723675587E+02 -0.16391293689E+03  0.23761932716E+03  0.00000000000E+00 0. -1.
</event>
<event>
 7    1  0.3001243E-009  0.1397873E+03  0.7561462E-02  0.1213615E+00
         -2   -1    0    0    0  501 -0.00000000000E+00  0.00000000000E+00  0.12106255620E+04  0.12106255620E+04  0.00000000000E+00 0.  1.
          2   -1    0    0  501    0  0.00000000000E+00 -0.00000000000E+00 -0.22457348599E+02  0.22457348599E+02  0.00000000000E+00 0. -1.
         25    2    1    2    0    0  0.40482449507E+02 -0.93050131309E+02  0.89947417198E+03  0.91378210577E+03  0.12508715008E+03 0.  0.
          5    1    3    3  502    0  0.35146798893E+02 -0.11793065964E+03  0.56228120205E+03  0.57560451748E+03  0.41800000000E+01 0. -1.
         -5    1    3    3    0  502  0.53356506136E+01  0.24880528333E+02  0.33719296993E+03  0.33817758830E+03  0.41800000000E+01 0. -1.
        -11    1    1    2    0    0  0.17872886790E+01  0.88080699932E+02  0.23374848756E+03  0.24979943863E+03  0.00000000000E+00 0. -1.
         11    1    1    2    0    0 -0.42269738186E+02  0.49694313768E+01  0.54945553856E+02  0.69501366196E+02  0.00000000000E+00 0.  1.
</event>
<event>
 7    1  0.3001243E-009  0.1197590E+03  0.7561462E-02  0.1243495E+00
         -2   -1    0    0    0  501 -0.00000000000E+00  0.00000000000E+00  0.11117836629E+02  0.11117836629E+02  0.00000000000E+00 0.  1.
          2   -1    0    0  501    0  0.00000000000E+00 -0.00000000000E+00 -0.17531701914E+04  0.17531701914E+04  0.00000000000E+00 0. -1.
         25    2    1    2    0    0 -0.33858545099E+02 -0.46717153953E+02 -0.13626082697E+04  0.13695546259E+04  0.12509869427E+03 0.  0.
          5    1    3    3  502    0  0.37915725313E+02  0.16915687317E+02 -0.40123007318E+03  0.40339408365E+03  0.41800000000E+01 0.  1.
         -5    1    3    3    0  502 -0.71774270411E+02 -0.63632841270E+02 -0.96137819648E+03  0.96616054227E+03  0.41800000000E+01 0.  1.
        -11    1    1    2    0    0 -0.26014604343E+02  0.29331851874E+00 -0.46549629476E+02  0.53326481969E+02  0.00000000000E+00 0.  1.
         11    1    1    2    0    0  0.59873149441E+02  0.46423835435E+02 -0.33289445562E+03  0.34140692012E+03  0.00000000000E+00 0. -1.
</event>
<event>
 7    1  0.3001243E-009  0.2180503E+03  0.7561462E-02  0.1135345E+00
          1   -1    0    0  501    0  0.00000000000E+00  0.00000000000E+00  0.45634220995E+03  0.45634220995E+03  0.00000000000E+00 0. -1.
         -1   -1    0    0    0  501 -0.00000000000E+00 -0.00000000000E+00 -0.11142611235E+03  0.11142611235E+03  0.00000000000E+00 0.  1.
         25    2    1    2    0    0  0.32596750910E+01  0.19814975128E+03  0.16006689744E+03  0.28379803698E+03  0.12508383078E+03 0.  0.
          5    1    3    3  502    0  0.38436786525E+02  0.17259170206E+03  0.83368512945E+02  0.19553276843E+03  0.41800000000E+01 0.  1.
         -5    1    3    3    0  502 -0.35177111434E+02  0.25558049224E+02  0.76698384495E+02  0.88265268555E+02  0.41800000000E+01 0.  1.
        -11    1    1    2    0    0  0.11134812192E+02  0.47743579534E+01  0.95235092991E+01  0.15410248725E+02  0.00000000000E+00 0.  1.
         11    1    1    2    0    0 -0.14394487283E+02 -0.20292410924E+03  0.17532569086E+03  0.26856003659E+03  0.00000000000E+00 0. -1.
</event>
<event>
 7    1  0.3001243E-009  0.8804212E+02  0.7561462E-02  0.1307663E+00
         -2   -1    0    0    0  501 -0.00000000000E+00  0.00000000000E+00  0.54643499308E+02  0.54643499308E+02  0.00000000000E+00 0.  1.
          2   -1    0    0  501    0  0.00000000000E+00 -0.00000000000E+00 -0.24457300137E+03  0.24457300137E+03  0.00000000000E+00 0. -1.
         25    2    1    2    0    0  0.36391996863E+01 -0.38899186176E+02 -0.11709213569E+03  0.17572933378E+03  0.12507533750E+03 0.  0.
          5    1    3    3  502    0  0.21060604215E+02  0.11971844039E+02  0.17868358805E+02  0.30391195205E+02  0.41800000000E+01 0.  1.
         -5    1    3    3    0  502 -0.17421404529E+02 -0.50871030215E+02 -0.13496049450E+03  0.14533813858E+03  0.41800000000E+01 0.  1.
        -11    1    1    2    0    0  0.40050206155E+02  0.15354770579E+01 -0.42758893610E+02  0.58606310971E+02  0.00000000000E+00 0.  1.
         11    1    1    2    0    0 -0.43689405842E+02  0.37363709118E+02 -0.30078472765E+02  0.64880855926E+02  0.00000000000E+00 0. -1.
</event>
<event>
 7    1  0.3001243E-009  0.1054589E+03  0.7561462E-02  0.1269218E+00
         -2   -1    0    0    0  501 -0.00000000000E+00  0.00000000000E+00  0.42609177354E+02  0.42609177354E+02  0.00000000000E+00 0. -1.
          2   -1    0    0  501    0  0.00000000000E+00 -0.00000000000E+00 -0.45818278563E+03  0.45818278563E+03  0.00000000000E+00 0.  1.
         25    2    1    2    0    0  0.67816057249E+02  0.28530210964E+01 -0.22797013923E+03  0.26874512698E+03  0.12508557688E+03 0.  0.
          5    1    3    3  502    0  0.98286905663E+02  0.26388879541E+02 -0.14519130477E+03  0.17735466210E+03  0.41800000000E+01 0. -1.
         -5    1    3    3    0  502 -0.30470848414E+02 -0.23535858444E+02 -0.82778834462E+02  0.91390464879E+02  0.41800000000E+01 0. -1.
        -11    1    1    2    0    0 -0.43165034680E+02 -0.10689901054E+02 -0.19890761379E+03  0.20381789182E+03  0.00000000000E+00 0.  1.
         11    1    1    2    0    0 -0.24651022569E+02  0.78368799578E+01  0.11304144745E+02  0.28228944181E+02  0.00000000000E+00 0. -1.
</event>
<event>
 7    1  0.3001243E-009  0.1569619E+03  0.7561462E-02  0.1192170E+00
         -1   -1    0    0    0  501 -0.00000000000E+00  0.00000000000E+00  0.11144496416E+04  0.11144496416E+04  0.00000000000E+00 0.  1.
          1   -1    0    0  501    0  0.00000000000E+00 -0.00000000000E+00 -0.25718837160E+02  0.25718837160E+02  0.00000000000E+00 0. -1.
         25    2    1    2    0    0 -0.26282801169E+02 -0.12406581049E+03  0.67423617836E+03  0.69737018507E+03  0.12509052657E+03 0.  0.
          5    1    3    3  502    0 -0.75827019619E+02 -0.60292963482E+02  0.38770071873E+03  0.39964271300E+03  0.41800000000E+01 0. -1.
         -5    1    3    3    0  502  0.49544218450E+02 -0.63772847008E+02  0.28653545963E+03  0.29772747206E+03  0.41800000000E+01 0. -1.
        -11    1    1    2    0    0  0.37144381088E+02  0.56214738675E+02  0.31340238831E+03  0.32056334614E+03  0.00000000000E+00 0.  1.
         11    1    1    2    0    0 -0.10861579919E+02  0.67851071816E+02  0.10109223774E+03  0.12223494752E+03  0.00000000000E+00 0. -1.
</event>
<event>
 7    1  0.3001243E-009  0.1311243E+03  0.7561462E-02  0.1225797E+00
          4   -1    0    0  501    0  0.00000000000E+00  0.00000000000E+00  0.38485196739E+02  0.38485196739E+02  0.00000000000E+00 0. -1.
         -4   -1    0    0    0  501 -0.00000000000E+00 -0.00000000000E+00 -0.71222591551E+03  0.71222591551E+03  0.00000000000E+00 0.  1.
         25    2    1    2    0    0 -0.57513476437E+02 -0.83106957449E+02 -0.52377746692E+03  0.54790968828E+03  0.12509046849E+03 0.  0.
          5    1    3    3  502    0 -0.76312916743E+02 -0.18671747124E+02 -0.39360844785E+03  0.40139429246E+03  0.41800000000E+01 0. -1.
         -5    1    3    3    0  502  0.18799440306E+02 -0.64435210326E+02 -0.13016901907E+03  0.14651539581E+03  0.41800000000E+01 0. -1.
        -11    1    1    2    0    0  0.21765711576E+02  0.77049024349E+02 -0.14575922217E+03  0.16630107998E+03  0.00000000000E+00 0. -1.
         11    1    1    2    0    0  0.35747764861E+02  0.60579331005E+01 -0.42040296796E+01  0.36500343993E+02  0.00000000000E+00 0.  1.
</event>
<event>
 7    1  0.3001243E-009  0.1308850E+03  0.7561462E-02  0.1226148E+00
         -3   -1    0    0    0  501 -0.00000000000E+00  0.00000000000E+00  0.28942524753E+03  0.28942524753E+03  0.00000000000E+00 0. -1.
          3   -1    0    0  501    0  0.00000000000E+00 -0.00000000000E+00 -0.94677230200E+02  0.94677230200E+02  0.00000000000E+00 0.  1.
         25    2    1    2    0    0 -0.35727017155E+02  0.78666111261E+02  0.20865012873E+03  0.25816170758E+03  0.12509122361E+03 0.  0.
          5    1    3    3  502    0 -0.66104421110E+02  0.92339887375E+02  0.13013144027E+03  0.17276606564E+03  0.41800000000E+01 0.  1.
         -5    1    3    3    0  502  0.30377403955E+02 -0.13673776114E+02  0.78518688460E+02  0.85395641936E+02  0.41800000000E+01 0.  1.
        -11    1    1    2    0    0 -0.10916885040E+02 -0.65058385615E+02 -0.32965980466E+02  0.73746374731E+02  0.00000000000E+00 0.  1.
         11    1    1    2    0    0  0.46643902195E+02 -0.13607725646E+02  0.19063869060E+02  0.52194395415E+02  0.00000000000E+00 0. -1.
</event>
<event>
 7    1  0.3001243E-009  0.2149338E+03  0.7561462E-02  0.1137717E+00
         -1   -1    0    0    0  501 -0.00000000000E+00  0.00000000000E+00  0.11704213980E+03  0.11704213980E+03  0.00000000000E+00 0.  1.
          1   -1    0    0  501    0  0.00000000000E+00 -0.00000000000E+00 -0.48251659079E+03  0.48251659079E+03  0.00000000000E+00 0. -1.
         25    2    1    2    0    0  0.14975670717E+03  0.13509773699E+03 -0.10888238760E+03  0.26111433263E+03  0.12508737143E+03 0.  0.
          5    1    3    3  502    0  0.90258715822E+02  0.12968974608E+03 -0.28079136776E+02  0.16053652650E+03  0.41800000000E+01 0. -1.
         -5    1    3    3    0  502  0.59497991350E+02  0.54079909088E+01 -0.80803250827E+02  0.10057780612E+03  0.41800000000E+01 0. -1.
        -11    1    1    2    0    0 -0.30113148639E+02  0.17231283236E+01 -0.93385210344E+01  0.31574972166E+02  0.00000000000E+00 0.  1.
         11    1    1    2    0    0 -0.11964355853E+03 -0.13682086531E+03 -0.24725354235E+03  0.30686942580E+03  0.00000000000E+00 0. -1.
</event>
<event>
 7    1  0.3001243E-009  0.1300223E+03  0.7561462E-02  0.1227423E+00
         -1   -1    0    0    0  501 -0.00000000000E+00  0.00000000000E+00  0.70284341912E+03  0.70284341912E+03  0.00000000000E+00 0.  1.
          1   -1    0    0  501    0  0.00000000000E+00 -0.00000000000E+00 -0.50567076216E+02  0.50567076216E+02  0.00000000000E+00 0. -1.
         25    2    1    2    0    0  0.88336523916E+02  0.42835649923E+02  0.57775731077E+03  0.59924047535E+03  0.12508957904E+03 0.  0.
          5    1    3    3  502    0  0.11530053347E+03  0.30482514962E+02  0.35598445082E+03  0.37545412285E+03  0.41800000000E+01 0.  1.
         -5    1    3    3    0  502 -0.26964009555E+02  0.12353134961E+02  0.22177285995E+03  0.22378635250E+03  0.41800000000E+01 0.  1.
        -11    1    1    2    0    0 -0.65088915056E+02 -0.36458146386E+01 -0.18758678384E+01  0.65217924742E+02  0.00000000000E+00 0. -1.
         11    1    1    2    0    0 -0.23247608860E+02 -0.39189835284E+02  0.76394899976E+02  0.88952095252E+02  0.00000000000E+00 0.  1.
</event>
<event>
 7    1  0.3001243E-009  0.1126380E+03  0.7561462E-02  0.1255761E+00
          3   -1    0    0  501    0  0.00000000000E+00  0.00000000000E+00  0.12191039687E+02  0.12191039687E+02  0.00000000000E+00 0.  1.
         -3   -1    0    0    0  501 -0.00000000000E+00 -0.00000000000E+00 -0.12911395059E+04  0.12911395059E+04  0.00000000000E+00 0. -1.
         25    2    1    2    0    0 -0.17823499024E+02 -0.43463003202E+02 -0.95080501417E+03  0.96014856542E+03  0.12509349680E+03 0.  0.
          5    1    3    3  502    0  0.19004975787E+02  0.37404507562E+02 -0.22542045836E+03  0.22932976635E+03  0.41800000000E+01 0. -1.
         -5    1    3    3    0  502 -0.36828474810E+02 -0.80867510764E+02 -0.72538455581E+03  0.73081879906E+03  0.41800000000E+01 0. -1.
        -11    1    1    2    0    0  0.50591571167E+02  0.29241074850E+02 -0.14047137579E+03  0.15214057627E+03  0.00000000000E+00 0.  1.
         11    1    1    2    0    0 -0.32768072144E+02  0.14221928352E+02 -0.18767207627E+03  0.19104140391E+03  0.00000000000E+00 0. -1.
</event>
<event>
 7    1  0.3001243E-009  0.1032373E+03  0.7561462E-02  0.1273632E+00
          1   -1    0    0  501    0  0.00000000000E+00  0.00000000000E+00  0.12886306841E+03  0.12886306841E+03  0.00000000000E+00 0. -1.
         -1   -1    0    0    0  501 -0.00000000000E+00 -0.00000000000E+00 -0.11038261391E+03  0.11038261391E+03  0.00000000000E+00 0.  1.
         25    2    1    2    0    0  0.40168428270E+02 -0.23796437879E+02  0.28183186811E+02  0.13645888865E+03  0.12508782190E+03 0.  0.
          5    1    3    3  502    0  0.61319296635E+02  0.11809682141E+02  0.57942834948E+02  0.85289912967E+02  0.41800000000E+01 0.  1.
         -5    1    3    3    0  502 -0.21150868366E+02 -0.35606120020E+02 -0.29759648137E+02  0.51168975686E+02  0.41800000000E+01 0.  1.
        -11    1    1    2    0    0 -0.61229346028E+02 -0.10395995126E+02 -0.41170101754E+01  0.62241941666E+02  0.00000000000E+00 0.  1.
         11    1    1    2    0    0  0.21060917758E+02  0.34192433005E+02 -0.55857221322E+01  0.40544851996E+02  0.00000000000E+00 0. -1.
</event>
<event>
 7    1  0.3001243E-009  0.1187448E+03  0.7561462E-02  0.1245182E+00
         -2   -1    0    0    0  501 -0.00000000000E+00  0.00000000000E+00  0.25026969434E+02  0.25026969434E+02  0.00000000000E+00 0.  1.
          2   -1    0    0  501    0  0.00000000000E+00 -0.00000000000E+00 -0.58565960025E+03  0.58565960025E+03  0.00000000000E+00 0. -1.
         25    2    1    2    0    0  0.18039234345E+02  0.44970260879E+02 -0.35230771679E+03  0.37698629407E+03  0.12510076047E+03 0.  0.
          5    1    3    3  502    0  0.66955299921E+02  0.49432593336E+02 -0.24777871907E+03  0.26141606587E+03  0.41800000000E+01 0.  1.
         -5    1    3    3    0  502 -0.48916065575E+02 -0.44623324566E+01 -0.10452899772E+03  0.11557022820E+03  0.41800000000E+01 0.  1.
        -11    1    1    2    0    0  0.34712249483E+02  0.12373935516E+01 -0.54253306701E+02  0.64419660779E+02  0.00000000000E+00 0. -1.
         11    1    1    2    0    0 -0.52751483828E+02 -0.46207654431E+02 -0.15407160733E+03  0.16928061483E+03  0.00000000000E+00 0.  1.
</event>
<event>
 7    1  0.3001243E-009  0.6756048E+02  0.7561462E-02  0.1368591E+00
         -1   -1    0    0    0  501 -0.00000000000E+00  0.00000000000E+00  0.12009125731E+03  0.12009125731E+03  0.00000000000E+00 0.  1.
          1   -1    0    0  501    0  0.00000000000E+00 -0.00000000000E+00 -0.10729689210E+03  0.10729689210E+03  0.00000000000E+00 0. -1.
         25    2    1    2    0    0  0.19553312626E+02 -0.28645826999E+02  0.23149540602E+02  0.13185794315E+03  0.12509076905E+03 0.  0.
          5    1    3    3  502    0  0.26665887541E+02 -0.28558783126E+02 -0.46978397961E+02  0.61246354397E+02  0.41800000000E+01 0. -1.
         -5    1    3    3    0  502 -0.71125749142E+01 -0.87043872673E-01  0.70127938563E+02  0.70611588749E+02  0.41800000000E+01 0. -1.
        -11    1    1    2    0    0  0.28288500783E+02 -0.54733007173E+01 -0.21205171189E+02  0.35775069287E+02  0.00000000000E+00 0. -1.
         11    1    1    2    0    0 -0.47841813410E+02  0.34119127716E+02  0.10849995790E+02  0.59755136977E+02  0.00000000000E+00 0.  1.
</event>
<event>
 6    1  0.3001243E-009  0.2084997E+03  0.7561462E-02  0.1142760E+00
         -1   -1    0    0    0  501 -0.00000000000E+00  0.00000000000E+00  0.18947788153E+03  0.18947788153E+03  0.00000000000E+00 0.  1.
          1   -1    0    0  501    0  0.00000000000E+00 -0.00000000000E+00 -0.25470312193E+03  0.25470312193E+03  0.00000000000E+00 0. -1.
          5    1    1    2  502    0 -0.70364373048E+02  0.13704328410E+03 -0.53864443365E+02  0.16325090312E+03  0.41800000000E+01 0.  1.
         -5    1    1    2    0  502  0.48636585526E+02  0.51625162042E+02 -0.24259296501E+01  0.71091717817E+02  0.41800000000E+01 0.  1.
        -11    1    1    2    0    0  0.15859620638E+02 -0.39618956570E+02  0.34059607052E+02  0.54600788630E+02  0.00000000000E+00 0.  1.
         11    1    1    2    0    0  0.58681668833E+01 -0.14904948957E+03 -0.42994474438E+02  0.15523759389E+03  0.00000000000E+00 0. -1.
</event>
<event>
 7    1  0.3001243E-009  0.7895054E+02  0.7561462E-02  0.1332056E+00
         -2   -1    0    0    0  501 -0.00000000000E+00  0.00000000000E+00  0.12930655227E+03  0.12930655227E+03  0.00000000000E+00 0. -1.
          2   -1    0    0  501    0  0.00000000000E+00 -0.00000000000E+00 -0.11245346195E+03  0.11245346195E+03  0.00000000000E+00 0.  1.
         25    2    1    2    0    0 -0.93734177887E+01  0.51696442229E+02 -0.72257849804E+00  0.13567651612E+03  0.12508881568E+03 0.  0.
          5    1    3    3  502    0 -0.10775624444E+02  0.26720156592E+02  0.61740833105E+02  0.68260411096E+02  0.41800000000E+01 0.  1.
         -5    1    3    3    0  502  0.14022066552E+01  0.24976285636E+02 -0.62463411603E+02  0.67416105026E+02  0.41800000000E+01 0.  1.
        -11    1    1    2    0    0  0.24565533368E+02  0.19037528564E+02 -0.19745507035E+01  0.31141479958E+02  0.00000000000E+00 0.  1.
         11    1    1    2    0    0 -0.15192115579E+02 -0.70733970793E+02  0.19550219520E+02  0.74942018142E+02  0.00000000000E+00 0. -1.
</event>
<event>
 7    1  0.3001243E-009  0.9300523E+02  0.7561462E-02  0.1295733E+00
          1   -1    0    0  501    0  0.00000000000E+00  0.00000000000E+00  0.29105669467E+03  0.29105669467E+03  0.00000000000E+00 0. -1.
         -1   -1    0    0    0  501 -0.00000000000E+00 -0.00000000000E+00 -0.59389361078E+02  0.59389361078E+02  0.00000000000E+00 0.  1.
         25    2    1    2    0    0  0.14074448069E+02 -0.40026948702E+02  0.56065847285E+02  0.14349328596E+03  0.12508675858E+03 0.  0.
          5    1    3    3  502    0 -0.21014151181E+02  0.20728846976E+02  0.66084862399E+02  0.72498007456E+02  0.41800000000E+01 0.  1.
         -5    1    3    3    0  502  0.35088599250E+02 -0.60755795678E+02 -0.10019015114E+02  0.70995278503E+02  0.41800000000E+01 0.  1.
        -11    1    1    2    0    0  0.22127197185E+02  0.44242712593E+02  0.15970489010E+03  0.16719055713E+03  0.00000000000E+00 0. -1.
         11    1    1    2    0    0 -0.36201645254E+02 -0.42157638908E+01  0.15896596208E+02  0.39762212655E+02  0.00000000000E+00 0.  1.
</event>
<event>
 7    1  0.3001243E-009  0.7405578E+02  0.7561462E-02  0.1346820E+00
          1   -1    0    0  501    0  0.00000000000E+00  0.00000000000E+00  0.45178763161E+03  0.45178763161E+03  0.00000000000E+00 0. -1.
         -1   -1    0    0    0  501 -0.00000000000E+00 -0.00000000000E+00 -0.46046532867E+02  0.46046532867E+02  0.00000000000E+00 0.  1.
         25    2    1    2    0    0 -0.39256708258E+02 -0.36221769747E+02  0.35504031065E+03  0.38020310212E+03  0.12509065085E+03 0.  0.
          5    1    3    3  502    0 -0.18294074970E+02  0.71690332736E+00 -0.35247617284E+01  0.19107157681E+02  0.41800000000E+01 0. -1.
         -5    1    3    3    0  502 -0.20962633288E+02 -0.36938673074E+02  0.35856507238E+03  0.36109594444E+03  0.41800000000E+01 0. -1.
        -11    1    1    2    0    0  0.39678940743E+02  0.55029172344E+02  0.47853098755E+01  0.68011229498E+02  0.00000000000E+00 0.  1.
         11    1    1    2    0    0 -0.42223248458E+00 -0.18807402597E+02  0.45915478219E+02  0.49619832858E+02  0.00000000000E+00 0. -1.
</event>
<event>
 7    1  0.3001243E-009  0.1160725E+03  0.7561462E-02  0.1249721E+00
         -1   -1    0    0    0  501 -0.00000000000E+00  0.00000000000E+00  0.70054860382E+02  0.70054860382E+02  0.00000000000E+00 0. -1.
          1   -1    0    0  501    0  0.00000000000E+00 -0.00000000000E+00 -0.27753535704E+03  0.27753535704E+03  0.00000000000E+00 0.  1.
         25    2    1    2    0    0 -0.54832472678E+02  0.63886421445E+02 -0.14465141705E+03  0.20894915109E+03  0.12509052875E+03 0.  0.
          5    1    3    3  502    0 -0.93486096054E+02  0.45429195804E+02 -0.79757348221E+02  0.13108077274E+03  0.41800000000E+01 0.  1.
         -5    1    3    3    0  502  0.38653623375E+02  0.18457225642E+02 -0.64894068830E+02  0.77868378356E+02  0.41800000000E+01 0.  1.
        -11    1    1    2    0    0  0.39501280515E+02 -0.36947534963E+02  0.13936260090E+02  0.55854192747E+02  0.00000000000E+00 0. -1.
         11    1    1    2    0    0  0.15331192163E+02 -0.26938886482E+02 -0.76765339698E+02  0.82786873579E+02  0.00000000000E+00 0.  1.
</event>
<event>
 7    1  0.3001243E-009  0.1106049E+03  0.7561462E-02  0.1259454E+00
         -2   -1    0    0    0  501 -0.00000000000E+00  0.00000000000E+00  0.33419638512E+03  0.33419638512E+03  0.00000000000E+00 0.  1.
          2   -1    0    0  501    0  0.00000000000E+00 -0.00000000000E+00 -0.46767696263E+02  0.46767696263E+02  0.00000000000E+00 0. -1.
         25    2    1    2    0    0  0.43002836186E+00 -0.33158917336E+02  0.22999011289E+03  0.26389521190E+03  0.12508210150E+03 0.  0.
          5    1    3    3  502    0  0.24694716448E+02 -0.73494420194E+02  0.10752474896E+03  0.13262843910E+03  0.41800000000E+01 0. -1.
         -5    1    3    3    0  502 -0.24264688086E+02  0.40335502858E+02  0.12246536393E+03  0.13126677280E+03  0.41800000000E+01 0. -1.
        -11    1    1    2    0    0  0.24532572357E+01 -0.31494736252E+02  0.16648129789E+01  0.31633976748E+02  0.00000000000E+00 0. -1.
         11    1    1    2    0    0 -0.28832855975E+01  0.64653653588E+02  0.55773762988E+02  0.85434892731E+02  0.00000000000E+00 0.  1.
</event>
<event>
 7    1  0.3001243E-009  0.1086217E+03  0.7561462E-02  0.1263144E+00
         -1   -1    0    0    0  501 -0.00000000000E+00  0.00000000000E+00  0.74806884451E+03  0.74806884451E+03  0.00000000000E+00 0.  1.
          1   -1    0    0  501    0  0.00000000000E+00 -0.00000000000E+00 -0.19100203170E+02  0.19100203170E+02  0.00000000000E+00 0. -1.
         25    2    1    2    0    0  0.12695965507E+01  0.14016410361E+01  0.44073866663E+03  0.45814984852E+03  0.12508850849E+03 0.  0.
          5    1    3    3  502    0  0.59076748239E+01 -0.59870086875E+02  0.16662715512E+03  0.17720442756E+03  0.41800000000E+01 0. -1.
         -5    1    3    3    0  502 -0.46380782732E+01  0.61271727911E+02  0.27411151152E+03  0.28094542096E+03  0.41800000000E+01 0. -1.
        -11    1    1    2    0    0  0.41831322193E+02 -0.22348716741E+02  0.63611917285E+02  0.79346081675E+02  0.00000000000E+00 0. -1.
         11    1    1    2    0    0 -0.43100918744E+02  0.20947075705E+02  0.22461805742E+03  0.22967311749E+03  0.00000000000E+00 0.  1.
</event>
<event>
 7    1  0.3001243E-009  0.1348357E+03  0.7561462E-02  0.1220452E+00
         -2   -1    0    0    0  501 -0.00000000000E+00  0.00000000000E+00  0.48677808194E+02  0.48677808194E+02  0.00000000000E+00 0. -1.
          2   -1    0    0  501    0  0.00000000000E+00 -0.00000000000E+00 -0.47891237768E+03  0.47891237768E+03  0.00000000000E+00 0.  1.
         25    2    1    2    0    0 -0.91405755066E+02  0.18985866090E+02 -0.14244192040E+03  0.21131309527E+03  0.12509215953E+03 0.  0.
          5    1    3    3  502    0 -0.76289395332E+02  0.69405146392E+02 -0.97095708185E+02  0.14171166195E+03  0.41800000000E+01 0.  1.
         -5    1    3    3    0  502 -0.15116359735E+02 -0.50419280302E+02 -0.45346212215E+02  0.69601433319E+02  0.41800000000E+01 0.  1.
        -11    1    1    2    0    0  0.78433510088E+02  0.12658003152E+02 -0.11277995754E+03  0.13795419301E+03  0.00000000000E+00 0. -1.
         11    1    1    2    0    0  0.12972244979E+02 -0.31643869242E+02 -0.17501269155E+03  0.17832289759E+03  0.00000000000E+00 0.  1.
</event>
<event>
 7    1  0.3001243E-009  0.1058942E+03  0.7561462E-02  0.1268368E+00
          2   -1    0    0  501    0  0.00000000000E+00  0.00000000000E+00  0.69832480758E+02  0.69832480758E+02  0.00000000000E+00 0. -1.
         -2   -1    0    0    0  501 -0.00000000000E+00 -0.00000000000E+00 -0.21567865520E+03  0.21567865520E+03  0.00000000000E+00 0.  1.
         25    2    1    2    0    0 -0.55051281893E+02 -0.76568515091E+01 -0.94207427641E+02  0.16616987261E+03  0.12509243033E+03 0.  0.
          5    1    3    3  502    0 -0.86962727542E+02 -0.33731046928E+02 -0.51309481409E+02  0.10653841932E+03  0.41800000000E+01 0. -1.
         -5    1    3    3    0  502  0.31911445650E+02  0.26074195419E+02 -0.42897946232E+02  0.59631453287E+02  0.41800000000E+01 0. -1.
        -11    1    1    2    0    0  0.39554795456E+02  0.30114154983E+02 -0.70432470537E+02  0.86210075280E+02  0.00000000000E+00 0.  1.
         11    1    1    2    0    0  0.15496486437E+02 -0.22457303474E+02  0.18793723736E+02  0.33131188072E+02  0.00000000000E+00 0. -1.
</event>
<event>
 7    1  0.3001243E-009  0.2327683E+03  0.7561462E-02  0.1124706E+00
          4   -1    0    0  501    0  0.00000000000E+00  0.00000000000E+00  0.11105855038E+03  0.11105855038E+03  0.00000000000E+00 0. -1.
         -4   -1    0    0    0  501 -0.00000000000E+00 -0.00000000000E+00 -0.52194691035E+03  0.52194691035E+03  0.00000000000E+00 0.  1.
         25    2    1    2    0    0  0.78278970436E+02  0.19323859674E+03 -0.26907028220E+03  0.36263373417E+03  0.12504261636E+03 0.  0.
          5    1    3    3  502    0  0.52567086181E+02  0.20288624530E+03 -0.25872838248E+03  0.33299245544E+03  0.41800000000E+01 0. -1.
         -5    1    3    3    0  502  0.25711884255E+02 -0.96476485535E+01 -0.10341899724E+02  0.29641278725E+02  0.41800000000E+01 0. -1.
        -11    1    1    2    0    0 -0.71296333868E+02 -0.55855702469E+02 -0.38892152401E+02  0.98567876307E+02  0.00000000000E+00 0.  1.
         11    1    1    2    0    0 -0.69826365688E+01 -0.13738289427E+03 -0.10292592536E+03  0.17180385026E+03  0.00000000000E+00 0. -1.
</event>
<event>
 7    1  0.3001243E-009  0.1700765E+03  0.7561462E-02  0.1177768E+00
         -2   -1    0    0    0  501 -0.00000000000E+00  0.00000000000E+00  0.44961563894E+02  0.44961563894E+02  0.00000000000E+00 0.  1.
          2   -1    0    0  501    0  0.00000000000E+00 -0.00000000000E+00 -0.81958628208E+03  0.81958628208E+03  0.00000000000E+00 0. -1.
         25    2    1    2    0    0  0.86603939381E+02 -0.97228995186E+02 -0.34140735037E+03  0.38621297951E+03  0.12509103421E+03 0.  0.
          5    1    3    3  502    0  0.87365341512E+02 -0.65577928977E+02 -0.11926230703E+03  0.16178423268E+03  0.41800000000E+01 0. -1.
         -5    1    3    3    0  502 -0.76140213060E+00 -0.31651066208E+02 -0.22214504334E+03  0.22442874683E+03  0.41800000000E+01 0. -1.
        -11    1    1    2    0    0  0.28918381302E+02  0.76167518582E+02 -0.22487677475E+03  0.23918053325E+03  0.00000000000E+00 0. -1.
         11    1    1    2    0    0 -0.11552232068E+03  0.21061476604E+02 -0.20834059307E+03  0.23915433321E+03  0.00000000000E+00 0.  1.
</event>
<event>
 7    1  0.3001243E-009  0.1131441E+03  0.7561462E-02  0.1254856E+00
          1   -1    0    0  501    0  0.00000000000E+00  0.00000000000E+00  0.73939158987E+03  0.73939158987E+03  0.00000000000E+00 0. -1.
         -1   -1    0    0    0  501 -0.00000000000E+00 -0.00000000000E+00 -0.21078128334E+02  0.21078128334E+02  0.00000000000E+00 0.  1.
         25    2    1    2    0    0 -0.12770543134E+02  0.58214990351E+02  0.33730740323E+03  0.36465839229E+03  0.12508951563E+03 0.  0.
          5    1    3    3  502    0 -0.66508821813E+02  0.35347501251E+02  0.23465389591E+03  0.24648081566E+03  0.41800000000E+01 0.  1.
         -5    1    3    3    0  502  0.53738278679E+02  0.22867489100E+02  0.10265350732E+03  0.11817757663E+03  0.41800000000E+01 0.  1.
        -11    1    1    2    0    0 -0.11695863063E+02  0.12712545998E+02  0.17302502658E+02  0.24449511994E+02  0.00000000000E+00 0.  1.
         11    1    1    2    0    0  0.24466406196E+02 -0.70927536348E+02  0.36370355565E+03  0.37136181392E+03  0.00000000000E+00 0. -1.
</event>
<event>
 7    1  0.3001243E-009  0.1939403E+03  0.7561462E-02  0.1154955E+00
         -2   -1    0    0    0  501 -0.00000000000E+00  0.00000000000E+00  0.95839353035E+02  0.95839353035E+02  0.00000000000E+00 0.  1.
          2   -1    0    0  501    0  0.00000000000E+00 -0.00000000000E+00 -0.53798039496E+03  0.53798039496E+03  0.00000000000E+00 0. -1.
         25    2    1    2    0    0 -0.14986390379E+03  0.60894242595E+02 -0.67247599683E+02  0.21526068884E+03  0.12509047148E+03 0.  0.
          5    1    3    3  502    0 -0.16156373597E+03  0.79347541458E+02 -0.69296486639E+02  0.19292057582E+03  0.41800000000E+01 0. -1.
         -5    1    3    3    0  502  0.11699832176E+02 -0.18453298863E+02  0.20488869567E+01  0.22340113018E+02  0.41800000000E+01 0. -1.
        -11    1    1    2    0    0  0.15315974051E+03 -0.75400252940E+02 -0.35268625102E+03  0.39182993239E+03  0.00000000000E+00 0. -1.
         11    1    1    2    0    0 -0.32958367149E+01  0.14506010345E+02 -0.22207191221E+02  0.26729126767E+02  0.00000000000E+00 0.  1.
</event>
<event>
 7    1  0.3001243E-009  0.1185868E+03  0.7561462E-02  0.1245447E+00
          1   -1    0    0  501    0  0.00000000000E+00  0.00000000000E+00  0.15697240194E+03  0.15697240194E+03  0.00000000000E+00 0. -1.
         -1   -1    0    0    0  501 -0.00000000000E+00 -0.00000000000E+00 -0.13044524330E+03  0.13044524330E+03  0.00000000000E+00 0.  1.
         25    2    1    2    0    0  0.57807329613E+02  0.12707253366E+02 -0.55129079702E+02  0.14896192571E+03  0.12508908121E+03 0.  0.
          5    1    3    3  502    0 -0.34326476865E+02  0.96440099217E+01 -0.42799917916E+02  0.55862503658E+02  0.41800000000E+01 0.  1.
         -5    1    3    3    0  502  0.92133806478E+02  0.30632434440E+01 -0.12329161786E+02  0.93099422054E+02  0.41800000000E+01 0.  1.
        -11    1    1    2    0    0 -0.74445892996E+02 -0.34107467416E+02  0.73792188945E+02  0.11023065575E+03  0.00000000000E+00 0. -1.
         11    1    1    2    0    0  0.16638563383E+02  0.21400214050E+02  0.78640493967E+01  0.28225063787E+02  0.00000000000E+00 0.  1.
</event>
<event>
 7    1  0.3001243E-009  0.1530315E+03  0.7561462E-02  0.1196797E+00
          1   -1    0    0  501    0  0.00000000000E+00  0.00000000000E+00  0.18708370388E+03  0.18708370388E+03  0.00000000000E+00 0. -1.
         -1   -1    0    0    0  501 -0.00000000000E+00 -0.00000000000E+00 -0.19522782618E+03  0.19522782618E+03  0.00000000000E+00 0.  1.
         25    2    1    2    0    0  0.20083158778E+02 -0.13750637419E+03  0.70451452021E+02  0.19980569429E+03  0.12509025608E+03 0.  0.
          5    1    3    3  502    0  0.31279083659E+02 -0.28838989840E+02  0.79338085649E+02  0.90122542375E+02  0.41800000000E+01 0. -1.
         -5    1    3    3    0  502 -0.11195924881E+02 -0.10866738435E+03 -0.88866336282E+01  0.10968315191E+03  0.41800000000E+01 0. -1.
        -11    1    1    2    0    0 -0.39642105147E+02  0.47429205189E+02 -0.69160511361E+00  0.61818317051E+02  0.00000000000E+00 0.  1.
         11    1    1    2    0    0  0.19558946369E+02  0.90077169003E+02 -0.77903969203E+02  0.12068751873E+03  0.00000000000E+00 0. -1.
</event>
<event>
 7    1  0.3001243E-009  0.8761378E+02  0.7561462E-02  0.1308735E+00
         -2   -1    0    0    0  501 -0.00000000000E+00  0.00000000000E+00  0.35742252183E+02  0.35742252183E+02  0.00000000000E+00 0.  1.
          2   -1    0    0  501    0  0.00000000000E+00 -0.00000000000E+00 -0.41309575089E+03  0.41309575089E+03  0.00000000000E+00 0. -1.
         25    2    1    2    0    0  0.37930211899E+02 -0.17206488550E+02 -0.26065692259E+03  0.29210512600E+03  0.12509440082E+03 0.  0.
          5    1    3    3  502    0  0.68965311306E+02 -0.14147487373E+02 -0.24859940421E+03  0.25840956201E+03  0.41800000000E+01 0. -1.
         -5    1    3    3    0  502 -0.31035099408E+02 -0.30590011773E+01 -0.12057518385E+02  0.33695563997E+02  0.41800000000E+01 0. -1.
        -11    1    1    2    0    0 -0.48329982269E+02 -0.51274099005E+01 -0.13224526409E+02  0.50368299725E+02  0.00000000000E+00 0.  1.
         11    1    1    2    0    0  0.10399770371E+02  0.22333898451E+02 -0.10347204970E+03  0.10636457734E+03  0.00000000000E+00 0. -1.
</event>
<event>
 7    1  0.3001243E-009  0.1032099E+03  0.7561462E-02  0.1273687E+00
          3   -1    0    0  501    0  0.00000000000E+00  0.00000000000E+00  0.49859262406E+03  0.49859262406E+03  0.00000000000E+00 0. -1.
         -3   -1    0    0    0  501 -0.00000000000E+00 -0.00000000000E+00 -0.36754248053E+02  0.36754248053E+02  0.00000000000E+00 0.  1.
         25    2    1    2    0    0 -0.59068015950E+02 -0.57279398461E+02  0.20921229103E+03  0.25726889595E+03  0.12509013595E+03 0.  0.
          5    1    3    3  502    0 -0.19338499204E+02 -0.44146539438E+02  0.48442764043E+01  0.48619275084E+02  0.41800000000E+01 0. -1.
         -5    1    3    3    0  502 -0.39729516746E+02 -0.13132859022E+02  0.20436801462E+03  0.20864962087E+03  0.41800000000E+01 0. -1.
        -11    1    1    2    0    0  0.68144338078E+02  0.71721862841E+02  0.20890088139E+03  0.23114336388E+03  0.00000000000E+00 0.  1.
         11    1    1    2    0    0 -0.90763221283E+01 -0.14442464380E+02  0.43725203585E+02  0.46934612274E+02  0.00000000000E+00 0. -1.
</event>
<event>
 7    1  0.3001243E-009  0.1414339E+03  0.7561462E-02  0.1211412E+00
          1   -1    0    0  501    0  0.00000000000E+00  0.00000000000E+00  0.10034368720E+04  0.10034368720E+04  0.00000000000E+00 0. -1.
         -1   -1    0    0    0  501 -0.00000000000E+00 -0.00000000000E+00 -0.25852308249E+02  0.25852308249E+02  0.00000000000E+00 0.  1.
         25    2    1    2    0    0 -0.86945297379E+01 -0.11484971569E+03  0.53745000489E+03  0.56370310683E+03  0.12507051152E+03 0.  0.
          5    1    3    3  502    0  0.53778744977E+02 -0.39492238542E+02  0.28902944575E+03  0.29666021511E+03  0.41800000000E+01 0. -1.
         -5    1    3    3    0  502 -0.62473274715E+02 -0.75357477152E+02  0.24842055913E+03  0.26704289172E+03  0.41800000000E+01 0. -1.
        -11    1    1    2    0    0  0.17954446710E+02  0.72545203096E+02  0.39872404246E+03  0.40566738923E+03  0.00000000000E+00 0. -1.
         11    1    1    2    0    0 -0.92599169719E+01  0.42304512598E+02  0.41410516454E+02  0.59918684243E+02  0.00000000000E+00 0.  1.
</event>
<event>
 7    1  0.3001243E-009  0.9037251E+02  0.7561462E-02  0.1301952E+00
          3   -1    0    0  501    0  0.00000000000E+00  0.00000000000E+00  0.12675759733E+03  0.12675759733E+03  0.00000000000E+00 0. -1.
         -3   -1    0    0    0  501 -0.00000000000E+00 -0.00000000000E+00 -0.12257690969E+03  0.12257690969E+03  0.00000000000E+00 0.  1.
         25    2    1    2    0    0 -0.48476648360E+02  0.11593026120E+02  0.31265088454E+02  0.13823654135E+03  0.12508977543E+03 0.  0.
          5    1    3    3  502    0 -0.76022821548E+02 -0.10675287062E+02 -0.16491146977E+02  0.78631173707E+02  0.41800000000E+01 0.  1.
         -5    1    3    3    0  502  0.27546173187E+02  0.22268313182E+02  0.47756235432E+02  0.59605367643E+02  0.41800000000E+01 0.  1.
        -11    1    1    2    0    0  0.23386854471E+02 -0.29298177629E+02  0.28839806622E+02  0.47297596349E+02  0.00000000000E+00 0. -1.
         11    1    1    2    0    0  0.25089793889E+02  0.17705151508E+02 -0.55924207440E+02  0.63800369318E+02  0.00000000000E+00 0.  1.
</event>
<event>
 7    1  0.3001243E-009  0.2657846E+03  0.7561462E-02  0.1103717E+00
          1   -1    0    0  501    0  0.00000000000E+00  0.00000000000E+00  0.77982760303E+03  0.77982760303E+03  0.00000000000E+00 0. -1.
         -1   -1    0    0    0  501 -0.00000000000E+00 -0.00000000000E+00 -0.99208155160E+02  0.99208155160E+02  0.00000000000E+00 0.  1.
         25    2    1    2    0    0  0.23733945673E+03 -0.93215930266E+02  0.31436938336E+03  0.42366957923E+03  0.12509426763E+03 0.  0.
          5    1    3    3  502    0  0.29322475306E+02 -0.52499345220E+02  0.12763165574E+03  0.14114992297E+03  0.41800000000E+01 0.  1.
         -5    1    3    3    0  502  0.20801698142E+03 -0.40716585047E+02  0.18673772762E+03  0.28251965626E+03  0.41800000000E+01 0.  1.
        -11    1    1    2    0    0 -0.17947427227E+03  0.91362730323E+02  0.22096719475E+03  0.29897268111E+03  0.00000000000E+00 0.  1.
         11    1    1    2    0    0 -0.57865184462E+02  0.18531999430E+01  0.14528286976E+03  0.15639349785E+03  0.00000000000E+00 0. -1.
</event>
<event>
 7    1  0.3001243E-009  0.6307735E+02  0.7561462E-02  0.1385353E+00
          1   -1    0    0  501    0  0.00000000000E+00  0.00000000000E+00  0.88840267835E+02  0.88840267835E+02  0.00000000000E+00 0. -1.
         -1   -1    0    0    0  501 -0.00000000000E+00 -0.00000000000E+00 -0.17779734361E+03  0.17779734361E+03  0.00000000000E+00 0.  1.
         25    2    1    2    0    0  0.20288468933E+02  0.28718963842E+02 -0.12699482541E+03  0.18168929146E+03  0.12508761768E+03 0.  0.
          5    1    3    3  502    0 -0.12253016056E+02  0.42331505504E+01  0.22713416958E+02  0.26484479907E+02  0.41800000000E+01 0. -1.
         -5    1    3    3    0  502  0.32541484989E+02  0.24485813291E+02 -0.14970824237E+03  0.15520481156E+03  0.41800000000E+01 0. -1.
        -11    1    1    2    0    0  0.60573855547E+01  0.17431570619E+02 -0.17873310562E+01  0.18540391752E+02  0.00000000000E+00 0.  1.
         11    1    1    2    0    0 -0.26345854488E+02 -0.46150534461E+02  0.39825080690E+02  0.66407928229E+02  0.00000000000E+00 0. -1.
</event>
<event>
 7    1  0.3001243E-009  0.8235965E+02  0.7561462E-02  0.1322485E+00
         -1   -1    0    0    0  501 -0.00000000000E+00  0.00000000000E+00  0.45828394271E+03  0.45828394271E+03  0.00000000000E+00 0.  1.
          1   -1    0    0  501    0  0.00000000000E+00 -0.00000000000E+00 -0.34894399227E+02  0.34894399227E+02  0.00000000000E+00 0. -1.
         25    2    1    2    0    0 -0.37168147925E+01  0.13471755653E+02  0.36765561105E+03  0.38860496618E+03  0.12509144051E+03 0.  0.
          5    1    3    3  502    0 -0.48730835787E+02 -0.21743578203E+02  0.27102859195E+03  0.27626336638E+03  0.41800000000E+01 0.  1.
         -5    1    3    3    0  502  0.45014020994E+02  0.35215333856E+02  0.96627019094E+02  0.11234159979E+03  0.41800000000E+01 0.  1.
        -11    1    1    2    0    0  0.27197084640E+02 -0.80245141032E+00  0.69438640549E+02  0.74579153538E+02  0.00000000000E+00 0.  1.
         11    1    1    2    0    0 -0.23480269847E+02 -0.12669304242E+02 -0.13704708117E+02  0.29994222221E+02  0.00000000000E+00 0. -1.
</event>
<event>
 7    1  0.3001243E-009  0.8096569E+02  0.7561462E-02  0.1326333E+00
          1   -1    0    0  501    0  0.00000000000E+00  0.00000000000E+00  0.30328747939E+02  0.30328747939E+02  0.00000000000E+00 0. -1.
         -1   -1    0    0    0  501 -0.00000000000E+00 -0.00000000000E+00 -0.92618966216E+03  0.92618966216E+03  0.00000000000E+00 0.  1.
         25    2    1    2    0    0  0.78356712737E+02 -0.15716054876E+02 -0.75892755342E+03  0.77330782118E+03  0.12508871311E+03 0.  0.
          5    1    3    3  502    0  0.79955160523E+01  0.14928346855E+01  0.16370401028E+01  0.92902708593E+01  0.41800000000E+01 0.  1.
         -5    1    3    3    0  502  0.70361196684E+02 -0.17208889561E+02 -0.76056459352E+03  0.76401755032E+03  0.41800000000E+01 0.  1.
        -11    1    1    2    0    0 -0.20394055822E+02  0.94613317423E+00 -0.11903806332E+03  0.12077612843E+03  0.00000000000E+00 0.  1.
         11    1    1    2    0    0 -0.57962656915E+02  0.14769921701E+02 -0.17895297479E+02  0.62434460481E+02  0.00000000000E+00 0. -1.
</event>
<event>
 7    1  0.3001243E-009  0.1403434E+03  0.7561462E-02  0.1212868E+00
          3   -1    0    0  501    0  0.00000000000E+00  0.00000000000E+00  0.57804117093E+03  0.57804117093E+03  0.00000000000E+00 0. -1.
         -3   -1    0    0    0  501 -0.00000000000E+00 -0.00000000000E+00 -0.51621375811E+02  0.51621375811E+02  0.00000000000E+00 0.  1.
         25    2    1    2    0    0  0.11754274415E+03 -0.30763445022E+02  0.38262015651E+03  0.42048766058E+03  0.12509597229E+03 0.  0.
          5    1    3    3  502    0  0.68026016780E+02 -0.50698492762E+02  0.34435591918E+03  0.35467780816E+03  0.41800000000E+01 0. -1.
         -5    1    3    3    0  502  0.49516727368E+02  0.19935047740E+02  0.38264237332E+02  0.65809852425E+02  0.41800000000E+01 0. -1.
        -11    1    1    2    0    0 -0.28473385716E+01  0.27305661777E+02  0.31173585910E+01  0.27630136203E+02  0.00000000000E+00 0.  1.
         11    1    1    2    0    0 -0.11469540558E+03  0.34577832455E+01  0.14068228002E+03  0.18154474996E+03  0.00000000000E+00 0. -1.
</event>
<event>
 7    1  0.3001243E-009  0.9657674E+02  0.7561462E-02  0.1287664E+00
         -2   -1    0    0    0  501 -0.00000000000E+00  0.00000000000E+00  0.50007721927E+02  0.50007721927E+02  0.00000000000E+00 0.  1.
          2   -1    0    0  501    0  0.00000000000E+00 -0.00000000000E+00 -0.23508162419E+03  0.23508162419E+03  0.00000000000E+00 0. -1.
         25    2    1    2    0    0 -0.19326950786E+02  0.17407194672E+02 -0.10298631246E+03  0.16410329726E+03  0.12508864922E+03 0.  0.
          5    1    3    3  502    0  0.31347430281E+02  0.44740497407E+02 -0.11588360479E+02  0.56001214201E+02  0.41800000000E+01 0.  1.
         -5    1    3    3    0  502 -0.50674381067E+02 -0.27333302735E+02 -0.91397951981E+02  0.10810208306E+03  0.41800000000E+01 0.  1.
        -11    1    1    2    0    0 -0.97090153410E+01 -0.41677369385E+02 -0.17717929044E+02  0.46316229416E+02  0.00000000000E+00 0. -1.
         11    1    1    2    0    0  0.29035966127E+02  0.24270174713E+02 -0.64369660757E+02  0.74669819442E+02  0.00000000000E+00 0.  1.
</event>
<event>
 7    1  0.3001243E-009  0.6618331E+02  0.7561462E-02  0.1373575E+00
          1   -1    0    0  501    0  0.00000000000E+00  0.00000000000E+00  0.66863854852E+02  0.66863854852E+02  0.00000000000E+00 0. -1.
         -1   -1    0    0    0  501 -0.00000000000E+00 -0.00000000000E+00 -0.20517176221E+03  0.20517176221E+03  0.00000000000E+00 0.  1.
         25    2    1    2    0    0  0.19550316996E+02  0.17549864737E+02 -0.38181648034E+02  0.13339895190E+03  0.12508888629E+03 0.  0.
          5    1    3    3  502    0  0.13549296400E+02  0.37242730895E+02 -0.78443905085E+02  0.87985925480E+02  0.41800000000E+01 0.  1.
         -5    1    3    3    0  502  0.60010205952E+01 -0.19692866157E+02  0.40262257052E+02  0.45413026419E+02  0.41800000000E+01 0.  1.
        -11    1    1    2    0    0  0.93670321122E+01 -0.36005563323E+02 -0.50306349030E+01  0.37542631345E+02  0.00000000000E+00 0. -1.
         11    1    1    2    0    0 -0.28917349108E+02  0.18455698585E+02 -0.95095624422E+02  0.10109403382E+03  0.00000000000E+00 0.  1.
</event>
<event>
 7    1  0.3001243E-009  0.9503916E+02  0.7561462E-02  0.1291088E+00
          2   -1    0    0  501    0  0.00000000000E+00  0.00000000000E+00  0.25323789358E+03  0.25323789358E+03  0.00000000000E+00 0. -1.
         -2   -1    0    0    0  501 -0.00000000000E+00 -0.00000000000E+00 -0.48276878762E+02  0.48276878762E+02  0.00000000000E+00 0.  1.
         25    2    1    2    0    0 -0.42800205829E+01  0.94004064506E+01  0.14680658552E+03  0.19314756185E+03  0.12508845223E+03 0.  0.
          5    1    3    3  502    0  0.25738402472E+02  0.45752201363E+02  0.17566397553E+02  0.55513782201E+02  0.41800000000E+01 0. -1.
         -5    1    3    3    0  502 -0.30018423054E+02 -0.36351794912E+02  0.12924018797E+03  0.13763377965E+03  0.41800000000E+01 0. -1.
        -11    1    1    2    0    0 -0.41717357678E+02  0.46920698852E+01  0.17891522895E+02  0.45633979039E+02  0.00000000000E+00 0. -1.
         11    1    1    2    0    0  0.45997378261E+02 -0.14092476336E+02  0.40262906408E+02  0.62733231453E+02  0.00000000000E+00 0.  1.
</event>
<event>
 7    1  0.3001243E-009  0.9359524E+02  0.7561462E-02  0.1294372E+00
          1   -1    0    0  501    0  0.00000000000E+00  0.00000000000E+00  0.58592465220E+03  0.58592465220E+03  0.00000000000E+00 0. -1.
         -1   -1    0    0    0  501 -0.00000000000E+00 -0.00000000000E+00 -0.24157530826E+02  0.24157530826E+02  0.00000000000E+00 0.  1.
         25    2    1    2    0    0  0.14406246115E+02 -0.28317872753E+02  0.41425318019E+03  0.43387803714E+03  0.12504004150E+03 0.  0.
          5    1    3    3  502    0  0.47421748869E+02 -0.64295795004E+02  0.25822224235E+03  0.27033122344E+03  0.41800000000E+01 0.  1.
         -5    1    3    3    0  502 -0.33015502754E+02  0.35977922251E+02  0.15603093783E+03  0.16354681370E+03  0.41800000000E+01 0.  1.
        -11    1    1    2    0    0  0.10036842547E+02  0.31930754688E+02  0.14775056675E+03  0.15149436055E+03  0.00000000000E+00 0. -1.
         11    1    1    2    0    0 -0.24443088662E+02 -0.36128819345E+01 -0.23662556818E+00  0.24709785326E+02  0.00000000000E+00 0.  1.
</event>
<event>
 7    1  0.3001243E-009  0.1332931E+03  0.7561462E-02  0.1222650E+00
         -2   -1    0    0    0  501 -0.00000000000E+00  0.00000000000E+00  0.29848574768E+03  0.29848574768E+03  0.00000000000E+00 0.  1.
          2   -1    0    0  501    0  0.00000000000E+00 -0.00000000000E+00 -0.74516618608E+02  0.74516618608E+02  0.00000000000E+00 0. -1.
         25    2    1    2    0    0 -0.85972714143E+02  0.55602297909E+02  0.13524941014E+03  0.21076111423E+03  0.12507965950E+03 0.  0.
          5    1    3    3  502    0  0.25150751370E+02  0.38916849054E+02  0.23086385806E+02  0.51937799764E+02  0.41800000000E+01 0. -1.
         -5    1    3    3    0  502 -0.11112346551E+03  0.16685448854E+02  0.11216302433E+03  0.15882331447E+03  0.41800000000E+01 0. -1.
        -11    1    1    2    0    0  0.65496919569E+02 -0.23593214771E+02  0.10068056565E+03  0.12240532078E+03  0.00000000000E+00 0.  1.
         11    1    1    2    0    0  0.20475794574E+02 -0.32009083138E+02 -0.11960846711E+02  0.39835931279E+02  0.00000000000E+00 0. -1.
</event>
<event>
 7    1  0.3001243E-009  0.1405205E+03  0.7561462E-02  0.1212630E+00
         -2   -1    0    0    0  501 -0.00000000000E+00  0.00000000000E+00  0.42388409948E+02  0.42388409948E+02  0.00000000000E+00 0.  1.
          2   -1    0    0  501    0  0.00000000000E+00 -0.00000000000E+00 -0.54885012337E+03  0.54885012337E+03  0.00000000000E+00 0. -1.
         25    2    1    2    0    0  0.60192703756E+02 -0.70880829466E+02 -0.18396998205E+03  0.24112184512E+03  0.12509011283E+03 0.  0.
          5    1    3    3  502    0  0.58650079043E+02 -0.10447751722E+03 -0.12564305946E+03  0.17366356603E+03  0.41800000000E+01 0. -1.
         -5    1    3    3    0  502  0.15426247132E+01  0.33596687754E+02 -0.58326922592E+02  0.67458279092E+02  0.41800000000E+01 0. -1.
        -11    1    1    2    0    0  0.13844781288E+02 -0.10401063866E+02 -0.12934074636E+02  0.21613662002E+02  0.00000000000E+00 0.  1.
         11    1    1    2    0    0 -0.74037485044E+02  0.81281893333E+02 -0.30955765674E+03  0.32850302620E+03  0.00000000000E+00 0. -1.
</event>
<event>
 7    1  0.3001243E-009  0.1975430E+03  0.7561462E-02  0.1151829E+00
          1   -1    0    0  501    0  0.00000000000E+00  0.00000000000E+00  0.24430099049E+03  0.24430099049E+03  0.00000000000E+00 0. -1.
         -1   -1    0    0    0  501 -0.00000000000E+00 -0.00000000000E+00 -0.20118537194E+03  0.20118537194E+03  0.00000000000E+00 0.  1.
         25    2    1    2    0    0  0.16554243708E+03 -0.41306033555E+02 -0.68223537160E+02  0.22228785892E+03  0.12508778644E+03 0.  0.
          5    1    3    3  502    0  0.15235640676E+03 -0.71558923614E+02 -0.28996506532E+02  0.17085497951E+03  0.41800000000E+01 0.  1.
         -5    1    3    3    0  502  0.13186030318E+02  0.30252890059E+02 -0.39227030628E+02  0.51432879409E+02  0.41800000000E+01 0.  1.
        -11    1    1    2    0    0 -0.11019040970E+03 -0.18746075002E+02  0.64719644494E+02  0.12915871671E+03  0.00000000000E+00 0.  1.
         11    1    1    2    0    0 -0.55352027380E+02  0.60052108557E+02  0.46619511219E+02  0.94039786811E+02  0.00000000000E+00 0. -1.
</event>
<event>
 7    1  0.3001243E-009  0.1140313E+03  0.7561462E-02  0.1253282E+00
          1   -1    0    0  501    0  0.00000000000E+00  0.00000000000E+00  0.25899118899E+03  0.25899118899E+03  0.00000000000E+00 0. -1.
         -1   -1    0    0    0  501 -0.00000000000E+00 -0.00000000000E+00 -0.64973137984E+02  0.64973137984E+02  0.00000000000E+00 0.  1.
         25    2    1    2    0    0 -0.26361805764E+02 -0.65293504693E+02  0.10329379497E+03  0.17684798527E+03  0.12508962889E+03 0.  0.
          5    1    3    3  502    0 -0.13802248443E+02 -0.10270625971E+03  0.71075266972E+02  0.12573083879E+03  0.41800000000E+01 0.  1.
         -5    1    3    3    0  502 -0.12559557321E+02  0.37412755021E+02  0.32218527996E+02  0.51117146484E+02  0.41800000000E+01 0.  1.
        -11    1    1    2    0    0 -0.12715157066E+02  0.27513823287E+02  0.87574738349E+02  0.92671573246E+02  0.00000000000E+00 0. -1.
         11    1    1    2    0    0  0.39076962829E+02  0.37779681406E+02  0.31495176918E+01  0.54444768461E+02  0.00000000000E+00 0.  1.
</event>
<event>
 6    1  0.3001243E-009  0.1361633E+03  0.7561462E-02  0.1218587E+00
         -2   -1    0    0    0  501 -0.00000000000E+00  0.00000000000E+00  0.75377592481E+02  0.75377592481E+02  0.00000000000E+00 0.  1.
          2   -1    0    0  501    0  0.00000000000E+00 -0.00000000000E+00 -0.33358539030E+03  0.33358539030E+03  0.00000000000E+00 0. -1.
          5    1    1    2  502    0 -0.22933689131E+02 -0.20688065109E+02 -0.11604050500E+03  0.12015332428E+03  0.41800000000E+01 0. -1.
         -5    1    1    2    0  502  0.46602012031E+02 -0.91323241969E+02 -0.37474812032E+02  0.10924063340E+03  0.41800000000E+01 0. -1.
        -11    1    1    2    0    0  0.17465258706E+02 -0.17740611004E+01  0.27356880554E+01  0.17767007164E+02  0.00000000000E+00 0.  1.
         11    1    1    2    0    0 -0.41133581605E+02  0.11378536818E+03 -0.10742816885E+03  0.16180201794E+03  0.00000000000E+00 0. -1.
</event>
<event>
 7    1  0.3001243E-009  0.1433432E+03  0.7561462E-02  0.1208900E+00
          1   -1    0    0  501    0  0.00000000000E+00  0.00000000000E+00  0.21044119415E+03  0.21044119415E+03  0.00000000000E+00 0. -1.
         -1   -1    0    0    0  501 -0.00000000000E+00 -0.00000000000E+00 -0.11360720623E+03  0.11360720623E+03  0.00000000000E+00 0.  1.
         25    2    1    2    0    0 -0.10494739783E+03  0.43636738459E+02  0.51655484095E+02  0.17673092385E+03  0.12508960450E+03 0.  0.
          5    1    3    3  502    0 -0.10158368860E+03  0.81210456841E+02  0.32049451932E+02  0.13401128258E+03  0.41800000000E+01 0.  1.
         -5    1    3    3    0  502 -0.33637092275E+01 -0.37573718382E+02  0.19606032163E+02  0.42719641267E+02  0.41800000000E+01 0.  1.
        -11    1    1    2    0    0  0.54641421814E+02 -0.44139229058E+01  0.60573401549E+02  0.81696417722E+02  0.00000000000E+00 0. -1.
         11    1    1    2    0    0  0.50305976015E+02 -0.39222815553E+02 -0.15394897729E+02  0.65621058806E+02  0.00000000000E+00 0.  1.
</event>
<event>
 7    1  0.3001243E-009  0.1175331E+03  0.7561462E-02  0.1247223E+00
          2   -1    0    0  501    0  0.00000000000E+00  0.00000000000E+00  0.28953082059E+03  0.28953082059E+03  0.00000000000E+00 0. -1.
         -2   -1    0    0    0  501 -0.00000000000E+00 -0.00000000000E+00 -0.11007422161E+03  0.11007422161E+03  0.00000000000E+00 0.  1.
         25    2    1    2    0    0 -0.29656938822E+02  0.74124911197E+02 -0.35555574353E+02  0.15259744787E+03  0.12509094990E+03 0.  0.
          5    1    3    3  502    0 -0.77882990815E+02  0.57830220665E+02 -0.19281799598E+02  0.98991690945E+02  0.41800000000E+01 0.  1.
         -5    1    3    3    0  502  0.48226051993E+02  0.16294690532E+02 -0.16273774754E+02  0.53605756922E+02  0.41800000000E+01 0.  1.
        -11    1    1    2    0    0  0.23262989720E+02 -0.15572160985E+02  0.44289544150E+01  0.28342098116E+02  0.00000000000E+00 0.  1.
         11    1    1    2    0    0  0.63939491020E+01 -0.58552750213E+02  0.21058321892E+03  0.21866549622E+03  0.00000000000E+00 0. -1.
</event>
<event>
 7    1  0.3001243E-009  0.6989480E+02  0.7561462E-02  0.1360451E+00
         -4   -1    0    0    0  501 -0.00000000000E+00  0.00000000000E+00  0.18351534589E+03  0.18351534589E+03  0.00000000000E+00 0.  1.
          4   -1    0    0  501    0  0.00000000000E+00 -0.00000000000E+00 -0.70134143904E+02  0.70134143904E+02  0.00000000000E+00 0. -1.
         25    2    1    2    0    0 -0.25700838503E+02  0.64223434745E+01  0.79478438978E+02  0.15055196715E+03  0.12508914003E+03 0.  0.
          5    1    3    3  502    0 -0.36583733257E+02  0.37591501910E+00 -0.25477117925E+02  0.44777972139E+02  0.41800000000E+01 0.  1.
         -5    1    3    3    0  502  0.10882894754E+02  0.60464284554E+01  0.10495555690E+03  0.10577399501E+03  0.41800000000E+01 0.  1.
        -11    1    1    2    0    0  0.26318727977E+02  0.37550832750E+02 -0.26217801415E+01  0.45930536832E+02  0.00000000000E+00 0. -1.
         11    1    1    2    0    0 -0.61788947432E+00 -0.43973176225E+02  0.36524543147E+02  0.57166985812E+02  0.00000000000E+00 0.  1.
</event>
<event>
 7    1  0.3001243E-009  0.1137889E+03  0.7561462E-02  0.1253710E+00
          1   -1    0    0  501    0  0.00000000000E+00  0.00000000000E+00  0.59468512287E+03  0.59468512287E+03  0.00000000000E+00 0. -1.
         -1   -1    0    0    0  501 -0.00000000000E+00 -0.00000000000E+00 -0.32057397169E+02  0.32057397169E+02  0.00000000000E+00 0.  1.
         25    2    1    2    0    0  0.81601782436E+02  0.14723170442E+02  0.27395153140E+03  0.31236908976E+03  0.12509749810E+03 0.  0.
          5    1    3    3  502    0  0.53310919867E+02  0.39405434733E+02  0.26546733064E+03  0.27365163713E+03  0.41800000000E+01 0.  1.
         -5    1    3    3    0  502  0.28290862569E+02 -0.24682264291E+02  0.84842007595E+01  0.38717452628E+02  0.41800000000E+01 0.  1.
        -11    1    1    2    0    0 -0.57598156455E+02 -0.52949608200E+02  0.16218762502E+03  0.18007230311E+03  0.00000000000E+00 0.  1.
         11    1    1    2    0    0 -0.24003625981E+02  0.38226437758E+02  0.12648856928E+03  0.13430112718E+03  0.00000000000E+00 0. -1.
</event>
<event>
 7    1  0.3001243E-009  0.8603252E+02  0.7561462E-02  0.1312754E+00
          2   -1    0    0  501    0  0.00000000000E+00  0.00000000000E+00  0.34373283130E+03  0.34373283130E+03  0.00000000000E+00 0. -1.
         -2   -1    0    0    0  501 -0.00000000000E+00 -0.00000000000E+00 -0.46556637871E+02  0.46556637871E+02  0.00000000000E+00 0.  1.
         25    2    1    2    0    0 -0.53569127371E+02 -0.30694871532E+02  0.19685090748E+03  0.24127495084E+03  0.12510593744E+03 0.  0.
          5    1    3    3  502    0  0.40745239588E+00 -0.14579557011E+00  0.17549637224E+03  0.17554667853E+03  0.41800000000E+01 0.  1.
         -5    1    3    3    0  502 -0.53976579767E+02 -0.30549075962E+02  0.21354535235E+02  0.65728272308E+02  0.41800000000E+01 0.  1.
        -11    1    1    2    0    0  0.63990597301E+02  0.51690718921E+02  0.58065243039E+02  0.10068912262E+03  0.00000000000E+00 0.  1.
         11    1    1    2    0    0 -0.10421469930E+02 -0.20995847389E+02  0.42260042917E+02  0.48325395710E+02  0.00000000000E+00 0. -1.
</event>
<event>
 7    1  0.3001243E-009  0.1040809E+03  0.7561462E-02  0.1271941E+00
         -2   -1    0    0    0  501 -0.00000000000E+00  0.00000000000E+00  0.39682131453E+02  0.39682131453E+02  0.00000000000E+00 0.  1.
          2   -1    0    0  501    0  0.00000000000E+00 -0.00000000000E+00 -0.43697022044E+03  0.43697022044E+03  0.00000000000E+00 0. -1.
         25    2    1    2    0    0  0.32776103975E+02 -0.48722578766E+02 -0.30535180740E+03  0.33516296129E+03  0.12508525758E+03 0.  0.
          5    1    3    3  502    0  0.33759157670E+02 -0.86809859267E+02 -0.25745736228E+03  0.27382001056E+03  0.41800000000E+01 0. -1.
         -5    1    3    3    0  502 -0.98305369502E+00  0.38087280501E+02 -0.47894445128E+02  0.61342950734E+02  0.41800000000E+01 0. -1.
        -11    1    1    2    0    0  0.12479314532E+02  0.17980816354E+02  0.11315369445E+02  0.24639006345E+02  0.00000000000E+00 0.  1.
         11    1    1    2    0    0 -0.45255418507E+02  0.30741762412E+02 -0.10325165103E+03  0.11685038425E+03  0.00000000000E+00 0. -1.
</event>
<event>
 6    1  0.3001243E-009  0.1155424E+03  0.7561462E-02  0.1250637E+00
         -2   -1    0    0    0  501 -0.00000000000E+00  0.00000000000E+00  0.64525657524E+03  0.64525657524E+03  0.00000000000E+00 0.  1.
          2   -1    0    0  501    0  0.00000000000E+00 -0.00000000000E+00 -0.23203964014E+02  0.23203964014E+02  0.00000000000E+00 0. -1.
          5    1    1    2  502    0 -0.66864222841E+02 -0.50381030534E+02  0.29492715808E+03  0.30660817586E+03  0.41800000000E+01 0.  1.
         -5    1    1    2    0  502  0.45291417082E+02  0.14550943426E+02  0.16313233107E+03  0.16997844645E+03  0.41800000000E+01 0.  1.
        -11    1    1    2    0    0 -0.29799142276E+02 -0.92048781849E+01  0.47417229212E+02  0.56754843749E+02  0.00000000000E+00 0.  1.
         11    1    1    2    0    0  0.51371948036E+02  0.45034965293E+02  0.11657589286E+03  0.13511907319E+03  0.00000000000E+00 0. -1.
</event>
<event>
 7    1  0.3001243E-009  0.1491514E+03  0.7561462E-02  0.1201520E+00
         -2   -1    0    0    0  501 -0.00000000000E+00  0.00000000000E+00  0.19902142949E+02  0.19902142949E+02  0.00000000000E+00 0.  1.
          2   -1    0    0  501    0  0.00000000000E+00 -0.00000000000E+00 -0.17554239527E+04  0.17554239527E+04  0.00000000000E+00 0. -1.
         25    2    1    2    0    0  0.13488837174E+03 -0.25237679449E+02 -0.12169990934E+04  0.12310831191E+04  0.12508812771E+03 0.  0.
          5    1    3    3  502    0  0.98352757192E+02  0.11948334497E+02 -0.10783257731E+04  0.10828757883E+04  0.41800000000E+01 0. -1.
         -5    1    3    3    0  502  0.36535614546E+02 -0.37186013946E+02 -0.13867332025E+03  0.14820733083E+03  0.41800000000E+01 0. -1.
        -11    1    1    2    0    0 -0.61930978567E+02 -0.14721744603E+02 -0.35624119146E+03  0.36188390730E+03  0.00000000000E+00 0. -1.
         11    1    1    2    0    0 -0.72957393171E+02  0.39959424051E+02 -0.16228152492E+03  0.18235906920E+03  0.00000000000E+00 0.  1.
</event>
<event>
 7    1  0.3001243E-009  0.1911403E+03  0.7561462E-02  0.1157437E+00
          1   -1    0    0  501    0  0.00000000000E+00  0.00000000000E+00  0.15691278030E+04  0.15691278030E+04  0.00000000000E+00 0. -1.
         -1   -1    0    0    0  501 -0.00000000000E+00 -0.00000000000E+00 -0.37505784344E+02  0.37505784344E+02  0.00000000000E+00 0.  1.
         25    2    1    2    0    0  0.16460890334E+03 -0.14991225107E+02  0.12514653120E+04  0.12685161480E+04  0.12508781972E+03 0.  0.
          5    1    3    3  502    0  0.48469130258E+02  0.42530100762E+02  0.65155980324E+03  0.65475622613E+03  0.41800000000E+01 0. -1.
         -5    1    3    3    0  502  0.11613977308E+03 -0.57521325869E+02  0.59990550879E+03  0.61375992187E+03  0.41800000000E+01 0. -1.
        -11    1    1    2    0    0 -0.96994949144E+01  0.30786634844E+02  0.34309560782E+02  0.47106719772E+02  0.00000000000E+00 0.  1.
         11    1    1    2    0    0 -0.15490940842E+03 -0.15795409737E+02  0.24584714587E+03  0.29101071960E+03  0.00000000000E+00 0. -1.
</event>
<event>
 7    1  0.3001243E-009  0.2159265E+03  0.7561462E-02  0.1136957E+00
          1   -1    0    0  501    0  0.00000000000E+00  0.00000000000E+00  0.51992462574E+03  0.51992462574E+03  0.00000000000E+00 0. -1.
         -1   -1    0    0    0  501 -0.00000000000E+00 -0.00000000000E+00 -0.97441938376E+02  0.97441938376E+02  0.00000000000E+00 0.  1.
         25    2    1    2    0    0 -0.14233960966E+03  0.13235271750E+03  0.23839993590E+03  0.33205629582E+03  0.12509615440E+03 0.  0.
          5    1    3    3  502    0 -0.80622968820E+02  0.14167786116E+03  0.13731256535E+03  0.21317807685E+03  0.41800000000E+01 0. -1.
         -5    1    3    3    0  502 -0.61716640840E+02 -0.93251436586E+01  0.10108737055E+03  0.11887821897E+03  0.41800000000E+01 0. -1.
        -11    1    1    2    0    0  0.11114415187E+02  0.82980659867E+01 -0.57846648322E+01  0.15028322305E+02  0.00000000000E+00 0.  1.
         11    1    1    2    0    0  0.13122519447E+03 -0.14065078349E+03  0.18986741629E+03  0.27028194599E+03  0.00000000000E+00 0. -1.
</event>
<event>
 7    1  0.3001243E-009  0.1169122E+03  0.7561462E-02  0.1248280E+00
          1   -1    0    0  501    0  0.00000000000E+00  0.00000000000E+00  0.74377759894E+02  0.74377759894E+02  0.00000000000E+00 0. -1.
         -1   -1    0    0    0  501 -0.00000000000E+00 -0.00000000000E+00 -0.19638521395E+03  0.19638521395E+03  0.00000000000E+00 0.  1.
         25    2    1    2    0    0  0.56969371976E+02  0.27839637423E+02 -0.84502278946E+02  0.16373201052E+03  0.12508789457E+03 0.  0.
          5    1    3    3  502    0  0.70353375524E+02 -0.30975171069E+02 -0.63275892886E+02  0.99651240288E+02  0.41800000000E+01 0.  1.
         -5    1    3    3    0  502 -0.13384003548E+02  0.58814808493E+02 -0.21226386060E+02  0.64080770237E+02  0.41800000000E+01 0.  1.
        -11    1    1    2    0    0 -0.58976356596E+02 -0.48046968732E+02 -0.41015036453E+02  0.86423116450E+02  0.00000000000E+00 0. -1.
         11    1    1    2    0    0  0.20069846197E+01  0.20207331309E+02  0.35098613437E+01  0.20607846868E+02  0.00000000000E+00 0.  1.
</event>
<event>
 7    1  0.3001243E-009  0.3235759E+03  0.7561462E-02  0.1074015E+00
          1   -1    0    0  501    0  0.00000000000E+00  0.00000000000E+00  0.28472616965E+03  0.28472616965E+03  0.00000000000E+00 0. -1.
         -1   -1    0    0    0  501 -0.00000000000E+00 -0.00000000000E+00 -0.38193336787E+03  0.38193336787E+03  0.00000000000E+00 0.  1.
         25    2    1    2    0    0  0.30739745357E+03  0.42479928596E+02 -0.24717953699E+02  0.33549626815E+03  0.12509608272E+03 0.  0.
          5    1    3    3  502    0  0.25345119982E+03 -0.16770875281E+02 -0.24896319230E+02  0.25525687466E+03  0.41800000000E+01 0.  1.
         -5    1    3    3    0  502  0.53946253744E+02  0.59250803877E+02  0.17836553169E+00  0.80239393488E+02  0.41800000000E+01 0.  1.
        -11    1    1    2    0    0 -0.10972927391E+03 -0.34570813267E+02  0.12757325347E+02  0.11575147530E+03  0.00000000000E+00 0. -1.
         11    1    1    2    0    0 -0.19766817965E+03 -0.79091153288E+01 -0.85246569869E+02  0.21541179408E+03  0.00000000000E+00 0.  1.
</event>
<event>
 7    1  0.3001243E-009  0.1025894E+03  0.7561462E-02  0.1274943E+00
         -2   -1    0    0    0  501 -0.00000000000E+00  0.00000000000E+00  0.23930289599E+02  0.23930289599E+02  0.00000000000E+00 0.  1.
          2   -1    0    0  501    0  0.00000000000E+00 -0.00000000000E+00 -0.60123818697E+03  0.60123818697E+03  0.00000000000E+00 0. -1.
         25    2    1    2    0    0 -0.10225585708E+02 -0.26594495531E+02 -0.44319195450E+03  0.46138877455E+03  0.12509461601E+03 0.  0.
          5    1    3    3  502    0  0.39373739912E+02 -0.50766592964E+02 -0.31893042462E+03  0.32536383712E+03  0.41800000000E+01 0. -1.
         -5    1    3    3    0  502 -0.49599325620E+02  0.24172097433E+02 -0.12426152988E+03  0.13602493743E+03  0.41800000000E+01 0. -1.
        -11    1    1    2    0    0  0.40042937498E+02 -0.68850337871E+01 -0.98404186284E+02  0.10646231451E+03  0.00000000000E+00 0. -1.
         11    1    1    2    0    0 -0.29817351790E+02  0.33479529318E+02 -0.35711756587E+02  0.57317387498E+02  0.00000000000E+00 0.  1.
</event>
<event>
 7    1  0.3001243E-009  0.7196234E+02  0.7561462E-02  0.1353544E+00
         -2   -1    0    0    0  501 -0.00000000000E+00  0.00000000000E+00  0.23273859320E+02  0.23273859320E+02  0.00000000000E+00 0.  1.
          2   -1    0    0  501    0  0.00000000000E+00 -0.00000000000E+00 -0.61190258212E+03  0.61190258212E+03  0.00000000000E+00 0. -1.
         25    2    1    2    0    0  0.15034009182E+02 -0.36385587654E+02 -0.41799249728E+03  0.43808146530E+03  0.12509080718E+03 0.  0.
          5    1    3    3  502    0 -0.13157679086E+02  0.43737293621E+01  0.24671070961E+01  0.14690576738E+02  0.41800000000E+01 0. -1.
         -5    1    3    3    0  502  0.28191688269E+02 -0.40759317016E+02 -0.42045960437E+03  0.42339088856E+03  0.41800000000E+01 0. -1.
        -11    1    1    2    0    0  0.20914384724E+02 -0.81743209238E+01 -0.66763566142E+01  0.23426582094E+02  0.00000000000E+00 0.  1.
         11    1    1    2    0    0 -0.35948393907E+02  0.44559908578E+02 -0.16395986891E+03  0.17366839405E+03  0.00000000000E+00 0. -1.
</event>
<event>
 7    1  0.3001243E-009  0.1984586E+03  0.7561462E-02  0.1151046E+00
         -2   -1    0    0    0  501 -0.00000000000E+00  0.00000000000E+00  0.10441141343E+03  0.10441141343E+03  0.00000000000E+00 0.  1.
          2   -1    0    0  501    0  0.00000000000E+00 -0.00000000000E+00 -0.39687411431E+03  0.39687411431E+03  0.00000000000E+00 0. -1.
         25    2    1    2    0    0  0.96808176520E+02 -0.13954107743E+03 -0.11240058434E+03  0.23900687764E+03  0.12508741290E+03 0.  0.
          5    1    3    3  502    0 -0.23984797381E+02 -0.63500919041E+02 -0.40115215187E+02  0.78957837572E+02  0.41800000000E+01 0. -1.
         -5    1    3    3    0  502  0.12079297390E+03 -0.76040158388E+02 -0.72285369157E+02  0.16004904006E+03  0.41800000000E+01 0. -1.
        -11    1    1    2    0    0 -0.10980378237E+03  0.12010579520E+03 -0.13471428279E+03  0.21125863450E+03  0.00000000000E+00 0.  1.
         11    1    1    2    0    0  0.12995605850E+02  0.19435282231E+02 -0.45347833752E+02  0.51020015609E+02  0.00000000000E+00 0. -1.
</event>
<event>
 7    1  0.3001243E-009  0.2385382E+03  0.7561462E-02  0.1120770E+00
         -2   -1    0    0    0  501 -0.00000000000E+00  0.00000000000E+00  0.13318658479E+03  0.13318658479E+03  0.00000000000E+00 0. -1.
          2   -1    0    0  501    0  0.00000000000E+00 -0.00000000000E+00 -0.52201584167E+03  0.52201584167E+03  0.00000000000E+00 0.  1.
         25    2    1    2    0    0  0.13036016507E+03  0.18866196609E+03 -0.27082102672E+03  0.37626985739E+03  0.12509143449E+03 0.  0.
          5    1    3    3  502    0  0.86588627927E+02  0.61573326817E+02 -0.19443234237E+03  0.22160837805E+03  0.41800000000E+01 0. -1.
         -5    1    3    3    0  502  0.43771537147E+02  0.12708863927E+03 -0.76388684345E+02  0.15466147934E+03  0.41800000000E+01 0. -1.
        -11    1    1    2    0    0 -0.66409104081E+02 -0.14305312890E+03 -0.12331863515E+03  0.20020452684E+03  0.00000000000E+00 0.  1.
         11    1    1    2    0    0 -0.63951060993E+02 -0.45608837192E+02  0.53104049951E+01  0.78728042230E+02  0.00000000000E+00 0. -1.
</event>
<event>
 7    1  0.3001243E-009  0.2498241E+03  0.7561462E-02  0.1113416E+00
         -1   -1    0    0    0  501 -0.00000000000E+00  0.00000000000E+00  0.11336854301E+03  0.11336854301E+03  0.00000000000E+00 0.  1.
          1   -1    0    0  501    0  0.00000000000E+00 -0.00000000000E+00 -0.55585422020E+03  0.55585422020E+03  0.00000000000E+00 0. -1.
         25    2    1    2    0    0  0.12549661494E+03 -0.18658047557E+03 -0.22695119579E+03  0.34309781804E+03  0.12509034037E+03 0.  0.
          5    1    3    3  502    0  0.21227344313E+02 -0.14227368585E+03 -0.12422018835E+03  0.19010662646E+03  0.41800000000E+01 0. -1.
         -5    1    3    3    0  502  0.10426927063E+03 -0.44306789715E+02 -0.10273100744E+03  0.15299119158E+03  0.41800000000E+01 0. -1.
        -11    1    1    2    0    0 -0.10041550873E+03  0.68259339591E+02 -0.13065775320E+03  0.17836496379E+03  0.00000000000E+00 0. -1.
         11    1    1    2    0    0 -0.25081106204E+02  0.11832113597E+03 -0.84876728197E+02  0.14775998138E+03  0.00000000000E+00 0.  1.
</event>
<event>
 7    1  0.3001243E-009  0.1209088E+03  0.7561462E-02  0.1241605E+00
         -2   -1    0    0    0  501 -0.00000000000E+00  0.00000000000E+00  0.46430927117E+02  0.46430927117E+02  0.00000000000E+00 0.  1.
          2   -1    0    0  501    0  0.00000000000E+00 -0.00000000000E+00 -0.35232457792E+03  0.35232457792E+03  0.00000000000E+00 0. -1.
         25    2    1    2    0    0 -0.45811484369E+02 -0.37737469916E+02 -0.22307709235E+03  0.26255406436E+03  0.12509372026E+03 0.  0.
          5    1    3    3  502    0  0.42814289963E+02 -0.18282540530E+02 -0.90306302052E+02  0.10168586580E+03  0.41800000000E+01 0.  1.
         -5    1    3    3    0  502 -0.88625774332E+02 -0.19454929387E+02 -0.13277079030E+03  0.16086819856E+03  0.41800000000E+01 0.  1.
        -11    1    1    2    0    0 -0.19518678717E+02 -0.11303004317E+02 -0.34727192188E+02  0.41409112556E+02  0.00000000000E+00 0. -1.
         11    1    1    2    0    0  0.65330163086E+02  0.49040474233E+02 -0.48089366269E+02  0.94792328118E+02  0.00000000000E+00 0.  1.
</event>
<event>
 7    1  0.3001243E-009  0.1013434E+03  0.7561462E-02  0.1277496E+00
         -3   -1    0    0    0  501 -0.00000000000E+00  0.00000000000E+00  0.10286832212E+03  0.10286832212E+03  0.00000000000E+00 0.  1.
          3   -1    0    0  501    0  0.00000000000E+00 -0.00000000000E+00 -0.19711905542E+03  0.19711905542E+03  0.00000000000E+00 0. -1.
         25    2    1    2    0    0  0.54356652952E+02 -0.74067087963E+02 -0.69245190165E+02  0.16995087103E+03  0.12509125854E+03 0.  0.
          5    1    3    3  502    0  0.26735324275E+02 -0.48094400931E+02  0.30576704681E+02  0.63089271942E+02  0.41800000000E+01 0.  1.
         -5    1    3    3    0  502  0.27621328677E+02 -0.25972687033E+02 -0.99821894846E+02  0.10686159909E+03  0.41800000000E+01 0.  1.
        -11    1    1    2    0    0 -0.12199815994E+01  0.51685661968E+02 -0.45473914712E+02  0.68853271000E+02  0.00000000000E+00 0. -1.
         11    1    1    2    0    0 -0.53136671353E+02  0.22381425996E+02  0.20468371571E+02  0.61183235505E+02  0.00000000000E+00 0.  1.
</event>
<event>
 7    1  0.3001243E-009  0.1122681E+03  0.7561462E-02  0.1256426E+00
         -1   -1    0    0    0  501 -0.00000000000E+00  0.00000000000E+00  0.25479286871E+02  0.25479286871E+02  0.00000000000E+00 0.  1.
          1   -1    0    0  501    0  0.00000000000E+00 -0.00000000000E+00 -0.60512525069E+03  0.60512525069E+03  0.00000000000E+00 0. -1.
         25    2    1    2    0    0 -0.29641249384E+02  0.40194047732E+02 -0.23207219979E+03  0.26832763408E+03  0.12509215864E+03 0.  0.
          5    1    3    3  502    0 -0.62204101062E+02  0.60825983296E+02 -0.19950770512E+03  0.21769232240E+03  0.41800000000E+01 0.  1.
         -5    1    3    3    0  502  0.32562851678E+02 -0.20631935564E+02 -0.32564494679E+02  0.50635311673E+02  0.41800000000E+01 0.  1.
        -11    1    1    2    0    0  0.33670358575E+02 -0.65173826580E+02 -0.29422271237E+03  0.30322982240E+03  0.00000000000E+00 0. -1.
         11    1    1    2    0    0 -0.40291091907E+01  0.24979778848E+02 -0.53351051655E+02  0.59047081086E+02  0.00000000000E+00 0.  1.
</event>
<event>
 7    1  0.3001243E-009  0.1403118E+03  0.7561462E-02  0.1212910E+00
          1   -1    0    0  501    0  0.00000000000E+00  0.00000000000E+00  0.10100482531E+03  0.10100482531E+03  0.00000000000E+00 0. -1.
         -1   -1    0    0    0  501 -0.00000000000E+00 -0.00000000000E+00 -0.20020592047E+03  0.20020592047E+03  0.00000000000E+00 0.  1.
         25    2    1    2    0    0 -0.87200691552E+02  0.27374634417E+02 -0.39284442075E+02  0.15982605025E+03  0.12509103778E+03 0.  0.
          5    1    3    3  502    0 -0.11823340088E+03  0.15763340254E+02 -0.41485365414E+02  0.12635714433E+03  0.41800000000E+01 0. -1.
         -5    1    3    3    0  502  0.31032709325E+02  0.11611294163E+02  0.22009233393E+01  0.33468905924E+02  0.41800000000E+01 0. -1.
        -11    1    1    2    0    0  0.54564213861E+02  0.29702801693E+02 -0.25296823891E+02  0.67077858953E+02  0.00000000000E+00 0.  1.
         11    1    1    2    0    0  0.32636477691E+02 -0.57077436110E+02 -0.34619829198E+02  0.74306836581E+02  0.00000000000E+00 0. -1.
</event>
<event>
 7    1  0.3001243E-009  0.9769932E+02  0.7561462E-02  0.1285210E+00
          2   -1    0    0  501    0  0.00000000000E+00  0.00000000000E+00  0.25583507179E+03  0.25583507179E+03  0.00000000000E+00 0. -1.
         -2   -1    0    0    0  501 -0.00000000000E+00 -0.00000000000E+00 -0.52536839406E+02  0.52536839406E+02  0.00000000000E+00 0.  1.
         25    2    1    2    0    0  0.27349208427E+02 -0.29769390331E+02  0.13567916090E+03  0.18890277937E+03  0.12506490134E+03 0.  0.
          5    1    3    3  502    0 -0.38139914231E+02  0.21928135177E+02  0.69345569646E+02  0.82230022494E+02  0.41800000000E+01 0.  1.
         -5    1    3    3    0  502  0.65489122658E+02 -0.51697525508E+02  0.66333591255E+02  0.10667275687E+03  0.41800000000E+01 0.  1.
        -11    1    1    2    0    0  0.13582687224E+02 -0.44726672551E+01 -0.15248349491E+02  0.20904695808E+02  0.00000000000E+00 0.  1.
         11    1    1    2    0    0 -0.40931895651E+02  0.34242057587E+02  0.82867420974E+02  0.98564436022E+02  0.00000000000E+00 0. -1.
</event>
<event>
 7    1  0.3001243E-009  0.1408353E+03  0.7561462E-02  0.1212209E+00
          1   -1    0    0  501    0  0.00000000000E+00  0.00000000000E+00  0.36899724506E+02  0.36899724506E+02  0.00000000000E+00 0. -1.
         -1   -1    0    0    0  501 -0.00000000000E+00 -0.00000000000E+00 -0.83010614859E+03  0.83010614859E+03  0.00000000000E+00 0.  1.
         25    2    1    2    0    0  0.86316126591E+02  0.98904601931E+02 -0.32372818696E+03  0.37105106874E+03  0.12508542116E+03 0.  0.
          5    1    3    3  502    0  0.76941225270E+02  0.74404637125E+02 -0.32717699214E+03  0.34426480906E+03  0.41800000000E+01 0.  1.
         -5    1    3    3    0  502  0.93749013208E+01  0.24499964806E+02  0.34488051808E+01  0.26786259676E+02  0.41800000000E+01 0.  1.
        -11    1    1    2    0    0 -0.63265951068E+02 -0.20860920319E+02 -0.12125306488E+03  0.13834762124E+03  0.00000000000E+00 0. -1.
         11    1    1    2    0    0 -0.23050175523E+02 -0.78043681612E+02 -0.34822517225E+03  0.35760718312E+03  0.00000000000E+00 0.  1.
</event>
<event>
 7    1  0.3001243E-009  0.9958803E+02  0.7561462E-02  0.1281165E+00
         -1   -1    0    0    0  501 -0.00000000000E+00  0.00000000000E+00  0.23114158906E+02  0.23114158906E+02  0.00000000000E+00 0.  1.
          1   -1    0    0  501    0  0.00000000000E+00 -0.00000000000E+00 -0.69706111606E+03  0.69706111606E+03  0.00000000000E+00 0. -1.
         25    2    1    2    0    0 -0.28880552330E+02  0.53445056939E+02 -0.31406890645E+03  0.34347731060E+03  0.12508766720E+03 0.  0.
          5    1    3    3  502    0 -0.34103430626E+02 -0.15686757952E+02 -0.23592228675E+03  0.23892659153E+03  0.41800000000E+01 0.  1.
         -5    1    3    3    0  502  0.52228782959E+01  0.69131814891E+02 -0.78146619699E+02  0.10455071907E+03  0.41800000000E+01 0.  1.
        -11    1    1    2    0    0 -0.19077173007E+02  0.13601331337E+01 -0.15255269055E+02  0.24464499301E+02  0.00000000000E+00 0.  1.
         11    1    1    2    0    0  0.47957725338E+02 -0.54805190073E+02 -0.34462278166E+03  0.35223346507E+03  0.00000000000E+00 0. -1.
</event>
<event>
 7    1  0.3001243E-009  0.1182616E+03  0.7561462E-02  0.1245993E+00
         -3   -1    0    0    0  501 -0.00000000000E+00  0.00000000000E+00  0.48827629461E+03  0.48827629461E+03  0.00000000000E+00 0.  1.
          3   -1    0    0  501    0  0.00000000000E+00 -0.00000000000E+00 -0.31473703426E+02  0.31473703426E+02  0.00000000000E+00 0. -1.
         25    2    1    2    0    0 -0.52166921927E+02  0.19779953357E+02  0.28317709999E+03  0.31456147781E+03  0.12508804525E+03 0.  0.
          5    1    3    3  502    0 -0.72736275610E+02 -0.28556287895E+02  0.12155382406E+03  0.14456428297E+03  0.41800000000E+01 0.  1.
         -5    1    3    3    0  502  0.20569353684E+02  0.48336241252E+02  0.16162327593E+03  0.16999719483E+03  0.41800000000E+01 0.  1.
        -11    1    1    2    0    0  0.48235166602E+02  0.29233671727E+02  0.11901287544E+03  0.13170156939E+03  0.00000000000E+00 0.  1.
         11    1    1    2    0    0  0.39317553251E+01 -0.49013625084E+02  0.54612615758E+02  0.73486950840E+02  0.00000000000E+00 0. -1.
</event>
<event>
 7    1  0.3001243E-009  0.1286652E+03  0.7561462E-02  0.1229450E+00
         -2   -1    0    0    0  501 -0.00000000000E+00  0.00000000000E+00  0.69666236646E+02  0.69666236646E+02  0.00000000000E+00 0.  1.
          2   -1    0    0  501    0  0.00000000000E+00 -0.00000000000E+00 -0.31426576828E+03  0.31426576828E+03  0.00000000000E+00 0. -1.
         25    2    1    2    0    0  0.30392991239E+02 -0.93528896207E+02 -0.10823268858E+03  0.19244026369E+03  0.12509017495E+03 0.  0.
          5    1    3    3  502    0 -0.38013351037E+02 -0.79471933507E+02 -0.49774068395E+02  0.10127059473E+03  0.41800000000E+01 0. -1.
         -5    1    3    3    0  502  0.68406342276E+02 -0.14056962700E+02 -0.58458620182E+02  0.91169668956E+02  0.41800000000E+01 0. -1.
        -11    1    1    2    0    0  0.57309449388E+00  0.11210343481E+02  0.13602103600E+02  0.17635687132E+02  0.00000000000E+00 0.  1.
         11    1    1    2    0    0 -0.30966085733E+02  0.82318552726E+02 -0.14996894666E+03  0.17385605411E+03  0.00000000000E+00 0. -1.
</event>
<event>
 7    1  0.3001243E-009  0.1031790E+03  0.7561462E-02  0.1273749E+00
          1   -1    0    0  501    0  0.00000000000E+00  0.00000000000E+00  0.19585586107E+03  0.19585586107E+03  0.00000000000E+00 0. -1.
         -1   -1    0    0    0  501 -0.00000000000E+00 -0.00000000000E+00 -0.71130090500E+02  0.71130090500E+02  0.00000000000E+00 0.  1.
         25    2    1    2    0    0  0.38197272496E+02 -0.70680361057E+01  0.33926160452E+02  0.13534353588E+03  0.12513152912E+03 0.  0.
          5    1    3    3  502    0 -0.44856593659E+02  0.33358244682E+01  0.23408152801E+02  0.50878833881E+02  0.41800000000E+01 0. -1.
         -5    1    3    3    0  502  0.83053866155E+02 -0.10403860574E+02  0.10518007652E+02  0.84464701995E+02  0.41800000000E+01 0. -1.
        -11    1    1    2    0    0  0.19216402604E+02  0.53073773168E+01  0.66234011942E+02  0.69169232474E+02  0.00000000000E+00 0. -1.
         11    1    1    2    0    0 -0.57413675100E+02  0.17606587889E+01  0.24565598174E+02  0.62473183219E+02  0.00000000000E+00 0.  1.
</event>
<event>
 7    1  0.3001243E-009  0.1043128E+03  0.7561462E-02  0.1271479E+00
          2   -1    0    0  501    0  0.00000000000E+00  0.00000000000E+00  0.32573389476E+03  0.32573389476E+03  0.00000000000E+00 0.  1.
         -2   -1    0    0    0  501 -0.00000000000E+00 -0.00000000000E+00 -0.41631126758E+02  0.41631126758E+02  0.00000000000E+00 0. -1.
         25    2    1    2    0    0  0.56060255227E+01 -0.17661135078E+02  0.92330318905E+02  0.15657266260E+03  0.12508704038E+03 0.  0.
          5    1    3    3  502    0 -0.40693125283E+02 -0.51904827134E+02  0.64988292180E+02  0.92687604596E+02  0.41800000000E+01 0. -1.
         -5    1    3    3    0  502  0.46299150806E+02  0.34243692056E+02  0.27342026725E+02  0.63885058006E+02  0.41800000000E+01 0. -1.
        -11    1    1    2    0    0 -0.27426340940E+02  0.43223914376E+02  0.14001950016E+03  0.14908377302E+03  0.00000000000E+00 0.  1.
         11    1    1    2    0    0  0.21820315417E+02 -0.25562779298E+02  0.51752948940E+02  0.61708585905E+02  0.00000000000E+00 0. -1.
</event>
<event>
 7    1  0.3001243E-009  0.1294227E+03  0.7561462E-02  0.1228315E+00
         -1   -1    0    0    0  501 -0.00000000000E+00  0.00000000000E+00  0.69026856115E+02  0.69026856115E+02  0.00000000000E+00 0.  1.
          1   -1    0    0  501    0  0.00000000000E+00 -0.00000000000E+00 -0.27749430444E+03  0.27749430444E+03  0.00000000000E+00 0. -1.
         25    2    1    2    0    0 -0.78965114213E+02 -0.35348032303E+02 -0.12121317922E+03  0.19448836246E+03  0.12509242849E+03 0.  0.
          5    1    3    3  502    0 -0.69874033683E+02 -0.79803521262E+02 -0.78429029182E+02  0.13198320957E+03  0.41800000000E+01 0.  1.
         -5    1    3    3    0  502 -0.90910805302E+01  0.44455488959E+02 -0.42784150041E+02  0.62505152895E+02  0.41800000000E+01 0.  1.
        -11    1    1    2    0    0  0.28425863378E+02 -0.17994339842E+02  0.50837982756E+01  0.34024564362E+02  0.00000000000E+00 0.  1.
         11    1    1    2    0    0  0.50539250836E+02  0.53342372145E+02 -0.92338067373E+02  0.11800823373E+03  0.00000000000E+00 0. -1.
</event>
<event>
 7    1  0.3001243E-009  0.1142047E+03  0.7561462E-02  0.1252976E+00
          4   -1    0    0  501    0  0.00000000000E+00  0.00000000000E+00  0.14758779383E+03  0.14758779383E+03  0.00000000000E+00 0. -1.
         -4   -1    0    0    0  501 -0.00000000000E+00 -0.00000000000E+00 -0.10349363429E+03  0.10349363429E+03  0.00000000000E+00 0.  1.
         25    2    1    2    0    0  0.53029807071E+02 -0.25098154860E+02  0.32994793968E+02  0.14205097902E+03  0.12509095250E+03 0.  0.
          5    1    3    3  502    0  0.91271989346E+02  0.14918438296E+01  0.22998438761E+02  0.94229518850E+02  0.41800000000E+01 0.  1.
         -5    1    3    3    0  502 -0.38242182275E+02 -0.26589998689E+02  0.99963552063E+01  0.47821460171E+02  0.41800000000E+01 0.  1.
        -11    1    1    2    0    0 -0.67105963842E+02  0.71951391088E+01  0.34992135279E+02  0.76022562055E+02  0.00000000000E+00 0. -1.
         11    1    1    2    0    0  0.14076156772E+02  0.17903015751E+02 -0.23892769713E+02  0.33007887042E+02  0.00000000000E+00 0.  1.
</event>
<event>
 7    1  0.3001243E-009  0.1272359E+03  0.7561462E-02  0.1231616E+00
          2   -1    0    0  501    0  0.00000000000E+00  0.00000000000E+00  0.22949015532E+03  0.22949015532E+03  0.00000000000E+00 0.  1.
         -2   -1    0    0    0  501 -0.00000000000E+00 -0.00000000000E+00 -0.12733294433E+03  0.12733294433E+03  0.00000000000E+00 0. -1.
         25    2    1    2    0    0  0.67660194980E+02  0.48815156753E+02  0.16367297270E+03  0.22225555029E+03  0.12509143108E+03 0.  0.
          5    1    3    3  502    0  0.97236386648E+02  0.42549482848E+02  0.15923816574E+03  0.19141483539E+03  0.41800000000E+01 0.  1.
         -5    1    3    3    0  502 -0.29576191668E+02  0.62656739046E+01  0.44348069623E+01  0.30840714905E+02  0.41800000000E+01 0.  1.
        -11    1    1    2    0    0 -0.53398848720E+01  0.22440586668E+02 -0.22359164396E+02  0.32125169773E+02  0.00000000000E+00 0.  1.
         11    1    1    2    0    0 -0.62320310108E+02 -0.71255743421E+02 -0.39156597313E+02  0.10244237959E+03  0.00000000000E+00 0. -1.
</event>
<event>
 7    1  0.3001243E-009  0.7667549E+02  0.7561462E-02  0.1338760E+00
         -1   -1    0    0    0  501 -0.00000000000E+00  0.00000000000E+00  0.36951777221E+02  0.36951777221E+02  0.00000000000E+00 0.  1.
          1   -1    0    0  501    0  0.00000000000E+00 -0.00000000000E+00 -0.41514118252E+03  0.41514118252E+03  0.00000000000E+00 0. -1.
         25    2    1    2    0    0  0.19477653715E+02 -0.44267014651E+02 -0.27336548030E+03  0.30449226125E+03  0.12509158151E+03 0.  0.
          5    1    3    3  502    0  0.36403653742E+02 -0.46704256502E+02 -0.42625203131E+02  0.73081419821E+02  0.41800000000E+01 0. -1.
         -5    1    3    3    0  502 -0.16926000027E+02  0.24372418503E+01 -0.23074027717E+03  0.23141084143E+03  0.41800000000E+01 0. -1.
        -11    1    1    2    0    0  0.21376694100E+02  0.16076296338E+02  0.48811680589E+01  0.27188897664E+02  0.00000000000E+00 0.  1.
         11    1    1    2    0    0 -0.40854347816E+02  0.28190718314E+02 -0.10970509306E+03  0.12041180083E+03  0.00000000000E+00 0. -1.
</event>
<event>
 7    1  0.3001243E-009  0.1364599E+03  0.7561462E-02  0.1218173E+00
         -1   -1    0    0    0  501 -0.00000000000E+00  0.00000000000E+00  0.24950744691E+03  0.24950744691E+03  0.00000000000E+00 0.  1.
          1   -1    0    0  501    0  0.00000000000E+00 -0.00000000000E+00 -0.95128610934E+02  0.95128610934E+02  0.00000000000E+00 0. -1.
         25    2    1    2    0    0 -0.10489664810E+03  0.22676577129E+02  0.10352454252E+03  0.19463091898E+03  0.12508529005E+03 0.  0.
          5    1    3    3  502    0 -0.74072993536E+02  0.51494051884E+02  0.11909092135E+03  0.14946091696E+03  0.41800000000E+01 0.  1.
         -5    1    3    3    0  502 -0.30823654562E+02 -0.28817474755E+02 -0.15566378838E+02  0.45170002014E+02  0.41800000000E+01 0.  1.
        -11    1    1    2    0    0  0.54900065031E+02  0.34042274669E+02  0.31957906201E+02  0.72070808056E+02  0.00000000000E+00 0.  1.
         11    1    1    2    0    0  0.49996583067E+02 -0.56718851798E+02  0.18896387262E+02  0.77934330812E+02  0.00000000000E+00 0. -1.
</event>
<event>
 7    1  0.3001243E-009  0.2709287E+03  0.7561462E-02  0.1100749E+00
         -1   -1    0    0    0  501 -0.00000000000E+00  0.00000000000E+00  0.16775881590E+04  0.16775881590E+04  0.00000000000E+00 0.  1.
          1   -1    0    0  501    0  0.00000000000E+00 -0.00000000000E+00 -0.47891056018E+02  0.47891056018E+02  0.00000000000E+00 0. -1.
         25    2    1    2    0    0  0.23462013499E+03  0.11163109093E+03  0.91904663797E+03  0.96322465534E+03  0.12508759207E+03 0.  0.
          5    1    3    3  502    0  0.78581030489E+02  0.15866917664E+01  0.44922505840E+03  0.45606811052E+03  0.41800000000E+01 0.  1.
         -5    1    3    3    0  502  0.15603910450E+03  0.11004439916E+03  0.46982157957E+03  0.50715654482E+03  0.41800000000E+01 0.  1.
        -11    1    1    2    0    0 -0.12218382905E+03 -0.13500537702E+02  0.38238077228E+03  0.40165433847E+03  0.00000000000E+00 0.  1.
         11    1    1    2    0    0 -0.11243630594E+03 -0.98130553224E+02  0.32826969274E+03  0.36060022121E+03  0.00000000000E+00 0. -1.
</event>
<event>
 7    1  0.3001243E-009  0.1906674E+03  0.7561462E-02  0.1157861E+00
         -1   -1    0    0    0  501 -0.00000000000E+00  0.00000000000E+00  0.73992046469E+02  0.73992046469E+02  0.00000000000E+00 0.  1.
          1   -1    0    0  501    0  0.00000000000E+00 -0.00000000000E+00 -0.57987834353E+03  0.57987834353E+03  0.00000000000E+00 0. -1.
         25    2    1    2    0    0  0.41111705757E+02 -0.16509911679E+03 -0.33521917206E+03  0.39619212613E+03  0.12509363204E+03 0.  0.
          5    1    3    3  502    0 -0.29036711616E+02  0.19842935371E+01 -0.56989170020E+02  0.64127263640E+02  0.41800000000E+01 0.  1.
         -5    1    3    3    0  502  0.70148417373E+02 -0.16708341032E+03 -0.27823000204E+03  0.33206486249E+03  0.41800000000E+01 0.  1.
        -11    1    1    2    0    0 -0.11183342107E+02  0.24633305894E+02  0.82184325997E+01  0.28273831264E+02  0.00000000000E+00 0.  1.
         11    1    1    2    0    0 -0.29928363650E+02  0.14046581089E+03 -0.17888555760E+03  0.22940443260E+03  0.00000000000E+00 0. -1.
</event>
<event>
 7    1  0.3001243E-009  0.1259397E+03  0.7561462E-02  0.1233608E+00
          1   -1    0    0  501    0  0.00000000000E+00  0.00000000000E+00  0.62393209990E+03  0.62393209990E+03  0.00000000000E+00 0. -1.
         -1   -1    0    0    0  501 -0.00000000000E+00 -0.00000000000E+00 -0.38616938797E+02  0.38616938797E+02  0.00000000000E+00 0.  1.
         25    2    1    2    0    0 -0.87598728573E+02  0.93552849077E+01  0.45134987568E+03  0.47657725441E+03  0.12509240801E+03 0.  0.
          5    1    3    3  502    0 -0.39968303305E+00 -0.28036357302E+02  0.27344531338E+03  0.27491091082E+03  0.41800000000E+01 0. -1.
         -5    1    3    3    0  502 -0.87199045540E+02  0.37391642210E+02  0.17790456229E+03  0.20166634358E+03  0.41800000000E+01 0. -1.
        -11    1    1    2    0    0  0.46983281037E+01  0.34470044709E+02  0.43210889757E+02  0.55474672264E+02  0.00000000000E+00 0.  1.
         11    1    1    2    0    0  0.82900400469E+02 -0.43825329616E+02  0.90754395672E+02  0.13049711203E+03  0.00000000000E+00 0. -1.
</event>
<event>
 7    1  0.3001243E-009  0.3965652E+03  0.7561462E-02  0.1044976E+00
         -2   -1    0    0    0  501 -0.00000000000E+00  0.00000000000E+00  0.19088828738E+03  0.19088828738E+03  0.00000000000E+00 0.  1.
          2   -1    0    0  501    0  0.00000000000E+00 -0.00000000000E+00 -0.97902519794E+03  0.97902519794E+03  0.00000000000E+00 0. -1.
         25    2    1    2    0    0  0.11567430817E+03 -0.37779183544E+03 -0.21016896886E+03  0.46467772800E+03  0.12508868427E+03 0.  0.
          5    1    3    3  502    0  0.43444524653E+02 -0.21052200572E+03 -0.47035536738E+02  0.22008351990E+03  0.41800000000E+01 0.  1.
         -5    1    3    3    0  502  0.72229783515E+02 -0.16726982972E+03 -0.16313343212E+03  0.24459420810E+03  0.41800000000E+01 0.  1.
        -11    1    1    2    0    0 -0.84764399870E+02  0.23592973290E+03 -0.29453979392E+03  0.38678357327E+03  0.00000000000E+00 0.  1.
         11    1    1    2    0    0 -0.30909908298E+02  0.14186210254E+03 -0.28342814778E+03  0.31845218404E+03  0.00000000000E+00 0. -1.
</event>
<event>
 7    1  0.3001243E-009  0.1106454E+03  0.7561462E-02  0.1259379E+00
         -1   -1    0    0    0  501 -0.00000000000E+00  0.00000000000E+00  0.61128826230E+02  0.61128826230E+02  0.00000000000E+00 0.  1.
          1   -1    0    0  501    0  0.00000000000E+00 -0.00000000000E+00 -0.41073514652E+03  0.41073514652E+03  0.00000000000E+00 0. -1.
         25    2    1    2    0    0 -0.13023922914E+02 -0.81241292337E+02 -0.31335153636E+03  0.34728460467E+03  0.12509053183E+03 0.  0.
          5    1    3    3  502    0  0.23088743886E+02 -0.93531607701E+02 -0.14172191344E+03  0.17141710791E+03  0.41800000000E+01 0.  1.
         -5    1    3    3    0  502 -0.36112666800E+02  0.12290315364E+02 -0.17162962292E+03  0.17586749676E+03  0.41800000000E+01 0.  1.
        -11    1    1    2    0    0  0.12140517311E+01  0.70535003401E+02  0.13944097963E+02  0.71910350399E+02  0.00000000000E+00 0.  1.
         11    1    1    2    0    0  0.11809871183E+02  0.10706288936E+02 -0.50198881892E+02  0.52669017680E+02  0.00000000000E+00 0. -1.
</event>
<event>
 7    1  0.3001243E-009  0.2886212E+03  0.7561462E-02  0.1091071E+00
         -2   -1    0    0    0  501 -0.00000000000E+00  0.00000000000E+00  0.32980250504E+02  0.32980250504E+02  0.00000000000E+00 0.  1.
          2   -1    0    0  501    0  0.00000000000E+00 -0.00000000000E+00 -0.27178531275E+04  0.27178531275E+04  0.00000000000E+00 0. -1.
         25    2    1    2    0    0  0.22055811971E+03  0.17073750554E+03 -0.14229418303E+04  0.14554065087E+04  0.12508986011E+03 0.  0.
          5    1    3    3  502    0  0.10623316074E+03  0.13552421293E+03 -0.10407897090E+04  0.10549469121E+04  0.41800000000E+01 0. -1.
         -5    1    3    3    0  502  0.11432495897E+03  0.35213292606E+02 -0.38215212132E+03  0.40045959652E+03  0.41800000000E+01 0. -1.
        -11    1    1    2    0    0 -0.12928464161E+03 -0.13597293738E+03 -0.68242763579E+03  0.70775040540E+03  0.00000000000E+00 0.  1.
         11    1    1    2    0    0 -0.91273478094E+02 -0.34764568158E+02 -0.57950341094E+03  0.58767646396E+03  0.00000000000E+00 0. -1.
</event>
<event>
 7    1  0.3001243E-009  0.1830962E+03  0.7561462E-02  0.1164840E+00
         -2   -1    0    0    0  501 -0.00000000000E+00  0.00000000000E+00  0.66268716256E+02  0.66268716256E+02  0.00000000000E+00 0.  1.
          2   -1    0    0  501    0  0.00000000000E+00 -0.00000000000E+00 -0.57121226790E+03  0.57121226790E+03  0.00000000000E+00 0. -1.
         25    2    1    2    0    0 -0.31339581438E+01  0.15713399223E+03 -0.32636074054E+03  0.38322272791E+03  0.12508961994E+03 0.  0.
          5    1    3    3  502    0  0.42355608841E+02  0.67305943869E+01 -0.82851945817E+02  0.93387450049E+02  0.41800000000E+01 0.  1.
         -5    1    3    3    0  502 -0.45489566985E+02  0.15040339784E+03 -0.24350879472E+03  0.28983527786E+03  0.41800000000E+01 0.  1.
        -11    1    1    2    0    0 -0.25024532734E+02 -0.69521075988E+02 -0.30554977255E+02  0.79956324829E+02  0.00000000000E+00 0.  1.
         11    1    1    2    0    0  0.28158490877E+02 -0.87612916241E+02 -0.14802783385E+03  0.17430193142E+03  0.00000000000E+00 0. -1.
</event>
<event>
 7    1  0.3001243E-009  0.1024405E+03  0.7561462E-02  0.1275246E+00
         -3   -1    0    0    0  501 -0.00000000000E+00  0.00000000000E+00  0.79024023277E+03  0.79024023277E+03  0.00000000000E+00 0.  1.
          3   -1    0    0  501    0  0.00000000000E+00 -0.00000000000E+00 -0.20468266314E+02  0.20468266314E+02  0.00000000000E+00 0. -1.
         25    2    1    2    0    0 -0.66477402437E+02  0.10333583293E+02  0.43073436758E+03  0.45354870097E+03  0.12509316831E+03 0.  0.
          5    1    3    3  502    0 -0.75641686877E+02 -0.57778180443E+01  0.42759217461E+03  0.43428975139E+03  0.41800000000E+01 0. -1.
         -5    1    3    3    0  502  0.91642844400E+01  0.16111401337E+02  0.31421929733E+01  0.19258949583E+02  0.41800000000E+01 0. -1.
        -11    1    1    2    0    0  0.18988314679E+02 -0.46488659916E+02  0.19228112320E+03  0.19873042528E+03  0.00000000000E+00 0.  1.
         11    1    1    2    0    0  0.47489087758E+02  0.36155076623E+02  0.14675647567E+03  0.15842937282E+03  0.00000000000E+00 0. -1.
</event>
<event>
 7    1  0.3001243E-009  0.1987287E+03  0.7561462E-02  0.1150816E+00
          1   -1    0    0  501    0  0.00000000000E+00  0.00000000000E+00  0.17122762104E+04  0.17122762104E+04  0.00000000000E+00 0.  1.
         -1   -1    0    0    0  501 -0.00000000000E+00 -0.00000000000E+00 -0.31226719665E+02  0.31226719665E+02  0.00000000000E+00 0. -1.
         25    2    1    2    0    0  0.13281968453E+03  0.13066659754E+03  0.55492127983E+03  0.59858106899E+03  0.12508733363E+03 0.  0.
          5    1    3    3  502    0  0.12257173158E+03  0.13507162899E+03  0.36279654426E+03  0.40608740348E+03  0.41800000000E+01 0.  1.
         -5    1    3    3    0  502  0.10247952950E+02 -0.44050314565E+01  0.19212473557E+03  0.19249366551E+03  0.41800000000E+01 0.  1.
        -11    1    1    2    0    0 -0.13263774458E+03 -0.85221137319E+02  0.95172823405E+03  0.96469790350E+03  0.00000000000E+00 0.  1.
         11    1    1    2    0    0 -0.18193995356E+00 -0.45445460217E+02  0.17439997689E+03  0.18022395761E+03  0.00000000000E+00 0. -1.
</event>
<event>
 7    1  0.3001243E-009  0.5996528E+02  0.7561462E-02  0.1397978E+00
          3   -1    0    0  501    0  0.00000000000E+00  0.00000000000E+00  0.65402543079E+02  0.65402543079E+02  0.00000000000E+00 0. -1.
         -3   -1    0    0    0  501 -0.00000000000E+00 -0.00000000000E+00 -0.22195801115E+03  0.22195801115E+03  0.00000000000E+00 0.  1.
         25    2    1    2    0    0 -0.46586858580E+02  0.24441920194E+02 -0.87924063969E+02  0.16169719942E+03  0.12509036901E+03 0.  0.
          5    1    3    3  502    0 -0.15062261219E+02  0.10487907661E+02 -0.11570430406E+03  0.11722553603E+03  0.41800000000E+01 0.  1.
         -5    1    3    3    0  502 -0.31524597361E+02  0.13954012533E+02  0.27780240090E+02  0.44471663383E+02  0.41800000000E+01 0.  1.
        -11    1    1    2    0    0 -0.54923966852E+01 -0.11457301746E+02 -0.70814607337E+02  0.71945429299E+02  0.00000000000E+00 0.  1.
         11    1    1    2    0    0  0.52079255265E+02 -0.12984618447E+02  0.21832032359E+01  0.53717925515E+02  0.00000000000E+00 0. -1.
</event>
<event>
 7    1  0.3001243E-009  0.1468536E+03  0.7561462E-02  0.1204393E+00
          1   -1    0    0  501    0  0.00000000000E+00  0.00000000000E+00  0.15212748720E+03  0.15212748720E+03  0.00000000000E+00 0. -1.
         -1   -1    0    0    0  501 -0.00000000000E+00 -0.00000000000E+00 -0.17111799957E+03  0.17111799957E+03  0.00000000000E+00 0.  1.
         25    2    1    2    0    0  0.30512114599E+02 -0.99856082917E+02  0.48880723844E+02  0.17011302790E+03  0.12508753201E+03 0.  0.
          5    1    3    3  502    0  0.74339519592E+02 -0.44791875282E+02  0.48707076070E+02  0.99611886458E+02  0.41800000000E+01 0.  1.
         -5    1    3    3    0  502 -0.43827404994E+02 -0.55064207635E+02  0.17364777369E+00  0.70501141441E+02  0.41800000000E+01 0.  1.
        -11    1    1    2    0    0  0.30788094665E+02  0.25720212233E+02 -0.28398823086E+02  0.49152103140E+02  0.00000000000E+00 0. -1.
         11    1    1    2    0    0 -0.61300209264E+02  0.74135870684E+02 -0.39472413128E+02  0.10398035572E+03  0.00000000000E+00 0.  1.
</event>
<event>
 7    1  0.3001243E-009  0.1054321E+03  0.7561462E-02  0.1269271E+00
          2   -1    0    0  501    0  0.00000000000E+00  0.00000000000E+00  0.88295413480E+02  0.88295413480E+02  0.00000000000E+00 0. -1.
         -2   -1    0    0    0  501 -0.00000000000E+00 -0.00000000000E+00 -0.19664541895E+03  0.19664541895E+03  0.00000000000E+00 0.  1.
         25    2    1    2    0    0  0.10585090317E+02 -0.25270138335E+02  0.12876679788E+02  0.12870568354E+03  0.12509484427E+03 0.  0.
          5    1    3    3  502    0 -0.33276765884E+02 -0.51185006994E+02  0.37705657254E+02  0.71877931785E+02  0.41800000000E+01 0. -1.
         -5    1    3    3    0  502  0.43861856201E+02  0.25914868659E+02 -0.24828977466E+02  0.56827751751E+02  0.41800000000E+01 0. -1.
        -11    1    1    2    0    0  0.23536437878E+01 -0.35926689433E+02 -0.44945970287E+02  0.57588253123E+02  0.00000000000E+00 0.  1.
         11    1    1    2    0    0 -0.12938734104E+02  0.61196827768E+02 -0.76280714976E+02  0.98646895776E+02  0.00000000000E+00 0. -1.
</event>
<event>
 7    1  0.3001243E-009  0.1340945E+03  0.7561462E-02  0.1221504E+00
         -1   -1    0    0    0  501 -0.00000000000E+00  0.00000000000E+00  0.52062903795E+02  0.52062903795E+02  0.00000000000E+00 0.  1.
          1   -1    0    0  501    0  0.00000000000E+00 -0.00000000000E+00 -0.59575229829E+03  0.59575229829E+03  0.00000000000E+00 0. -1.
         25    2    1    2    0    0  0.19245643488E+02  0.12305625030E+03 -0.39979825313E+03  0.43703476058E+03  0.12508998051E+03 0.  0.
          5    1    3    3  502    0 -0.64113868249E+01  0.10731782848E+03 -0.39080347675E+03  0.40534312875E+03  0.41800000000E+01 0.  1.
         -5    1    3    3    0  502  0.25657030313E+02  0.15738421820E+02 -0.89947763805E+01  0.31691631829E+02  0.41800000000E+01 0.  1.
        -11    1    1    2    0    0  0.21277861641E+01 -0.94585891894E+02 -0.14724730163E+03  0.17502224504E+03  0.00000000000E+00 0. -1.
         11    1    1    2    0    0 -0.21373429652E+02 -0.28470358407E+02  0.33561602624E+01  0.35758196468E+02  0.00000000000E+00 0.  1.
</event>
<event>
 7    1  0.3001243E-009  0.1162232E+03  0.7561462E-02  0.1249461E+00
          2   -1    0    0  501    0  0.00000000000E+00  0.00000000000E+00  0.15309779678E+04  0.15309779678E+04  0.00000000000E+00 0. -1.
         -2   -1    0    0    0  501 -0.00000000000E+00 -0.00000000000E+00 -0.12753656188E+02  0.12753656188E+02  0.00000000000E+00 0.  1.
         25    2    1    2    0    0 -0.57110906188E+02  0.67324258989E+02  0.83647358829E+03  0.85037036421E+03  0.12508989151E+03 0.  0.
          5    1    3    3  502    0 -0.33819754610E+02 -0.86355447189E+00  0.49546999971E+02  0.60140661240E+02  0.41800000000E+01 0.  1.
         -5    1    3    3    0  502 -0.23291151577E+02  0.68187813461E+02  0.78692658832E+03  0.79022970297E+03  0.41800000000E+01 0.  1.
        -11    1    1    2    0    0  0.17269263341E+02  0.22238647909E+02  0.13747231659E+03  0.14032612995E+03  0.00000000000E+00 0.  1.
         11    1    1    2    0    0  0.39841642846E+02 -0.89562906898E+02  0.54427840668E+03  0.55303512979E+03  0.00000000000E+00 0. -1.
</event>
<event>
 7    1  0.3001243E-009  0.7675715E+02  0.7561462E-02  0.1338514E+00
          4   -1    0    0  501    0  0.00000000000E+00  0.00000000000E+00  0.17783249123E+02  0.17783249123E+02  0.00000000000E+00 0. -1.
         -4   -1    0    0    0  501 -0.00000000000E+00 -0.00000000000E+00 -0.72573034091E+03  0.72573034091E+03  0.00000000000E+00 0.  1.
         25    2    1    2    0    0 -0.58830589562E+01  0.33121780490E+02 -0.37838951371E+03  0.39994711029E+03  0.12508958478E+03 0.  0.
          5    1    3    3  502    0  0.84672928711E+01 -0.10761706779E+02 -0.33846007050E+03  0.33876275047E+03  0.41800000000E+01 0. -1.
         -5    1    3    3    0  502 -0.14350351827E+02  0.43883487269E+02 -0.39929443212E+02  0.61184359829E+02  0.41800000000E+01 0. -1.
        -11    1    1    2    0    0  0.25357800714E+02 -0.56786043615E+02 -0.26359223623E+03  0.27082935551E+03  0.00000000000E+00 0.  1.
         11    1    1    2    0    0 -0.19474741758E+02  0.23664263125E+02 -0.65965341845E+02  0.72737124225E+02  0.00000000000E+00 0. -1.
</event>
<event>
 7    1  0.3001243E-009  0.1621379E+03  0.7561462E-02  0.1186304E+00
          1   -1    0    0  501    0  0.00000000000E+00  0.00000000000E+00  0.37894580042E+03  0.37894580042E+03  0.00000000000E+00 0. -1.
         -1   -1    0    0    0  501 -0.00000000000E+00 -0.00000000000E+00 -0.11979251389E+03  0.11979251389E+03  0.00000000000E+00 0.  1.
         25    2    1    2    0    0  0.15098431064E+03  0.48109461581E+02  0.17431395498E+02  0.20263931536E+03  0.12509219091E+03 0.  0.
          5    1    3    3  502    0  0.12098074449E+03  0.44384622894E+02 -0.42189217172E+02  0.13566037643E+03  0.41800000000E+01 0. -1.
         -5    1    3    3    0  502  0.30003566154E+02  0.37248386862E+01  0.59620612670E+02  0.66978938931E+02  0.41800000000E+01 0. -1.
        -11    1    1    2    0    0 -0.62496920961E+02 -0.43631004236E+02  0.15180007634E+03  0.16986109866E+03  0.00000000000E+00 0. -1.
         11    1    1    2    0    0 -0.88487389682E+02 -0.44784573449E+01  0.89921814699E+02  0.12623790030E+03  0.00000000000E+00 0.  1.
</event>
<event>
 7    1  0.3001243E-009  0.8935566E+02  0.7561462E-02  0.1304420E+00
         -1   -1    0    0    0  501 -0.00000000000E+00  0.00000000000E+00  0.67474300140E+02  0.67474300140E+02  0.00000000000E+00 0.  1.
          1   -1    0    0  501    0  0.00000000000E+00 -0.00000000000E+00 -0.46055418348E+03  0.46055418348E+03  0.00000000000E+00 0. -1.
         25    2    1    2    0    0 -0.13586222808E+02  0.27141281446E+01 -0.41453589724E+03  0.43321904315E+03  0.12508707891E+03 0.  0.
          5    1    3    3  502    0 -0.51318108907E+02  0.32030785271E+02 -0.11638251661E+03  0.13123216862E+03  0.41800000000E+01 0.  1.
         -5    1    3    3    0  502  0.37731886099E+02 -0.29316657126E+02 -0.29815338063E+03  0.30198687454E+03  0.41800000000E+01 0.  1.
        -11    1    1    2    0    0  0.21432438754E+01  0.32762102483E+02 -0.20484089444E+02  0.38698149488E+02  0.00000000000E+00 0. -1.
         11    1    1    2    0    0  0.11442978932E+02 -0.35476230627E+02  0.41940103345E+02  0.56111290976E+02  0.00000000000E+00 0.  1.
</event>
<event>
 7    1  0.3001243E-009  0.2391146E+03  0.7561462E-02  0.1120384E+00
         -1   -1    0    0    0  501 -0.00000000000E+00  0.00000000000E+00  0.40001546044E+03  0.40001546044E+03  0.00000000000E+00 0.  1.
          1   -1    0    0  501    0  0.00000000000E+00 -0.00000000000E+00 -0.18733742019E+03  0.18733742019E+03  0.00000000000E+00 0. -1.
         25    2    1    2    0    0  0.43771895172E+02 -0.23470695303E+03  0.61921101756E+02  0.27655910333E+03  0.12508949670E+03 0.  0.
          5    1    3    3  502    0  0.70825533703E+00 -0.23788515990E+02  0.56198183174E+02  0.61172733392E+02  0.41800000000E+01 0.  1.
         -5    1    3    3    0  502  0.43063639835E+02 -0.21091843704E+03  0.57229185825E+01  0.21538636994E+03  0.41800000000E+01 0.  1.
        -11    1    1    2    0    0 -0.16000533555E+02  0.88294375522E+02 -0.11523545474E+02  0.90469364556E+02  0.00000000000E+00 0. -1.
         11    1    1    2    0    0 -0.27771361618E+02  0.14641257750E+03  0.16228048397E+03  0.22032441275E+03  0.00000000000E+00 0.  1.
</event>
<event>
 7    1  0.3001243E-009  0.6469832E+02  0.7561462E-02  0.1379110E+00
         -1   -1    0    0    0  501 -0.00000000000E+00  0.00000000000E+00  0.37883887660E+02  0.37883887660E+02  0.00000000000E+00 0.  1.
          1   -1    0    0  501    0  0.00000000000E+00 -0.00000000000E+00 -0.34123567778E+03  0.34123567778E+03  0.00000000000E+00 0. -1.
         25    2    1    2    0    0 -0.20737625925E+02 -0.24729781334E+02 -0.16692762040E+03  0.21107856207E+03  0.12509083779E+03 0.  0.
          5    1    3    3  502    0 -0.25675549710E+02  0.19117916391E+02  0.57606461885E+01  0.32793078913E+02  0.41800000000E+01 0.  1.
         -5    1    3    3    0  502  0.49379237852E+01 -0.43847697726E+02 -0.17268826658E+03  0.17828548315E+03  0.41800000000E+01 0.  1.
        -11    1    1    2    0    0  0.25673373441E+02 -0.18660882461E+01 -0.13853745467E+03  0.14090859000E+03  0.00000000000E+00 0. -1.
         11    1    1    2    0    0 -0.49357475162E+01  0.26595869580E+02  0.21132849458E+01  0.27132413375E+02  0.00000000000E+00 0.  1.
</event>
<event>
 7    1  0.3001243E-009  0.1824100E+03  0.7561462E-02  0.1165491E+00
         -3   -1    0    0    0  501 -0.00000000000E+00  0.00000000000E+00  0.36331079340E+03  0.36331079340E+03  0.00000000000E+00 0.  1.
          3   -1    0    0  501    0  0.00000000000E+00 -0.00000000000E+00 -0.11644318339E+03  0.11644318339E+03  0.00000000000E+00 0. -1.
         25    2    1    2    0    0  0.10347181548E+03  0.10935625331E+03  0.22941448120E+03  0.30156872853E+03  0.12508991607E+03 0.  0.
          5    1    3    3  502    0 -0.27785055043E+02  0.25671606932E+02  0.63436838665E+02  0.73978007448E+02  0.41800000000E+01 0.  1.
         -5    1    3    3    0  502  0.13125687052E+03  0.83684646381E+02  0.16597764254E+03  0.22759072108E+03  0.41800000000E+01 0.  1.
        -11    1    1    2    0    0 -0.15462595440E+02  0.13081090049E+02  0.18447566683E+02  0.27395610801E+02  0.00000000000E+00 0.  1.
         11    1    1    2    0    0 -0.88009220036E+02 -0.12243734336E+03 -0.99443787919E+00  0.15078963747E+03  0.00000000000E+00 0. -1.
</event>
<event>
 7    1  0.3970426E-009  0.1164023E+03  0.7561462E-02  0.1249153E+00
          2   -1    0    0  501    0  0.00000000000E+00  0.00000000000E+00  0.46049636818E+03  0.46049636818E+03  0.00000000000E+00 0.  1.
         -2   -1    0    0    0  501 -0.00000000000E+00 -0.00000000000E+00 -0.45404913025E+02  0.45404913025E+02  0.00000000000E+00 0. -1.
         25    2    1    2    0    0 -0.60026662165E+02  0.69445098989E+02  0.18091393766E+03  0.23833808190E+03  0.12509742804E+03 0.  0.
          5    1    3    3  502    0 -0.55280366560E+02  0.85615188216E+02  0.19222957831E+03  0.21761333267E+03  0.41800000000E+01 0.  1.
         -5    1    3    3    0  502 -0.47462956048E+01 -0.16170089227E+02 -0.11315640644E+02  0.20724749233E+02  0.41800000000E+01 0.  1.
        -11    1    1    2    0    0  0.51829828547E+02 -0.91941797673E+01  0.17488036938E+03  0.18263079605E+03  0.00000000000E+00 0.  1.
         11    1    1    2    0    0  0.81968336174E+01 -0.60250919222E+02  0.59297148106E+02  0.84932403251E+02  0.00000000000E+00 0. -1.
</event>
<event>
 7    1  0.3001243E-009  0.1166275E+03  0.7561462E-02  0.1248767E+00
         -2   -1    0    0    0  501 -0.00000000000E+00  0.00000000000E+00  0.12890435155E+02  0.12890435155E+02  0.00000000000E+00 0. -1.
          2   -1    0    0  501    0  0.00000000000E+00 -0.00000000000E+00 -0.13928029383E+04  0.13928029383E+04  0.00000000000E+00 0.  1.
         25    2    1    2    0    0 -0.36807242633E+02 -0.39305507434E+02 -0.10501307760E+04  0.10589244106E+04  0.12508622859E+03 0.  0.
          5    1    3    3  502    0 -0.43056434319E+01  0.44287701282E+02 -0.43219987814E+03  0.43450448342E+03  0.41800000000E+01 0. -1.
         -5    1    3    3    0  502 -0.32501599201E+02 -0.83593208716E+02 -0.61793089789E+03  0.62441992718E+03  0.41800000000E+01 0. -1.
        -11    1    1    2    0    0  0.31287665410E+02 -0.21344694998E+02 -0.66444050402E+02  0.76480885489E+02  0.00000000000E+00 0. -1.
         11    1    1    2    0    0  0.55195772226E+01  0.60650202432E+02 -0.26333767671E+03  0.27028807736E+03  0.00000000000E+00 0.  1.
</event>
<event>
 7    1  0.3001243E-009  0.1095197E+03  0.7561462E-02  0.1261462E+00
          1   -1    0    0  501    0  0.00000000000E+00  0.00000000000E+00  0.37227786601E+02  0.37227786601E+02  0.00000000000E+00 0.  1.
         -1   -1    0    0    0  501 -0.00000000000E+00 -0.00000000000E+00 -0.49384033531E+03  0.49384033531E+03  0.00000000000E+00 0. -1.
         25    2    1    2    0    0 -0.23437493640E+02  0.56333365842E+02 -0.35913077384E+03  0.38515256773E+03  0.12507926884E+03 0.  0.
          5    1    3    3  502    0 -0.18344736091E+02 -0.38807024645E+02 -0.94970020192E+02  0.10430384288E+03  0.41800000000E+01 0. -1.
         -5    1    3    3    0  502 -0.50927575491E+01  0.95140390488E+02 -0.26416075365E+03  0.28084872485E+03  0.41800000000E+01 0. -1.
        -11    1    1    2    0    0 -0.19575697857E+01 -0.55082968573E+02 -0.11568254313E+02  0.56318647126E+02  0.00000000000E+00 0.  1.
         11    1    1    2    0    0  0.25395063426E+02 -0.12503972696E+01 -0.85913520561E+02  0.89596907061E+02  0.00000000000E+00 0. -1.
</event>
<event>
 7    1  0.3001243E-009  0.3371014E+03  0.7561462E-02  0.1068037E+00
          1   -1    0    0  501    0  0.00000000000E+00  0.00000000000E+00  0.11269735372E+04  0.11269735372E+04  0.00000000000E+00 0. -1.
         -1   -1    0    0    0  501 -0.00000000000E+00 -0.00000000000E+00 -0.19808683072E+03  0.19808683072E+03  0.00000000000E+00 0.  1.
         25    2    1    2    0    0 -0.27608808719E+03 -0.17474010506E+03  0.91890492938E+03  0.98325601841E+03  0.12508953711E+03 0.  0.
          5    1    3    3  502    0 -0.68489086228E+02 -0.10787759831E+03  0.41268451232E+03  0.43203507990E+03  0.41800000000E+01 0.  1.
         -5    1    3    3    0  502 -0.20759900097E+03 -0.66862506753E+02  0.50622041706E+03  0.55122093851E+03  0.41800000000E+01 0.  1.
        -11    1    1    2    0    0  0.10359204426E+03  0.83602716725E+02  0.50809025685E+02  0.14248607991E+03  0.00000000000E+00 0. -1.
         11    1    1    2    0    0  0.17249604293E+03  0.91137388337E+02 -0.40827248567E+02  0.19931826962E+03  0.00000000000E+00 0.  1.
</event>
<event>
 7    1  0.3001243E-009  0.1142008E+03  0.7561462E-02  0.1252983E+00
          1   -1    0    0  501    0  0.00000000000E+00  0.00000000000E+00  0.13831398529E+04  0.13831398529E+04  0.00000000000E+00 0. -1.
         -1   -1    0    0    0  501 -0.00000000000E+00 -0.00000000000E+00 -0.13553020834E+02  0.13553020834E+02  0.00000000000E+00 0.  1.
         25    2    1    2    0    0  0.20906809192E+02 -0.31935351139E+02  0.11327238640E+04  0.11402489417E+04  0.12508931038E+03 0.  0.
          5    1    3    3  502    0 -0.21814063859E+02  0.40696859238E+02  0.41721415389E+03  0.41978233686E+03  0.41800000000E+01 0. -1.
         -5    1    3    3    0  502  0.42720873051E+02 -0.72632210377E+02  0.71550971011E+03  0.72046660480E+03  0.41800000000E+01 0. -1.
        -11    1    1    2    0    0  0.32139700655E+02  0.30942996637E+02  0.12256086643E+03  0.13042850677E+03  0.00000000000E+00 0.  1.
         11    1    1    2    0    0 -0.53046509847E+02  0.99235450204E+00  0.11430210166E+03  0.12601542532E+03  0.00000000000E+00 0. -1.
</event>
<event>
 7    1  0.3001243E-009  0.1619737E+03  0.7561462E-02  0.1186486E+00
         -2   -1    0    0    0  501 -0.00000000000E+00  0.00000000000E+00  0.71163866568E+03  0.71163866568E+03  0.00000000000E+00 0.  1.
          2   -1    0    0  501    0  0.00000000000E+00 -0.00000000000E+00 -0.56909320533E+02  0.56909320533E+02  0.00000000000E+00 0. -1.
         25    2    1    2    0    0 -0.66479428987E+02 -0.13881945194E+03  0.47441065179E+03  0.51420182043E+03  0.12509073062E+03 0.  0.
          5    1    3    3  502    0 -0.11241814332E+02 -0.12475233152E+02  0.25123379867E+03  0.25182911631E+03  0.41800000000E+01 0.  1.
         -5    1    3    3    0  502 -0.55237614655E+02 -0.12634421879E+03  0.22317685312E+03  0.26237270412E+03  0.41800000000E+01 0.  1.
        -11    1    1    2    0    0  0.21375363383E+02 -0.13711391301E+01  0.61497125634E+02  0.65120523980E+02  0.00000000000E+00 0.  1.
         11    1    1    2    0    0  0.45104065604E+02  0.14019059107E+03  0.11882156772E+03  0.18922564180E+03  0.00000000000E+00 0. -1.
</event>
<event>
 7    1  0.3001243E-009  0.1523188E+03  0.7561462E-02  0.1197652E+00
          2   -1    0    0  501    0  0.00000000000E+00  0.00000000000E+00  0.19024309345E+04  0.19024309345E+04  0.00000000000E+00 0. -1.
         -2   -1    0    0    0  501 -0.00000000000E+00 -0.00000000000E+00 -0.15007469052E+02  0.15007469052E+02  0.00000000000E+00 0.  1.
         25    2    1    2    0    0  0.10208253670E+03  0.80340970375E+02  0.10961767542E+04  0.11109126233E+04  0.12509142422E+03 0.  0.
          5    1    3    3  502    0  0.49592880754E+01  0.44217653578E+02  0.10224999350E+03  0.11159000402E+03  0.41800000000E+01 0.  1.
         -5    1    3    3    0  502  0.97123248627E+02  0.36123316797E+02  0.99392676067E+03  0.99932261929E+03  0.41800000000E+01 0.  1.
        -11    1    1    2    0    0  0.13971160928E+02 -0.22710699038E+02  0.13243827568E+03  0.13509576623E+03  0.00000000000E+00 0. -1.
         11    1    1    2    0    0 -0.11605369763E+03 -0.57630271337E+02  0.65880843558E+03  0.67143001400E+03  0.00000000000E+00 0.  1.
</event>
<event>
 7    1  0.3001243E-009  0.1384952E+03  0.7561462E-02  0.1215368E+00
         -1   -1    0    0    0  501 -0.00000000000E+00  0.00000000000E+00  0.10416175141E+03  0.10416175141E+03  0.00000000000E+00 0.  1.
          1   -1    0    0  501    0  0.00000000000E+00 -0.00000000000E+00 -0.29610930390E+03  0.29610930390E+03  0.00000000000E+00 0. -1.
         25    2    1    2    0    0  0.98600937630E+02  0.30840028491E+02  0.29200761273E+01  0.16226631501E+03  0.12509427598E+03 0.  0.
          5    1    3    3  502    0  0.93707683489E+02  0.69623517409E+02 -0.17245425860E+02  0.11808234938E+03  0.41800000000E+01 0. -1.
         -5    1    3    3    0  502  0.48932541412E+01 -0.38783488918E+02  0.20165501988E+02  0.44183965634E+02  0.41800000000E+01 0. -1.
        -11    1    1    2    0    0 -0.51434068269E+02 -0.48307901355E+02 -0.55299724209E+02  0.89650299551E+02  0.00000000000E+00 0.  1.
         11    1    1    2    0    0 -0.47166869361E+02  0.17467872864E+02 -0.13956790441E+03  0.14835444075E+03  0.00000000000E+00 0. -1.
</event>
<event>
 7    1  0.3001243E-009  0.1246303E+03  0.7561462E-02  0.1235648E+00
         -2   -1    0    0    0  501 -0.00000000000E+00  0.00000000000E+00  0.16851022656E+03  0.16851022656E+03  0.00000000000E+00 0.  1.
          2   -1    0    0  501    0  0.00000000000E+00 -0.00000000000E+00 -0.10594567622E+03  0.10594567622E+03  0.00000000000E+00 0. -1.
         25    2    1    2    0    0 -0.14326915422E+02  0.73641999446E+02  0.25023380531E+02  0.14799805217E+03  0.12509536077E+03 0.  0.
          5    1    3    3  502    0 -0.60090123339E+02  0.15775211174E+02  0.38039100240E+02  0.72966607140E+02  0.41800000000E+01 0. -1.
         -5    1    3    3    0  502  0.45763207917E+02  0.57866788272E+02 -0.13015719709E+02  0.75031445030E+02  0.41800000000E+01 0. -1.
        -11    1    1    2    0    0 -0.35607905885E+02 -0.26063800772E+02 -0.65294364110E+01  0.44608050978E+02  0.00000000000E+00 0. -1.
         11    1    1    2    0    0  0.49934821307E+02 -0.47578198674E+02  0.44070606221E+02  0.81849799637E+02  0.00000000000E+00 0.  1.
</event>
<event>
 7    1  0.3001243E-009  0.1749267E+03  0.7561462E-02  0.1172805E+00
         -2   -1    0    0    0  501 -0.00000000000E+00  0.00000000000E+00  0.11303483577E+03  0.11303483577E+03  0.00000000000E+00 0. -1.
          2   -1    0    0  501    0  0.00000000000E+00 -0.00000000000E+00 -0.34597171728E+03  0.34597171728E+03  0.00000000000E+00 0.  1.
         25    2    1    2    0    0  0.13041828105E+03 -0.93060547343E+02 -0.77976049852E+02  0.21771003019E+03  0.12509276314E+03 0.  0.
          5    1    3    3  502    0  0.53607930417E+02 -0.96131708436E+02 -0.29122720248E+01  0.11018652049E+03  0.41800000000E+01 0. -1.
         -5    1    3    3    0  502  0.76810350631E+02  0.30711610933E+01 -0.75063777827E+02  0.10752350969E+03  0.41800000000E+01 0. -1.
        -11    1    1    2    0    0 -0.11380776514E+03  0.67754583746E+02 -0.16295002058E+03  0.20998952410E+03  0.00000000000E+00 0.  1.
         11    1    1    2    0    0 -0.16610515905E+02  0.25305963597E+02  0.79891889241E+01  0.31306998768E+02  0.00000000000E+00 0. -1.
</event>
<event>
 7    1  0.3001243E-009  0.1497051E+03  0.7561462E-02  0.1200836E+00
         -1   -1    0    0    0  501 -0.00000000000E+00  0.00000000000E+00  0.35422365498E+03  0.35422365498E+03  0.00000000000E+00 0.  1.
          1   -1    0    0  501    0  0.00000000000E+00 -0.00000000000E+00 -0.82772194780E+02  0.82772194780E+02  0.00000000000E+00 0. -1.
         25    2    1    2    0    0 -0.90023662846E+02 -0.87276944037E+02  0.85603267226E+02  0.19671630861E+03  0.12509141409E+03 0.  0.
          5    1    3    3  502    0 -0.11400488559E+03 -0.86754956426E+02  0.46544231621E+02  0.15068966222E+03  0.41800000000E+01 0. -1.
         -5    1    3    3    0  502  0.23981222744E+02 -0.52198761053E+00  0.39059035605E+02  0.46026646388E+02  0.41800000000E+01 0. -1.
        -11    1    1    2    0    0  0.67043468655E+02  0.37270776783E+02  0.44697262748E+02  0.88779405205E+02  0.00000000000E+00 0. -1.
         11    1    1    2    0    0  0.22980194191E+02  0.50006167254E+02  0.14115093023E+03  0.15150013595E+03  0.00000000000E+00 0.  1.
</event>
<event>
 7    1  0.3001243E-009  0.1256515E+03  0.7561462E-02  0.1234055E+00
         -1   -1    0    0    0  501 -0.00000000000E+00  0.00000000000E+00  0.19071756057E+02  0.19071756057E+02  0.00000000000E+00 0.  1.
          1   -1    0    0  501    0  0.00000000000E+00 -0.00000000000E+00 -0.83863956291E+03  0.83863956291E+03  0.00000000000E+00 0. -1.
         25    2    1    2    0    0 -0.62942732615E+02  0.18879300827E+02 -0.48290335182E+03  0.50315104330E+03  0.12508840707E+03 0.  0.
          5    1    3    3  502    0 -0.82163992735E+02  0.55836312588E+02 -0.34155086874E+03  0.35572894716E+03  0.41800000000E+01 0.  1.
         -5    1    3    3    0  502  0.19221260120E+02 -0.36957011760E+02 -0.14135248308E+03  0.14742209614E+03  0.41800000000E+01 0.  1.
        -11    1    1    2    0    0 -0.26372077121E+01  0.28804642773E+02 -0.11330700926E+03  0.11694075704E+03  0.00000000000E+00 0.  1.
         11    1    1    2    0    0  0.65579940327E+02 -0.47683943601E+02 -0.22335744577E+03  0.23761951862E+03  0.00000000000E+00 0. -1.
</event>
<event>
 7    1  0.3001243E-009  0.1132054E+03  0.7561462E-02  0.1254747E+00
          1   -1    0    0  501    0  0.00000000000E+00  0.00000000000E+00  0.17843333235E+04  0.17843333235E+04  0.00000000000E+00 0. -1.
         -1   -1    0    0    0  501 -0.00000000000E+00 -0.00000000000E+00 -0.10034046076E+02  0.10034046076E+02  0.00000000000E+00 0.  1.
         25    2    1    2    0    0  0.52284172142E+02  0.36381441436E+02  0.12920873455E+04  0.12996901686E+04  0.12509029558E+03 0.  0.
          5    1    3    3  502    0  0.79700302107E+02  0.38327033264E+02  0.12055518400E+04  0.12087984989E+04  0.41800000000E+01 0.  1.
         -5    1    3    3    0  502 -0.27416129964E+02 -0.19455918275E+01  0.86535505539E+02  0.90891669743E+02  0.41800000000E+01 0.  1.
        -11    1    1    2    0    0 -0.77804566140E+02 -0.32239741557E+02  0.38315604154E+03  0.39230282132E+03  0.00000000000E+00 0.  1.
         11    1    1    2    0    0  0.25520393998E+02 -0.41416998788E+01  0.99055890420E+02  0.10237437968E+03  0.00000000000E+00 0. -1.
</event>
<event>
 7    1  0.3825036E-009  0.1042155E+03  0.7561462E-02  0.1271673E+00
          2   -1    0    0  501    0  0.00000000000E+00  0.00000000000E+00  0.26003669701E+03  0.26003669701E+03  0.00000000000E+00 0.  1.
         -2   -1    0    0    0  501 -0.00000000000E+00 -0.00000000000E+00 -0.73356423711E+02  0.73356423711E+02  0.00000000000E+00 0. -1.
         25    2    1    2    0    0  0.61179806133E+02 -0.55236839613E+02  0.73814299980E+02  0.16700050911E+03  0.12508613845E+03 0.  0.
          5    1    3    3  502    0 -0.23603857799E+02 -0.18315886121E+02  0.67833358855E+02  0.74239145744E+02  0.41800000000E+01 0. -1.
         -5    1    3    3    0  502  0.84783663932E+02 -0.36920953492E+02  0.59809411254E+01  0.92761363365E+02  0.41800000000E+01 0. -1.
        -11    1    1    2    0    0 -0.25587398189E+02  0.85285159883E+01  0.10346301637E+03  0.10692074769E+03  0.00000000000E+00 0.  1.
         11    1    1    2    0    0 -0.35592407944E+02  0.46708323625E+02  0.94029569549E+01  0.59471863924E+02  0.00000000000E+00 0. -1.
</event>
<event>
 7    1  0.3001243E-009  0.8771565E+02  0.7561462E-02  0.1308480E+00
          1   -1    0    0  501    0  0.00000000000E+00  0.00000000000E+00  0.77990331671E+02  0.77990331671E+02  0.00000000000E+00 0. -1.
         -1   -1    0    0    0  501 -0.00000000000E+00 -0.00000000000E+00 -0.17276379202E+03  0.17276379202E+03  0.00000000000E+00 0.  1.
         25    2    1    2    0    0  0.32174395686E+02 -0.24595248738E+02 -0.42173756373E+02  0.13808082761E+03  0.12509025233E+03 0.  0.
          5    1    3    3  502    0  0.41145190357E+02 -0.62695254064E+02 -0.58763173968E+02  0.95363539083E+02  0.41800000000E+01 0.  1.
         -5    1    3    3    0  502 -0.89707946707E+01  0.38100005326E+02  0.16589417594E+02  0.42717288525E+02  0.41800000000E+01 0.  1.
        -11    1    1    2    0    0 -0.35527266773E+02 -0.60988484472E+00 -0.72265450195E+02  0.80528590797E+02  0.00000000000E+00 0.  1.
         11    1    1    2    0    0  0.33528710866E+01  0.25205133583E+02  0.19665746220E+02  0.32144705285E+02  0.00000000000E+00 0. -1.
</event>
<event>
 7    1  0.3001243E-009  0.1704094E+03  0.7561462E-02  0.1177422E+00
          1   -1    0    0  501    0  0.00000000000E+00  0.00000000000E+00  0.65176626704E+03  0.65176626704E+03  0.00000000000E+00 0. -1.
         -1   -1    0    0    0  501 -0.00000000000E+00 -0.00000000000E+00 -0.57239349962E+02  0.57239349962E+02  0.00000000000E+00 0.  1.
         25    2    1    2    0    0 -0.56939411937E+02 -0.12872505645E+03  0.17276075137E+03  0.25554232041E+03  0.12507343251E+03 0.  0.
          5    1    3    3  502    0 -0.81273977467E+02 -0.33400346381E+02  0.63736818397E+02  0.10863193348E+03  0.41800000000E+01 0.  1.
         -5    1    3    3    0  502  0.24334565529E+02 -0.95324710071E+02  0.10902393297E+03  0.14691038694E+03  0.41800000000E+01 0.  1.
        -11    1    1    2    0    0  0.45343367170E+02  0.28653161093E+02  0.73969087694E+02  0.91369855648E+02  0.00000000000E+00 0.  1.
         11    1    1    2    0    0  0.11596044768E+02  0.10007189536E+03  0.34779707802E+03  0.36209344094E+03  0.00000000000E+00 0. -1.
</event>
<event>
 7    1  0.3001243E-009  0.1320814E+03  0.7561462E-02  0.1224400E+00
          2   -1    0    0  501    0  0.00000000000E+00  0.00000000000E+00  0.81787504760E+03  0.81787504760E+03  0.00000000000E+00 0. -1.
         -2   -1    0    0    0  501 -0.00000000000E+00 -0.00000000000E+00 -0.31557747344E+02  0.31557747344E+02  0.00000000000E+00 0.  1.
         25    2    1    2    0    0 -0.11731343492E+03  0.11920423052E+02  0.45239617589E+03  0.48395707880E+03  0.12509042994E+03 0.  0.
          5    1    3    3  502    0 -0.89063338566E+02  0.14740321363E+02  0.44532489952E+03  0.45440212795E+03  0.41800000000E+01 0.  1.
         -5    1    3    3    0  502 -0.28250096351E+02 -0.28198983111E+01  0.70712763681E+01  0.29554950851E+02  0.41800000000E+01 0.  1.
        -11    1    1    2    0    0  0.94432537231E+02  0.28506776856E+02  0.18752418018E+03  0.21188548456E+03  0.00000000000E+00 0. -1.
         11    1    1    2    0    0  0.22880897687E+02 -0.40427199908E+02  0.14639694419E+03  0.15359023159E+03  0.00000000000E+00 0.  1.
</event>
<event>
 7    1  0.3001243E-009  0.2199689E+03  0.7561462E-02  0.1133906E+00
         -1   -1    0    0    0  501 -0.00000000000E+00  0.00000000000E+00  0.63237755922E+02  0.63237755922E+02  0.00000000000E+00 0.  1.
          1   -1    0    0  501    0  0.00000000000E+00 -0.00000000000E+00 -0.85421497010E+03  0.85421497010E+03  0.00000000000E+00 0. -1.
         25    2    1    2    0    0  0.19199226419E+03  0.69393266631E+02 -0.42427872512E+03  0.48717217139E+03  0.12509129876E+03 0.  0.
          5    1    3    3  502    0 -0.12796665871E+02 -0.83700693848E+01 -0.10642696733E+02  0.19093247829E+02  0.41800000000E+01 0.  1.
         -5    1    3    3    0  502  0.20478893006E+03  0.77763336016E+02 -0.41363602839E+03  0.46807892356E+03  0.41800000000E+01 0.  1.
        -11    1    1    2    0    0 -0.84701614110E+02 -0.40444225074E+02 -0.81903731101E+02  0.12457254891E+03  0.00000000000E+00 0.  1.
         11    1    1    2    0    0 -0.10729065008E+03 -0.28949041557E+02 -0.28479475796E+03  0.30570800572E+03  0.00000000000E+00 0. -1.
</event>
<event>
 7    1  0.3001243E-009  0.1233081E+03  0.7561462E-02  0.1237737E+00
         -2   -1    0    0    0  501 -0.00000000000E+00  0.00000000000E+00  0.33042481498E+02  0.33042481498E+02  0.00000000000E+00 0.  1.
          2   -1    0    0  501    0  0.00000000000E+00 -0.00000000000E+00 -0.87733103572E+03  0.87733103572E+03  0.00000000000E+00 0. -1.
         25    2    1    2    0    0  0.91184726882E+02 -0.42716281196E+02 -0.25286425856E+03  0.29954544455E+03  0.12509118674E+03 0.  0.
          5    1    3    3  502    0  0.83761966838E+01 -0.87619723177E+01 -0.18919752932E+03  0.18963151196E+03  0.41800000000E+01 0. -1.
         -5    1    3    3    0  502  0.82808530198E+02 -0.33954308878E+02 -0.63666729245E+02  0.10991393259E+03  0.41800000000E+01 0. -1.
        -11    1    1    2    0    0 -0.23078105202E+02 -0.34328825569E+02 -0.91185567433E+02  0.10012929098E+03  0.00000000000E+00 0.  1.
         11    1    1    2    0    0 -0.68106621680E+02  0.77045106765E+02 -0.50023872823E+03  0.51069878168E+03  0.00000000000E+00 0. -1.
</event>
<event>
 7    1  0.3001243E-009  0.1537842E+03  0.7561462E-02  0.1195899E+00
          1   -1    0    0  501    0  0.00000000000E+00  0.00000000000E+00  0.13583334862E+04  0.13583334862E+04  0.00000000000E+00 0. -1.
         -1   -1    0    0    0  501 -0.00000000000E+00 -0.00000000000E+00 -0.23585449851E+02  0.23585449851E+02  0.00000000000E+00 0.  1.
         25    2    1    2    0    0 -0.72759077483E+02 -0.10163084574E+03  0.96120617038E+03  0.97733668557E+03  0.12508790043E+03 0.  0.
          5    1    3    3  502    0  0.32346016312E+02 -0.38421099731E+02  0.37910574782E+03  0.38244095767E+03  0.41800000000E+01 0. -1.
         -5    1    3    3    0  502 -0.10510509379E+03 -0.63209746008E+02  0.58210042256E+03  0.59489572790E+03  0.41800000000E+01 0. -1.
        -11    1    1    2    0    0  0.36440578292E+01  0.44865935391E+02  0.43356380089E+02  0.62498056053E+02  0.00000000000E+00 0.  1.
         11    1    1    2    0    0  0.69115019654E+02  0.56764910348E+02  0.33018548590E+03  0.34208419445E+03  0.00000000000E+00 0. -1.
</event>
<event>
 7    1  0.3001243E-009  0.1323289E+03  0.7561462E-02  0.1224040E+00
          2   -1    0    0  501    0  0.00000000000E+00  0.00000000000E+00  0.49930219433E+03  0.49930219433E+03  0.00000000000E+00 0.  1.
         -2   -1    0    0    0  501 -0.00000000000E+00 -0.00000000000E+00 -0.37699400602E+02  0.37699400602E+02  0.00000000000E+00 0. -1.
         25    2    1    2    0    0  0.19576167942E+01  0.82044223885E+02  0.22698755624E+03  0.27185687920E+03  0.12509086755E+03 0.  0.
          5    1    3    3  502    0  0.74700683605E+01  0.11452227702E+03  0.15836742879E+03  0.19562430513E+03  0.41800000000E+01 0. -1.
         -5    1    3    3    0  502 -0.55124515663E+01 -0.32478053138E+02  0.68620127456E+02  0.76232574074E+02  0.41800000000E+01 0. -1.
        -11    1    1    2    0    0  0.39417664286E+02 -0.27125819135E+02  0.14165298602E+03  0.14951632276E+03  0.00000000000E+00 0.  1.
         11    1    1    2    0    0 -0.41375281080E+02 -0.54918404751E+02  0.92962251466E+02  0.11562839298E+03  0.00000000000E+00 0. -1.
</event>
<event>
 7    1  0.3001243E-009  0.6977391E+02  0.7561462E-02  0.1360864E+00
         -1   -1    0    0    0  501 -0.00000000000E+00  0.00000000000E+00  0.47160183960E+03  0.47160183960E+03  0.00000000000E+00 0.  1.
          1   -1    0    0  501    0  0.00000000000E+00 -0.00000000000E+00 -0.24794104268E+02  0.24794104268E+02  0.00000000000E+00 0. -1.
         25    2    1    2    0    0  0.87027470685E+01  0.32890531096E+01  0.26077545527E+03  0.28937559275E+03  0.12509132636E+03 0.  0.
          5    1    3    3  502    0 -0.15946226686E+02  0.14114924281E+02  0.26122775249E+03  0.26212768702E+03  0.41800000000E+01 0.  1.
         -5    1    3    3    0  502  0.24648973755E+02 -0.10825871171E+02 -0.45229721951E+00  0.27247905728E+02  0.41800000000E+01 0.  1.
        -11    1    1    2    0    0  0.40030735349E+02 -0.10380464091E+02  0.92205104089E+02  0.10105441617E+03  0.00000000000E+00 0. -1.
         11    1    1    2    0    0 -0.48733482417E+02  0.70914109818E+01  0.93827175967E+02  0.10596593494E+03  0.00000000000E+00 0.  1.
</event>
<event>
 7    1  0.3001243E-009  0.2884321E+03  0.7561462E-02  0.1091171E+00
         -1   -1    0    0    0  501 -0.00000000000E+00  0.00000000000E+00  0.49018946601E+03  0.49018946601E+03  0.00000000000E+00 0.  1.
          1   -1    0    0  501    0  0.00000000000E+00 -0.00000000000E+00 -0.18146749537E+03  0.18146749537E+03  0.00000000000E+00 0. -1.
         25    2    1    2    0    0 -0.18952003141E+03  0.20146058493E+03  0.14480993283E+03  0.33633563791E+03  0.12509010790E+03 0.  0.
          5    1    3    3  502    0 -0.85563164214E+02  0.15803286782E+03  0.13168933816E+03  0.22283401124E+03  0.41800000000E+01 0. -1.
         -5    1    3    3    0  502 -0.10395686720E+03  0.43427717113E+02  0.13120594673E+02  0.11350162667E+03  0.41800000000E+01 0. -1.
        -11    1    1    2    0    0  0.77627156342E+02 -0.13058011197E+03  0.12650017637E+03  0.19768519334E+03  0.00000000000E+00 0.  1.
         11    1    1    2    0    0  0.11189287507E+03 -0.70880472965E+02  0.37411861441E+02  0.13763613013E+03  0.00000000000E+00 0. -1.
</event>
<event>
 7    1  0.3001243E-009  0.1128935E+03  0.7561462E-02  0.1255303E+00
         -1   -1    0    0    0  501 -0.00000000000E+00  0.00000000000E+00  0.22191800553E+03  0.22191800553E+03  0.00000000000E+00 0.  1.
          1   -1    0    0  501    0  0.00000000000E+00 -0.00000000000E+00 -0.74504718850E+02  0.74504718850E+02  0.00000000000E+00 0. -1.
         25    2    1    2    0    0 -0.10358140233E+02 -0.66083372249E+02  0.99130445116E+02  0.17304520445E+03  0.12507395603E+03 0.  0.
          5    1    3    3  502    0  0.50061280764E+02 -0.18250500307E+02  0.75173520242E+02  0.92237428080E+02  0.41800000000E+01 0.  1.
         -5    1    3    3    0  502 -0.60419420997E+02 -0.47832871942E+02  0.23956924873E+02  0.80807776366E+02  0.41800000000E+01 0.  1.
        -11    1    1    2    0    0  0.37917399135E+02  0.24048944262E+02 -0.10422049318E+02  0.46094468098E+02  0.00000000000E+00 0. -1.
         11    1    1    2    0    0 -0.27559258902E+02  0.42034427987E+02  0.58704890880E+02  0.77283051833E+02  0.00000000000E+00 0.  1.
</event>
<event>
 7    1  0.3001243E-009  0.7924398E+02  0.7561462E-02  0.1331211E+00
         -2   -1    0    0    0  501 -0.00000000000E+00  0.00000000000E+00  0.87112416854E+02  0.87112416854E+02  0.00000000000E+00 0.  1.
          2   -1    0    0  501    0  0.00000000000E+00 -0.00000000000E+00 -0.20103325356E+03  0.20103325356E+03  0.00000000000E+00 0. -1.
         25    2    1    2    0    0  0.41230540081E+02 -0.13433957414E+02 -0.13065733493E+03  0.18601127064E+03  0.12509366486E+03 0.  0.
          5    1    3    3  502    0  0.67018579243E+02 -0.34384438305E+02 -0.32218304435E+02  0.82032134569E+02  0.41800000000E+01 0. -1.
         -5    1    3    3    0  502 -0.25788039162E+02  0.20950480891E+02 -0.98439030499E+02  0.10397913608E+03  0.41800000000E+01 0. -1.
        -11    1    1    2    0    0 -0.26361453410E+02 -0.39815429821E+01  0.52952886835E+02  0.59285640206E+02  0.00000000000E+00 0.  1.
         11    1    1    2    0    0 -0.14869086671E+02  0.17415500396E+02 -0.36216388611E+02  0.42848759568E+02  0.00000000000E+00 0. -1.
</event>
<event>
 7    1  0.3001243E-009  0.1131651E+03  0.7561462E-02  0.1254818E+00
         -1   -1    0    0    0  501 -0.00000000000E+00  0.00000000000E+00  0.19773500192E+03  0.19773500192E+03  0.00000000000E+00 0.  1.
          1   -1    0    0  501    0  0.00000000000E+00 -0.00000000000E+00 -0.96452095694E+02  0.96452095694E+02  0.00000000000E+00 0. -1.
         25    2    1    2    0    0 -0.50556147581E+02  0.22624498628E+01 -0.16669148229E+02  0.13596152225E+03  0.12508649924E+03 0.  0.
          5    1    3    3  502    0 -0.26151701456E+02  0.62520582381E+02 -0.19839792044E+02  0.70737715956E+02  0.41800000000E+01 0. -1.
         -5    1    3    3    0  502 -0.24404446125E+02 -0.60258132518E+02  0.31706438148E+01  0.65223806294E+02  0.41800000000E+01 0. -1.
        -11    1    1    2    0    0  0.11144808747E+02  0.36404787518E+02  0.86913903386E+02  0.94886995516E+02  0.00000000000E+00 0.  1.
         11    1    1    2    0    0  0.39411338834E+02 -0.38667237381E+02  0.31038151068E+02  0.63338579847E+02  0.00000000000E+00 0. -1.
</event>
<event>
 7    1  0.3001243E-009  0.7847041E+02  0.7561462E-02  0.1333449E+00
         -1   -1    0    0    0  501 -0.00000000000E+00  0.00000000000E+00  0.25302935436E+03  0.25302935436E+03  0.00000000000E+00 0.  1.
          1   -1    0    0  501    0  0.00000000000E+00 -0.00000000000E+00 -0.55907224226E+02  0.55907224226E+02  0.00000000000E+00 0. -1.
         25    2    1    2    0    0 -0.17936943645E+02  0.17257018167E+02  0.40033313219E+02  0.13367890540E+03  0.12509134645E+03 0.  0.
          5    1    3    3  502    0  0.25395983510E+02  0.46601627795E+02  0.57488838991E+02  0.78352451780E+02  0.41800000000E+01 0. -1.
         -5    1    3    3    0  502 -0.43332927155E+02 -0.29344609628E+02 -0.17455525771E+02  0.55326453618E+02  0.41800000000E+01 0. -1.
        -11    1    1    2    0    0  0.30775564394E+02 -0.21656925731E+02  0.15724479706E+03  0.16168513845E+03  0.00000000000E+00 0.  1.
         11    1    1    2    0    0 -0.12838620748E+02  0.43999075637E+01 -0.15598014137E+00  0.13572534734E+02  0.00000000000E+00 0. -1.
</event>
<event>
 7    1  0.3001243E-009  0.9791763E+02  0.7561462E-02  0.1284737E+00
          3   -1    0    0  501    0  0.00000000000E+00  0.00000000000E+00  0.45618423490E+03  0.45618423490E+03  0.00000000000E+00 0. -1.
         -3   -1    0    0    0  501 -0.00000000000E+00 -0.00000000000E+00 -0.37556718305E+02  0.37556718305E+02  0.00000000000E+00 0.  1.
         25    2    1    2    0    0 -0.21360823303E+02  0.39521039564E+02  0.34317465139E+03  0.36801393440E+03  0.12508883728E+03 0.  0.
          5    1    3    3  502    0  0.12512907785E+02 -0.36915477546E+02  0.52473456253E+02  0.65500086678E+02  0.41800000000E+01 0.  1.
         -5    1    3    3    0  502 -0.33873731088E+02  0.76436517110E+02  0.29070119514E+03  0.30251384772E+03  0.41800000000E+01 0.  1.
        -11    1    1    2    0    0 -0.12153038754E+02 -0.37418984315E+02 -0.39252322887E+01  0.39538388772E+02  0.00000000000E+00 0.  1.
         11    1    1    2    0    0  0.33513862057E+02 -0.21020552487E+01  0.79378097490E+02  0.86188630036E+02  0.00000000000E+00 0. -1.
</event>
<event>
 7    1  0.3001243E-009  0.1379858E+03  0.7561462E-02  0.1216065E+00
          2   -1    0    0  501    0  0.00000000000E+00  0.00000000000E+00  0.22167746727E+03  0.22167746727E+03  0.00000000000E+00 0. -1.
         -2   -1    0    0    0  501 -0.00000000000E+00 -0.00000000000E+00 -0.11825173570E+03  0.11825173570E+03  0.00000000000E+00 0.  1.
         25    2    1    2    0    0 -0.46269935887E+02  0.79926612902E+02 -0.24508012714E+02  0.15740986631E+03  0.12509217764E+03 0.  0.
          5    1    3    3  502    0 -0.33005367982E+02  0.11332628409E+03 -0.26962288628E+02  0.12114717656E+03  0.41800000000E+01 0.  1.
         -5    1    3    3    0  502 -0.13264567905E+02 -0.33399671187E+02  0.24542759132E+01  0.36262689743E+02  0.41800000000E+01 0.  1.
        -11    1    1    2    0    0  0.16398397892E+02  0.14965363610E+02  0.54563489354E+02  0.58907078793E+02  0.00000000000E+00 0. -1.
         11    1    1    2    0    0  0.29871537995E+02 -0.94891976512E+02  0.73370254927E+02  0.12361225787E+03  0.00000000000E+00 0.  1.
</event>
<event>
 7    1  0.3001243E-009  0.2265048E+03  0.7561462E-02  0.1129124E+00
          1   -1    0    0  501    0  0.00000000000E+00  0.00000000000E+00  0.22815203488E+03  0.22815203488E+03  0.00000000000E+00 0. -1.
         -1   -1    0    0    0  501 -0.00000000000E+00 -0.00000000000E+00 -0.28267784249E+03  0.28267784249E+03  0.00000000000E+00 0.  1.
         25    2    1    2    0    0 -0.17995308448E+03  0.13132336390E+03 -0.59089518822E+02  0.26223422752E+03  0.12508509236E+03 0.  0.
          5    1    3    3  502    0 -0.35216994890E+02  0.16200730700E+01 -0.57804958597E+02  0.67836177695E+02  0.41800000000E+01 0.  1.
         -5    1    3    3    0  502 -0.14473608959E+03  0.12970329083E+03 -0.12845602255E+01  0.19439804983E+03  0.41800000000E+01 0.  1.
        -11    1    1    2    0    0  0.46394922733E+02 -0.40663510956E+02  0.51635974754E+02  0.80450505700E+02  0.00000000000E+00 0. -1.
         11    1    1    2    0    0  0.13355816175E+03 -0.90659852945E+02 -0.47072263536E+02  0.16814514414E+03  0.00000000000E+00 0.  1.
</event>
<event>
 7    1  0.3001243E-009  0.7152137E+02  0.7561462E-02  0.1354995E+00
         -2   -1    0    0    0  501 -0.00000000000E+00  0.00000000000E+00  0.16590427125E+03  0.16590427125E+03  0.00000000000E+00 0. -1.
          2   -1    0    0  501    0  0.00000000000E+00 -0.00000000000E+00 -0.77802539654E+02  0.77802539654E+02  0.00000000000E+00 0.  1.
         25    2    1    2    0    0 -0.16499286304E+01 -0.22185230076E+02  0.79916811553E+02  0.15009578353E+03  0.12508853171E+03 0.  0.
          5    1    3    3  502    0 -0.43704175125E+02  0.50942550319E+00 -0.12774694567E+02  0.45727231045E+02  0.41800000000E+01 0. -1.
         -5    1    3    3    0  502  0.42054246495E+02 -0.22694655579E+02  0.92691506120E+02  0.10436855248E+03  0.41800000000E+01 0. -1.
        -11    1    1    2    0    0  0.21406799698E+02 -0.70223070022E-01 -0.35082041492E+02  0.41097513791E+02  0.00000000000E+00 0.  1.
         11    1    1    2    0    0 -0.19756871067E+02  0.22255453146E+02  0.43266961538E+02  0.52513513592E+02  0.00000000000E+00 0. -1.
</event>
<event>
 7    1  0.3001243E-009  0.1050061E+03  0.7561462E-02  0.1270108E+00
          2   -1    0    0  501    0  0.00000000000E+00  0.00000000000E+00  0.53163746226E+02  0.53163746226E+02  0.00000000000E+00 0.  1.
         -2   -1    0    0    0  501 -0.00000000000E+00 -0.00000000000E+00 -0.32450520268E+03  0.32450520268E+03  0.00000000000E+00 0. -1.
         25    2    1    2    0    0  0.81745989940E+01 -0.40018032488E+01 -0.44446595139E+02  0.13306647998E+03  0.12509336424E+03 0.  0.
          5    1    3    3  502    0  0.63101771410E+02  0.16698809280E+01 -0.45088264728E+02  0.77685558977E+02  0.41800000000E+01 0. -1.
         -5    1    3    3    0  502 -0.54927172416E+02 -0.56716841767E+01  0.64166958984E+00  0.55380921000E+02  0.41800000000E+01 0. -1.
        -11    1    1    2    0    0  0.31611916223E+01  0.46897855054E+02 -0.11712093337E+03  0.12620108943E+03  0.00000000000E+00 0.  1.
         11    1    1    2    0    0 -0.11335790616E+02 -0.42896051805E+02 -0.10977392795E+03  0.11840137950E+03  0.00000000000E+00 0. -1.
</event>
<event>
 7    1  0.3001243E-009  0.1088622E+03  0.7561462E-02  0.1262692E+00
         -1   -1    0    0    0  501 -0.00000000000E+00  0.00000000000E+00  0.36498360989E+03  0.36498360989E+03  0.00000000000E+00 0.  1.
          1   -1    0    0  501    0  0.00000000000E+00 -0.00000000000E+00 -0.36480254939E+02  0.36480254939E+02  0.00000000000E+00 0. -1.
         25    2    1    2    0    0 -0.24500394715E+02  0.22385461663E+02  0.18942876867E+03  0.22941665035E+03  0.12508941931E+03 0.  0.
          5    1    3    3  502    0  0.12332390509E+02 -0.44914814182E+02  0.40619285891E+02  0.61942127627E+02  0.41800000000E+01 0. -1.
         -5    1    3    3    0  502 -0.36832785224E+02  0.67300275845E+02  0.14880948278E+03  0.16747452272E+03  0.41800000000E+01 0. -1.
        -11    1    1    2    0    0 -0.16254056948E+02  0.26124909699E+02  0.18668573479E+02  0.35989177677E+02  0.00000000000E+00 0.  1.
         11    1    1    2    0    0  0.40754451663E+02 -0.48510371362E+02  0.12040601281E+03  0.13605803681E+03  0.00000000000E+00 0. -1.
</event>
<event>
 7    1  0.3001243E-009  0.1451373E+03  0.7561462E-02  0.1206579E+00
         -2   -1    0    0    0  501 -0.00000000000E+00  0.00000000000E+00  0.29821057039E+03  0.29821057039E+03  0.00000000000E+00 0.  1.
          2   -1    0    0  501    0  0.00000000000E+00 -0.00000000000E+00 -0.76439030407E+02  0.76439030407E+02  0.00000000000E+00 0. -1.
         25    2    1    2    0    0 -0.69460755063E+02 -0.66939160073E+02  0.16780514443E+03  0.23045817888E+03  0.12508700200E+03 0.  0.
          5    1    3    3  502    0 -0.21071404289E+02 -0.97286806430E+02  0.93400625592E+02  0.13656454900E+03  0.41800000000E+01 0.  1.
         -5    1    3    3    0  502 -0.48389350774E+02  0.30347646356E+02  0.74404518837E+02  0.93893629875E+02  0.41800000000E+01 0.  1.
        -11    1    1    2    0    0  0.77189283422E+02  0.12267675480E+02  0.26550605766E+02  0.82544630373E+02  0.00000000000E+00 0.  1.
         11    1    1    2    0    0 -0.77285283588E+01  0.54671484593E+02  0.27415789791E+02  0.61646791547E+02  0.00000000000E+00 0. -1.
</event>
<event>
 7    1  0.3001243E-009  0.3057544E+03  0.7561462E-02  0.1082399E+00
          2   -1    0    0  501    0  0.00000000000E+00  0.00000000000E+00  0.11741878572E+03  0.11741878572E+03  0.00000000000E+00 0.  1.
         -2   -1    0    0    0  501 -0.00000000000E+00 -0.00000000000E+00 -0.10983053753E+04  0.10983053753E+04  0.00000000000E+00 0. -1.
         25    2    1    2    0    0 -0.28456597091E+03  0.87359373243E+02 -0.78057756405E+03  0.84472359213E+03  0.12508861542E+03 0.  0.
          5    1    3    3  502    0 -0.26671278337E+03  0.64248129126E+02 -0.76192169269E+03  0.80981829388E+03  0.41800000000E+01 0. -1.
         -5    1    3    3    0  502 -0.17853187538E+02  0.23111244117E+02 -0.18655871366E+02  0.34905298256E+02  0.41800000000E+01 0. -1.
        -11    1    1    2    0    0  0.81362705073E+01 -0.22177366915E+02 -0.28891216564E+00  0.23624520552E+02  0.00000000000E+00 0.  1.
         11    1    1    2    0    0  0.27642970040E+03 -0.65182006328E+02 -0.20002011336E+03  0.34737604834E+03  0.00000000000E+00 0. -1.
</event>
<event>
 7    1  0.3001243E-009  0.1958910E+03  0.7561462E-02  0.1153253E+00
         -1   -1    0    0    0  501 -0.00000000000E+00  0.00000000000E+00  0.65449985921E+02  0.65449985921E+02  0.00000000000E+00 0.  1.
          1   -1    0    0  501    0  0.00000000000E+00 -0.00000000000E+00 -0.65125936589E+03  0.65125936589E+03  0.00000000000E+00 0. -1.
         25    2    1    2    0    0 -0.16981226453E+03  0.78023596236E+01 -0.37821446519E+03  0.43311708966E+03  0.12508856731E+03 0.  0.
          5    1    3    3  502    0 -0.55868876144E+01  0.37391716391E+02 -0.11787835786E+03  0.12386336593E+03  0.41800000000E+01 0.  1.
         -5    1    3    3    0  502 -0.16422537692E+03 -0.29589356767E+02 -0.26033610733E+03  0.30925372372E+03  0.41800000000E+01 0.  1.
        -11    1    1    2    0    0  0.17590753184E+03 -0.15970508303E+02 -0.20861772428E+03  0.27334935848E+03  0.00000000000E+00 0. -1.
         11    1    1    2    0    0 -0.60952673095E+01  0.81681486796E+01  0.10228095094E+01  0.10242903676E+02  0.00000000000E+00 0.  1.
</event>
<event>
 7    1  0.3001243E-009  0.9699756E+02  0.7561462E-02  0.1286739E+00
          1   -1    0    0  501    0  0.00000000000E+00  0.00000000000E+00  0.10630442703E+03  0.10630442703E+03  0.00000000000E+00 0. -1.
         -1   -1    0    0    0  501 -0.00000000000E+00 -0.00000000000E+00 -0.15813510841E+03  0.15813510841E+03  0.00000000000E+00 0.  1.
         25    2    1    2    0    0 -0.65437006017E+01  0.67564453818E+01 -0.99583036609E+02  0.16016342045E+03  0.12508825084E+03 0.  0.
          5    1    3    3  502    0  0.17906573879E+02 -0.42645828981E+02 -0.20108302121E+00  0.46441629514E+02  0.41800000000E+01 0.  1.
         -5    1    3    3    0  502 -0.24450274481E+02  0.49402274363E+02 -0.99381953588E+02  0.11372179093E+03  0.41800000000E+01 0.  1.
        -11    1    1    2    0    0  0.37761446138E+02  0.26904189358E+02  0.28983940599E+02  0.54679347400E+02  0.00000000000E+00 0.  1.
         11    1    1    2    0    0 -0.31217745537E+02 -0.33660634740E+02  0.18768414630E+02  0.49596767588E+02  0.00000000000E+00 0. -1.
</event>
<event>
 7    1  0.3001243E-009  0.1180849E+03  0.7561462E-02  0.1246290E+00
          1   -1    0    0  501    0  0.00000000000E+00  0.00000000000E+00  0.43908780052E+03  0.43908780052E+03  0.00000000000E+00 0.  1.
         -1   -1    0    0    0  501 -0.00000000000E+00 -0.00000000000E+00 -0.53777928970E+02  0.53777928970E+02  0.00000000000E+00 0. -1.
         25    2    1    2    0    0  0.61320353091E+02 -0.78725316085E+02  0.14055839429E+03  0.21298386158E+03  0.12509037530E+03 0.  0.
          5    1    3    3  502    0  0.21777624574E+02 -0.39544260058E+02 -0.14966476868E+02  0.47743913387E+02  0.41800000000E+01 0.  1.
         -5    1    3    3    0  502  0.39542728516E+02 -0.39181056027E+02  0.15552487116E+03  0.16523994819E+03  0.41800000000E+01 0.  1.
        -11    1    1    2    0    0 -0.12923547444E+02  0.85205673549E+02  0.16998445408E+03  0.19058263172E+03  0.00000000000E+00 0. -1.
         11    1    1    2    0    0 -0.48396805646E+02 -0.64803574634E+01  0.74767023181E+02  0.89299236195E+02  0.00000000000E+00 0.  1.
</event>
<event>
 7    1  0.3001243E-009  0.6097749E+02  0.7561462E-02  0.1393775E+00
          3   -1    0    0  501    0  0.00000000000E+00  0.00000000000E+00  0.70115802684E+02  0.70115802684E+02  0.00000000000E+00 0. -1.
         -3   -1    0    0    0  501 -0.00000000000E+00 -0.00000000000E+00 -0.18381407509E+03  0.18381407509E+03  0.00000000000E+00 0.  1.
         25    2    1    2    0    0 -0.29948152289E+01  0.10849002841E+02 -0.23546091065E+02  0.12778014835E+03  0.12508668245E+03 0.  0.
          5    1    3    3  502    0  0.33862437897E+02 -0.25902072253E+01 -0.63183866950E+02  0.71854347930E+02  0.41800000000E+01 0.  1.
         -5    1    3    3    0  502 -0.36857253126E+02  0.13439210067E+02  0.39637775884E+02  0.55925800417E+02  0.41800000000E+01 0.  1.
        -11    1    1    2    0    0 -0.18832652372E+02 -0.17248762976E+02 -0.98624128424E+02  0.10187692244E+03  0.00000000000E+00 0.  1.
         11    1    1    2    0    0  0.21827467601E+02  0.63997601347E+01  0.84719470799E+01  0.24272806986E+02  0.00000000000E+00 0. -1.
</event>
<event>
 7    1  0.3001243E-009  0.1289604E+03  0.7561462E-02  0.1229007E+00
          2   -1    0    0  501    0  0.00000000000E+00  0.00000000000E+00  0.74311458642E+02  0.74311458642E+02  0.00000000000E+00 0. -1.
         -2   -1    0    0    0  501 -0.00000000000E+00 -0.00000000000E+00 -0.28182055048E+03  0.28182055048E+03  0.00000000000E+00 0.  1.
         25    2    1    2    0    0  0.47154873304E+02  0.80892803845E+02 -0.11737677443E+03  0.19542330352E+03  0.12508290288E+03 0.  0.
          5    1    3    3  502    0  0.82927963505E+02  0.71251311958E+02 -0.54289006464E+02  0.12214157855E+03  0.41800000000E+01 0. -1.
         -5    1    3    3    0  502 -0.35773090201E+02  0.96414918868E+01 -0.63087767967E+02  0.73281724976E+02  0.41800000000E+01 0. -1.
        -11    1    1    2    0    0 -0.29022250263E+02 -0.72641264321E+00  0.10414636615E+02  0.30842881537E+02  0.00000000000E+00 0. -1.
         11    1    1    2    0    0 -0.18132623041E+02 -0.80166391202E+02 -0.10054695402E+03  0.12986582406E+03  0.00000000000E+00 0.  1.
</event>
<event>
 7    1  0.3001243E-009  0.1066406E+03  0.7561462E-02  0.1266921E+00
          2   -1    0    0  501    0  0.00000000000E+00  0.00000000000E+00  0.39194007060E+03  0.39194007060E+03  0.00000000000E+00 0. -1.
         -2   -1    0    0    0  501 -0.00000000000E+00 -0.00000000000E+00 -0.51851976153E+02  0.51851976153E+02  0.00000000000E+00 0.  1.
         25    2    1    2    0    0  0.53046766515E+02  0.63235542484E+02  0.12198434177E+03  0.19323875202E+03  0.12509333465E+03 0.  0.
          5    1    3    3  502    0  0.52513463050E+02  0.12960028471E+02  0.13118047779E+03  0.14195568426E+03  0.41800000000E+01 0. -1.
         -5    1    3    3    0  502  0.53330346544E+00  0.50275514013E+02 -0.91961360165E+01  0.51283067766E+02  0.41800000000E+01 0. -1.
        -11    1    1    2    0    0  0.17306786119E+02 -0.17815022119E+02  0.11536967802E+03  0.11801297584E+03  0.00000000000E+00 0. -1.
         11    1    1    2    0    0 -0.70353552634E+02 -0.45420520365E+02  0.10273407465E+03  0.13254031890E+03  0.00000000000E+00 0.  1.
</event>
<event>
 7    1  0.3001243E-009  0.1860589E+03  0.7561462E-02  0.1162065E+00
          2   -1    0    0  501    0  0.00000000000E+00  0.00000000000E+00  0.77300374558E+03  0.77300374558E+03  0.00000000000E+00 0. -1.
         -2   -1    0    0    0  501 -0.00000000000E+00 -0.00000000000E+00 -0.51137409041E+02  0.51137409041E+02  0.00000000000E+00 0.  1.
         25    2    1    2    0    0  0.15331972651E+03 -0.57274994808E+02  0.31892723476E+03  0.37967361241E+03  0.12510038899E+03 0.  0.
          5    1    3    3  502    0  0.42162644922E+02 -0.80973102950E+02  0.15969967279E+03  0.18399942913E+03  0.41800000000E+01 0.  1.
         -5    1    3    3    0  502  0.11115708159E+03  0.23698108142E+02  0.15922756196E+03  0.19567418329E+03  0.41800000000E+01 0.  1.
        -11    1    1    2    0    0 -0.10134313969E+03  0.20682646623E+02  0.33851130017E+03  0.35396059693E+03  0.00000000000E+00 0. -1.
         11    1    1    2    0    0 -0.51976586821E+02  0.36592348184E+02  0.64427801605E+02  0.90506945274E+02  0.00000000000E+00 0.  1.
</event>
<event>
 7    1  0.3001243E-009  0.1618474E+03  0.7561462E-02  0.1186627E+00
         -2   -1    0    0    0  501 -0.00000000000E+00  0.00000000000E+00  0.48317636453E+02  0.48317636453E+02  0.00000000000E+00 0.  1.
          2   -1    0    0  501    0  0.00000000000E+00 -0.00000000000E+00 -0.59530123493E+03  0.59530123493E+03  0.00000000000E+00 0. -1.
         25    2    1    2    0    0 -0.20997585354E+02 -0.13137091612E+03 -0.25483051904E+03  0.31350518644E+03  0.12509073627E+03 0.  0.
          5    1    3    3  502    0 -0.70440221564E+02 -0.48845211285E+02 -0.10859071798E+03  0.13840916122E+03  0.41800000000E+01 0.  1.
         -5    1    3    3    0  502  0.49442636210E+02 -0.82525704832E+02 -0.14623980106E+03  0.17509602522E+03  0.41800000000E+01 0.  1.
        -11    1    1    2    0    0  0.31527014683E+02  0.47246184794E+02 -0.18473060776E+03  0.19326549634E+03  0.00000000000E+00 0. -1.
         11    1    1    2    0    0 -0.10529429329E+02  0.84124731323E+02 -0.10742247169E+03  0.13684818861E+03  0.00000000000E+00 0.  1.
</event>
<event>
 7    1  0.3001243E-009  0.1014076E+03  0.7561462E-02  0.1277363E+00
         -3   -1    0    0    0  501 -0.00000000000E+00  0.00000000000E+00  0.71044949855E+02  0.71044949855E+02  0.00000000000E+00 0.  1.
          3   -1    0    0  501    0  0.00000000000E+00 -0.00000000000E+00 -0.22325738194E+03  0.22325738194E+03  0.00000000000E+00 0. -1.
         25    2    1    2    0    0 -0.16686100435E+02  0.11542180310E+02 -0.13788395126E+02  0.12747321590E+03  0.12509057942E+03 0.  0.
          5    1    3    3  502    0 -0.57469995302E+02  0.31572727445E+02 -0.37913656154E+02  0.75858784602E+02  0.41800000000E+01 0. -1.
         -5    1    3    3    0  502  0.40783894866E+02 -0.20030547136E+02  0.24125261028E+02  0.51614431302E+02  0.41800000000E+01 0. -1.
        -11    1    1    2    0    0  0.12485736825E+02  0.38905101050E+02 -0.46604232543E+02  0.61979472430E+02  0.00000000000E+00 0.  1.
         11    1    1    2    0    0  0.42003636105E+01 -0.50447281359E+02 -0.91819804416E+02  0.10484964346E+03  0.00000000000E+00 0. -1.
</event>
<event>
 7    1  0.3001243E-009  0.3716003E+03  0.7561462E-02  0.1054083E+00
          1   -1    0    0  501    0  0.00000000000E+00  0.00000000000E+00  0.31769142013E+03  0.31769142013E+03  0.00000000000E+00 0. -1.
         -1   -1    0    0    0  501 -0.00000000000E+00 -0.00000000000E+00 -0.50900043143E+03  0.50900043143E+03  0.00000000000E+00 0.  1.
         25    2    1    2    0    0  0.33874462471E+03 -0.11824476068E+03 -0.24567441746E+03  0.45247848939E+03  0.12510443544E+03 0.  0.
          5    1    3    3  502    0  0.26510913816E+03 -0.13507423521E+03 -0.15881646885E+03  0.33729519316E+03  0.41800000000E+01 0.  1.
         -5    1    3    3    0  502  0.73635486549E+02  0.16829474523E+02 -0.86857948619E+02  0.11518329623E+03  0.41800000000E+01 0.  1.
        -11    1    1    2    0    0 -0.18316189671E+02 -0.14287824165E+02  0.50234279196E-01  0.23229878324E+02  0.00000000000E+00 0.  1.
         11    1    1    2    0    0 -0.32042843504E+03  0.13253258485E+03  0.54315171881E+02  0.35098348384E+03  0.00000000000E+00 0. -1.
</event>
<event>
 7    1  0.3001243E-009  0.1349964E+03  0.7561462E-02  0.1220225E+00
          2   -1    0    0  501    0  0.00000000000E+00  0.00000000000E+00  0.43729086754E+03  0.43729086754E+03  0.00000000000E+00 0. -1.
         -2   -1    0    0    0  501 -0.00000000000E+00 -0.00000000000E+00 -0.61314517058E+02  0.61314517058E+02  0.00000000000E+00 0.  1.
         25    2    1    2    0    0  0.67211356478E+02  0.10080328050E+03  0.15662230527E+03  0.23421818623E+03  0.12509574114E+03 0.  0.
          5    1    3    3  502    0  0.48469156845E+02  0.53334787520E+02  0.29616281051E+01  0.72250275889E+02  0.41800000000E+01 0.  1.
         -5    1    3    3    0  502  0.18742199633E+02  0.47468492983E+02  0.15366067716E+03  0.16196791034E+03  0.41800000000E+01 0.  1.
        -11    1    1    2    0    0  0.19461745528E+02 -0.22973111592E+02  0.33480895968E+02  0.45027700253E+02  0.00000000000E+00 0.  1.
         11    1    1    2    0    0 -0.86673102006E+02 -0.77830168911E+02  0.18587314925E+03  0.21935949812E+03  0.00000000000E+00 0. -1.
</event>
<event>
 7    1  0.3001243E-009  0.9615909E+02  0.7561462E-02  0.1288587E+00
          1   -1    0    0  501    0  0.00000000000E+00  0.00000000000E+00  0.57808797368E+03  0.57808797368E+03  0.00000000000E+00 0. -1.
         -1   -1    0    0    0  501 -0.00000000000E+00 -0.00000000000E+00 -0.20956053178E+02  0.20956053178E+02  0.00000000000E+00 0.  1.
         25    2    1    2    0    0  0.73503301541E+00  0.21026556957E+02  0.28702065105E+03  0.31379521019E+03  0.12507567084E+03 0.  0.
          5    1    3    3  502    0  0.40003814126E+02  0.40275495268E+02  0.24983867583E+03  0.25624062325E+03  0.41800000000E+01 0. -1.
         -5    1    3    3    0  502 -0.39268781110E+02 -0.19248938311E+02  0.37181975222E+02  0.57554586936E+02  0.41800000000E+01 0. -1.
        -11    1    1    2    0    0 -0.79436376367E+01 -0.55592102707E+02  0.17536033198E+03  0.18413264049E+03  0.00000000000E+00 0. -1.
         11    1    1    2    0    0  0.72086046213E+01  0.34565545750E+02  0.94750937466E+02  0.10111617617E+03  0.00000000000E+00 0.  1.
</event>
<event>
 7    1  0.3001243E-009  0.1876321E+03  0.7561462E-02  0.1160615E+00
          2   -1    0    0  501    0  0.00000000000E+00  0.00000000000E+00  0.77369341308E+03  0.77369341308E+03  0.00000000000E+00 0.  1.
         -2   -1    0    0    0  501 -0.00000000000E+00 -0.00000000000E+00 -0.48097170707E+02  0.48097170707E+02  0.00000000000E+00 0. -1.
         25    2    1    2    0    0 -0.14008228546E+03 -0.73685497362E+02  0.32374633640E+03  0.38146283987E+03  0.12509839587E+03 0.  0.
          5    1    3    3  502    0 -0.98876097009E+02  0.18494217730E+02  0.16375043131E+03  0.19222433458E+03  0.41800000000E+01 0.  1.
         -5    1    3    3    0  502 -0.41206188447E+02 -0.92179715091E+02  0.15999590509E+03  0.18923850529E+03  0.41800000000E+01 0.  1.
        -11    1    1    2    0    0  0.23066035404E+02 -0.14287603537E+02  0.28737667253E+02  0.39522539434E+02  0.00000000000E+00 0.  1.
         11    1    1    2    0    0  0.11701625005E+03  0.87973100899E+02  0.37311223872E+03  0.40080520449E+03  0.00000000000E+00 0. -1.
</event>
<event>
 7    1  0.3001243E-009  0.1199602E+03  0.7561462E-02  0.1243163E+00
         -1   -1    0    0    0  501 -0.00000000000E+00  0.00000000000E+00  0.11653547921E+03  0.11653547921E+03  0.00000000000E+00 0.  1.
          1   -1    0    0  501    0  0.00000000000E+00 -0.00000000000E+00 -0.20918336742E+03  0.20918336742E+03  0.00000000000E+00 0. -1.
         25    2    1    2    0    0 -0.10325369978E+02  0.88183007860E+02 -0.12217202420E+03  0.19610145499E+03  0.12508765332E+03 0.  0.
          5    1    3    3  502    0 -0.49187935825E+02  0.13002569555E+02 -0.93714295123E+02  0.10671626566E+03  0.41800000000E+01 0.  1.
         -5    1    3    3    0  502  0.38862565847E+02  0.75180438306E+02 -0.28457729078E+02  0.89385189334E+02  0.41800000000E+01 0.  1.
        -11    1    1    2    0    0 -0.22482759786E+02 -0.32787152917E+02  0.48296502395E+02  0.62554168747E+02  0.00000000000E+00 0.  1.
         11    1    1    2    0    0  0.32808129764E+02 -0.55395854943E+02 -0.18772366402E+02  0.67063222885E+02  0.00000000000E+00 0. -1.
</event>
<event>
 7    1  0.3001243E-009  0.7314879E+02  0.7561462E-02  0.1349701E+00
          1   -1    0    0  501    0  0.00000000000E+00  0.00000000000E+00  0.26813605450E+03  0.26813605450E+03  0.00000000000E+00 0. -1.
         -1   -1    0    0    0  501 -0.00000000000E+00 -0.00000000000E+00 -0.55808422588E+02  0.55808422588E+02  0.00000000000E+00 0.  1.
         25    2    1    2    0    0 -0.35815373265E+02 -0.10396500175E+02  0.61398371533E+02  0.14425121660E+03  0.12509126782E+03 0.  0.
          5    1    3    3  502    0 -0.27453525500E+02 -0.37932410419E+02 -0.24890797712E+02  0.53193872141E+02  0.41800000000E+01 0.  1.
         -5    1    3    3    0  502 -0.83618477649E+01  0.27535910245E+02  0.86289169246E+02  0.91057344460E+02  0.41800000000E+01 0.  1.
        -11    1    1    2    0    0  0.27475998615E+02  0.34845452736E+02  0.24574904417E+02  0.50725358583E+02  0.00000000000E+00 0.  1.
         11    1    1    2    0    0  0.83393746499E+01 -0.24448952561E+02  0.12635435596E+03  0.12896790191E+03  0.00000000000E+00 0. -1.
</event>
<event>
 7    1  0.3001243E-009  0.1950278E+03  0.7561462E-02  0.1154003E+00
         -2   -1    0    0    0  501 -0.00000000000E+00  0.00000000000E+00  0.18780218153E+03  0.18780218153E+03  0.00000000000E+00 0.  1.
          2   -1    0    0  501    0  0.00000000000E+00 -0.00000000000E+00 -0.21704795086E+03  0.21704795086E+03  0.00000000000E+00 0. -1.
         25    2    1    2    0    0 -0.78293942972E+02 -0.14805830791E+03  0.15680479763E+02  0.20963028042E+03  0.12509105873E+03 0.  0.
          5    1    3    3  502    0 -0.42680358759E+02 -0.16241640942E+03  0.25164694906E+02  0.16985710860E+03  0.41800000000E+01 0. -1.
         -5    1    3    3    0  502 -0.35613584214E+02  0.14358101510E+02 -0.94842151436E+01  0.39773171817E+02  0.41800000000E+01 0. -1.
        -11    1    1    2    0    0  0.48205796956E+02  0.20491989743E+02  0.96188214969E+01  0.53256382066E+02  0.00000000000E+00 0.  1.
         11    1    1    2    0    0  0.30088146016E+02  0.12756631817E+03 -0.54545070588E+02  0.14196346990E+03  0.00000000000E+00 0. -1.
</event>
<event>
 7    1  0.3001243E-009  0.4413659E+03  0.7561462E-02  0.1030329E+00
          2   -1    0    0  501    0  0.00000000000E+00  0.00000000000E+00  0.16640781945E+04  0.16640781945E+04  0.00000000000E+00 0. -1.
         -2   -1    0    0    0  501 -0.00000000000E+00 -0.00000000000E+00 -0.14251603231E+03  0.14251603231E+03  0.00000000000E+00 0.  1.
         25    2    1    2    0    0  0.43087531632E+03  0.95100671482E+02  0.10904510898E+04  0.11829745492E+04  0.12509008250E+03 0.  0.
          5    1    3    3  502    0  0.21621747808E+03  0.42429195680E+02  0.38403148599E+03  0.44277295435E+03  0.41800000000E+01 0.  1.
         -5    1    3    3    0  502  0.21465783824E+03  0.52671475802E+02  0.70641960386E+03  0.74020159484E+03  0.41800000000E+01 0.  1.
        -11    1    1    2    0    0 -0.15386650057E+03 -0.36891503004E+02  0.96458220312E+02  0.18531074242E+03  0.00000000000E+00 0. -1.
         11    1    1    2    0    0 -0.27700881575E+03 -0.58209168478E+02  0.33465285199E+03  0.43830893516E+03  0.00000000000E+00 0.  1.
</event>
<event>
 7    1  0.3001243E-009  0.9325126E+02  0.7561462E-02  0.1295164E+00
         -2   -1    0    0    0  501 -0.00000000000E+00  0.00000000000E+00  0.52422440798E+02  0.52422440798E+02  0.00000000000E+00 0.  1.
          2   -1    0    0  501    0  0.00000000000E+00 -0.00000000000E+00 -0.26722815620E+03  0.26722815620E+03  0.00000000000E+00 0. -1.
         25    2    1    2    0    0 -0.95229334933E+01  0.44108835904E+02 -0.93037117556E+02  0.16229636878E+03  0.12509168800E+03 0.  0.
          5    1    3    3  502    0  0.22127290596E+02  0.70727401925E+02 -0.95149098323E+02  0.12067645041E+03  0.41800000000E+01 0. -1.
         -5    1    3    3    0  502 -0.31650224090E+02 -0.26618566021E+02  0.21119807674E+01  0.41619918365E+02  0.41800000000E+01 0. -1.
        -11    1    1    2    0    0 -0.21677158472E+02 -0.28547841729E+02 -0.58670620217E+01  0.36322181702E+02  0.00000000000E+00 0.  1.
         11    1    1    2    0    0  0.31200091965E+02 -0.15560994175E+02 -0.11590153583E+03  0.12103204652E+03  0.00000000000E+00 0. -1.
</event>
<event>
 7    1  0.3001243E-009  0.1095048E+03  0.7561462E-02  0.1261490E+00
          2   -1    0    0  501    0  0.00000000000E+00  0.00000000000E+00  0.36103736236E+03  0.36103736236E+03  0.00000000000E+00 0. -1.
         -2   -1    0    0    0  501 -0.00000000000E+00 -0.00000000000E+00 -0.42309462819E+02  0.42309462819E+02  0.00000000000E+00 0.  1.
         25    2    1    2    0    0  0.37097740820E+02  0.48777101231E+02  0.18294177841E+03  0.22993465471E+03  0.12508718227E+03 0.  0.
          5    1    3    3  502    0  0.79710222439E+02  0.53196012518E+02  0.11884478110E+03  0.15272553717E+03  0.41800000000E+01 0.  1.
         -5    1    3    3    0  502 -0.42612481619E+02 -0.44189112866E+01  0.64096997316E+02  0.77209117542E+02  0.41800000000E+01 0.  1.
        -11    1    1    2    0    0  0.80902251649E+01 -0.30064731561E+02  0.22665704410E+01  0.31216616867E+02  0.00000000000E+00 0.  1.
         11    1    1    2    0    0 -0.45187965985E+02 -0.18712369671E+02  0.13351955068E+03  0.14219555360E+03  0.00000000000E+00 0. -1.
</event>
<event>
 7    1  0.3001243E-009  0.1124118E+03  0.7561462E-02  0.1256168E+00
         -2   -1    0    0    0  501 -0.00000000000E+00  0.00000000000E+00  0.22058653354E+03  0.22058653354E+03  0.00000000000E+00 0.  1.
          2   -1    0    0  501    0  0.00000000000E+00 -0.00000000000E+00 -0.10738451888E+03  0.10738451888E+03  0.00000000000E+00 0. -1.
         25    2    1    2    0    0  0.10567772364E+03 -0.20637553314E+02  0.50476229931E+02  0.17259855683E+03  0.12509485262E+03 0.  0.
          5    1    3    3  502    0  0.54382797873E+02 -0.33382059730E+02 -0.34332003693E+02  0.72581054648E+02  0.41800000000E+01 0. -1.
         -5    1    3    3    0  502  0.51294925764E+02  0.12744506416E+02  0.84808233624E+02  0.10001750219E+03  0.41800000000E+01 0. -1.
        -11    1    1    2    0    0 -0.62138880085E+02  0.15272707361E+02  0.84824197864E+02  0.10625272021E+03  0.00000000000E+00 0.  1.
         11    1    1    2    0    0 -0.43538843552E+02  0.53648459529E+01 -0.22098413132E+02  0.49119775375E+02  0.00000000000E+00 0. -1.
</event>
<event>
 7    1  0.3001243E-009  0.1176822E+03  0.7561462E-02  0.1246970E+00
          2   -1    0    0  501    0  0.00000000000E+00  0.00000000000E+00  0.79456715152E+03  0.79456715152E+03  0.00000000000E+00 0. -1.
         -2   -1    0    0    0  501 -0.00000000000E+00 -0.00000000000E+00 -0.20458306055E+02  0.20458306055E+02  0.00000000000E+00 0.  1.
         25    2    1    2    0    0 -0.53225668159E+02  0.95615483797E+01  0.30270064528E+03  0.33196188782E+03  0.12508644754E+03 0.  0.
          5    1    3    3  502    0 -0.85416498932E+02 -0.24353449506E+02  0.21007357384E+03  0.22811717958E+03  0.41800000000E+01 0.  1.
         -5    1    3    3    0  502  0.32190830774E+02  0.33914997886E+02  0.92627071437E+02  0.10384470824E+03  0.41800000000E+01 0.  1.
        -11    1    1    2    0    0  0.71342482252E+02  0.10899719574E+02  0.40276791293E+03  0.40918277743E+03  0.00000000000E+00 0. -1.
         11    1    1    2    0    0 -0.18116814093E+02 -0.20461267954E+02  0.68640287265E+02  0.73880792328E+02  0.00000000000E+00 0.  1.
</event>
<event>
 7    1  0.3001243E-009  0.1117762E+03  0.7561462E-02  0.1257316E+00
         -2   -1    0    0    0  501 -0.00000000000E+00  0.00000000000E+00  0.20325005020E+03  0.20325005020E+03  0.00000000000E+00 0.  1.
          2   -1    0    0  501    0  0.00000000000E+00 -0.00000000000E+00 -0.82001133820E+02  0.82001133820E+02  0.00000000000E+00 0. -1.
         25    2    1    2    0    0  0.35194666932E+02  0.64171554057E+02  0.64812146182E+02  0.15875902800E+03  0.12508861558E+03 0.  0.
          5    1    3    3  502    0 -0.75411791269E+00 -0.25265721277E+02  0.56356756203E+02  0.61907041079E+02  0.41800000000E+01 0.  1.
         -5    1    3    3    0  502  0.35948784845E+02  0.89437275334E+02  0.84553899790E+01  0.96851986922E+02  0.41800000000E+01 0.  1.
        -11    1    1    2    0    0 -0.31306088799E+02  0.54012484030E+01  0.46191566481E+02  0.56061622294E+02  0.00000000000E+00 0.  1.
         11    1    1    2    0    0 -0.38885781332E+01 -0.69572802460E+02  0.10245203720E+02  0.70430533729E+02  0.00000000000E+00 0. -1.
</event>
<event>
 7    1  0.3001243E-009  0.1779567E+03  0.7561462E-02  0.1169795E+00
          1   -1    0    0  501    0  0.00000000000E+00  0.00000000000E+00  0.91491571860E+03  0.91491571860E+03  0.00000000000E+00 0. -1.
         -1   -1    0    0    0  501 -0.00000000000E+00 -0.00000000000E+00 -0.46204482884E+02  0.46204482884E+02  0.00000000000E+00 0.  1.
         25    2    1    2    0    0  0.70698796619E+02  0.14745107103E+03  0.59509598814E+03  0.62970293357E+03  0.12508561569E+03 0.  0.
          5    1    3    3  502    0  0.59924807878E+02  0.33447646535E+02  0.37819825322E+03  0.38439708479E+03  0.41800000000E+01 0.  1.
         -5    1    3    3    0  502  0.10773988742E+02  0.11400342450E+03  0.21689773492E+03  0.24530584878E+03  0.41800000000E+01 0.  1.
        -11    1    1    2    0    0  0.94305852370E+01 -0.18168805918E+02  0.93296544563E+02  0.95515897492E+02  0.00000000000E+00 0. -1.
         11    1    1    2    0    0 -0.80129381856E+02 -0.12928226512E+03  0.18031870301E+03  0.23590137042E+03  0.00000000000E+00 0.  1.
</event>
<event>
 7    1  0.3001243E-009  0.9969664E+02  0.7561462E-02  0.1280935E+00
          3   -1    0    0  501    0  0.00000000000E+00  0.00000000000E+00  0.37013589186E+02  0.37013589186E+02  0.00000000000E+00 0. -1.
         -3   -1    0    0    0  501 -0.00000000000E+00 -0.00000000000E+00 -0.33560876495E+03  0.33560876495E+03  0.00000000000E+00 0.  1.
         25    2    1    2    0    0  0.49084349034E+01 -0.26747855602E+02 -0.15440262497E+03  0.20057451330E+03  0.12510165575E+03 0.  0.
          5    1    3    3  502    0 -0.34086121912E+02 -0.57683311947E+02 -0.46478012978E+02  0.81651125373E+02  0.41800000000E+01 0. -1.
         -5    1    3    3    0  502  0.38994556816E+02  0.30935456345E+02 -0.10792461200E+03  0.11892338792E+03  0.41800000000E+01 0. -1.
        -11    1    1    2    0    0 -0.28492124514E+02 -0.16591068781E+02 -0.10177041810E+03  0.10697795438E+03  0.00000000000E+00 0.  1.
         11    1    1    2    0    0  0.23583689611E+02  0.43338924383E+02 -0.42422132690E+02  0.65069886463E+02  0.00000000000E+00 0. -1.
</event>
<event>
 7    1  0.3001243E-009  0.1176664E+03  0.7561462E-02  0.1246997E+00
         -1   -1    0    0    0  501 -0.00000000000E+00  0.00000000000E+00  0.14214883137E+02  0.14214883137E+02  0.00000000000E+00 0.  1.
          1   -1    0    0  501    0  0.00000000000E+00 -0.00000000000E+00 -0.97633629123E+03  0.97633629123E+03  0.00000000000E+00 0. -1.
         25    2    1    2    0    0 -0.31112170063E+02 -0.35772769965E+02 -0.53381237900E+03  0.55031887294E+03  0.12509015845E+03 0.  0.
          5    1    3    3  502    0  0.55476729262E+01 -0.77570674169E+02 -0.32333932624E+03  0.33258649771E+03  0.41800000000E+01 0.  1.
         -5    1    3    3    0  502 -0.36659842990E+02  0.41797904204E+02 -0.21047305276E+03  0.21773237523E+03  0.41800000000E+01 0.  1.
        -11    1    1    2    0    0  0.45398752650E+02  0.58990148460E+02 -0.30635864018E+03  0.31527210592E+03  0.00000000000E+00 0. -1.
         11    1    1    2    0    0 -0.14286582586E+02 -0.23217378495E+02 -0.12195038891E+03  0.12496019551E+03  0.00000000000E+00 0.  1.
</event>
<event>
 7    1  0.3001243E-009  0.9239230E+02  0.7561462E-02  0.1297160E+00
          2   -1    0    0  501    0  0.00000000000E+00  0.00000000000E+00  0.67687859039E+03  0.67687859039E+03  0.00000000000E+00 0.  1.
         -2   -1    0    0    0  501 -0.00000000000E+00 -0.00000000000E+00 -0.21108322017E+02  0.21108322017E+02  0.00000000000E+00 0. -1.
         25    2    1    2    0    0  0.18119695166E+02  0.46199132247E+02  0.33998725517E+03  0.36565225069E+03  0.12509017380E+03 0.  0.
          5    1    3    3  502    0 -0.25294814481E+02  0.31667496565E+02  0.26035923092E+02  0.48352866198E+02  0.41800000000E+01 0. -1.
         -5    1    3    3    0  502  0.43414509647E+02  0.14531635681E+02  0.31395133208E+03  0.31729938449E+03  0.41800000000E+01 0. -1.
        -11    1    1    2    0    0 -0.44304252615E+02 -0.54834276915E+02  0.17119957255E+03  0.18514577599E+03  0.00000000000E+00 0. -1.
         11    1    1    2    0    0  0.26184557449E+02  0.86351446686E+01  0.14458344065E+03  0.14718888573E+03  0.00000000000E+00 0.  1.
</event>
<event>
 7    1  0.3001243E-009  0.9849502E+02  0.7561462E-02  0.1283493E+00
          2   -1    0    0  501    0  0.00000000000E+00  0.00000000000E+00  0.12248656747E+04  0.12248656747E+04  0.00000000000E+00 0. -1.
         -2   -1    0    0    0  501 -0.00000000000E+00 -0.00000000000E+00 -0.14061676946E+02  0.14061676946E+02  0.00000000000E+00 0.  1.
         25    2    1    2    0    0 -0.37625216245E+02 -0.56964006423E+02  0.83290870018E+03  0.84501174338E+03  0.12508952269E+03 0.  0.
          5    1    3    3  502    0 -0.60552274789E+01  0.13230108206E+02  0.58940810577E+03  0.58960248396E+03  0.41800000000E+01 0.  1.
         -5    1    3    3    0  502 -0.31569988767E+02 -0.70194114629E+02  0.24350059441E+03  0.25540925942E+03  0.41800000000E+01 0.  1.
        -11    1    1    2    0    0 -0.24946798730E+02  0.20940322026E+02  0.18714570274E+03  0.18995882161E+03  0.00000000000E+00 0.  1.
         11    1    1    2    0    0  0.62572014976E+02  0.36023684397E+02  0.19074959488E+03  0.20395678670E+03  0.00000000000E+00 0. -1.
</event>
<event>
 7    1  0.3001243E-009  0.9089598E+02  0.7561462E-02  0.1300696E+00
         -2   -1    0    0    0  501 -0.00000000000E+00  0.00000000000E+00  0.50276241086E+02  0.50276241086E+02  0.00000000000E+00 0. -1.
          2   -1    0    0  501    0  0.00000000000E+00 -0.00000000000E+00 -0.31597488686E+03  0.31597488686E+03  0.00000000000E+00 0.  1.
         25    2    1    2    0    0 -0.18947938770E+02  0.18487186368E+02 -0.67309032634E+02  0.14449819734E+03  0.12509365578E+03 0.  0.
          5    1    3    3  502    0 -0.44501257110E+02 -0.18585717625E+02 -0.83458506372E+02  0.96481010929E+02  0.41800000000E+01 0.  1.
         -5    1    3    3    0  502  0.25553318340E+02  0.37072903993E+02  0.16149473737E+02  0.48017186409E+02  0.41800000000E+01 0.  1.
        -11    1    1    2    0    0 -0.59755644777E+01 -0.48662150955E+02 -0.15833635917E+03  0.16575317475E+03  0.00000000000E+00 0.  1.
         11    1    1    2    0    0  0.24923503248E+02  0.30174964587E+02 -0.40053253970E+02  0.55999755853E+02  0.00000000000E+00 0. -1.
</event>
<event>
 7    1  0.3001243E-009  0.1167726E+03  0.7561462E-02  0.1248518E+00
         -1   -1    0    0    0  501 -0.00000000000E+00  0.00000000000E+00  0.20571419974E+03  0.20571419974E+03  0.00000000000E+00 0.  1.
          1   -1    0    0  501    0  0.00000000000E+00 -0.00000000000E+00 -0.67103292859E+02  0.67103292859E+02  0.00000000000E+00 0. -1.
         25    2    1    2    0    0 -0.54882483959E+02 -0.43757085585E+02  0.75431623674E+02  0.16206073221E+03  0.12508789505E+03 0.  0.
          5    1    3    3  502    0 -0.94422582465E+02 -0.40291335620E+02  0.61731942336E+02  0.11986375979E+03  0.41800000000E+01 0. -1.
         -5    1    3    3    0  502  0.39540098507E+02 -0.34657499654E+01  0.13699681338E+02  0.42196972421E+02  0.41800000000E+01 0. -1.
        -11    1    1    2    0    0  0.66493198839E+02  0.30171782642E+02  0.52571594844E+02  0.89974743924E+02  0.00000000000E+00 0.  1.
         11    1    1    2    0    0 -0.11610714881E+02  0.13585302943E+02  0.10607688363E+02  0.20782016469E+02  0.00000000000E+00 0. -1.
</event>
<event>
 7    1  0.3001243E-009  0.1324359E+03  0.7561462E-02  0.1223885E+00
         -2   -1    0    0    0  501 -0.00000000000E+00  0.00000000000E+00  0.41581237368E+02  0.41581237368E+02  0.00000000000E+00 0.  1.
          2   -1    0    0  501    0  0.00000000000E+00 -0.00000000000E+00 -0.44806555262E+03  0.44806555262E+03  0.00000000000E+00 0. -1.
         25    2    1    2    0    0  0.76624156418E+02  0.28607480863E+02 -0.25810283286E+03  0.29825190432E+03  0.12508987485E+03 0.  0.
          5    1    3    3  502    0  0.91302855480E+02  0.61407969029E+02 -0.16500151962E+03  0.19836865669E+03  0.41800000000E+01 0.  1.
         -5    1    3    3    0  502 -0.14678699062E+02 -0.32800488165E+02 -0.93101313243E+02  0.99883247633E+02  0.41800000000E+01 0.  1.
        -11    1    1    2    0    0 -0.12569013827E+01  0.25672575606E+02 -0.18274673361E+02  0.31537669948E+02  0.00000000000E+00 0.  1.
         11    1    1    2    0    0 -0.75367255035E+02 -0.54280056469E+02 -0.13010680903E+03  0.15985721572E+03  0.00000000000E+00 0. -1.
</event>
<event>
 7    1  0.3001243E-009  0.9258367E+02  0.7561462E-02  0.1296713E+00
          2   -1    0    0  501    0  0.00000000000E+00  0.00000000000E+00  0.25765074304E+03  0.25765074304E+03  0.00000000000E+00 0. -1.
         -2   -1    0    0    0  501 -0.00000000000E+00 -0.00000000000E+00 -0.62969609328E+02  0.62969609328E+02  0.00000000000E+00 0.  1.
         25    2    1    2    0    0 -0.12263039301E+02 -0.55139282475E+02  0.74357976189E+02  0.15610463672E+03  0.12509526921E+03 0.  0.
          5    1    3    3  502    0 -0.42393551764E+02 -0.81241304116E+01  0.88319946570E+02  0.98392581470E+02  0.41800000000E+01 0.  1.
         -5    1    3    3    0  502  0.30130512462E+02 -0.47015152063E+02 -0.13961970382E+02  0.57712055255E+02  0.41800000000E+01 0.  1.
        -11    1    1    2    0    0 -0.11026032176E+02 -0.11065533132E+02 -0.85234685423E+01  0.17795193874E+02  0.00000000000E+00 0.  1.
         11    1    1    2    0    0  0.23289071477E+02  0.66204815607E+02  0.12884662607E+03  0.14672052177E+03  0.00000000000E+00 0. -1.
</event>
<event>
 7    1  0.3001243E-009  0.1120122E+03  0.7561462E-02  0.1256888E+00
         -2   -1    0    0    0  501 -0.00000000000E+00  0.00000000000E+00  0.86286579543E+03  0.86286579543E+03  0.00000000000E+00 0.  1.
          2   -1    0    0  501    0  0.00000000000E+00 -0.00000000000E+00 -0.30166218190E+02  0.30166218190E+02  0.00000000000E+00 0. -1.
         25    2    1    2    0    0 -0.97862442421E+02 -0.49935578114E+02  0.56261608420E+03  0.58673240307E+03  0.12508970788E+03 0.  0.
          5    1    3    3  502    0 -0.42771054491E+02 -0.69722283817E+01  0.38971658852E+02  0.58431478371E+02  0.41800000000E+01 0.  1.
         -5    1    3    3    0  502 -0.55091387930E+02 -0.42963349732E+02  0.52364442534E+03  0.52830092470E+03  0.41800000000E+01 0.  1.
        -11    1    1    2    0    0  0.51603573218E+02  0.19702411895E+02  0.36355612024E+02  0.66127485428E+02  0.00000000000E+00 0. -1.
         11    1    1    2    0    0  0.46258869203E+02  0.30233166219E+02  0.23372788102E+03  0.24017212512E+03  0.00000000000E+00 0.  1.
</event>
<event>
 7    1  0.3001243E-009  0.1297992E+03  0.7561462E-02  0.1227754E+00
         -1   -1    0    0    0  501 -0.00000000000E+00  0.00000000000E+00  0.23414285938E+02  0.23414285938E+02  0.00000000000E+00 0. -1.
          1   -1    0    0  501    0  0.00000000000E+00 -0.00000000000E+00 -0.10145679992E+04  0.10145679992E+04  0.00000000000E+00 0.  1.
         25    2    1    2    0    0  0.61404489356E+02 -0.43587741436E+02 -0.75648522026E+03  0.77044782324E+03  0.12509819079E+03 0.  0.
          5    1    3    3  502    0  0.92464054043E+02 -0.34053948385E+02 -0.38176251307E+03  0.39429603280E+03  0.41800000000E+01 0.  1.
         -5    1    3    3    0  502 -0.31059564687E+02 -0.95337930511E+01 -0.37472270719E+03  0.37615179044E+03  0.41800000000E+01 0.  1.
        -11    1    1    2    0    0  0.29558282284E+02  0.12427526284E+02 -0.51593065860E+02  0.60745204798E+02  0.00000000000E+00 0. -1.
         11    1    1    2    0    0 -0.90962771639E+02  0.31160215152E+02 -0.18307542718E+03  0.20678925714E+03  0.00000000000E+00 0.  1.
</event>
<event>
 7    1  0.3001243E-009  0.1229064E+03  0.7561462E-02  0.1238378E+00
          2   -1    0    0  501    0  0.00000000000E+00  0.00000000000E+00  0.15993962689E+03  0.15993962689E+03  0.00000000000E+00 0. -1.
         -2   -1    0    0    0  501 -0.00000000000E+00 -0.00000000000E+00 -0.13599190030E+03  0.13599190030E+03  0.00000000000E+00 0.  1.
         25    2    1    2    0    0  0.84095043192E+02  0.34461548881E+02 -0.27192608260E+02  0.15699151608E+03  0.12508926227E+03 0.  0.
          5    1    3    3  502    0  0.90718220110E+02  0.52307851008E+02  0.19313933604E+02  0.10656644485E+03  0.41800000000E+01 0.  1.
         -5    1    3    3    0  502 -0.66231769175E+01 -0.17846302127E+02 -0.46506541864E+02  0.50425071227E+02  0.41800000000E+01 0.  1.
        -11    1    1    2    0    0 -0.49312150110E+02 -0.60515840768E+02  0.54723403883E+02  0.95333656517E+02  0.00000000000E+00 0. -1.
         11    1    1    2    0    0 -0.34782893082E+02  0.26054291886E+02 -0.35830690367E+01  0.43606354589E+02  0.00000000000E+00 0.  1.
</event>
<event>
 7    1  0.3001243E-009  0.9549713E+02  0.7561462E-02  0.1290060E+00
         -1   -1    0    0    0  501 -0.00000000000E+00  0.00000000000E+00  0.21003959261E+03  0.21003959261E+03  0.00000000000E+00 0.  1.
          1   -1    0    0  501    0  0.00000000000E+00 -0.00000000000E+00 -0.10987550544E+03  0.10987550544E+03  0.00000000000E+00 0. -1.
         25    2    1    2    0    0 -0.14839381184E+02  0.50119067390E+02 -0.44119354476E+02  0.14256421856E+03  0.12508361534E+03 0.  0.
          5    1    3    3  502    0  0.43159238313E+02  0.62507552175E+02 -0.23117969310E+02  0.79509916587E+02  0.41800000000E+01 0. -1.
         -5    1    3    3    0  502 -0.57998619497E+02 -0.12388484786E+02 -0.21001385167E+02  0.63054301976E+02  0.41800000000E+01 0. -1.
        -11    1    1    2    0    0  0.17249119846E+02 -0.25848069488E+02  0.14925790325E+03  0.15245844192E+03  0.00000000000E+00 0.  1.
         11    1    1    2    0    0 -0.24097386622E+01 -0.24270997901E+02 -0.49744615968E+01  0.24892437561E+02  0.00000000000E+00 0. -1.
</event>
<event>
 7    1  0.3001243E-009  0.1938912E+03  0.7561462E-02  0.1154998E+00
          1   -1    0    0  501    0  0.00000000000E+00  0.00000000000E+00  0.25327257187E+03  0.25327257187E+03  0.00000000000E+00 0. -1.
         -1   -1    0    0    0  501 -0.00000000000E+00 -0.00000000000E+00 -0.24685466049E+03  0.24685466049E+03  0.00000000000E+00 0.  1.
         25    2    1    2    0    0 -0.18205687344E+03 -0.34502506290E+02  0.13022179102E+03  0.25872862663E+03  0.12509060424E+03 0.  0.
          5    1    3    3  502    0 -0.63336402582E+02 -0.50906397804E+02  0.11045574514E+03  0.13718930448E+03  0.41800000000E+01 0. -1.
         -5    1    3    3    0  502 -0.11872047086E+03  0.16403891515E+02  0.19766045887E+02  0.12153932215E+03  0.41800000000E+01 0. -1.
        -11    1    1    2    0    0  0.67093890012E+02  0.23138745951E+02  0.14736944154E+01  0.70987065134E+02  0.00000000000E+00 0. -1.
         11    1    1    2    0    0  0.11496298343E+03  0.11363760338E+02 -0.12527757406E+03  0.17041154060E+03  0.00000000000E+00 0.  1.
</event>
<event>
 7    1  0.3001243E-009  0.1018782E+03  0.7561462E-02  0.1276395E+00
          3   -1    0    0  501    0  0.00000000000E+00  0.00000000000E+00  0.79350061104E+02  0.79350061104E+02  0.00000000000E+00 0. -1.
         -3   -1    0    0    0  501 -0.00000000000E+00 -0.00000000000E+00 -0.25828925946E+03  0.25828925946E+03  0.00000000000E+00 0.  1.
         25    2    1    2    0    0  0.56591058176E+02 -0.51593817129E+02 -0.16019200261E+03  0.21719899782E+03  0.12509779024E+03 0.  0.
          5    1    3    3  502    0 -0.65964736740E+01 -0.64279703192E+00  0.18936259749E+02  0.20493437638E+02  0.41800000000E+01 0. -1.
         -5    1    3    3    0  502  0.63187531850E+02 -0.50951020097E+02 -0.17912826236E+03  0.19670556018E+03  0.41800000000E+01 0. -1.
        -11    1    1    2    0    0 -0.63013497902E+02  0.36698687598E+00 -0.26262664748E+02  0.68268317373E+02  0.00000000000E+00 0.  1.
         11    1    1    2    0    0  0.64224397265E+01  0.51226830253E+02  0.75154690065E+01  0.52172005369E+02  0.00000000000E+00 0. -1.
</event>
<event>
 7    1  0.3001243E-009  0.1149278E+03  0.7561462E-02  0.1251707E+00
          2   -1    0    0  501    0  0.00000000000E+00  0.00000000000E+00  0.10581580716E+04  0.10581580716E+04  0.00000000000E+00 0. -1.
         -2   -1    0    0    0  501 -0.00000000000E+00 -0.00000000000E+00 -0.14916132640E+02  0.14916132640E+02  0.00000000000E+00 0.  1.
         25    2    1    2    0    0  0.41155864394E+02  0.10958008082E+02  0.74564248762E+03  0.75726056560E+03  0.12508781617E+03 0.  0.
          5    1    3    3  502    0 -0.31866978098E+02 -0.26861040646E+02  0.14266587314E+03  0.14868773842E+03  0.41800000000E+01 0.  1.
         -5    1    3    3    0  502  0.73022842492E+02  0.37819048728E+02  0.60297661448E+03  0.60857282718E+03  0.41800000000E+01 0.  1.
        -11    1    1    2    0    0 -0.45667595406E+02  0.36187185160E+02  0.15826637075E+03  0.16865137341E+03  0.00000000000E+00 0.  1.
         11    1    1    2    0    0  0.45117310117E+01 -0.47145193242E+02  0.13933308054E+03  0.14716226519E+03  0.00000000000E+00 0. -1.
</event>
<event>
 7    1  0.3001243E-009  0.1221760E+03  0.7561462E-02  0.1239550E+00
         -2   -1    0    0    0  501 -0.00000000000E+00  0.00000000000E+00  0.21180170123E+03  0.21180170123E+03  0.00000000000E+00 0.  1.
          2   -1    0    0  501    0  0.00000000000E+00 -0.00000000000E+00 -0.12514336302E+03  0.12514336302E+03  0.00000000000E+00 0. -1.
         25    2    1    2    0    0  0.48642369250E+02  0.95552508433E+02 -0.12031412915E+02  0.16519146248E+03  0.12508837846E+03 0.  0.
          5    1    3    3  502    0  0.35459132599E+02  0.51400018417E+01  0.44793408031E+02  0.57512533474E+02  0.41800000000E+01 0. -1.
         -5    1    3    3    0  502  0.13183236652E+02  0.90412506591E+02 -0.56824820946E+02  0.10767892901E+03  0.41800000000E+01 0. -1.
        -11    1    1    2    0    0 -0.57914576706E+02 -0.83074318616E+02  0.11221008088E+03  0.15115072894E+03  0.00000000000E+00 0.  1.
         11    1    1    2    0    0  0.92722074558E+01 -0.12478189817E+02 -0.13520329749E+02  0.20602872827E+02  0.00000000000E+00 0. -1.
</event>
<event>
 7    1  0.3001243E-009  0.1724943E+03  0.7561462E-02  0.1175271E+00
         -1   -1    0    0    0  501 -0.00000000000E+00  0.00000000000E+00  0.56556701829E+03  0.56556701829E+03  0.00000000000E+00 0.  1.
          1   -1    0    0  501    0  0.00000000000E+00 -0.00000000000E+00 -0.66869349265E+02  0.66869349265E+02  0.00000000000E+00 0. -1.
         25    2    1    2    0    0  0.13859572779E+03 -0.67878360713E+02  0.18734470605E+03  0.27305031522E+03  0.12506873368E+03 0.  0.
          5    1    3    3  502    0  0.95086849356E+01 -0.40330441593E+02  0.11535598793E+03  0.12264353208E+03  0.41800000000E+01 0.  1.
         -5    1    3    3    0  502  0.12908704285E+03 -0.27547919120E+02  0.71988718117E+02  0.15040678314E+03  0.41800000000E+01 0.  1.
        -11    1    1    2    0    0 -0.95053212754E+02  0.55032323500E+01  0.22493964639E+03  0.24426060538E+03  0.00000000000E+00 0.  1.
         11    1    1    2    0    0 -0.43542515032E+02  0.62375128363E+02  0.86413316584E+02  0.11512544696E+03  0.00000000000E+00 0. -1.
</event>
<event>
 7    1  0.3001243E-009  0.1152379E+03  0.7561462E-02  0.1251166E+00
          2   -1    0    0  501    0  0.00000000000E+00  0.00000000000E+00  0.80222379717E+03  0.80222379717E+03  0.00000000000E+00 0. -1.
         -2   -1    0    0    0  501 -0.00000000000E+00 -0.00000000000E+00 -0.22190156590E+02  0.22190156590E+02  0.00000000000E+00 0.  1.
         25    2    1    2    0    0 -0.70920693008E+02 -0.14289974214E+02  0.34898123707E+03  0.37771559996E+03  0.12508885869E+03 0.  0.
          5    1    3    3  502    0  0.20493401608E+02 -0.63158035175E+01  0.20992934076E+03  0.21106318816E+03  0.41800000000E+01 0.  1.
         -5    1    3    3    0  502 -0.91414094616E+02 -0.79741706963E+01  0.13905189630E+03  0.16665241180E+03  0.41800000000E+01 0.  1.
        -11    1    1    2    0    0 -0.20710332219E+02  0.14251716519E+02  0.10919110826E+03  0.11204787998E+03  0.00000000000E+00 0. -1.
         11    1    1    2    0    0  0.91631025227E+02  0.38257694516E-01  0.32186129525E+03  0.33465047382E+03  0.00000000000E+00 0.  1.
</event>
<event>
 7    1  0.3001243E-009  0.1398531E+03  0.7561462E-02  0.1213527E+00
         -1   -1    0    0    0  501 -0.00000000000E+00  0.00000000000E+00  0.94607386807E+02  0.94607386807E+02  0.00000000000E+00 0.  1.
          1   -1    0    0  501    0  0.00000000000E+00 -0.00000000000E+00 -0.32005037853E+03  0.32005037853E+03  0.00000000000E+00 0. -1.
         25    2    1    2    0    0 -0.57559310301E+02  0.10368871251E+03 -0.19654853117E+03  0.26142417333E+03  0.12508736944E+03 0.  0.
          5    1    3    3  502    0  0.97573600695E+01  0.84799683950E+02 -0.16237205566E+03  0.18348937117E+03  0.41800000000E+01 0. -1.
         -5    1    3    3    0  502 -0.67316670370E+02  0.18889028559E+02 -0.34176475513E+02  0.77934802162E+02  0.41800000000E+01 0. -1.
        -11    1    1    2    0    0  0.45006637730E+02 -0.43056283675E+02  0.28782457265E+02  0.68613926064E+02  0.00000000000E+00 0.  1.
         11    1    1    2    0    0  0.12552672571E+02 -0.60632428834E+02 -0.57676917815E+02  0.84619665939E+02  0.00000000000E+00 0. -1.
</event>
<event>
 7    1  0.3001243E-009  0.9647548E+02  0.7561462E-02  0.1287887E+00
          2   -1    0    0  501    0  0.00000000000E+00  0.00000000000E+00  0.77186441950E+02  0.77186441950E+02  0.00000000000E+00 0. -1.
         -2   -1    0    0    0  501 -0.00000000000E+00 -0.00000000000E+00 -0.38404404719E+03  0.38404404719E+03  0.00000000000E+00 0.  1.
         25    2    1    2    0    0 -0.62409891102E+02 -0.75003756420E+01 -0.28734366833E+03  0.31963308402E+03  0.12509066523E+03 0.  0.
          5    1    3    3  502    0  0.96963015177E+01 -0.42253970774E+02 -0.38263757806E+02  0.57974165546E+02  0.41800000000E+01 0.  1.
         -5    1    3    3    0  502 -0.72106192620E+02  0.34753595132E+02 -0.24907991053E+03  0.26165891847E+03  0.41800000000E+01 0.  1.
        -11    1    1    2    0    0  0.18926598996E+02  0.16183644409E+02  0.51883992506E+02  0.57550631397E+02  0.00000000000E+00 0. -1.
         11    1    1    2    0    0  0.43483292107E+02 -0.86832687669E+01 -0.71397929410E+02  0.84046773721E+02  0.00000000000E+00 0.  1.
</event>
<event>
 7    1  0.3001243E-009  0.1076546E+03  0.7561462E-02  0.1264976E+00
         -1   -1    0    0    0  501 -0.00000000000E+00  0.00000000000E+00  0.15146396304E+03  0.15146396304E+03  0.00000000000E+00 0.  1.
          1   -1    0    0  501    0  0.00000000000E+00 -0.00000000000E+00 -0.83791906484E+02  0.83791906484E+02  0.00000000000E+00 0. -1.
         25    2    1    2    0    0  0.21102532128E+02  0.26026664576E+02  0.47984707302E+02  0.13810507495E+03  0.12509106867E+03 0.  0.
          5    1    3    3  502    0  0.46912578928E+02 -0.34800180143E+02  0.41630592470E+01  0.58708143063E+02  0.41800000000E+01 0. -1.
         -5    1    3    3    0  502 -0.25810046800E+02  0.60826844719E+02  0.43821648055E+02  0.79396931884E+02  0.41800000000E+01 0. -1.
        -11    1    1    2    0    0 -0.22727077249E+02  0.28240074207E+02 -0.65757213809E+01  0.36841036130E+02  0.00000000000E+00 0.  1.
         11    1    1    2    0    0  0.16245451209E+01 -0.54266738783E+02  0.26263070639E+02  0.60309758451E+02  0.00000000000E+00 0. -1.
</event>
<event>
 7    1  0.3001243E-009  0.2037992E+03  0.7561462E-02  0.1146573E+00
          1   -1    0    0  501    0  0.00000000000E+00  0.00000000000E+00  0.57073778131E+03  0.57073778131E+03  0.00000000000E+00 0. -1.
         -1   -1    0    0    0  501 -0.00000000000E+00 -0.00000000000E+00 -0.11556346275E+03  0.11556346275E+03  0.00000000000E+00 0.  1.
         25    2    1    2    0    0  0.12650537348E+03  0.13862223472E+03  0.50740838751E+02  0.23117436682E+03  0.12508885512E+03 0.  0.
          5    1    3    3  502    0  0.13364779186E+03  0.13516536855E+03  0.11013565916E+02  0.19044731596E+03  0.41800000000E+01 0. -1.
         -5    1    3    3    0  502 -0.71424183801E+01  0.34568661747E+01  0.39727272835E+02  0.40727050850E+02  0.41800000000E+01 0. -1.
        -11    1    1    2    0    0 -0.78954860782E+02 -0.21102979613E+02  0.16934248704E+03  0.18803213477E+03  0.00000000000E+00 0. -1.
         11    1    1    2    0    0 -0.47550512697E+02 -0.11751925511E+03  0.23509099277E+03  0.26709474248E+03  0.00000000000E+00 0.  1.
</event>
<event>
 7    1  0.3001243E-009  0.1267921E+03  0.7561462E-02  0.1232295E+00
         -2   -1    0    0    0  501 -0.00000000000E+00  0.00000000000E+00  0.30928597269E+02  0.30928597269E+02  0.00000000000E+00 0.  1.
          2   -1    0    0  501    0  0.00000000000E+00 -0.00000000000E+00 -0.52981141539E+03  0.52981141539E+03  0.00000000000E+00 0. -1.
         25    2    1    2    0    0 -0.11082579139E+02  0.65532355357E+02 -0.30447827912E+03  0.33581298017E+03  0.12508405986E+03 0.  0.
          5    1    3    3  502    0 -0.40378932449E+02  0.92155593152E+02 -0.19798123277E+03  0.22211968050E+03  0.41800000000E+01 0.  1.
         -5    1    3    3    0  502  0.29296353310E+02 -0.26623237795E+02 -0.10649704635E+03  0.11369329967E+03  0.41800000000E+01 0.  1.
        -11    1    1    2    0    0 -0.35363203863E+02 -0.55104174199E+02 -0.10907627444E+03  0.12721894453E+03  0.00000000000E+00 0.  1.
         11    1    1    2    0    0  0.46445783002E+02 -0.10428181158E+02 -0.85328264562E+02  0.97708087966E+02  0.00000000000E+00 0. -1.
</event>
<event>
 7    1  0.3683267E-009  0.1256308E+03  0.7561462E-02  0.1234087E+00
          1   -1    0    0  501    0  0.00000000000E+00  0.00000000000E+00  0.16077773956E+03  0.16077773956E+03  0.00000000000E+00 0. -1.
         -1   -1    0    0    0  501 -0.00000000000E+00 -0.00000000000E+00 -0.16716875820E+03  0.16716875820E+03  0.00000000000E+00 0.  1.
         25    2    1    2    0    0 -0.87040100556E+02  0.36660022680E+02  0.74223428864E+02  0.17342592174E+03  0.12508995391E+03 0.  0.
          5    1    3    3  502    0 -0.10816701288E+03 -0.61697821057E+01  0.56942658292E+02  0.12246676129E+03  0.41800000000E+01 0.  1.
         -5    1    3    3    0  502  0.21126912323E+02  0.42829804785E+02  0.17280770572E+02  0.50959160451E+02  0.41800000000E+01 0.  1.
        -11    1    1    2    0    0  0.28284192707E+02 -0.72779800443E+01 -0.83807029128E+02  0.88750113701E+02  0.00000000000E+00 0.  1.
         11    1    1    2    0    0  0.58755907849E+02 -0.29382042635E+02  0.31925816257E+01  0.65770462321E+02  0.00000000000E+00 0. -1.
</event>
<event>
 7    1  0.3001243E-009  0.9615783E+02  0.7561462E-02  0.1288589E+00
         -1   -1    0    0    0  501 -0.00000000000E+00  0.00000000000E+00  0.14344200401E+02  0.14344200401E+02  0.00000000000E+00 0.  1.
          1   -1    0    0  501    0  0.00000000000E+00 -0.00000000000E+00 -0.88180923967E+03  0.88180923967E+03  0.00000000000E+00 0. -1.
         25    2    1    2    0    0 -0.52840079232E+01  0.17229797412E+02 -0.59982482199E+03  0.61299414319E+03  0.12508883184E+03 0.  0.
          5    1    3    3  502    0 -0.41232457865E+02  0.51249191772E+02 -0.21220492015E+03  0.22220485092E+03  0.41800000000E+01 0.  1.
         -5    1    3    3    0  502  0.35948449942E+02 -0.34019394360E+02 -0.38761990184E+03  0.39078929227E+03  0.41800000000E+01 0.  1.
        -11    1    1    2    0    0 -0.15752482840E+02 -0.41635450828E+02 -0.22685976142E+03  0.23118607837E+03  0.00000000000E+00 0. -1.
         11    1    1    2    0    0  0.21036490764E+02  0.24405653416E+02 -0.40780455859E+02  0.51973218511E+02  0.00000000000E+00 0.  1.
</event>
<event>
 7    1  0.3701901E-009  0.1044168E+03  0.7561462E-02  0.1271273E+00
         -2   -1    0    0    0  501 -0.00000000000E+00  0.00000000000E+00  0.38534702544E+02  0.38534702544E+02  0.00000000000E+00 0.  1.
          2   -1    0    0  501    0  0.00000000000E+00 -0.00000000000E+00 -0.50745129706E+03  0.50745129706E+03  0.00000000000E+00 0. -1.
         25    2    1    2    0    0  0.29921070990E+02 -0.47618839438E+02 -0.38903573498E+03  0.41250268431E+03  0.12508731795E+03 0.  0.
          5    1    3    3  502    0  0.29105321123E+02 -0.83064619094E+02 -0.17965980130E+03  0.20010489066E+03  0.41800000000E+01 0.  1.
         -5    1    3    3    0  502  0.81574986722E+00  0.35445779656E+02 -0.20937593368E+03  0.21239779365E+03  0.41800000000E+01 0.  1.
        -11    1    1    2    0    0  0.18951151282E+02  0.36960953927E+01  0.10314643217E+02  0.21890617185E+02  0.00000000000E+00 0.  1.
         11    1    1    2    0    0 -0.48872222272E+02  0.43922744045E+02 -0.90195502751E+02  0.11159269811E+03  0.00000000000E+00 0. -1.
</event>
<event>
 7    1  0.3001243E-009  0.1230653E+03  0.7561462E-02  0.1238124E+00
          3   -1    0    0  501    0  0.00000000000E+00  0.00000000000E+00  0.10089748132E+03  0.10089748132E+03  0.00000000000E+00 0. -1.
         -3   -1    0    0    0  501 -0.00000000000E+00 -0.00000000000E+00 -0.20870228781E+03  0.20870228781E+03  0.00000000000E+00 0.  1.
         25    2    1    2    0    0 -0.68795524477E+02 -0.31740054515E+02 -0.12085745072E+03  0.18972385973E+03  0.12509342233E+03 0.  0.
          5    1    3    3  502    0 -0.85656336753E+02 -0.64231453960E+02 -0.74463026556E+02  0.13047950961E+03  0.41800000000E+01 0. -1.
         -5    1    3    3    0  502  0.16860812275E+02  0.32491399445E+02 -0.46394424163E+02  0.59244350127E+02  0.41800000000E+01 0. -1.
        -11    1    1    2    0    0 -0.12884865575E+02  0.13072432014E+02 -0.22346506905E+02  0.28918413001E+02  0.00000000000E+00 0.  1.
         11    1    1    2    0    0  0.81680390052E+02  0.18667622501E+02  0.35399151140E+02  0.90957496395E+02  0.00000000000E+00 0. -1.
</event>
<event>
 7    1  0.3001243E-009  0.1399419E+03  0.7561462E-02  0.1213407E+00
          1   -1    0    0  501    0  0.00000000000E+00  0.00000000000E+00  0.13227528407E+03  0.13227528407E+03  0.00000000000E+00 0. -1.
         -1   -1    0    0    0  501 -0.00000000000E+00 -0.00000000000E+00 -0.24092924300E+03  0.24092924300E+03  0.00000000000E+00 0.  1.
         25    2    1    2    0    0  0.10456348543E+03  0.48420031748E+02  0.28047318898E+02  0.17237430935E+03  0.12509287936E+03 0.  0.
          5    1    3    3  502    0  0.25211253772E+02 -0.27040893234E+02 -0.30519343740E+02  0.48121928120E+02  0.41800000000E+01 0. -1.
         -5    1    3    3    0  502  0.79352231661E+02  0.75460924983E+02  0.58566662638E+02  0.12425238123E+03  0.41800000000E+01 0. -1.
        -11    1    1    2    0    0 -0.38848746758E+02 -0.54686811038E+02 -0.26005425256E+02  0.71945497211E+02  0.00000000000E+00 0. -1.
         11    1    1    2    0    0 -0.65714738675E+02  0.62667792897E+01 -0.11069585258E+03  0.12888472051E+03  0.00000000000E+00 0.  1.
</event>
<event>
 7    1  0.3001243E-009  0.1410779E+03  0.7561462E-02  0.1211886E+00
         -2   -1    0    0    0  501 -0.00000000000E+00  0.00000000000E+00  0.45819780052E+02  0.45819780052E+02  0.00000000000E+00 0.  1.
          2   -1    0    0  501    0  0.00000000000E+00 -0.00000000000E+00 -0.56054324262E+03  0.56054324262E+03  0.00000000000E+00 0. -1.
         25    2    1    2    0    0 -0.86320589255E+02 -0.64649440434E+02 -0.18956272420E+03  0.25141836052E+03  0.12508545608E+03 0.  0.
          5    1    3    3  502    0 -0.86705125552E+01 -0.76464133401E+02 -0.13580198155E+03  0.15614606008E+03  0.41800000000E+01 0. -1.
         -5    1    3    3    0  502 -0.77650076699E+02  0.11814692967E+02 -0.53760742649E+02  0.95272300442E+02  0.41800000000E+01 0. -1.
        -11    1    1    2    0    0  0.19970479544E+02  0.56082807317E+02 -0.73721424367E+02  0.94757320247E+02  0.00000000000E+00 0.  1.
         11    1    1    2    0    0  0.66350109711E+02  0.85666331174E+01 -0.25143931400E+03  0.26018734191E+03  0.00000000000E+00 0. -1.
</event>
<event>
 7    1  0.3001243E-009  0.6904928E+02  0.7561462E-02  0.1363356E+00
          3   -1    0    0  501    0  0.00000000000E+00  0.00000000000E+00  0.50520742065E+02  0.50520742065E+02  0.00000000000E+00 0. -1.
         -3   -1    0    0    0  501 -0.00000000000E+00 -0.00000000000E+00 -0.25727298073E+03  0.25727298073E+03  0.00000000000E+00 0.  1.
         25    2    1    2    0    0 -0.25024089119E+01  0.37244900962E+02 -0.10034851279E+03  0.16465221120E+03  0.12508829656E+03 0.  0.
          5    1    3    3  502    0 -0.13252320864E+02  0.36843606514E+01  0.28007101903E+02  0.31481243284E+02  0.41800000000E+01 0. -1.
         -5    1    3    3    0  502  0.10749911952E+02  0.33560540311E+02 -0.12835561469E+03  0.13317096792E+03  0.41800000000E+01 0. -1.
        -11    1    1    2    0    0  0.53057414272E+01 -0.62550383144E+02 -0.97902158801E+02  0.11629932941E+03  0.00000000000E+00 0.  1.
         11    1    1    2    0    0 -0.28033325153E+01  0.25305482182E+02 -0.85015670770E+01  0.26842182185E+02  0.00000000000E+00 0. -1.
</event>
<event>
 7    1  0.6126590E-009  0.1426320E+03  0.7561462E-02  0.1209831E+00
          2   -1    0    0  501    0  0.00000000000E+00  0.00000000000E+00  0.43035794006E+03  0.43035794006E+03  0.00000000000E+00 0. -1.
         -2   -1    0    0    0  501 -0.00000000000E+00 -0.00000000000E+00 -0.88179621384E+02  0.88179621384E+02  0.00000000000E+00 0.  1.
         25    2    1    2    0    0 -0.43163099944E+02  0.12417505165E+03  0.54881352481E+02  0.18958184120E+03  0.12508722962E+03 0.  0.
          5    1    3    3  502    0 -0.59579740178E+02  0.51564639270E+02  0.78566390324E+02  0.11134993288E+03  0.41800000000E+01 0. -1.
         -5    1    3    3    0  502  0.16416640234E+02  0.72610412378E+02 -0.23685037843E+02  0.78231908323E+02  0.41800000000E+01 0. -1.
        -11    1    1    2    0    0  0.22635608220E+02 -0.78975804665E+02  0.76040785262E+02  0.11194529693E+03  0.00000000000E+00 0.  1.
         11    1    1    2    0    0  0.20527491724E+02 -0.45199246982E+02  0.21125618093E+03  0.21701042331E+03  0.00000000000E+00 0. -1.
</event>
<event>
 7    1  0.3001243E-009  0.1239241E+03  0.7561462E-02  0.1236760E+00
          2   -1    0    0  501    0  0.00000000000E+00  0.00000000000E+00  0.32920762358E+03  0.32920762358E+03  0.00000000000E+00 0. -1.
         -2   -1    0    0    0  501 -0.00000000000E+00 -0.00000000000E+00 -0.82644904839E+02  0.82644904839E+02  0.00000000000E+00 0.  1.
         25    2    1    2    0    0 -0.31243929724E+02  0.85056749135E+02  0.17443307704E+03  0.23299199006E+03  0.12509010891E+03 0.  0.
          5    1    3    3  502    0 -0.34543261292E+02  0.76164836462E+02  0.19374966937E+03  0.21107042900E+03  0.41800000000E+01 0.  1.
         -5    1    3    3    0  502  0.32993315674E+01  0.88919126728E+01 -0.19316592338E+02  0.21921561060E+02  0.41800000000E+01 0.  1.
        -11    1    1    2    0    0  0.33278137000E+02 -0.11705036572E+03  0.28957022314E+02  0.12508689643E+03  0.00000000000E+00 0.  1.
         11    1    1    2    0    0 -0.20342072753E+01  0.31993616586E+02  0.43172619386E+02  0.53773641928E+02  0.00000000000E+00 0. -1.
</event>
<event>
 7    1  0.3001243E-009  0.1345251E+03  0.7561462E-02  0.1220892E+00
          2   -1    0    0  501    0  0.00000000000E+00  0.00000000000E+00  0.28692879860E+02  0.28692879860E+02  0.00000000000E+00 0. -1.
         -2   -1    0    0    0  501 -0.00000000000E+00 -0.00000000000E+00 -0.85824544636E+03  0.85824544636E+03  0.00000000000E+00 0.  1.
         25    2    1    2    0    0  0.79093079493E+02  0.35224300639E+02 -0.24173116333E+03  0.28561848274E+03  0.12508995076E+03 0.  0.
          5    1    3    3  502    0 -0.28728135764E+02  0.20084484504E+02 -0.25701366156E+02  0.43666061473E+02  0.41800000000E+01 0.  1.
         -5    1    3    3    0  502  0.10782121526E+03  0.15139816135E+02 -0.21602979717E+03  0.24195242127E+03  0.41800000000E+01 0.  1.
        -11    1    1    2    0    0 -0.23969961791E+02  0.30640233150E+02 -0.23478678459E+03  0.23798785089E+03  0.00000000000E+00 0.  1.
         11    1    1    2    0    0 -0.55123117702E+02 -0.65864533790E+02 -0.35303461858E+03  0.36333199258E+03  0.00000000000E+00 0. -1.
</event>
<event>
 7    1  0.3001243E-009  0.3135532E+03  0.7561462E-02  0.1078655E+00
          1   -1    0    0  501    0  0.00000000000E+00  0.00000000000E+00  0.23906935681E+04  0.23906935681E+04  0.00000000000E+00 0. -1.
         -1   -1    0    0    0  501 -0.00000000000E+00 -0.00000000000E+00 -0.52127599222E+02  0.52127599222E+02  0.00000000000E+00 0.  1.
         25    2    1    2    0    0  0.14453100170E+03  0.26818791518E+03  0.69576113588E+03  0.76977045309E+03  0.12509605891E+03 0.  0.
          5    1    3    3  502    0 -0.42468908167E+01  0.25253362164E+01  0.10449825094E+03  0.10469847303E+03  0.41800000000E+01 0.  1.
         -5    1    3    3    0  502  0.14877789252E+03  0.26566257896E+03  0.59126288494E+03  0.66507198006E+03  0.41800000000E+01 0.  1.
        -11    1    1    2    0    0 -0.89198159989E+02 -0.79493784418E+02  0.57309005951E+03  0.58541249544E+03  0.00000000000E+00 0. -1.
         11    1    1    2    0    0 -0.55332841712E+02 -0.18869413076E+03  0.10697147735E+04  0.10876382188E+04  0.00000000000E+00 0.  1.
</event>
<event>
 7    1  0.3001243E-009  0.1201606E+03  0.7561462E-02  0.1242832E+00
          1   -1    0    0  501    0  0.00000000000E+00  0.00000000000E+00  0.12856122082E+03  0.12856122082E+03  0.00000000000E+00 0. -1.
         -1   -1    0    0    0  501 -0.00000000000E+00 -0.00000000000E+00 -0.13578747422E+03  0.13578747422E+03  0.00000000000E+00 0.  1.
         25    2    1    2    0    0  0.19382567170E+02  0.82496722684E+02  0.36784159021E+01  0.15114567690E+03  0.12510032669E+03 0.  0.
          5    1    3    3  502    0 -0.34759180705E+02 -0.16099749415E+02  0.37870596720E+00  0.38535936380E+02  0.41800000000E+01 0.  1.
         -5    1    3    3    0  502  0.54141747875E+02  0.98596472098E+02  0.32997099349E+01  0.11260974051E+03  0.41800000000E+01 0.  1.
        -11    1    1    2    0    0 -0.18118709124E+02 -0.21082509019E+02 -0.37153980287E+02  0.46402349703E+02  0.00000000000E+00 0.  1.
         11    1    1    2    0    0 -0.12638580468E+01 -0.61414213665E+02  0.26249310989E+02  0.66800668444E+02  0.00000000000E+00 0. -1.
</event>
<event>
 7    1  0.3001243E-009  0.1320576E+03  0.7561462E-02  0.1224434E+00
          1   -1    0    0  501    0  0.00000000000E+00  0.00000000000E+00  0.11063682341E+03  0.11063682341E+03  0.00000000000E+00 0. -1.
         -1   -1    0    0    0  501 -0.00000000000E+00 -0.00000000000E+00 -0.22098501891E+03  0.22098501891E+03  0.00000000000E+00 0.  1.
         25    2    1    2    0    0 -0.33131172911E+02 -0.10379895259E+03 -0.48377529110E+02  0.17279933263E+03  0.12508927555E+03 0.  0.
          5    1    3    3  502    0 -0.73046761380E+02 -0.56400231710E+02  0.26480314787E+01  0.92419153620E+02  0.41800000000E+01 0.  1.
         -5    1    3    3    0  502  0.39915588469E+02 -0.47398720885E+02 -0.51025560589E+02  0.80380179011E+02  0.41800000000E+01 0.  1.
        -11    1    1    2    0    0  0.18615844133E+02  0.38914863723E+02 -0.79157733638E+02  0.90149115725E+02  0.00000000000E+00 0.  1.
         11    1    1    2    0    0  0.14515328778E+02  0.64884088872E+02  0.17187067252E+02  0.68673393967E+02  0.00000000000E+00 0. -1.
</event>
<event>
 7    1  0.3001243E-009  0.1255841E+03  0.7561462E-02  0.1234159E+00
         -1   -1    0    0    0  501 -0.00000000000E+00  0.00000000000E+00  0.47024104988E+02  0.47024104988E+02  0.00000000000E+00 0.  1.
          1   -1    0    0  501    0  0.00000000000E+00 -0.00000000000E+00 -0.45701634712E+03  0.45701634712E+03  0.00000000000E+00 0. -1.
         25    2    1    2    0    0 -0.77506322172E+02 -0.51776336974E+02 -0.16943596721E+03  0.23031593271E+03  0.12509541489E+03 0.  0.
          5    1    3    3  502    0  0.20260207286E+02  0.18495335800E+02 -0.79943781501E+01  0.28877948813E+02  0.41800000000E+01 0.  1.
         -5    1    3    3    0  502 -0.97766529459E+02 -0.70271672774E+02 -0.16144158906E+03  0.20143798390E+03  0.41800000000E+01 0.  1.
        -11    1    1    2    0    0  0.49849135200E+02  0.55993954908E+02 -0.23297313037E+03  0.24473810235E+03  0.00000000000E+00 0. -1.
         11    1    1    2    0    0  0.27657186972E+02 -0.42176179334E+01 -0.75831445482E+01  0.28986417051E+02  0.00000000000E+00 0.  1.
</event>
<event>
 7    1  0.3001243E-009  0.1057054E+03  0.7561462E-02  0.1268736E+00
         -1   -1    0    0    0  501 -0.00000000000E+00  0.00000000000E+00  0.35123808301E+02  0.35123808301E+02  0.00000000000E+00 0.  1.
          1   -1    0    0  501    0  0.00000000000E+00 -0.00000000000E+00 -0.64205725541E+03  0.64205725541E+03  0.00000000000E+00 0. -1.
         25    2    1    2    0    0  0.59205419234E+02  0.79064222384E+02 -0.37825269164E+03  0.41045442132E+03  0.12506518430E+03 0.  0.
          5    1    3    3  502    0  0.10639160792E+02  0.24226469856E+02 -0.17234750166E+01  0.26843180702E+02  0.41800000000E+01 0. -1.
         -5    1    3    3    0  502  0.48566258441E+02  0.54837752528E+02 -0.37652921662E+03  0.38361124062E+03  0.41800000000E+01 0. -1.
        -11    1    1    2    0    0 -0.13177501625E+02 -0.60003441662E+02 -0.20004291794E+03  0.20926353858E+03  0.00000000000E+00 0. -1.
         11    1    1    2    0    0 -0.46027917609E+02 -0.19060780722E+02 -0.28637837533E+02  0.57463103812E+02  0.00000000000E+00 0.  1.
</event>
<event>
 7    1  0.3001243E-009  0.2398300E+03  0.7561462E-02  0.1119906E+00
         -2   -1    0    0    0  501 -0.00000000000E+00  0.00000000000E+00  0.92368726328E+02  0.92368726328E+02  0.00000000000E+00 0. -1.
          2   -1    0    0  501    0  0.00000000000E+00 -0.00000000000E+00 -0.90025512503E+03  0.90025512503E+03  0.00000000000E+00 0.  1.
         25    2    1    2    0    0 -0.19134488686E+03 -0.10288770507E+03 -0.14597785828E+03  0.29009599153E+03  0.12508958235E+03 0.  0.
          5    1    3    3  502    0 -0.47418656035E+02 -0.95235680020E+02 -0.59740101727E+02  0.12208487148E+03  0.41800000000E+01 0.  1.
         -5    1    3    3    0  502 -0.14392623082E+03 -0.76520250493E+01 -0.86237756548E+02  0.16801112005E+03  0.41800000000E+01 0.  1.
        -11    1    1    2    0    0  0.48792323652E+02 -0.66227866992E+01 -0.22027476406E+03  0.22571115133E+03  0.00000000000E+00 0.  1.
         11    1    1    2    0    0  0.14255256320E+03  0.10951049177E+03 -0.44163377636E+03  0.47681670850E+03  0.00000000000E+00 0. -1.
</event>
<event>
 7    1  0.3001243E-009  0.1328698E+03  0.7561462E-02  0.1223258E+00
         -3   -1    0    0    0  501 -0.00000000000E+00  0.00000000000E+00  0.74778533373E+03  0.74778533373E+03  0.00000000000E+00 0.  1.
          3   -1    0    0  501    0  0.00000000000E+00 -0.00000000000E+00 -0.27757984797E+02  0.27757984797E+02  0.00000000000E+00 0. -1.
         25    2    1    2    0    0 -0.70876193110E+02 -0.60642403532E+02  0.46058042240E+03  0.48629423144E+03  0.12508724226E+03 0.  0.
          5    1    3    3  502    0 -0.19554893787E+02 -0.87359097290E+02  0.35153827779E+03  0.36278180619E+03  0.41800000000E+01 0.  1.
         -5    1    3    3    0  502 -0.51321299323E+02  0.26716693759E+02  0.10904214461E+03  0.12351242525E+03  0.41800000000E+01 0.  1.
        -11    1    1    2    0    0  0.61882888453E+02  0.53736550654E+01  0.19082378900E+03  0.20067906343E+03  0.00000000000E+00 0. -1.
         11    1    1    2    0    0  0.89933046574E+01  0.55268748466E+02  0.68623137529E+02  0.88570023653E+02  0.00000000000E+00 0.  1.
</event>
<event>
 7    1  0.3001243E-009  0.1126648E+03  0.7561462E-02  0.1255713E+00
         -1   -1    0    0    0  501 -0.00000000000E+00  0.00000000000E+00  0.20864290695E+02  0.20864290695E+02  0.00000000000E+00 0.  1.
          1   -1    0    0  501    0  0.00000000000E+00 -0.00000000000E+00 -0.89268300505E+03  0.89268300505E+03  0.00000000000E+00 0. -1.
         25    2    1    2    0    0  0.65756607896E+02 -0.41457129181E+02 -0.43146769783E+03  0.45591000238E+03  0.12508769309E+03 0.  0.
          5    1    3    3  502    0  0.11216464244E+02 -0.69794640759E+02 -0.32743989098E+03  0.33500963502E+03  0.41800000000E+01 0.  1.
         -5    1    3    3    0  502  0.54540143651E+02  0.28337511578E+02 -0.10402780685E+03  0.12090036737E+03  0.41800000000E+01 0.  1.
        -11    1    1    2    0    0 -0.58322505610E+02  0.53247222138E+02 -0.43591402609E+03  0.44300995414E+03  0.00000000000E+00 0. -1.
         11    1    1    2    0    0 -0.74341022855E+01 -0.11790092956E+02 -0.44369904466E+01  0.14627339229E+02  0.00000000000E+00 0.  1.
</event>
<event>
 7    1  0.3001243E-009  0.3543011E+03  0.7561462E-02  0.1060863E+00
         -2   -1    0    0    0  501 -0.00000000000E+00  0.00000000000E+00  0.12761113604E+04  0.12761113604E+04  0.00000000000E+00 0. -1.
          2   -1    0    0  501    0  0.00000000000E+00 -0.00000000000E+00 -0.13499079089E+03  0.13499079089E+03  0.00000000000E+00 0.  1.
         25    2    1    2    0    0 -0.29797026991E+03  0.18462531724E+03  0.90399253517E+03  0.97761069590E+03  0.12508948626E+03 0.  0.
          5    1    3    3  502    0 -0.28090520993E+03  0.17726578117E+03  0.72350213298E+03  0.79611789515E+03  0.41800000000E+01 0.  1.
         -5    1    3    3    0  502 -0.17065059978E+02  0.73595360738E+01  0.18049040218E+03  0.18149280075E+03  0.41800000000E+01 0.  1.
        -11    1    1    2    0    0  0.66655674277E+02 -0.97012638895E+01  0.76658473215E+02  0.10204712122E+03  0.00000000000E+00 0. -1.
         11    1    1    2    0    0  0.23131459563E+03 -0.17492405335E+03  0.16046956110E+03  0.33144433414E+03  0.00000000000E+00 0.  1.
</event>
<event>
 7    1  0.3101896E-009  0.8372862E+02  0.7561462E-02  0.1318791E+00
         -2   -1    0    0    0  501 -0.00000000000E+00  0.00000000000E+00  0.33476956488E+02  0.33476956488E+02  0.00000000000E+00 0.  1.
          2   -1    0    0  501    0  0.00000000000E+00 -0.00000000000E+00 -0.45277281842E+03  0.45277281842E+03  0.00000000000E+00 0. -1.
         25    2    1    2    0    0 -0.23588074855E+02  0.27241146077E+02 -0.32394991182E+03  0.34912601676E+03  0.12508778075E+03 0.  0.
          5    1    3    3  502    0 -0.58008521901E+02  0.38800086002E+02 -0.98833211124E+02  0.12106160129E+03  0.41800000000E+01 0.  1.
         -5    1    3    3    0  502  0.34420447045E+02 -0.11558939926E+02 -0.22511670070E+03  0.22806441546E+03  0.41800000000E+01 0.  1.
        -11    1    1    2    0    0  0.10101869715E+02 -0.40703834439E+02 -0.21436742316E+01  0.41993395302E+02  0.00000000000E+00 0.  1.
         11    1    1    2    0    0  0.13486205141E+02  0.13462688362E+02 -0.93202275876E+02  0.95130362848E+02  0.00000000000E+00 0. -1.
</event>
<event>
 7    1  0.3001243E-009  0.9354989E+02  0.7561462E-02  0.1294476E+00
         -2   -1    0    0    0  501 -0.00000000000E+00  0.00000000000E+00  0.18414374085E+02  0.18414374085E+02  0.00000000000E+00 0.  1.
          2   -1    0    0  501    0  0.00000000000E+00 -0.00000000000E+00 -0.76904144969E+03  0.76904144969E+03  0.00000000000E+00 0. -1.
         25    2    1    2    0    0 -0.97094863130E+01  0.39144828842E+02 -0.51042685744E+03  0.52707752432E+03  0.12509415695E+03 0.  0.
          5    1    3    3  502    0  0.39572958095E+01  0.63325856773E+02 -0.48512119079E+03  0.48927074967E+03  0.41800000000E+01 0. -1.
         -5    1    3    3    0  502 -0.13666782123E+02 -0.24181027931E+02 -0.25305666649E+02  0.37806774657E+02  0.41800000000E+01 0. -1.
        -11    1    1    2    0    0 -0.20201192278E+02  0.20449442291E+02 -0.39221441538E+02  0.48627043256E+02  0.00000000000E+00 0.  1.
         11    1    1    2    0    0  0.29910678591E+02 -0.59594271133E+02 -0.20097877663E+03  0.21175125620E+03  0.00000000000E+00 0. -1.
</event>
<event>
 7    1  0.3001243E-009  0.1596229E+03  0.7561462E-02  0.1189123E+00
         -1   -1    0    0    0  501 -0.00000000000E+00  0.00000000000E+00  0.44305016738E+02  0.44305016738E+02  0.00000000000E+00 0.  1.
          1   -1    0    0  501    0  0.00000000000E+00 -0.00000000000E+00 -0.75414351024E+03  0.75414351024E+03  0.00000000000E+00 0. -1.
         25    2    1    2    0    0  0.86753602482E+02 -0.10471442221E+03 -0.50248765883E+03  0.53538143142E+03  0.12509249407E+03 0.  0.
          5    1    3    3  502    0 -0.18384247453E+02 -0.13857619448E+02 -0.13494710714E+02  0.27010993843E+02  0.41800000000E+01 0. -1.
         -5    1    3    3    0  502  0.10513784993E+03 -0.90856802766E+02 -0.48899294811E+03  0.50837043758E+03  0.41800000000E+01 0. -1.
        -11    1    1    2    0    0  0.13207156639E+02  0.27537310160E+02 -0.17951621928E+02  0.35425882730E+02  0.00000000000E+00 0.  1.
         11    1    1    2    0    0 -0.99960759120E+02  0.77177112053E+02 -0.18939921275E+03  0.22764121283E+03  0.00000000000E+00 0. -1.
</event>
<event>
 7    1  0.3001243E-009  0.1503293E+03  0.7561462E-02  0.1200069E+00
         -2   -1    0    0    0  501 -0.00000000000E+00  0.00000000000E+00  0.39451584481E+02  0.39451584481E+02  0.00000000000E+00 0. -1.
          2   -1    0    0  501    0  0.00000000000E+00 -0.00000000000E+00 -0.60219176085E+03  0.60219176085E+03  0.00000000000E+00 0.  1.
         25    2    1    2    0    0  0.52192122915E+02  0.11130526247E+03 -0.28480036322E+03  0.33447252762E+03  0.12509094967E+03 0.  0.
          5    1    3    3  502    0 -0.26751307270E+02 -0.11194459962E+02 -0.55220849029E+02  0.62512102364E+02  0.41800000000E+01 0.  1.
         -5    1    3    3    0  502  0.78943430185E+02  0.12249972244E+03 -0.22957951419E+03  0.27196042525E+03  0.41800000000E+01 0.  1.
        -11    1    1    2    0    0 -0.46638809142E+02 -0.71440718860E+02 -0.14464719323E+03  0.16793381237E+03  0.00000000000E+00 0. -1.
         11    1    1    2    0    0 -0.55533137724E+01 -0.39864543613E+02 -0.13329261992E+03  0.13923700534E+03  0.00000000000E+00 0.  1.
</event>
<event>
 7    1  0.3001243E-009  0.2762154E+03  0.7561462E-02  0.1097774E+00
          2   -1    0    0  501    0  0.00000000000E+00  0.00000000000E+00  0.69486116995E+03  0.69486116995E+03  0.00000000000E+00 0. -1.
         -2   -1    0    0    0  501 -0.00000000000E+00 -0.00000000000E+00 -0.11975604626E+03  0.11975604626E+03  0.00000000000E+00 0.  1.
         25    2    1    2    0    0  0.25670482661E+03  0.53958003771E+02  0.22370992288E+03  0.36674805959E+03  0.12509666439E+03 0.  0.
          5    1    3    3  502    0  0.34066163930E+02  0.56296678640E+02  0.69985018997E+02  0.96151936199E+02  0.41800000000E+01 0. -1.
         -5    1    3    3    0  502  0.22263866268E+03 -0.23386748687E+01  0.15372490388E+03  0.27059612339E+03  0.41800000000E+01 0. -1.
        -11    1    1    2    0    0 -0.53152397828E+02 -0.22992557084E+02  0.27592501891E+02  0.64149678383E+02  0.00000000000E+00 0.  1.
         11    1    1    2    0    0 -0.20355242878E+03 -0.30965446687E+02  0.32380269892E+03  0.38371947824E+03  0.00000000000E+00 0. -1.
</event>
<event>
 7    1  0.3001243E-009  0.1052254E+03  0.7561462E-02  0.1269676E+00
          3   -1    0    0  501    0  0.00000000000E+00  0.00000000000E+00  0.19432509690E+03  0.19432509690E+03  0.00000000000E+00 0. -1.
         -3   -1    0    0    0  501 -0.00000000000E+00 -0.00000000000E+00 -0.86817227729E+02  0.86817227729E+02  0.00000000000E+00 0.  1.
         25    2    1    2    0    0  0.14450318312E+01 -0.71470021937E+02  0.81545561694E+02  0.16555220711E+03  0.12509117673E+03 0.  0.
          5    1    3    3  502    0  0.54288493167E+02 -0.41600790452E+02  0.79108225680E+02  0.10465873125E+03  0.41800000000E+01 0.  1.
         -5    1    3    3    0  502 -0.52843461336E+02 -0.29869231486E+02  0.24373360138E+01  0.60893475861E+02  0.41800000000E+01 0.  1.
        -11    1    1    2    0    0  0.18374469571E+02  0.31434279569E+02 -0.27712414820E+02  0.45757108729E+02  0.00000000000E+00 0.  1.
         11    1    1    2    0    0 -0.19819501402E+02  0.40035742368E+02  0.53674722293E+02  0.69833008785E+02  0.00000000000E+00 0. -1.
</event>
<event>
 7    1  0.3001243E-009  0.7436074E+02  0.7561462E-02  0.1345862E+00
         -1   -1    0    0    0  501 -0.00000000000E+00  0.00000000000E+00  0.99070708932E+02  0.99070708932E+02  0.00000000000E+00 0.  1.
          1   -1    0    0  501    0  0.00000000000E+00 -0.00000000000E+00 -0.13747290061E+03  0.13747290061E+03  0.00000000000E+00 0. -1.
         25    2    1    2    0    0  0.38547225791E+02  0.13136029802E+02 -0.16914935770E+02  0.13264435828E+03  0.12509982748E+03 0.  0.
          5    1    3    3  502    0  0.14881081321E+02  0.33646186236E+02  0.47897850537E+02  0.60540803724E+02  0.41800000000E+01 0. -1.
         -5    1    3    3    0  502  0.23666144470E+02 -0.20510156434E+02 -0.64812786306E+02  0.72103554557E+02  0.41800000000E+01 0. -1.
        -11    1    1    2    0    0  0.11373510317E+02 -0.26145282136E+02 -0.39972648863E+02  0.49099339833E+02  0.00000000000E+00 0. -1.
         11    1    1    2    0    0 -0.49920736108E+02  0.13009252334E+02  0.18485392954E+02  0.54799911428E+02  0.00000000000E+00 0.  1.
</event>
<event>
 7    1  0.3001243E-009  0.1039736E+03  0.7561462E-02  0.1272155E+00
         -1   -1    0    0    0  501 -0.00000000000E+00  0.00000000000E+00  0.11994364991E+03  0.11994364991E+03  0.00000000000E+00 0.  1.
          1   -1    0    0  501    0  0.00000000000E+00 -0.00000000000E+00 -0.18418939603E+03  0.18418939603E+03  0.00000000000E+00 0. -1.
         25    2    1    2    0    0  0.26523531688E+02 -0.98337884732E+02 -0.30352064386E+02  0.16414033177E+03  0.12508782273E+03 0.  0.
          5    1    3    3  502    0  0.68563179120E+01 -0.20826959928E+02  0.47483622623E+02  0.52468449306E+02  0.41800000000E+01 0.  1.
         -5    1    3    3    0  502  0.19667213776E+02 -0.77510924804E+02 -0.77835687009E+02  0.11167188247E+03  0.41800000000E+01 0.  1.
        -11    1    1    2    0    0 -0.32375956941E+02  0.80099757797E+02 -0.61744484716E+02  0.10619112571E+03  0.00000000000E+00 0. -1.
         11    1    1    2    0    0  0.58524252538E+01  0.18238126935E+02  0.27850802982E+02  0.33801588457E+02  0.00000000000E+00 0.  1.
</event>
<event>
 7    1  0.3001243E-009  0.1434958E+03  0.7561462E-02  0.1208701E+00
         -2   -1    0    0    0  501 -0.00000000000E+00  0.00000000000E+00  0.25891833731E+02  0.25891833731E+02  0.00000000000E+00 0.  1.
          2   -1    0    0  501    0  0.00000000000E+00 -0.00000000000E+00 -0.11285514666E+04  0.11285514666E+04  0.00000000000E+00 0. -1.
         25    2    1    2    0    0 -0.12964626110E+03 -0.16815884155E+02 -0.51394366395E+03  0.54486362135E+03  0.12508936481E+03 0.  0.
          5    1    3    3  502    0 -0.10792319921E+03 -0.18044320281E+02 -0.51089639747E+03  0.52249939308E+03  0.41800000000E+01 0.  1.
         -5    1    3    3    0  502 -0.21723061891E+02  0.12284361262E+01 -0.30472664750E+01  0.22364228272E+02  0.41800000000E+01 0.  1.
        -11    1    1    2    0    0  0.90725016100E+02 -0.28973146773E+02 -0.41412976608E+03  0.42493991921E+03  0.00000000000E+00 0.  1.
         11    1    1    2    0    0  0.38921245002E+02  0.45789030928E+02 -0.17458620286E+03  0.18463975979E+03  0.00000000000E+00 0. -1.
</event>
<event>
 7    1  0.3001243E-009  0.1292083E+03  0.7561462E-02  0.1228635E+00
         -1   -1    0    0    0  501 -0.00000000000E+00  0.00000000000E+00  0.44445629407E+02  0.44445629407E+02  0.00000000000E+00 0.  1.
          1   -1    0    0  501    0  0.00000000000E+00 -0.00000000000E+00 -0.55232628421E+03  0.55232628421E+03  0.00000000000E+00 0. -1.
         25    2    1    2    0    0 -0.84252736586E+02 -0.52047316867E+02 -0.16946759601E+03  0.23275507369E+03  0.12509281122E+03 0.  0.
          5    1    3    3  502    0 -0.12501833465E+02 -0.80820294646E+02 -0.93509345893E+02  0.12429676599E+03  0.41800000000E+01 0.  1.
         -5    1    3    3    0  502 -0.71750903121E+02  0.28772977779E+02 -0.75958250117E+02  0.10845830770E+03  0.41800000000E+01 0.  1.
        -11    1    1    2    0    0  0.43861374406E+02  0.29398055597E+02 -0.29773090274E+03  0.30237684482E+03  0.00000000000E+00 0.  1.
         11    1    1    2    0    0  0.40391362181E+02  0.22649261270E+02 -0.40682156053E+02  0.61639995100E+02  0.00000000000E+00 0. -1.
</event>
<event>
 7    1  0.3001243E-009  0.9542831E+02  0.7561462E-02  0.1290214E+00
         -2   -1    0    0    0  501 -0.00000000000E+00  0.00000000000E+00  0.12283459565E+03  0.12283459565E+03  0.00000000000E+00 0. -1.
          2   -1    0    0  501    0  0.00000000000E+00 -0.00000000000E+00 -0.16065254472E+03  0.16065254472E+03  0.00000000000E+00 0.  1.
         25    2    1    2    0    0 -0.49419923047E+02 -0.25131391542E+02  0.48177729597E+02  0.14506243341E+03  0.12509236717E+03 0.  0.
          5    1    3    3  502    0 -0.28284281542E+02  0.49783794931E+02  0.10039582653E+02  0.58281149954E+02  0.41800000000E+01 0. -1.
         -5    1    3    3    0  502 -0.21135641505E+02 -0.74915186473E+02  0.38138146944E+02  0.86781283457E+02  0.41800000000E+01 0. -1.
        -11    1    1    2    0    0  0.29930262334E+02  0.16531449084E+02  0.13435438947E+02  0.36737180511E+02  0.00000000000E+00 0. -1.
         11    1    1    2    0    0  0.19489660713E+02  0.85999424576E+01 -0.99431117613E+02  0.10168752645E+03  0.00000000000E+00 0.  1.
</event>
<event>
 7    1  0.3001243E-009  0.1320543E+03  0.7561462E-02  0.1224439E+00
          2   -1    0    0  501    0  0.00000000000E+00  0.00000000000E+00  0.67707548509E+03  0.67707548509E+03  0.00000000000E+00 0.  1.
         -2   -1    0    0    0  501 -0.00000000000E+00 -0.00000000000E+00 -0.39673140497E+02  0.39673140497E+02  0.00000000000E+00 0. -1.
         25    2    1    2    0    0 -0.51225915245E+02 -0.10416958095E+03  0.42664316357E+03  0.45950825975E+03  0.12509218910E+03 0.  0.
          5    1    3    3  502    0 -0.31508584033E+02 -0.27922968067E+02  0.22847233752E+02  0.48082756822E+02  0.41800000000E+01 0.  1.
         -5    1    3    3    0  502 -0.19717331212E+02 -0.76246612888E+02  0.40379592982E+03  0.41142550293E+03  0.41800000000E+01 0.  1.
        -11    1    1    2    0    0  0.74441534012E+02  0.83329286524E+02  0.18771744619E+03  0.21845629216E+03  0.00000000000E+00 0.  1.
         11    1    1    2    0    0 -0.23215618766E+02  0.20840294430E+02  0.23041734830E+02  0.38784073672E+02  0.00000000000E+00 0. -1.
</event>
<event>
 7    1  0.3001243E-009  0.1571206E+03  0.7561462E-02  0.1191986E+00
          3   -1    0    0  501    0  0.00000000000E+00  0.00000000000E+00  0.24982445493E+03  0.24982445493E+03  0.00000000000E+00 0. -1.
         -3   -1    0    0    0  501 -0.00000000000E+00 -0.00000000000E+00 -0.12898058163E+03  0.12898058163E+03  0.00000000000E+00 0.  1.
         25    2    1    2    0    0  0.97499804619E+01  0.14098784078E+03  0.49769001862E+02  0.19518397052E+03  0.12508875023E+03 0.  0.
          5    1    3    3  502    0 -0.16246025540E+02  0.14526624722E+03  0.69594861137E+02  0.16194793306E+03  0.41800000000E+01 0.  1.
         -5    1    3    3    0  502  0.25996006002E+02 -0.42784064371E+01 -0.19825859274E+02  0.33236037454E+02  0.41800000000E+01 0.  1.
        -11    1    1    2    0    0 -0.33512478978E+01 -0.60345970497E+02 -0.18226204055E+02  0.63127343774E+02  0.00000000000E+00 0.  1.
         11    1    1    2    0    0 -0.63987325642E+01 -0.80641870283E+02  0.89301075499E+02  0.12049372227E+03  0.00000000000E+00 0. -1.
</event>
<event>
 7    1  0.3001243E-009  0.1165429E+03  0.7561462E-02  0.1248912E+00
         -1   -1    0    0    0  501 -0.00000000000E+00  0.00000000000E+00  0.15430116836E+03  0.15430116836E+03  0.00000000000E+00 0.  1.
          1   -1    0    0  501    0  0.00000000000E+00 -0.00000000000E+00 -0.11978138540E+03  0.11978138540E+03  0.00000000000E+00 0. -1.
         25    2    1    2    0    0 -0.71473779165E+02 -0.36642492258E+02  0.34169172424E+02  0.15253172057E+03  0.12508884878E+03 0.  0.
          5    1    3    3  502    0 -0.63205809542E+02 -0.78567538984E+02  0.58389323446E+01  0.10109103854E+03  0.41800000000E+01 0. -1.
         -5    1    3    3    0  502 -0.82679696232E+01  0.41925046726E+02  0.28330240080E+02  0.51440682029E+02  0.41800000000E+01 0. -1.
        -11    1    1    2    0    0  0.57204346186E+02  0.87136954179E+01  0.40481120658E+02  0.70618601233E+02  0.00000000000E+00 0.  1.
         11    1    1    2    0    0  0.14269432979E+02  0.27928796840E+02 -0.40130510118E+02  0.50932231964E+02  0.00000000000E+00 0. -1.
</event>
<event>
 7    1  0.3001243E-009  0.1146988E+03  0.7561462E-02  0.1252108E+00
         -2   -1    0    0    0  501 -0.00000000000E+00  0.00000000000E+00  0.20199796849E+02  0.20199796849E+02  0.00000000000E+00 0.  1.
          2   -1    0    0  501    0  0.00000000000E+00 -0.00000000000E+00 -0.72586392322E+03  0.72586392322E+03  0.00000000000E+00 0. -1.
         25    2    1    2    0    0 -0.38682679454E+02 -0.34024272313E+02 -0.35133331231E+03  0.37647885612E+03  0.12508889626E+03 0.  0.
          5    1    3    3  502    0  0.23432032579E+02  0.34727026163E+02 -0.96176828130E+02  0.10498800487E+03  0.41800000000E+01 0.  1.
         -5    1    3    3    0  502 -0.62114712033E+02 -0.68751298475E+02 -0.25515648418E+03  0.27149085125E+03  0.41800000000E+01 0.  1.
        -11    1    1    2    0    0  0.61630680844E+02  0.12095698591E+02 -0.30133617146E+03  0.30781184996E+03  0.00000000000E+00 0.  1.
         11    1    1    2    0    0 -0.22948001390E+02  0.21928573722E+02 -0.52994642597E+02  0.61773013989E+02  0.00000000000E+00 0. -1.
</event>
<event>
 7    1  0.3001243E-009  0.1137967E+03  0.7561462E-02  0.1253696E+00
         -2   -1    0    0    0  501 -0.00000000000E+00  0.00000000000E+00  0.15162402656E+02  0.15162402656E+02  0.00000000000E+00 0.  1.
          2   -1    0    0  501    0  0.00000000000E+00 -0.00000000000E+00 -0.90118355606E+03  0.90118355606E+03  0.00000000000E+00 0. -1.
         25    2    1    2    0    0 -0.34083912706E+02 -0.20689844691E+02 -0.47657589935E+03  0.49432930911E+03  0.12508834968E+03 0.  0.
          5    1    3    3  502    0 -0.71657999291E+02 -0.46332983685E+02 -0.32241456919E+03  0.33354196297E+03  0.41800000000E+01 0. -1.
         -5    1    3    3    0  502  0.37574086585E+02  0.25643138994E+02 -0.15416133016E+03  0.16078734614E+03  0.41800000000E+01 0. -1.
        -11    1    1    2    0    0 -0.11467652744E+02  0.43885623803E+02 -0.12411820745E+03  0.13214682916E+03  0.00000000000E+00 0.  1.
         11    1    1    2    0    0  0.45551565450E+02 -0.23195779112E+02 -0.28532704660E+03  0.28986982045E+03  0.00000000000E+00 0. -1.
</event>
<event>
 7    1  0.3001243E-009  0.1418698E+03  0.7561462E-02  0.1210835E+00
         -2   -1    0    0    0  501 -0.00000000000E+00  0.00000000000E+00  0.30946753319E+02  0.30946753319E+02  0.00000000000E+00 0.  1.
          2   -1    0    0  501    0  0.00000000000E+00 -0.00000000000E+00 -0.76305871148E+03  0.76305871148E+03  0.00000000000E+00 0. -1.
         25    2    1    2    0    0  0.51984588058E+02  0.94174635136E+02 -0.34472878815E+03  0.38217945544E+03  0.12510771152E+03 0.  0.
          5    1    3    3  502    0  0.38682548769E+02  0.11409676532E+03 -0.33492845177E+03  0.35596200870E+03  0.41800000000E+01 0.  1.
         -5    1    3    3    0  502  0.13302039289E+02 -0.19922130182E+02 -0.98003363822E+01  0.26217446737E+02  0.41800000000E+01 0.  1.
        -11    1    1    2    0    0 -0.32439662317E+02  0.91597515665E+01 -0.11526719051E+03  0.12009478734E+03  0.00000000000E+00 0. -1.
         11    1    1    2    0    0 -0.19544925741E+02 -0.10333438670E+03 -0.27211597951E+03  0.29173122202E+03  0.00000000000E+00 0.  1.
</event>
<event>
 7    1  0.3001243E-009  0.7960840E+02  0.7561462E-02  0.1330166E+00
          1   -1    0    0  501    0  0.00000000000E+00  0.00000000000E+00  0.33065947953E+03  0.33065947953E+03  0.00000000000E+00 0. -1.
         -1   -1    0    0    0  501 -0.00000000000E+00 -0.00000000000E+00 -0.39418160552E+02  0.39418160552E+02  0.00000000000E+00 0.  1.
         25    2    1    2    0    0 -0.20057425674E+02  0.24688642933E+02  0.13766760981E+03  0.18870896989E+03  0.12508746984E+03 0.  0.
          5    1    3    3  502    0 -0.26628432129E+02 -0.89042637220E+01 -0.15061466092E+02  0.32135330571E+02  0.41800000000E+01 0.  1.
         -5    1    3    3    0  502  0.65710064551E+01  0.33592906655E+02  0.15272907590E+03  0.15657363932E+03  0.41800000000E+01 0.  1.
        -11    1    1    2    0    0  0.50790199228E+02  0.80704715616E+01  0.77068962597E+02  0.92652047169E+02  0.00000000000E+00 0. -1.
         11    1    1    2    0    0 -0.30732773554E+02 -0.32759114495E+02  0.76504746569E+02  0.88716623022E+02  0.00000000000E+00 0.  1.
</event>
<event>
 7    1  0.3001243E-009  0.1215650E+03  0.7561462E-02  0.1240537E+00
         -1   -1    0    0    0  501 -0.00000000000E+00  0.00000000000E+00  0.99922163898E+02  0.99922163898E+02  0.00000000000E+00 0.  1.
          1   -1    0    0  501    0  0.00000000000E+00 -0.00000000000E+00 -0.22685312479E+03  0.22685312479E+03  0.00000000000E+00 0. -1.
         25    2    1    2    0    0  0.40413410501E+02 -0.93342570815E+02 -0.84343900115E+02  0.18195564850E+03  0.12509150754E+03 0.  0.
          5    1    3    3  502    0 -0.20488425065E+02 -0.42130878483E+02  0.19624857246E+02  0.50964633868E+02  0.41800000000E+01 0.  1.
         -5    1    3    3    0  502  0.60901835567E+02 -0.51211692333E+02 -0.10396875736E+03  0.13099101463E+03  0.41800000000E+01 0.  1.
        -11    1    1    2    0    0  0.14056684030E+02  0.11807059705E+02  0.21044794917E+02  0.27926339142E+02  0.00000000000E+00 0.  1.
         11    1    1    2    0    0 -0.54470094531E+02  0.81535511110E+02 -0.63631855692E+02  0.11689330104E+03  0.00000000000E+00 0. -1.
</event>
<event>
 7    1  0.3001243E-009  0.8395833E+02  0.7561462E-02  0.1318179E+00
         -1   -1    0    0    0  501 -0.00000000000E+00  0.00000000000E+00  0.40420459106E+02  0.40420459106E+02  0.00000000000E+00 0.  1.
          1   -1    0    0  501    0  0.00000000000E+00 -0.00000000000E+00 -0.52901458195E+03  0.52901458195E+03  0.00000000000E+00 0. -1.
         25    2    1    2    0    0 -0.86267531011E+01 -0.46416714707E+02 -0.42379107785E+03  0.44438168585E+03  0.12508905940E+03 0.  0.
          5    1    3    3  502    0 -0.19679424445E+02  0.12415165409E+02 -0.34263888389E+03  0.34345348044E+03  0.41800000000E+01 0. -1.
         -5    1    3    3    0  502  0.11052671344E+02 -0.58831880116E+02 -0.81152193965E+02  0.10092820541E+03  0.41800000000E+01 0. -1.
        -11    1    1    2    0    0 -0.29527501983E+02  0.31842270671E+02 -0.71510279582E+02  0.83663155934E+02  0.00000000000E+00 0. -1.
         11    1    1    2    0    0  0.38154255085E+02  0.14574444036E+02  0.67072345853E+01  0.41390199272E+02  0.00000000000E+00 0.  1.
</event>
<event>
 7    1  0.3001243E-009  0.2594798E+03  0.7561462E-02  0.1107456E+00
         -1   -1    0    0    0  501 -0.00000000000E+00  0.00000000000E+00  0.74512808840E+02  0.74512808840E+02  0.00000000000E+00 0.  1.
          1   -1    0    0  501    0  0.00000000000E+00 -0.00000000000E+00 -0.94994041380E+03  0.94994041380E+03  0.00000000000E+00 0. -1.
         25    2    1    2    0    0 -0.14598599206E+03 -0.19117203655E+03 -0.38721595229E+03  0.47269896808E+03  0.12509781485E+03 0.  0.
          5    1    3    3  502    0 -0.33531746723E+02  0.69907290349E+01 -0.10166668484E+03  0.10736310137E+03  0.41800000000E+01 0. -1.
         -5    1    3    3    0  502 -0.11245424533E+03 -0.19816276559E+03 -0.28554926746E+03  0.36533586671E+03  0.41800000000E+01 0. -1.
        -11    1    1    2    0    0  0.10590320739E+03  0.18872648347E+03 -0.42363639168E+03  0.47571101233E+03  0.00000000000E+00 0.  1.
         11    1    1    2    0    0  0.40082784669E+02  0.24455530864E+01 -0.64575260982E+02  0.76043242221E+02  0.00000000000E+00 0. -1.
</event>
<event>
 7    1  0.3001243E-009  0.1620043E+03  0.7561462E-02  0.1186452E+00
          1   -1    0    0  501    0  0.00000000000E+00  0.00000000000E+00  0.14132824438E+04  0.14132824438E+04  0.00000000000E+00 0. -1.
         -1   -1    0    0    0  501 -0.00000000000E+00 -0.00000000000E+00 -0.24214974031E+02  0.24214974031E+02  0.00000000000E+00 0.  1.
         25    2    1    2    0    0 -0.86363960679E+02  0.69519211080E+02  0.10151883538E+04  0.10288583431E+04  0.12510172682E+03 0.  0.
          5    1    3    3  502    0 -0.96921030629E+02  0.46676379219E+00  0.61227911252E+03  0.61991700096E+03  0.41800000000E+01 0. -1.
         -5    1    3    3    0  502  0.10557069950E+02  0.69052447287E+02  0.40290924130E+03  0.40894134216E+03  0.41800000000E+01 0. -1.
        -11    1    1    2    0    0  0.56752208451E+01 -0.75866675320E+02  0.11921159880E+03  0.14141911414E+03  0.00000000000E+00 0.  1.
         11    1    1    2    0    0  0.80688739834E+02  0.63474642404E+01  0.25466751715E+03  0.26721996057E+03  0.00000000000E+00 0. -1.
</event>
<event>
 7    1  0.3001243E-009  0.2682558E+03  0.7561462E-02  0.1102282E+00
         -1   -1    0    0    0  501 -0.00000000000E+00  0.00000000000E+00  0.48062822773E+03  0.48062822773E+03  0.00000000000E+00 0.  1.
          1   -1    0    0  501    0  0.00000000000E+00 -0.00000000000E+00 -0.17267903352E+03  0.17267903352E+03  0.00000000000E+00 0. -1.
         25    2    1    2    0    0  0.58543107326E+02 -0.24291017812E+03  0.26280087395E+03  0.38360006839E+03  0.12510820544E+03 0.  0.
          5    1    3    3  502    0  0.57083724836E+02 -0.27026538709E+02  0.53442361945E+02  0.82840472512E+02  0.41800000000E+01 0.  1.
         -5    1    3    3    0  502  0.14593824896E+01 -0.21588363942E+03  0.20935851201E+03  0.30075959588E+03  0.41800000000E+01 0.  1.
        -11    1    1    2    0    0  0.58631195525E+01  0.10406363672E+03  0.52033660533E+02  0.11649514362E+03  0.00000000000E+00 0. -1.
         11    1    1    2    0    0 -0.64406226878E+02  0.13884654140E+03 -0.68853402800E+01  0.15321204924E+03  0.00000000000E+00 0.  1.
</event>
<event>
 7    1  0.3001243E-009  0.9444038E+02  0.7561462E-02  0.1292441E+00
         -2   -1    0    0    0  501 -0.00000000000E+00  0.00000000000E+00  0.64686059454E+02  0.64686059454E+02  0.00000000000E+00 0.  1.
          2   -1    0    0  501    0  0.00000000000E+00 -0.00000000000E+00 -0.18269925183E+03  0.18269925183E+03  0.00000000000E+00 0. -1.
         25    2    1    2    0    0 -0.15361183082E+02  0.14483623651E+02 -0.60934369501E+02  0.14073299705E+03  0.12508812002E+03 0.  0.
          5    1    3    3  502    0  0.22358568889E+02 -0.47922686415E+02 -0.33343177870E+02  0.62655641298E+02  0.41800000000E+01 0. -1.
         -5    1    3    3    0  502 -0.37719751971E+02  0.62406310066E+02 -0.27591191631E+02  0.78077355747E+02  0.41800000000E+01 0. -1.
        -11    1    1    2    0    0  0.37503400070E+02 -0.15612393488E+02  0.48147363251E+01  0.40907621944E+02  0.00000000000E+00 0.  1.
         11    1    1    2    0    0 -0.22142216988E+02  0.11287698372E+01 -0.61893559201E+02  0.65744692296E+02  0.00000000000E+00 0. -1.
</event>
<event>
 7    1  0.3001243E-009  0.1293641E+03  0.7561462E-02  0.1228402E+00
          3   -1    0    0  501    0  0.00000000000E+00  0.00000000000E+00  0.67766937430E+02  0.67766937430E+02  0.00000000000E+00 0. -1.
         -3   -1    0    0    0  501 -0.00000000000E+00 -0.00000000000E+00 -0.46946374012E+03  0.46946374012E+03  0.00000000000E+00 0.  1.
         25    2    1    2    0    0 -0.99454752592E+02 -0.25093197285E+02 -0.67764735980E+02  0.17538956719E+03  0.12509406250E+03 0.  0.
          5    1    3    3  502    0 -0.45798235682E+02 -0.70244227135E+02 -0.63019161615E+02  0.10497912635E+03  0.41800000000E+01 0. -1.
         -5    1    3    3    0  502 -0.53656516909E+02  0.45151029850E+02 -0.47455743645E+01  0.70410440841E+02  0.41800000000E+01 0. -1.
        -11    1    1    2    0    0  0.22826409631E+02 -0.27429991816E+01 -0.57702867259E+01  0.23703696548E+02  0.00000000000E+00 0. -1.
         11    1    1    2    0    0  0.76628342961E+02  0.27836196467E+02 -0.32816177999E+03  0.33813741382E+03  0.00000000000E+00 0.  1.
</event>
<event>
 7    1  0.3001243E-009  0.1097038E+03  0.7561462E-02  0.1261119E+00
         -2   -1    0    0    0  501 -0.00000000000E+00  0.00000000000E+00  0.43734546388E+02  0.43734546388E+02  0.00000000000E+00 0.  1.
          2   -1    0    0  501    0  0.00000000000E+00 -0.00000000000E+00 -0.56035317268E+03  0.56035317268E+03  0.00000000000E+00 0. -1.
         25    2    1    2    0    0  0.39435727496E+02  0.84099354083E+02 -0.15681154975E+03  0.22105662947E+03  0.12509313865E+03 0.  0.
          5    1    3    3  502    0 -0.11977129657E+02  0.67615907807E+02 -0.15181403238E+03  0.16667433951E+03  0.41800000000E+01 0.  1.
         -5    1    3    3    0  502  0.51412857153E+02  0.16483446276E+02 -0.49975173746E+01  0.54382289963E+02  0.41800000000E+01 0.  1.
        -11    1    1    2    0    0 -0.15030388242E+02 -0.61111763242E+02 -0.33616909521E+03  0.34200909455E+03  0.00000000000E+00 0. -1.
         11    1    1    2    0    0 -0.24405339254E+02 -0.22987590842E+02 -0.23637981330E+02  0.41021995053E+02  0.00000000000E+00 0.  1.
</event>
<event>
 7    1  0.3001243E-009  0.1057016E+03  0.7561462E-02  0.1268743E+00
          2   -1    0    0  501    0  0.00000000000E+00  0.00000000000E+00  0.13414700540E+03  0.13414700540E+03  0.00000000000E+00 0.  1.
         -2   -1    0    0    0  501 -0.00000000000E+00 -0.00000000000E+00 -0.90568974672E+02  0.90568974672E+02  0.00000000000E+00 0. -1.
         25    2    1    2    0    0 -0.14538270695E+02  0.77453565476E+00  0.37920411327E+02  0.13151839500E+03  0.12508864620E+03 0.  0.
          5    1    3    3  502    0  0.52876206980E+02  0.65710946605E+01  0.34551814761E+02  0.63642539649E+02  0.41800000000E+01 0. -1.
         -5    1    3    3    0  502 -0.67414477675E+02 -0.57965590057E+01  0.33685965664E+01  0.67875855349E+02  0.41800000000E+01 0. -1.
        -11    1    1    2    0    0  0.28721301494E+02  0.38714735984E+02 -0.84299203600E+01  0.48936770420E+02  0.00000000000E+00 0. -1.
         11    1    1    2    0    0 -0.14183030799E+02 -0.39489271639E+02  0.14087539760E+02  0.44260814653E+02  0.00000000000E+00 0.  1.
</event>
<event>
 7    1  0.3001243E-009  0.9507970E+02  0.7561462E-02  0.1290997E+00
          2   -1    0    0  501    0  0.00000000000E+00  0.00000000000E+00  0.72149216624E+03  0.72149216624E+03  0.00000000000E+00 0. -1.
         -2   -1    0    0    0  501 -0.00000000000E+00 -0.00000000000E+00 -0.13136365636E+02  0.13136365636E+02  0.00000000000E+00 0.  1.
         25    2    1    2    0    0  0.30363508501E+02  0.26947241243E+02  0.45346082560E+03  0.47213455351E+03  0.12504487117E+03 0.  0.
          5    1    3    3  502    0 -0.15959321658E+02  0.65842168838E+02  0.18919898797E+03  0.20100651878E+03  0.41800000000E+01 0. -1.
         -5    1    3    3    0  502  0.46322830159E+02 -0.38894927595E+02  0.26426183764E+03  0.27112803473E+03  0.41800000000E+01 0. -1.
        -11    1    1    2    0    0 -0.86621365801E+01  0.13331314934E+02  0.88834894380E+02  0.90246302016E+02  0.00000000000E+00 0.  1.
         11    1    1    2    0    0 -0.21701371921E+02 -0.40278556177E+02  0.16606008062E+03  0.17224767635E+03  0.00000000000E+00 0. -1.
</event>
<event>
 7    1  0.3001243E-009  0.8444293E+02  0.7561462E-02  0.1316896E+00
         -1   -1    0    0    0  501 -0.00000000000E+00  0.00000000000E+00  0.72108335878E+02  0.72108335878E+02  0.00000000000E+00 0.  1.
          1   -1    0    0  501    0  0.00000000000E+00 -0.00000000000E+00 -0.27693652931E+03  0.27693652931E+03  0.00000000000E+00 0. -1.
         25    2    1    2    0    0  0.17013735234E+02  0.61444936406E+02 -0.18838860294E+03  0.23495339290E+03  0.12509150139E+03 0.  0.
          5    1    3    3  502    0  0.25388681474E+02  0.65132006228E+02 -0.29900642577E+02  0.76146465505E+02  0.41800000000E+01 0. -1.
         -5    1    3    3    0  502 -0.83749462400E+01 -0.36870698222E+01 -0.15848796036E+03  0.15880692740E+03  0.41800000000E+01 0. -1.
        -11    1    1    2    0    0  0.15123344996E+02 -0.53630359380E+02  0.24998749772E+02  0.61072649371E+02  0.00000000000E+00 0.  1.
         11    1    1    2    0    0 -0.32137080230E+02 -0.78145770261E+01 -0.41438340264E+02  0.53018822918E+02  0.00000000000E+00 0. -1.
</event>
<event>
 7    1  0.3001243E-009  0.1381141E+03  0.7561462E-02  0.1215889E+00
          1   -1    0    0  501    0  0.00000000000E+00  0.00000000000E+00  0.28877423457E+02  0.28877423457E+02  0.00000000000E+00 0. -1.
         -1   -1    0    0    0  501 -0.00000000000E+00 -0.00000000000E+00 -0.10331162790E+04  0.10331162790E+04  0.00000000000E+00 0.  1.
         25    2    1    2    0    0  0.12119638367E+03  0.49427507354E+02 -0.62988194025E+03  0.65538564547E+03  0.12508974271E+03 0.  0.
          5    1    3    3  502    0  0.93322683245E+02  0.34829614241E+02 -0.60964210507E+03  0.61774039362E+03  0.41800000000E+01 0. -1.
         -5    1    3    3    0  502  0.27873700420E+02  0.14597893113E+02 -0.20239835187E+02  0.37645251850E+02  0.41800000000E+01 0. -1.
        -11    1    1    2    0    0 -0.77946901131E+02  0.15171876042E+01 -0.28220278120E+03  0.29277368559E+03  0.00000000000E+00 0.  1.
         11    1    1    2    0    0 -0.43249482534E+02 -0.50944694958E+02 -0.92154134097E+02  0.11383437141E+03  0.00000000000E+00 0. -1.
</event>
<event>
 7    1  0.3001243E-009  0.9069849E+02  0.7561462E-02  0.1301169E+00
         -3   -1    0    0    0  501 -0.00000000000E+00  0.00000000000E+00  0.26969716545E+02  0.26969716545E+02  0.00000000000E+00 0.  1.
          3   -1    0    0  501    0  0.00000000000E+00 -0.00000000000E+00 -0.45385218866E+03  0.45385218866E+03  0.00000000000E+00 0. -1.
         25    2    1    2    0    0  0.88107001134E+01 -0.27550502019E+01 -0.19048223833E+03  0.22806917331E+03  0.12508735331E+03 0.  0.
          5    1    3    3  502    0  0.17075108382E+02  0.45465964510E+02 -0.16637334128E+03  0.17336745469E+03  0.41800000000E+01 0.  1.
         -5    1    3    3    0  502 -0.82644082690E+01 -0.48221014712E+02 -0.24108897050E+02  0.54701718628E+02  0.41800000000E+01 0.  1.
        -11    1    1    2    0    0  0.33323238594E+02  0.19037453215E+02 -0.15477928730E+03  0.15946626800E+03  0.00000000000E+00 0.  1.
         11    1    1    2    0    0 -0.42133938707E+02 -0.16282403013E+02 -0.81620946487E+02  0.93286463886E+02  0.00000000000E+00 0. -1.
</event>
<event>
 7    1  0.3001243E-009  0.8570798E+02  0.7561462E-02  0.1313591E+00
         -2   -1    0    0    0  501 -0.00000000000E+00  0.00000000000E+00  0.92397071849E+02  0.92397071849E+02  0.00000000000E+00 0.  1.
          2   -1    0    0  501    0  0.00000000000E+00 -0.00000000000E+00 -0.16911995449E+03  0.16911995449E+03  0.00000000000E+00 0. -1.
         25    2    1    2    0    0  0.48903783640E+02 -0.34026473679E+02 -0.57993970088E+02  0.15020140528E+03  0.12509108928E+03 0.  0.
          5    1    3    3  502    0  0.57803186987E+01 -0.43986342139E+02 -0.86561627960E+02  0.97358092699E+02  0.41800000000E+01 0. -1.
         -5    1    3    3    0  502  0.43123464942E+02  0.99598684599E+01  0.28567657872E+02  0.52843312582E+02  0.41800000000E+01 0. -1.
        -11    1    1    2    0    0  0.41435077385E+01 -0.11669979502E+02 -0.36948285789E+02  0.38968357685E+02  0.00000000000E+00 0. -1.
         11    1    1    2    0    0 -0.53047291379E+02  0.45696453181E+02  0.18219373239E+02  0.72347263370E+02  0.00000000000E+00 0.  1.
</event>
<event>
 7    1  0.3001243E-009  0.1324119E+03  0.7561462E-02  0.1223920E+00
          3   -1    0    0  501    0  0.00000000000E+00  0.00000000000E+00  0.11456683232E+03  0.11456683232E+03  0.00000000000E+00 0. -1.
         -3   -1    0    0    0  501 -0.00000000000E+00 -0.00000000000E+00 -0.16369341754E+03  0.16369341754E+03  0.00000000000E+00 0.  1.
         25    2    1    2    0    0 -0.16660419226E+02 -0.82095892430E+02 -0.24626235256E+02  0.15255147812E+03  0.12509275315E+03 0.  0.
          5    1    3    3  502    0  0.46932513405E+02 -0.62606104928E+02  0.72233631531E+01  0.78688211087E+02  0.41800000000E+01 0. -1.
         -5    1    3    3    0  502 -0.63592932631E+02 -0.19489787502E+02 -0.31849598409E+02  0.73863267029E+02  0.41800000000E+01 0. -1.
        -11    1    1    2    0    0  0.51085987318E+02  0.36940254423E+02 -0.27650716347E+02  0.68839833030E+02  0.00000000000E+00 0.  1.
         11    1    1    2    0    0 -0.34425568092E+02  0.45155638008E+02  0.31503663796E+01  0.56868938716E+02  0.00000000000E+00 0. -1.
</event>
<event>
 7    1  0.3001243E-009  0.8376260E+02  0.7561462E-02  0.1318701E+00
         -2   -1    0    0    0  501 -0.00000000000E+00  0.00000000000E+00  0.11916640728E+02  0.11916640728E+02  0.00000000000E+00 0.  1.
          2   -1    0    0  501    0  0.00000000000E+00 -0.00000000000E+00 -0.11996467043E+04  0.11996467043E+04  0.00000000000E+00 0. -1.
         25    2    1    2    0    0  0.17839807736E+02 -0.40949689523E+02 -0.73799452549E+03  0.74985248674E+03  0.12509075265E+03 0.  0.
          5    1    3    3  502    0 -0.16991695037E+02 -0.24150917362E+02 -0.35858783154E+02  0.46640210537E+02  0.41800000000E+01 0.  1.
         -5    1    3    3    0  502  0.34831502773E+02 -0.16798772161E+02 -0.70213574234E+03  0.70321227620E+03  0.41800000000E+01 0.  1.
        -11    1    1    2    0    0  0.25269888919E+02 -0.14058486464E+02 -0.72465683624E+02  0.78022327770E+02  0.00000000000E+00 0.  1.
         11    1    1    2    0    0 -0.43109696655E+02  0.55008175987E+02 -0.37726985448E+03  0.38368853055E+03  0.00000000000E+00 0. -1.
</event>
<event>
 7    1  0.3001243E-009  0.1208494E+03  0.7561462E-02  0.1241702E+00
         -2   -1    0    0    0  501 -0.00000000000E+00  0.00000000000E+00  0.18141515650E+02  0.18141515650E+02  0.00000000000E+00 0. -1.
          2   -1    0    0  501    0  0.00000000000E+00 -0.00000000000E+00 -0.89666726600E+03  0.89666726600E+03  0.00000000000E+00 0.  1.
         25    2    1    2    0    0 -0.43407487329E+02 -0.50322657627E+02 -0.42220001959E+03  0.44532809116E+03  0.12509065676E+03 0.  0.
          5    1    3    3  502    0 -0.77737924792E+02 -0.85595579505E+01 -0.32210085465E+03  0.33148587292E+03  0.41800000000E+01 0. -1.
         -5    1    3    3    0  502  0.34330437463E+02 -0.41763099677E+02 -0.10009916494E+03  0.11384221824E+03  0.41800000000E+01 0. -1.
        -11    1    1    2    0    0  0.57575757095E+02  0.73150417876E+00 -0.27494955501E+03  0.28091415184E+03  0.00000000000E+00 0.  1.
         11    1    1    2    0    0 -0.14168269766E+02  0.49591153449E+02 -0.18137617574E+03  0.18856653864E+03  0.00000000000E+00 0. -1.
</event>
<event>
 7    1  0.3001243E-009  0.1478760E+03  0.7561462E-02  0.1203107E+00
          1   -1    0    0  501    0  0.00000000000E+00  0.00000000000E+00  0.36010373582E+03  0.36010373582E+03  0.00000000000E+00 0. -1.
         -1   -1    0    0    0  501 -0.00000000000E+00 -0.00000000000E+00 -0.73558590898E+02  0.73558590898E+02  0.00000000000E+00 0.  1.
         25    2    1    2    0    0  0.12107165692E+03 -0.53118442533E+01  0.18557435982E+03  0.25449439829E+03  0.12507195506E+03 0.  0.
          5    1    3    3  502    0  0.13849081144E+02 -0.51627346361E+02  0.35599054968E+02  0.64357944773E+02  0.41800000000E+01 0. -1.
         -5    1    3    3    0  502  0.10722257578E+03  0.46315502108E+02  0.14997530485E+03  0.19013645352E+03  0.41800000000E+01 0. -1.
        -11    1    1    2    0    0 -0.40869996669E+02  0.16904824644E+02  0.86077720776E+02  0.96775532744E+02  0.00000000000E+00 0. -1.
         11    1    1    2    0    0 -0.80201660251E+02 -0.11592980391E+02  0.14893064329E+02  0.82392395683E+02  0.00000000000E+00 0.  1.
</event>
<event>
 7    1  0.3001243E-009  0.8917776E+02  0.7561462E-02  0.1304855E+00
         -2   -1    0    0    0  501 -0.00000000000E+00  0.00000000000E+00  0.37758355519E+02  0.37758355519E+02  0.00000000000E+00 0.  1.
          2   -1    0    0  501    0  0.00000000000E+00 -0.00000000000E+00 -0.48324671005E+03  0.48324671005E+03  0.00000000000E+00 0. -1.
         25    2    1    2    0    0  0.57498633542E+02 -0.49379231419E+02 -0.20105945467E+03  0.24862718193E+03  0.12508465105E+03 0.  0.
          5    1    3    3  502    0  0.76891471676E+01 -0.32166115946E+02  0.69096923528E+01  0.34044063324E+02  0.41800000000E+01 0.  1.
         -5    1    3    3    0  502  0.49809486374E+02 -0.17213115473E+02 -0.20796914702E+03  0.21458311860E+03  0.41800000000E+01 0.  1.
        -11    1    1    2    0    0 -0.61557577128E+02  0.23391859064E+02 -0.23560482760E+03  0.24463472599E+03  0.00000000000E+00 0. -1.
         11    1    1    2    0    0  0.40589435865E+01  0.25987372355E+02 -0.88240722603E+01  0.27743157647E+02  0.00000000000E+00 0.  1.
</event>
<event>
 7    1  0.3001243E-009  0.1463500E+03  0.7561462E-02  0.1205031E+00
          1   -1    0    0  501    0  0.00000000000E+00  0.00000000000E+00  0.58698822686E+03  0.58698822686E+03  0.00000000000E+00 0. -1.
         -1   -1    0    0    0  501 -0.00000000000E+00 -0.00000000000E+00 -0.38802549234E+02  0.38802549234E+02  0.00000000000E+00 0.  1.
         25    2    1    2    0    0 -0.84089742794E+02 -0.58984194556E+02  0.29235808936E+03  0.33418035476E+03  0.12511209789E+03 0.  0.
          5    1    3    3  502    0  0.27341302322E+02  0.92905752027E+01  0.75667840047E+02  0.81098434126E+02  0.41800000000E+01 0.  1.
         -5    1    3    3    0  502 -0.11143104512E+03 -0.68274769759E+02  0.21669024932E+03  0.25308192063E+03  0.41800000000E+01 0.  1.
        -11    1    1    2    0    0  0.73495731473E+02  0.66592558000E+00  0.94358406435E+02  0.11960591485E+03  0.00000000000E+00 0. -1.
         11    1    1    2    0    0  0.10594011321E+02  0.58318268976E+02  0.16146918182E+03  0.17200450648E+03  0.00000000000E+00 0.  1.
</event>
<event>
 7    1  0.3001243E-009  0.1063275E+03  0.7561462E-02  0.1267526E+00
          1   -1    0    0  501    0  0.00000000000E+00  0.00000000000E+00  0.20840632335E+03  0.20840632335E+03  0.00000000000E+00 0. -1.
         -1   -1    0    0    0  501 -0.00000000000E+00 -0.00000000000E+00 -0.84764080609E+02  0.84764080609E+02  0.00000000000E+00 0.  1.
         25    2    1    2    0    0  0.49727119090E+02 -0.13528957529E+02  0.13080191138E+03  0.18818393282E+03  0.12509289942E+03 0.  0.
          5    1    3    3  502    0  0.37770929482E+02 -0.62869382646E+02  0.38942540062E+02  0.83145632565E+02  0.41800000000E+01 0.  1.
         -5    1    3    3    0  502  0.11956189608E+02  0.49340425117E+02  0.91859371319E+02  0.10503830025E+03  0.41800000000E+01 0.  1.
        -11    1    1    2    0    0 -0.64606377787E+02 -0.46351413164E+01  0.21213373761E+02  0.68157727457E+02  0.00000000000E+00 0. -1.
         11    1    1    2    0    0  0.14879258696E+02  0.18164098845E+02 -0.28373042402E+02  0.36828743684E+02  0.00000000000E+00 0.  1.
</event>
<event>
 7    1  0.3001243E-009  0.1367927E+03  0.7561462E-02  0.1217711E+00
         -1   -1    0    0    0  501 -0.00000000000E+00  0.00000000000E+00  0.15116281902E+02  0.15116281902E+02  0.00000000000E+00 0.  1.
          1   -1    0    0  501    0  0.00000000000E+00 -0.00000000000E+00 -0.12740416308E+04  0.12740416308E+04  0.00000000000E+00 0. -1.
         25    2    1    2    0    0  0.81994004817E+02  0.27143488075E+02 -0.70729145523E+03  0.72344219996E+03  0.12509048034E+03 0.  0.
          5    1    3    3  502    0  0.81209872930E+02 -0.35167650536E+02 -0.37411340144E+03  0.38446081288E+03  0.41800000000E+01 0. -1.
         -5    1    3    3    0  502  0.78413188781E+00  0.62311138611E+02 -0.33317805379E+03  0.33898138708E+03  0.41800000000E+01 0. -1.
        -11    1    1    2    0    0  0.18075644180E+02 -0.11027967023E+02 -0.57054250898E+02  0.60856655467E+02  0.00000000000E+00 0. -1.
         11    1    1    2    0    0 -0.10006964900E+03 -0.16115521053E+02 -0.49457964278E+03  0.50485905729E+03  0.00000000000E+00 0.  1.
</event>
<event>
 7    1  0.3001243E-009  0.1362832E+03  0.7561462E-02  0.1218420E+00
          3   -1    0    0  501    0  0.00000000000E+00  0.00000000000E+00  0.18911989632E+03  0.18911989632E+03  0.00000000000E+00 0. -1.
         -3   -1    0    0    0  501 -0.00000000000E+00 -0.00000000000E+00 -0.12352180507E+03  0.12352180507E+03  0.00000000000E+00 0.  1.
         25    2    1    2    0    0 -0.28569697486E+02  0.88964983236E+02  0.89258366802E+02  0.17984747721E+03  0.12508822150E+03 0.  0.
          5    1    3    3  502    0 -0.27331232171E+02 -0.26516019739E+02  0.36122360946E+02  0.52653517595E+02  0.41800000000E+01 0.  1.
         -5    1    3    3    0  502 -0.12384653149E+01  0.11548100298E+03  0.53136005856E+02  0.12719395962E+03  0.41800000000E+01 0.  1.
        -11    1    1    2    0    0 -0.12355136918E+02 -0.74147051652E+02 -0.41373230832E+02  0.85803140423E+02  0.00000000000E+00 0. -1.
         11    1    1    2    0    0  0.40924834404E+02 -0.14817931584E+02  0.17712955286E+02  0.46991083754E+02  0.00000000000E+00 0.  1.
</event>
<event>
 7    1  0.3001243E-009  0.7460849E+02  0.7561462E-02  0.1345088E+00
         -1   -1    0    0    0  501 -0.00000000000E+00  0.00000000000E+00  0.61657490969E+03  0.61657490969E+03  0.00000000000E+00 0.  1.
          1   -1    0    0  501    0  0.00000000000E+00 -0.00000000000E+00 -0.22896315995E+02  0.22896315995E+02  0.00000000000E+00 0. -1.
         25    2    1    2    0    0 -0.44262426015E+02  0.18175023757E+02  0.36243795040E+03  0.38639164550E+03  0.12509093483E+03 0.  0.
          5    1    3    3  502    0 -0.64606802202E+02  0.17581168775E+02  0.35914194969E+03  0.36535400478E+03  0.41800000000E+01 0. -1.
         -5    1    3    3    0  502  0.20344376187E+02  0.59385498198E+00  0.32960007103E+01  0.21037640715E+02  0.41800000000E+01 0. -1.
        -11    1    1    2    0    0 -0.17286822014E+01 -0.15164830049E+02 -0.19416327057E+01  0.15386044005E+02  0.00000000000E+00 0. -1.
         11    1    1    2    0    0  0.45991108217E+02 -0.30101937083E+01  0.23318227601E+03  0.23769353619E+03  0.00000000000E+00 0.  1.
</event>
<event>
 7    1  0.3001243E-009  0.2319536E+03  0.7561462E-02  0.1125272E+00
          2   -1    0    0  501    0  0.00000000000E+00  0.00000000000E+00  0.20034162835E+04  0.20034162835E+04  0.00000000000E+00 0. -1.
         -2   -1    0    0    0  501 -0.00000000000E+00 -0.00000000000E+00 -0.30735978791E+02  0.30735978791E+02  0.00000000000E+00 0.  1.
         25    2    1    2    0    0 -0.34462273854E+02  0.22015192114E+03  0.10201976859E+04  0.10517150333E+04  0.12508667524E+03 0.  0.
          5    1    3    3  502    0 -0.13360385894E+01  0.35594617700E+02  0.45078442397E+03  0.45220883571E+03  0.41800000000E+01 0.  1.
         -5    1    3    3    0  502 -0.33126235264E+02  0.18455730344E+03  0.56941326189E+03  0.59950619758E+03  0.41800000000E+01 0. -1.
        -11    1    1    2    0    0 -0.26647083049E+02 -0.27138717679E+02  0.13471491169E+03  0.13998101466E+03  0.00000000000E+00 0.  1.
         11    1    1    2    0    0  0.61109356903E+02 -0.19301320346E+03  0.81776770716E+03  0.84245621434E+03  0.00000000000E+00 0. -1.
</event>
<event>
 7    1  0.3001243E-009  0.1021308E+03  0.7561462E-02  0.1275878E+00
          4   -1    0    0  501    0  0.00000000000E+00  0.00000000000E+00  0.12198558441E+03  0.12198558441E+03  0.00000000000E+00 0. -1.
         -4   -1    0    0    0  501 -0.00000000000E+00 -0.00000000000E+00 -0.11511054305E+03  0.11511054305E+03  0.00000000000E+00 0.  1.
         25    2    1    2    0    0 -0.19954083621E+02  0.16015016685E+02  0.58559099197E+02  0.14046843110E+03  0.12509023074E+03 0.  0.
          5    1    3    3  502    0  0.24231185534E+02  0.60184122039E+02  0.31813589008E+02  0.72379940202E+02  0.41800000000E+01 0.  1.
         -5    1    3    3    0  502 -0.44185269155E+02 -0.44169105355E+02  0.26745510189E+02  0.68088490903E+02  0.41800000000E+01 0.  1.
        -11    1    1    2    0    0  0.27033167369E+02 -0.41862910422E+02 -0.48673783107E+02  0.69659404024E+02  0.00000000000E+00 0.  1.
         11    1    1    2    0    0 -0.70790837474E+01  0.25847893737E+02 -0.30102747386E+01  0.26968292333E+02  0.00000000000E+00 0. -1.
</event>
<event>
 7    1  0.3001243E-009  0.1035491E+03  0.7561462E-02  0.1273005E+00
          2   -1    0    0  501    0  0.00000000000E+00  0.00000000000E+00  0.47348059404E+03  0.47348059404E+03  0.00000000000E+00 0. -1.
         -2   -1    0    0    0  501 -0.00000000000E+00 -0.00000000000E+00 -0.32941478362E+02  0.32941478362E+02  0.00000000000E+00 0.  1.
         25    2    1    2    0    0 -0.59110035125E+02  0.66876772796E+01  0.21202021257E+03  0.25325622829E+03  0.12508966924E+03 0.  0.
          5    1    3    3  502    0 -0.72324282309E+02 -0.34243166725E+02  0.18670400656E+03  0.20317296755E+03  0.41800000000E+01 0. -1.
         -5    1    3    3    0  502  0.13214247184E+02  0.40930844004E+02  0.25316206012E+02  0.50083260740E+02  0.41800000000E+01 0. -1.
        -11    1    1    2    0    0  0.49250880171E+02 -0.30535499989E+02  0.21753301154E+03  0.22511925077E+03  0.00000000000E+00 0. -1.
         11    1    1    2    0    0  0.98591549541E+01  0.23847822709E+02  0.10985891565E+02  0.28046593338E+02  0.00000000000E+00 0.  1.
</event>
<event>
 7    1  0.3001243E-009  0.9702811E+02  0.7561462E-02  0.1286673E+00
          1   -1    0    0  501    0  0.00000000000E+00  0.00000000000E+00  0.43074056074E+02  0.43074056074E+02  0.00000000000E+00 0. -1.
         -1   -1    0    0    0  501 -0.00000000000E+00 -0.00000000000E+00 -0.32841862906E+03  0.32841862906E+03  0.00000000000E+00 0.  1.
         25    2    1    2    0    0  0.16916574177E+02 -0.42927175466E+02 -0.15847330454E+03  0.20709958845E+03  0.12509012115E+03 0.  0.
          5    1    3    3  502    0 -0.12573070958E+02 -0.65733571252E+02 -0.30362371227E+02  0.73609309801E+02  0.41800000000E+01 0.  1.
         -5    1    3    3    0  502  0.29489645135E+02  0.22806395785E+02 -0.12811093332E+03  0.13349027865E+03  0.41800000000E+01 0.  1.
        -11    1    1    2    0    0 -0.46739431871E+02  0.16278926664E+02 -0.26052455025E+02  0.55931282461E+02  0.00000000000E+00 0. -1.
         11    1    1    2    0    0  0.29822857694E+02  0.26648248802E+02 -0.10081881341E+03  0.10846181422E+03  0.00000000000E+00 0.  1.
</event>
<event>
 7    1  0.3001243E-009  0.1054097E+03  0.7561462E-02  0.1269315E+00
         -1   -1    0    0    0  501 -0.00000000000E+00  0.00000000000E+00  0.34251046077E+02  0.34251046077E+02  0.00000000000E+00 0.  1.
          1   -1    0    0  501    0  0.00000000000E+00 -0.00000000000E+00 -0.55690707342E+03  0.55690707342E+03  0.00000000000E+00 0. -1.
         25    2    1    2    0    0  0.36061818638E+02  0.24374480370E+02 -0.44356611753E+03  0.46291813740E+03  0.12509089199E+03 0.  0.
          5    1    3    3  502    0 -0.22689977858E+02 -0.24640214883E+02 -0.28298592402E+03  0.28499207161E+03  0.41800000000E+01 0. -1.
         -5    1    3    3    0  502  0.58751796496E+02  0.49014695253E+02 -0.16058019351E+03  0.17792606580E+03  0.41800000000E+01 0. -1.
        -11    1    1    2    0    0 -0.47490134048E+02  0.22241398786E+02 -0.47709435851E+02  0.70895577585E+02  0.00000000000E+00 0.  1.
         11    1    1    2    0    0  0.11428315410E+02 -0.46615879156E+02 -0.31380473965E+02  0.57344404513E+02  0.00000000000E+00 0. -1.
</event>
<event>
 7    1  0.3001243E-009  0.6525416E+02  0.7561462E-02  0.1377018E+00
         -2   -1    0    0    0  501 -0.00000000000E+00  0.00000000000E+00  0.34020525689E+03  0.34020525689E+03  0.00000000000E+00 0.  1.
          2   -1    0    0  501    0  0.00000000000E+00 -0.00000000000E+00 -0.35335261067E+02  0.35335261067E+02  0.00000000000E+00 0. -1.
         25    2    1    2    0    0 -0.96032246127E+01 -0.21327457210E+02  0.19935198104E+03  0.23650562966E+03  0.12508644278E+03 0.  0.
          5    1    3    3  502    0 -0.52588928387E+01 -0.41369500289E+02  0.20921301345E+03  0.21336974693E+03  0.41800000000E+01 0. -1.
         -5    1    3    3    0  502 -0.43443317740E+01  0.20042043079E+02 -0.98610324193E+01  0.23135882731E+02  0.41800000000E+01 0. -1.
        -11    1    1    2    0    0  0.33559333237E+02  0.26973000328E+02  0.10600770356E+03  0.11441767699E+03  0.00000000000E+00 0.  1.
         11    1    1    2    0    0 -0.23956108624E+02 -0.56455431186E+01 -0.48968876520E+00  0.24617211309E+02  0.00000000000E+00 0. -1.
</event>
<event>
 7    1  0.3001243E-009  0.1062310E+03  0.7561462E-02  0.1267713E+00
         -2   -1    0    0    0  501 -0.00000000000E+00  0.00000000000E+00  0.25499601896E+02  0.25499601896E+02  0.00000000000E+00 0.  1.
          2   -1    0    0  501    0  0.00000000000E+00 -0.00000000000E+00 -0.80845120797E+03  0.80845120797E+03  0.00000000000E+00 0. -1.
         25    2    1    2    0    0  0.38050842970E+02  0.82100390996E+02 -0.41075772510E+03  0.43881353927E+03  0.12508825952E+03 0.  0.
          5    1    3    3  502    0 -0.89957688949E+01  0.64614369958E+02 -0.75820366045E+02  0.10011064364E+03  0.41800000000E+01 0.  1.
         -5    1    3    3    0  502  0.47046611865E+02  0.17486021038E+02 -0.33493735905E+03  0.33870289563E+03  0.41800000000E+01 0.  1.
        -11    1    1    2    0    0 -0.14508551421E+02 -0.67460203057E+02 -0.35683188213E+03  0.36344238768E+03  0.00000000000E+00 0. -1.
         11    1    1    2    0    0 -0.23542291549E+02 -0.14640187940E+02 -0.15361998850E+02  0.31694882914E+02  0.00000000000E+00 0.  1.
</event>
<event>
 7    1  0.3001243E-009  0.1363095E+03  0.7561462E-02  0.1218383E+00
         -2   -1    0    0    0  501 -0.00000000000E+00  0.00000000000E+00  0.26712299952E+02  0.26712299952E+02  0.00000000000E+00 0.  1.
          2   -1    0    0  501    0  0.00000000000E+00 -0.00000000000E+00 -0.11542757439E+04  0.11542757439E+04  0.00000000000E+00 0. -1.
         25    2    1    2    0    0  0.44384096965E+01  0.12034935289E+03 -0.37875165872E+03  0.41665183775E+03  0.12506905570E+03 0.  0.
          5    1    3    3  502    0 -0.96876775552E+00  0.24050948605E+02 -0.27051695828E+03  0.27161790029E+03  0.41800000000E+01 0.  1.
         -5    1    3    3    0  502  0.54071774520E+01  0.96298404283E+02 -0.10823470045E+03  0.14503393746E+03  0.41800000000E+01 0.  1.
        -11    1    1    2    0    0  0.43720102493E+02 -0.64227136547E+02 -0.32806477836E+03  0.33713954267E+03  0.00000000000E+00 0.  1.
         11    1    1    2    0    0 -0.48158512189E+02 -0.56122216341E+02 -0.42074700686E+03  0.42719666343E+03  0.00000000000E+00 0. -1.
</event>
<event>
 7    1  0.3001243E-009  0.6230865E+02  0.7561462E-02  0.1388391E+00
         -1   -1    0    0    0  501 -0.00000000000E+00  0.00000000000E+00  0.16168515958E+02  0.16168515958E+02  0.00000000000E+00 0.  1.
          1   -1    0    0  501    0  0.00000000000E+00 -0.00000000000E+00 -0.10173684264E+04  0.10173684264E+04  0.00000000000E+00 0. -1.
         25    2    1    2    0    0  0.55783746092E+02 -0.19747306740E+01 -0.72373450181E+03  0.73658349389E+03  0.12509152038E+03 0.  0.
          5    1    3    3  502    0  0.25673407327E+02  0.29214511495E+01 -0.22052838918E+02  0.34226580678E+02  0.41800000000E+01 0. -1.
         -5    1    3    3    0  502  0.30110338766E+02 -0.48961818235E+01 -0.70168166289E+03  0.70235691321E+03  0.41800000000E+01 0. -1.
        -11    1    1    2    0    0 -0.13555843542E+02  0.17957899455E+02 -0.82293774360E+01  0.23957664743E+02  0.00000000000E+00 0.  1.
         11    1    1    2    0    0 -0.42227902550E+02 -0.15983168781E+02 -0.26923603121E+03  0.27299578374E+03  0.00000000000E+00 0. -1.
</event>
<event>
 7    1  0.3001243E-009  0.5016280E+02  0.7561462E-02  0.1444465E+00
         -2   -1    0    0    0  501 -0.00000000000E+00  0.00000000000E+00  0.44839196307E+02  0.44839196307E+02  0.00000000000E+00 0.  1.
          2   -1    0    0  501    0  0.00000000000E+00 -0.00000000000E+00 -0.28923577702E+03  0.28923577702E+03  0.00000000000E+00 0. -1.
         25    2    1    2    0    0  0.64939656240E+00  0.31604963616E+02 -0.16197834159E+03  0.20708337683E+03  0.12508895385E+03 0.  0.
          5    1    3    3  502    0 -0.86321739560E+01 -0.10984947330E+02 -0.16263646181E+03  0.16328892983E+03  0.41800000000E+01 0. -1.
         -5    1    3    3    0  502  0.92815705184E+01  0.42589910946E+02  0.65812022321E+00  0.43794446998E+02  0.41800000000E+01 0. -1.
        -11    1    1    2    0    0 -0.10658123070E+02 -0.21880556814E+01  0.18464552132E+02  0.21431818879E+02  0.00000000000E+00 0.  1.
         11    1    1    2    0    0  0.10008726507E+02 -0.29416907935E+02 -0.10088279126E+03  0.10555977762E+03  0.00000000000E+00 0. -1.
</event>
<event>
 7    1  0.3001243E-009  0.1597822E+03  0.7561462E-02  0.1188943E+00
          4   -1    0    0  501    0  0.00000000000E+00  0.00000000000E+00  0.25079495618E+03  0.25079495618E+03  0.00000000000E+00 0. -1.
         -4   -1    0    0    0  501 -0.00000000000E+00 -0.00000000000E+00 -0.14986311486E+03  0.14986311486E+03  0.00000000000E+00 0.  1.
         25    2    1    2    0    0 -0.85345339882E+02 -0.10088519553E+03  0.14678425613E+03  0.23378948445E+03  0.12510098111E+03 0.  0.
          5    1    3    3  502    0 -0.11473433713E+03 -0.58304058973E+02  0.11678132018E+03  0.17383521091E+03  0.41800000000E+01 0. -1.
         -5    1    3    3    0  502  0.29388997251E+02 -0.42581136560E+02  0.30002935954E+02  0.59954273543E+02  0.41800000000E+01 0. -1.
        -11    1    1    2    0    0  0.84572604279E+02  0.75129703927E+02  0.13042368496E+01  0.11313133448E+03  0.00000000000E+00 0. -1.
         11    1    1    2    0    0  0.77273560300E+00  0.25755491606E+02 -0.47156651665E+02  0.53737252111E+02  0.00000000000E+00 0.  1.
</event>
<event>
 7    1  0.3001243E-009  0.1052892E+03  0.7561462E-02  0.1269551E+00
          1   -1    0    0  501    0  0.00000000000E+00  0.00000000000E+00  0.19809454723E+03  0.19809454723E+03  0.00000000000E+00 0. -1.
         -1   -1    0    0    0  501 -0.00000000000E+00 -0.00000000000E+00 -0.10800304162E+03  0.10800304162E+03  0.00000000000E+00 0.  1.
         25    2    1    2    0    0  0.26261098233E+02 -0.95202176220E+02  0.56664057923E+02  0.16914387191E+03  0.12508290974E+03 0.  0.
          5    1    3    3  502    0 -0.30275967464E+00 -0.58439145696E+02 -0.33958158790E+02  0.67718936506E+02  0.41800000000E+01 0.  1.
         -5    1    3    3    0  502  0.26563857908E+02 -0.36763030524E+02  0.90622216713E+02  0.10142493541E+03  0.41800000000E+01 0.  1.
        -11    1    1    2    0    0  0.54392263991E+01  0.54884121664E+02 -0.23833136382E+02  0.60082196901E+02  0.00000000000E+00 0.  1.
         11    1    1    2    0    0 -0.31700324632E+02  0.40318054556E+02  0.57260584065E+02  0.76871520035E+02  0.00000000000E+00 0. -1.
</event>
<event>
 7    1  0.3001243E-009  0.1526879E+03  0.7561462E-02  0.1197209E+00
         -2   -1    0    0    0  501 -0.00000000000E+00  0.00000000000E+00  0.11944857886E+03  0.11944857886E+03  0.00000000000E+00 0.  1.
          2   -1    0    0  501    0  0.00000000000E+00 -0.00000000000E+00 -0.32717834039E+03  0.32717834039E+03  0.00000000000E+00 0. -1.
         25    2    1    2    0    0  0.11535155680E+03  0.38301960730E+01  0.24414762549E+02  0.17193733674E+03  0.12508283287E+03 0.  0.
          5    1    3    3  502    0 -0.11983316788E+02 -0.25653022658E+02  0.29454731601E+02  0.41069831585E+02  0.41800000000E+01 0.  1.
         -5    1    3    3    0  502  0.12733487359E+03  0.29483218731E+02 -0.50399690514E+01  0.13086750516E+03  0.41800000000E+01 0.  1.
        -11    1    1    2    0    0 -0.10926231230E+02  0.33383843359E+02 -0.69276576410E+02  0.77673081343E+02  0.00000000000E+00 0. -1.
         11    1    1    2    0    0 -0.10442532557E+03 -0.37214039432E+02 -0.16286794767E+03  0.19701650116E+03  0.00000000000E+00 0.  1.
</event>
<event>
 7    1  0.3532668E-009  0.1060712E+03  0.7561462E-02  0.1268023E+00
          2   -1    0    0  501    0  0.00000000000E+00  0.00000000000E+00  0.11323506275E+04  0.11323506275E+04  0.00000000000E+00 0. -1.
         -2   -1    0    0    0  501 -0.00000000000E+00 -0.00000000000E+00 -0.14028974356E+02  0.14028974356E+02  0.00000000000E+00 0.  1.
         25    2    1    2    0    0 -0.25942888137E+02 -0.27431956094E+02  0.86192308613E+03  0.87177109213E+03  0.12509150659E+03 0.  0.
          5    1    3    3  502    0 -0.64928983482E+02  0.20832207595E+02  0.42932418865E+03  0.43472575853E+03  0.41800000000E+01 0.  1.
         -5    1    3    3    0  502  0.38986095345E+02 -0.48264163689E+02  0.43259889748E+03  0.43704533360E+03  0.41800000000E+01 0.  1.
        -11    1    1    2    0    0 -0.21600490312E+02  0.26368341681E+02  0.37808613036E+02  0.50905420580E+02  0.00000000000E+00 0.  1.
         11    1    1    2    0    0  0.47543378449E+02  0.10636144127E+01  0.21858995397E+03  0.22370308913E+03  0.00000000000E+00 0. -1.
</event>
<event>
 7    1  0.3001243E-009  0.1202961E+03  0.7561462E-02  0.1242609E+00
          2   -1    0    0  501    0  0.00000000000E+00  0.00000000000E+00  0.71339349110E+02  0.71339349110E+02  0.00000000000E+00 0. -1.
         -2   -1    0    0    0  501 -0.00000000000E+00 -0.00000000000E+00 -0.26762574556E+03  0.26762574556E+03  0.00000000000E+00 0.  1.
         25    2    1    2    0    0  0.13835924622E+02 -0.58199471177E+02 -0.31793343103E+02  0.14227566006E+03  0.12511169219E+03 0.  0.
          5    1    3    3  502    0  0.68542908089E+02 -0.21511604461E+02 -0.23782038737E+02  0.75788766597E+02  0.41800000000E+01 0. -1.
         -5    1    3    3    0  502 -0.54706983466E+02 -0.36687866716E+02 -0.80113043656E+01  0.66486893459E+02  0.41800000000E+01 0. -1.
        -11    1    1    2    0    0 -0.25874684423E+02 -0.14009109687E+02 -0.22874855770E+02  0.37269471081E+02  0.00000000000E+00 0. -1.
         11    1    1    2    0    0  0.12038759800E+02  0.72208580864E+02 -0.14161819758E+03  0.15941996353E+03  0.00000000000E+00 0.  1.
</event>
<event>
 7    1  0.3001243E-009  0.1412544E+03  0.7561462E-02  0.1211651E+00
         -2   -1    0    0    0  501 -0.00000000000E+00  0.00000000000E+00  0.31687348344E+03  0.31687348344E+03  0.00000000000E+00 0.  1.
          2   -1    0    0  501    0  0.00000000000E+00 -0.00000000000E+00 -0.12886996712E+03  0.12886996712E+03  0.00000000000E+00 0. -1.
         25    2    1    2    0    0  0.75897737047E+02 -0.86149482274E+02  0.23656055537E+03  0.29118815899E+03  0.12508975896E+03 0.  0.
          5    1    3    3  502    0  0.45124094462E+02  0.25351518477E+02  0.53118592064E+02  0.74282841982E+02  0.41800000000E+01 0. -1.
         -5    1    3    3    0  502  0.30773642585E+02 -0.11150100075E+03  0.18344196331E+03  0.21690531701E+03  0.41800000000E+01 0. -1.
        -11    1    1    2    0    0 -0.37243394714E+02  0.44028295252E+02  0.23759535376E+02  0.62370479827E+02  0.00000000000E+00 0.  1.
         11    1    1    2    0    0 -0.38654342333E+02  0.42121187023E+02 -0.72316574426E+02  0.92184811732E+02  0.00000000000E+00 0. -1.
</event>
<event>
 7    1  0.3001243E-009  0.7934752E+02  0.7561462E-02  0.1330913E+00
          2   -1    0    0  501    0  0.00000000000E+00  0.00000000000E+00  0.52696679109E+03  0.52696679109E+03  0.00000000000E+00 0. -1.
         -2   -1    0    0    0  501 -0.00000000000E+00 -0.00000000000E+00 -0.38526210003E+02  0.38526210003E+02  0.00000000000E+00 0.  1.
         25    2    1    2    0    0 -0.45284291013E+02  0.19427496335E+02  0.41557353310E+03  0.43678049887E+03  0.12509095952E+03 0.  0.
          5    1    3    3  502    0 -0.23728058290E+02 -0.21846185590E+02  0.19424120274E+02  0.37881993394E+02  0.41800000000E+01 0. -1.
         -5    1    3    3    0  502 -0.21556232723E+02  0.41273681925E+02  0.39614941283E+03  0.39889850548E+03  0.41800000000E+01 0. -1.
        -11    1    1    2    0    0  0.44046335070E+02  0.13809885087E+02 -0.26076502123E+01  0.46234104283E+02  0.00000000000E+00 0.  1.
         11    1    1    2    0    0  0.12379559425E+01 -0.33237381422E+02  0.75474698203E+02  0.82478397944E+02  0.00000000000E+00 0. -1.
</event>
<event>
 7    1  0.3001243E-009  0.8029317E+02  0.7561462E-02  0.1328222E+00
         -4   -1    0    0    0  501 -0.00000000000E+00  0.00000000000E+00  0.26285146387E+02  0.26285146387E+02  0.00000000000E+00 0.  1.
          4   -1    0    0  501    0  0.00000000000E+00 -0.00000000000E+00 -0.11394171237E+04  0.11394171237E+04  0.00000000000E+00 0. -1.
         25    2    1    2    0    0 -0.47824214214E+02 -0.50489189874E+01 -0.10070350871E+04  0.10159133941E+04  0.12509080935E+03 0.  0.
          5    1    3    3  502    0 -0.87319809717E+01  0.16136977585E+02 -0.89649487005E+03  0.89669235190E+03  0.41800000000E+01 0. -1.
         -5    1    3    3    0  502 -0.39092233242E+02 -0.21185896572E+02 -0.11054021705E+03  0.11922104219E+03  0.41800000000E+01 0. -1.
        -11    1    1    2    0    0  0.14508948601E+01 -0.35486381014E+02 -0.12316475082E+02  0.37591008125E+02  0.00000000000E+00 0.  1.
         11    1    1    2    0    0  0.46373319354E+02  0.40535300002E+02 -0.93780415141E+02  0.11219786789E+03  0.00000000000E+00 0. -1.
</event>
<event>
 7    1  0.3001243E-009  0.2432583E+03  0.7561462E-02  0.1117641E+00
         -4   -1    0    0    0  501 -0.00000000000E+00  0.00000000000E+00  0.64044703388E+02  0.64044703388E+02  0.00000000000E+00 0.  1.
          4   -1    0    0  501    0  0.00000000000E+00 -0.00000000000E+00 -0.11919197948E+04  0.11919197948E+04  0.00000000000E+00 0. -1.
         25    2    1    2    0    0 -0.95745929742E+02 -0.21373608673E+03 -0.79862598635E+03  0.84160608791E+03  0.12508774242E+03 0.  0.
          5    1    3    3  502    0 -0.87461748991E+02 -0.16097260068E+03 -0.73929607483E+03  0.76166783729E+03  0.41800000000E+01 0. -1.
         -5    1    3    3    0  502 -0.82841807510E+01 -0.52763486054E+02 -0.59329911522E+02  0.79938250622E+02  0.41800000000E+01 0. -1.
        -11    1    1    2    0    0 -0.33688223434E+01  0.94870765991E+02 -0.15027524648E+03  0.17774830775E+03  0.00000000000E+00 0.  1.
         11    1    1    2    0    0  0.99114752085E+02  0.11886532074E+03 -0.17897385853E+03  0.23661010248E+03  0.00000000000E+00 0. -1.
</event>
<event>
 7    1  0.3001243E-009  0.2601801E+03  0.7561462E-02  0.1107035E+00
          1   -1    0    0  501    0  0.00000000000E+00  0.00000000000E+00  0.32806763681E+03  0.32806763681E+03  0.00000000000E+00 0. -1.
         -1   -1    0    0    0  501 -0.00000000000E+00 -0.00000000000E+00 -0.23175492723E+03  0.23175492723E+03  0.00000000000E+00 0.  1.
         25    2    1    2    0    0  0.33421082621E+02  0.24778577122E+03  0.97411340308E+01  0.27973845428E+03  0.12507580073E+03 0.  0.
          5    1    3    3  502    0  0.53260505058E+02  0.17568925553E+03  0.55667976381E+02  0.19188484021E+03  0.41800000000E+01 0. -1.
         -5    1    3    3    0  502 -0.19839422437E+02  0.72096515691E+02 -0.45926842350E+02  0.87853614072E+02  0.41800000000E+01 0. -1.
        -11    1    1    2    0    0 -0.58717896497E+02 -0.15819009833E+03  0.80038700335E+02  0.18675677265E+03  0.00000000000E+00 0. -1.
         11    1    1    2    0    0  0.25296813875E+02 -0.89595672893E+02  0.65328752112E+01  0.93327337110E+02  0.00000000000E+00 0.  1.
</event>
<event>
 7    1  0.3001243E-009  0.1038360E+03  0.7561462E-02  0.1272430E+00
          2   -1    0    0  501    0  0.00000000000E+00  0.00000000000E+00  0.27706537781E+03  0.27706537781E+03  0.00000000000E+00 0. -1.
         -2   -1    0    0    0  501 -0.00000000000E+00 -0.00000000000E+00 -0.65160724112E+02  0.65160724112E+02  0.00000000000E+00 0.  1.
         25    2    1    2    0    0  0.80332555008E+00 -0.76534809979E+02  0.10387928822E+03  0.17971934833E+03  0.12509962099E+03 0.  0.
          5    1    3    3  502    0  0.53009727206E+02 -0.42432067023E+02  0.94623170154E+02  0.11653981389E+03  0.41800000000E+01 0. -1.
         -5    1    3    3    0  502 -0.52206401656E+02 -0.34102742956E+02  0.92561180624E+01  0.63179534444E+02  0.41800000000E+01 0. -1.
        -11    1    1    2    0    0 -0.42459223432E+01  0.17422041057E+02 -0.16659250814E+02  0.24476233551E+02  0.00000000000E+00 0.  1.
         11    1    1    2    0    0  0.34425967931E+01  0.59112768921E+02  0.12468461629E+03  0.13803052004E+03  0.00000000000E+00 0. -1.
</event>
<event>
 7    1  0.3001243E-009  0.1919438E+03  0.7561462E-02  0.1156720E+00
         -2   -1    0    0    0  501 -0.00000000000E+00  0.00000000000E+00  0.32920798810E+02  0.32920798810E+02  0.00000000000E+00 0.  1.
          2   -1    0    0  501    0  0.00000000000E+00 -0.00000000000E+00 -0.13223900563E+04  0.13223900563E+04  0.00000000000E+00 0. -1.
         25    2    1    2    0    0 -0.29504161996E+02  0.17294814229E+03 -0.77036481699E+03  0.79993207705E+03  0.12509125121E+03 0.  0.
          5    1    3    3  502    0 -0.72845924324E+01 -0.14340244446E+02 -0.16548285392E+03  0.16631522852E+03  0.41800000000E+01 0.  1.
         -5    1    3    3    0  502 -0.22219569563E+02  0.18728838674E+03 -0.60488196308E+03  0.63361684852E+03  0.41800000000E+01 0.  1.
        -11    1    1    2    0    0  0.76327069721E+01 -0.13180222244E+03 -0.46779361214E+03  0.48606681394E+03  0.00000000000E+00 0.  1.
         11    1    1    2    0    0  0.21871455024E+02 -0.41145919852E+02 -0.51310828391E+02  0.69311964158E+02  0.00000000000E+00 0. -1.
</event>
<event>
 7    1  0.3001243E-009  0.1013404E+03  0.7561462E-02  0.1277502E+00
          2   -1    0    0  501    0  0.00000000000E+00  0.00000000000E+00  0.72069820023E+02  0.72069820023E+02  0.00000000000E+00 0. -1.
         -2   -1    0    0    0  501 -0.00000000000E+00 -0.00000000000E+00 -0.19914976443E+03  0.19914976443E+03  0.00000000000E+00 0.  1.
         25    2    1    2    0    0  0.10661142094E+02  0.49858240238E+02 -0.65139458250E+02  0.14996818523E+03  0.12509118071E+03 0.  0.
          5    1    3    3  502    0  0.64076998117E+02  0.45326899060E+02 -0.53133322979E+02  0.94873662715E+02  0.41800000000E+01 0. -1.
         -5    1    3    3    0  502 -0.53415856023E+02  0.45313411772E+01 -0.12006135271E+02  0.55094522520E+02  0.41800000000E+01 0. -1.
        -11    1    1    2    0    0  0.18222680546E+02 -0.30536632642E+02 -0.75887818567E+02  0.83806402060E+02  0.00000000000E+00 0.  1.
         11    1    1    2    0    0 -0.28883822640E+02 -0.19321607596E+02  0.13947332414E+02  0.37444997154E+02  0.00000000000E+00 0. -1.
</event>
<event>
 7    1  0.3001243E-009  0.1120787E+03  0.7561462E-02  0.1256768E+00
          2   -1    0    0  501    0  0.00000000000E+00  0.00000000000E+00  0.18997063369E+03  0.18997063369E+03  0.00000000000E+00 0. -1.
         -2   -1    0    0    0  501 -0.00000000000E+00 -0.00000000000E+00 -0.11879628032E+03  0.11879628032E+03  0.00000000000E+00 0.  1.
         25    2    1    2    0    0 -0.82190719624E+02 -0.46622245456E+02 -0.63203094429E+01  0.15689581656E+03  0.12508957902E+03 0.  0.
          5    1    3    3  502    0 -0.39026818279E+02 -0.54336556516E+02  0.51271832761E+02  0.84390918669E+02  0.41800000000E+01 0.  1.
         -5    1    3    3    0  502 -0.43163901345E+02  0.77143110605E+01 -0.57592142204E+02  0.72504897890E+02  0.41800000000E+01 0.  1.
        -11    1    1    2    0    0  0.34929266999E+02  0.54929674315E+02  0.80814410738E+02  0.10377038015E+03  0.00000000000E+00 0.  1.
         11    1    1    2    0    0  0.47261452625E+02 -0.83074288597E+01 -0.33197479245E+01  0.48100717300E+02  0.00000000000E+00 0. -1.
</event>
<event>
 7    1  0.3001243E-009  0.1076215E+03  0.7561462E-02  0.1265039E+00
         -2   -1    0    0    0  501 -0.00000000000E+00  0.00000000000E+00  0.41023911079E+02  0.41023911079E+02  0.00000000000E+00 0.  1.
          2   -1    0    0  501    0  0.00000000000E+00 -0.00000000000E+00 -0.34075439540E+03  0.34075439540E+03  0.00000000000E+00 0. -1.
         25    2    1    2    0    0 -0.43084808930E+01 -0.24292966043E+02 -0.10473332581E+03  0.16500033034E+03  0.12508928120E+03 0.  0.
          5    1    3    3  502    0 -0.27259658420E+02 -0.69542155679E+02 -0.75538104507E+02  0.10631405376E+03  0.41800000000E+01 0.  1.
         -5    1    3    3    0  502  0.22951177527E+02  0.45249189635E+02 -0.29195221304E+02  0.58686276586E+02  0.41800000000E+01 0.  1.
        -11    1    1    2    0    0  0.33802172476E+02  0.42925500195E+02 -0.15130022040E+03  0.16086311611E+03  0.00000000000E+00 0. -1.
         11    1    1    2    0    0 -0.29493691583E+02 -0.18632534151E+02 -0.43696938118E+02  0.55914860037E+02  0.00000000000E+00 0.  1.
</event>
<event>
 7    1  0.3001243E-009  0.9357601E+02  0.7561462E-02  0.1294416E+00
          1   -1    0    0  501    0  0.00000000000E+00  0.00000000000E+00  0.22435934052E+03  0.22435934052E+03  0.00000000000E+00 0. -1.
         -1   -1    0    0    0  501 -0.00000000000E+00 -0.00000000000E+00 -0.72738093272E+02  0.72738093272E+02  0.00000000000E+00 0.  1.
         25    2    1    2    0    0 -0.61280294614E+02 -0.19425627037E+02  0.31594602052E+02  0.14414643129E+03  0.12508934919E+03 0.  0.
          5    1    3    3  502    0  0.25457876355E+02 -0.60704629525E+01 -0.27554249807E+02  0.38231702439E+02  0.41800000000E+01 0. -1.
         -5    1    3    3    0  502 -0.86738170969E+02 -0.13355164084E+02  0.59148851859E+02  0.10591472885E+03  0.41800000000E+01 0. -1.
        -11    1    1    2    0    0  0.26341976098E+02  0.26252364016E+02  0.11795529357E+02  0.39015648579E+02  0.00000000000E+00 0.  1.
         11    1    1    2    0    0  0.34938318516E+02 -0.68267369796E+01  0.10823111584E+03  0.11393535393E+03  0.00000000000E+00 0. -1.
</event>
<event>
 7    1  0.3001243E-009  0.8401939E+02  0.7561462E-02  0.1318017E+00
         -2   -1    0    0    0  501 -0.00000000000E+00  0.00000000000E+00  0.41121264547E+02  0.41121264547E+02  0.00000000000E+00 0.  1.
          2   -1    0    0  501    0  0.00000000000E+00 -0.00000000000E+00 -0.31249080971E+03  0.31249080971E+03  0.00000000000E+00 0. -1.
         25    2    1    2    0    0  0.29721685270E+02  0.13014492613E+02 -0.14974940954E+03  0.19780084670E+03  0.12509010235E+03 0.  0.
          5    1    3    3  502    0 -0.41911070217E+02 -0.96083073529E+01 -0.19532476005E+02  0.47411469032E+02  0.41800000000E+01 0. -1.
         -5    1    3    3    0  502  0.71632755488E+02  0.22622799966E+02 -0.13021693353E+03  0.15038937767E+03  0.41800000000E+01 0. -1.
        -11    1    1    2    0    0 -0.13193534155E+02 -0.25618156608E+02 -0.13018083805E+03  0.13333195374E+03  0.00000000000E+00 0. -1.
         11    1    1    2    0    0 -0.16528151115E+02  0.12603663996E+02  0.85607024264E+01  0.22479273819E+02  0.00000000000E+00 0.  1.
</event>
<event>
 7    1  0.3001243E-009  0.1154972E+03  0.7561462E-02  0.1250716E+00
          3   -1    0    0  501    0  0.00000000000E+00  0.00000000000E+00  0.12284661158E+04  0.12284661158E+04  0.00000000000E+00 0. -1.
         -3   -1    0    0    0  501 -0.00000000000E+00 -0.00000000000E+00 -0.21056438893E+02  0.21056438893E+02  0.00000000000E+00 0.  1.
         25    2    1    2    0    0 -0.86091697777E+01 -0.86639505673E+02  0.96312947369E+03  0.97511343833E+03  0.12508921929E+03 0.  0.
          5    1    3    3  502    0 -0.35011555167E+02 -0.82874185607E+02  0.91885421057E+03  0.92325753304E+03  0.41800000000E+01 0. -1.
         -5    1    3    3    0  502  0.26402385390E+02 -0.37653200655E+01  0.44275263119E+02  0.51855905293E+02  0.41800000000E+01 0. -1.
        -11    1    1    2    0    0  0.25777792301E+02  0.16987155219E+00  0.11551949997E+03  0.11836079717E+03  0.00000000000E+00 0. -1.
         11    1    1    2    0    0 -0.17168622523E+02  0.86469634120E+02  0.12876070328E+03  0.15604831923E+03  0.00000000000E+00 0.  1.
</event>
<event>
 7    1  0.3001243E-009  0.1518776E+03  0.7561462E-02  0.1198185E+00
         -1   -1    0    0    0  501 -0.00000000000E+00  0.00000000000E+00  0.52869952495E+03  0.52869952495E+03  0.00000000000E+00 0.  1.
          1   -1    0    0  501    0  0.00000000000E+00 -0.00000000000E+00 -0.78601541821E+02  0.78601541821E+02  0.00000000000E+00 0. -1.
         25    2    1    2    0    0 -0.33014716227E+02  0.11933574656E+03  0.56788149434E+02  0.18494751307E+03  0.12509874812E+03 0.  0.
          5    1    3    3  502    0 -0.31678062178E+02 -0.69336499974E+01 -0.18801229019E+02  0.37716491596E+02  0.41800000000E+01 0.  1.
         -5    1    3    3    0  502 -0.13366540493E+01  0.12626939655E+03  0.75589378454E+02  0.14723102148E+03  0.41800000000E+01 0.  1.
        -11    1    1    2    0    0 -0.16048855312E+02 -0.80653697555E+02  0.29171717184E+03  0.30308660979E+03  0.00000000000E+00 0.  1.
         11    1    1    2    0    0  0.49063571539E+02 -0.38682049001E+02  0.10159266186E+03  0.11926694391E+03  0.00000000000E+00 0. -1.
</event>
<event>
 7    1  0.3001243E-009  0.1310126E+03  0.7561462E-02  0.1225961E+00
          1   -1    0    0  501    0  0.00000000000E+00  0.00000000000E+00  0.56118006029E+03  0.56118006029E+03  0.00000000000E+00 0. -1.
         -1   -1    0    0    0  501 -0.00000000000E+00 -0.00000000000E+00 -0.33275978762E+02  0.33275978762E+02  0.00000000000E+00 0.  1.
         25    2    1    2    0    0  0.22659315886E+02  0.79942006196E+02  0.26459275695E+03  0.30423060668E+03  0.12507104403E+03 0.  0.
          5    1    3    3  502    0 -0.43652911936E+02 -0.17303504631E+01  0.62691587860E+02  0.76526325024E+02  0.41800000000E+01 0. -1.
         -5    1    3    3    0  502  0.66312227822E+02  0.81672356659E+02  0.20190116909E+03  0.22770428165E+03  0.41800000000E+01 0. -1.
        -11    1    1    2    0    0 -0.42517068173E+02 -0.15230648422E+02  0.16352382490E+03  0.16964585184E+03  0.00000000000E+00 0. -1.
         11    1    1    2    0    0  0.19857752287E+02 -0.64711357774E+02  0.99787499677E+02  0.12057958054E+03  0.00000000000E+00 0.  1.
</event>
<event>
 7    1  0.3001243E-009  0.1266820E+03  0.7561462E-02  0.1232464E+00
         -2   -1    0    0    0  501 -0.00000000000E+00  0.00000000000E+00  0.80375520405E+02  0.80375520405E+02  0.00000000000E+00 0.  1.
          2   -1    0    0  501    0  0.00000000000E+00 -0.00000000000E+00 -0.40982660480E+03  0.40982660480E+03  0.00000000000E+00 0. -1.
         25    2    1    2    0    0  0.11545697930E+03 -0.47555232703E+02 -0.75021363522E+02  0.19200794656E+03  0.12508809828E+03 0.  0.
          5    1    3    3  502    0  0.10043336487E+03 -0.31840408213E+02  0.83255636113E+01  0.10577078890E+03  0.41800000000E+01 0. -1.
         -5    1    3    3    0  502  0.15023614428E+02 -0.15714824490E+02 -0.83346927133E+02  0.86237157663E+02  0.41800000000E+01 0. -1.
        -11    1    1    2    0    0 -0.61937260761E+02  0.17323079793E+02 -0.21676348329E+03  0.22610334153E+03  0.00000000000E+00 0. -1.
         11    1    1    2    0    0 -0.53519718538E+02  0.30232152910E+02 -0.37666237579E+02  0.72090837110E+02  0.00000000000E+00 0.  1.
</event>
<event>
 7    1  0.3001243E-009  0.1134146E+03  0.7561462E-02  0.1254374E+00
         -2   -1    0    0    0  501 -0.00000000000E+00  0.00000000000E+00  0.21261323882E+03  0.21261323882E+03  0.00000000000E+00 0.  1.
          2   -1    0    0  501    0  0.00000000000E+00 -0.00000000000E+00 -0.95467755352E+02  0.95467755352E+02  0.00000000000E+00 0. -1.
         25    2    1    2    0    0  0.10794939720E+02 -0.66493950665E+02  0.10873625728E+03  0.17891370877E+03  0.12509422585E+03 0.  0.
          5    1    3    3  502    0  0.65270353191E+02 -0.55018746626E+02  0.56470195886E+02  0.10243845425E+03  0.41800000000E+01 0. -1.
         -5    1    3    3    0  502 -0.54475413471E+02 -0.11475204039E+02  0.52266061393E+02  0.76475254522E+02  0.41800000000E+01 0. -1.
        -11    1    1    2    0    0 -0.21246683610E+02  0.71030310332E+02 -0.36639998611E+02  0.82699552891E+02  0.00000000000E+00 0. -1.
         11    1    1    2    0    0  0.10451743890E+02 -0.45363596666E+01  0.45049224796E+02  0.46467732504E+02  0.00000000000E+00 0.  1.
</event>
<event>
 7    1  0.3001243E-009  0.1168891E+03  0.7561462E-02  0.1248319E+00
          2   -1    0    0  501    0  0.00000000000E+00  0.00000000000E+00  0.13913789928E+04  0.13913789928E+04  0.00000000000E+00 0.  1.
         -2   -1    0    0    0  501 -0.00000000000E+00 -0.00000000000E+00 -0.32905189038E+02  0.32905189038E+02  0.00000000000E+00 0. -1.
         25    2    1    2    0    0  0.61992987707E+02  0.57132688631E+02  0.12507905697E+04  0.12598542032E+04  0.12509312269E+03 0.  0.
          5    1    3    3  502    0  0.73531727172E+02  0.70979807347E+02  0.58973934187E+03  0.59854407666E+03  0.41800000000E+01 0. -1.
         -5    1    3    3    0  502 -0.11538739465E+02 -0.13847118715E+02  0.66105122786E+03  0.66131012653E+03  0.41800000000E+01 0. -1.
        -11    1    1    2    0    0  0.10077942796E+02 -0.36727216741E+02  0.66530879173E+01  0.38661569541E+02  0.00000000000E+00 0. -1.
         11    1    1    2    0    0 -0.72070930503E+02 -0.20405471891E+02  0.10103014616E+03  0.12576840915E+03  0.00000000000E+00 0.  1.
</event>
<event>
 7    1  0.3001243E-009  0.7257873E+02  0.7561462E-02  0.1351537E+00
         -1   -1    0    0    0  501 -0.00000000000E+00  0.00000000000E+00  0.40389355322E+03  0.40389355322E+03  0.00000000000E+00 0.  1.
          1   -1    0    0  501    0  0.00000000000E+00 -0.00000000000E+00 -0.30152387539E+02  0.30152387539E+02  0.00000000000E+00 0. -1.
         25    2    1    2    0    0  0.59402918058E+01  0.18376804160E+02  0.21657282803E+03  0.25084725709E+03  0.12509021765E+03 0.  0.
          5    1    3    3  502    0  0.11745093516E+02 -0.22616517517E+02  0.20639969023E+03  0.20800903493E+03  0.41800000000E+01 0. -1.
         -5    1    3    3    0  502 -0.58048017101E+01  0.40993321677E+02  0.10173137799E+02  0.42838222159E+02  0.41800000000E+01 0. -1.
        -11    1    1    2    0    0 -0.23065220457E+02 -0.42370456559E+02  0.40882745640E+02  0.63234949789E+02  0.00000000000E+00 0.  1.
         11    1    1    2    0    0  0.17124928651E+02  0.23993652399E+02  0.11628559201E+03  0.11996373388E+03  0.00000000000E+00 0. -1.
</event>
<event>
 7    1  0.3001243E-009  0.1451636E+03  0.7561462E-02  0.1206545E+00
          1   -1    0    0  501    0  0.00000000000E+00  0.00000000000E+00  0.73514332741E+03  0.73514332741E+03  0.00000000000E+00 0. -1.
         -1   -1    0    0    0  501 -0.00000000000E+00 -0.00000000000E+00 -0.38223894135E+02  0.38223894135E+02  0.00000000000E+00 0.  1.
         25    2    1    2    0    0 -0.46729161500E+02 -0.11508836144E+03  0.43869322446E+03  0.47279037807E+03  0.12510016359E+03 0.  0.
          5    1    3    3  502    0 -0.55306285846E+02 -0.59852589767E+02  0.98037338067E+02  0.12755355664E+03  0.41800000000E+01 0.  1.
         -5    1    3    3    0  502  0.85771243467E+01 -0.55235771671E+02  0.34065588640E+03  0.34523682143E+03  0.41800000000E+01 0.  1.
        -11    1    1    2    0    0  0.53990792805E+02  0.12740632239E+03  0.22155417116E+03  0.26121567229E+03  0.00000000000E+00 0.  1.
         11    1    1    2    0    0 -0.72616313054E+01 -0.12317960957E+02  0.36672037652E+02  0.39361171183E+02  0.00000000000E+00 0. -1.
</event>
<event>
 7    1  0.3001243E-009  0.1120777E+03  0.7561462E-02  0.1256770E+00
          2   -1    0    0  501    0  0.00000000000E+00  0.00000000000E+00  0.54106827612E+02  0.54106827612E+02  0.00000000000E+00 0. -1.
         -2   -1    0    0    0  501 -0.00000000000E+00 -0.00000000000E+00 -0.34244854128E+03  0.34244854128E+03  0.00000000000E+00 0.  1.
         25    2    1    2    0    0 -0.70294156322E+02 -0.45876537250E+02 -0.15024146386E+03  0.21276066568E+03  0.12509467740E+03 0.  0.
          5    1    3    3  502    0  0.28945849816E+02 -0.60042010108E+01 -0.20065025583E+01  0.29923420658E+02  0.41800000000E+01 0.  1.
         -5    1    3    3    0  502 -0.99240006138E+02 -0.39872336239E+02 -0.14823496130E+03  0.18283724502E+03  0.41800000000E+01 0.  1.
        -11    1    1    2    0    0  0.26527355432E+02  0.31539148907E+02 -0.13083203351E+03  0.13716938249E+03  0.00000000000E+00 0.  1.
         11    1    1    2    0    0  0.43766800890E+02  0.14337388343E+02 -0.72682163037E+01  0.46625320727E+02  0.00000000000E+00 0. -1.
</event>
<event>
 7    1  0.3001243E-009  0.1097805E+03  0.7561462E-02  0.1260977E+00
          2   -1    0    0  501    0  0.00000000000E+00  0.00000000000E+00  0.33444942109E+03  0.33444942109E+03  0.00000000000E+00 0. -1.
         -2   -1    0    0    0  501 -0.00000000000E+00 -0.00000000000E+00 -0.46361341791E+02  0.46361341791E+02  0.00000000000E+00 0.  1.
         25    2    1    2    0    0  0.59628773976E+02 -0.20151192801E+01  0.19484339532E+03  0.23910500467E+03  0.12509038000E+03 0.  0.
          5    1    3    3  502    0  0.15858098309E+02 -0.61952674498E+02  0.96087153142E+02  0.11549816690E+03  0.41800000000E+01 0.  1.
         -5    1    3    3    0  502  0.43770675667E+02  0.59937555218E+02  0.98756242181E+02  0.12360683777E+03  0.41800000000E+01 0.  1.
        -11    1    1    2    0    0 -0.55255711224E+02 -0.19946413485E+02  0.15437199351E+02  0.60740103371E+02  0.00000000000E+00 0.  1.
         11    1    1    2    0    0 -0.43730627526E+01  0.21961532765E+02  0.77807484626E+02  0.80965654836E+02  0.00000000000E+00 0. -1.
</event>
<event>
 7    1  0.3001243E-009  0.1376973E+03  0.7561462E-02  0.1216461E+00
          1   -1    0    0  501    0  0.00000000000E+00  0.00000000000E+00  0.24329254205E+04  0.24329254205E+04  0.00000000000E+00 0. -1.
         -1   -1    0    0    0  501 -0.00000000000E+00 -0.00000000000E+00 -0.18585297141E+02  0.18585297141E+02  0.00000000000E+00 0.  1.
         25    2    1    2    0    0 -0.66968288825E+02 -0.69483976751E+02  0.21523935520E+04  0.21581833107E+04  0.12507767640E+03 0.  0.
          5    1    3    3  502    0 -0.97707963056E+02 -0.38890793559E+02  0.11385834439E+04  0.11434373927E+04  0.41800000000E+01 0.  1.
         -5    1    3    3    0  502  0.30739674231E+02 -0.30593183192E+02  0.10138101080E+04  0.10147459180E+04  0.41800000000E+01 0.  1.
        -11    1    1    2    0    0  0.70254791186E+02  0.14801654011E+02  0.18843112911E+03  0.20164601426E+03  0.00000000000E+00 0. -1.
         11    1    1    2    0    0 -0.32865023608E+01  0.54682322740E+02  0.73515442268E+02  0.91681392714E+02  0.00000000000E+00 0.  1.
</event>
<event>
 7    1  0.3001243E-009  0.1063084E+03  0.7561462E-02  0.1267563E+00
         -2   -1    0    0    0  501 -0.00000000000E+00  0.00000000000E+00  0.96627771745E+01  0.96627771745E+01  0.00000000000E+00 0. -1.
          2   -1    0    0  501    0  0.00000000000E+00 -0.00000000000E+00 -0.13638121063E+04  0.13638121063E+04  0.00000000000E+00 0.  1.
         25    2    1    2    0    0 -0.10029844500E+02 -0.41654943217E-01 -0.99839908169E+03  0.10062549194E+04  0.12509051500E+03 0.  0.
          5    1    3    3  502    0 -0.28142062122E+02 -0.56076839079E+02 -0.63319772066E+03  0.63631235521E+03  0.41800000000E+01 0. -1.
         -5    1    3    3    0  502  0.18112217622E+02  0.56035184136E+02 -0.36520136103E+03  0.36994256418E+03  0.41800000000E+01 0. -1.
        -11    1    1    2    0    0  0.50363630612E+02  0.11719963416E+00 -0.21369483022E+03  0.21954951489E+03  0.00000000000E+00 0. -1.
         11    1    1    2    0    0 -0.40333786112E+02 -0.75544690947E-01 -0.14205541724E+03  0.14767044923E+03  0.00000000000E+00 0.  1.
</event>
<event>
 7    1  0.3001243E-009  0.1615977E+03  0.7561462E-02  0.1186905E+00
          1   -1    0    0  501    0  0.00000000000E+00  0.00000000000E+00  0.46657883333E+03  0.46657883333E+03  0.00000000000E+00 0. -1.
         -1   -1    0    0    0  501 -0.00000000000E+00 -0.00000000000E+00 -0.80925863878E+02  0.80925863878E+02  0.00000000000E+00 0.  1.
         25    2    1    2    0    0 -0.41913328366E+02 -0.15456085195E+03  0.18261153020E+03  0.27320622017E+03  0.12509549842E+03 0.  0.
          5    1    3    3  502    0 -0.42254928917E+02 -0.14953918980E+03  0.20076345730E+03  0.25391117834E+03  0.41800000000E+01 0. -1.
         -5    1    3    3    0  502  0.34160055078E+00 -0.50216621532E+01 -0.18151927094E+02  0.19295041823E+02  0.41800000000E+01 0. -1.
        -11    1    1    2    0    0  0.20239891757E+02  0.42611972574E+02  0.13145237514E+03  0.13966087625E+03  0.00000000000E+00 0. -1.
         11    1    1    2    0    0  0.21673436608E+02  0.11194887937E+03  0.71589064115E+02  0.13463760080E+03  0.00000000000E+00 0.  1.
</event>
<event>
 7    1  0.3001243E-009  0.1064126E+03  0.7561462E-02  0.1267361E+00
          2   -1    0    0  501    0  0.00000000000E+00  0.00000000000E+00  0.23116337999E+03  0.23116337999E+03  0.00000000000E+00 0.  1.
         -2   -1    0    0    0  501 -0.00000000000E+00 -0.00000000000E+00 -0.78392041809E+02  0.78392041809E+02  0.00000000000E+00 0. -1.
         25    2    1    2    0    0  0.43513643587E+02 -0.30065118009E+02  0.17176006017E+02  0.13689426770E+03  0.12509067451E+03 0.  0.
          5    1    3    3  502    0 -0.11651947596E+02 -0.48119112083E+02 -0.33337750966E+02  0.59833893989E+02  0.41800000000E+01 0. -1.
         -5    1    3    3    0  502  0.55165591183E+02  0.18053994074E+02  0.50513756983E+02  0.77060373715E+02  0.41800000000E+01 0. -1.
        -11    1    1    2    0    0  0.10174353277E+01 -0.30086040590E+02  0.54836130816E+02  0.62555625294E+02  0.00000000000E+00 0.  1.
         11    1    1    2    0    0 -0.44531078914E+02  0.60151158599E+02  0.80759201348E+02  0.11010552880E+03  0.00000000000E+00 0. -1.
</event>
<event>
 7    1  0.3001243E-009  0.6428255E+02  0.7561462E-02  0.1380691E+00
          1   -1    0    0  501    0  0.00000000000E+00  0.00000000000E+00  0.57989956987E+03  0.57989956987E+03  0.00000000000E+00 0. -1.
         -1   -1    0    0    0  501 -0.00000000000E+00 -0.00000000000E+00 -0.28004708619E+02  0.28004708619E+02  0.00000000000E+00 0.  1.
         25    2    1    2    0    0  0.11002998106E+02 -0.40878955051E+02  0.19331267838E+03  0.23411509969E+03  0.12509169975E+03 0.  0.
          5    1    3    3  502    0  0.47361587064E+01 -0.10675779584E+01 -0.17920409073E+02  0.19031142460E+02  0.41800000000E+01 0.  1.
         -5    1    3    3    0  502  0.62668394000E+01 -0.39811377093E+02  0.21123308745E+03  0.21508395723E+03  0.41800000000E+01 0.  1.
        -11    1    1    2    0    0  0.17343630145E+02 -0.12379434273E+02  0.17967857182E+02  0.27872850433E+02  0.00000000000E+00 0.  1.
         11    1    1    2    0    0 -0.28346628252E+02  0.53258389324E+02  0.34061432569E+03  0.34591632837E+03  0.00000000000E+00 0. -1.
</event>
<event>
 7    1  0.3001243E-009  0.9993265E+02  0.7561462E-02  0.1280438E+00
         -1   -1    0    0    0  501 -0.00000000000E+00  0.00000000000E+00  0.12910235124E+03  0.12910235124E+03  0.00000000000E+00 0.  1.
          1   -1    0    0  501    0  0.00000000000E+00 -0.00000000000E+00 -0.17655536358E+03  0.17655536358E+03  0.00000000000E+00 0. -1.
         25    2    1    2    0    0 -0.62892298586E+02 -0.38106275059E+02  0.49861399320E+02  0.15342834948E+03  0.12508624969E+03 0.  0.
          5    1    3    3  502    0  0.19650467376E+02 -0.16493768999E+02  0.61919258294E+02  0.67153944274E+02  0.41800000000E+01 0. -1.
         -5    1    3    3    0  502 -0.82542765963E+02 -0.21612506060E+02 -0.12057858974E+02  0.86274405208E+02  0.41800000000E+01 0. -1.
        -11    1    1    2    0    0  0.11201280060E+02  0.34900435767E+02  0.55415056866E+01  0.37070438047E+02  0.00000000000E+00 0.  1.
         11    1    1    2    0    0  0.51691018527E+02  0.32058392920E+01 -0.10285591735E+03  0.11515892729E+03  0.00000000000E+00 0. -1.
</event>
<event>
 7    1  0.3001243E-009  0.7621545E+02  0.7561462E-02  0.1340148E+00
         -1   -1    0    0    0  501 -0.00000000000E+00  0.00000000000E+00  0.49685012818E+02  0.49685012818E+02  0.00000000000E+00 0.  1.
          1   -1    0    0  501    0  0.00000000000E+00 -0.00000000000E+00 -0.23660817260E+03  0.23660817260E+03  0.00000000000E+00 0. -1.
         25    2    1    2    0    0  0.30674259521E+01 -0.20810420558E+01 -0.95171620390E+02  0.15722420074E+03  0.12509225449E+03 0.  0.
          5    1    3    3  502    0 -0.37655634447E+01 -0.55837504756E+02 -0.11244244185E+02  0.57235581877E+02  0.41800000000E+01 0. -1.
         -5    1    3    3    0  502  0.68329893967E+01  0.53756462701E+02 -0.83927376205E+02  0.99988618867E+02  0.41800000000E+01 0. -1.
        -11    1    1    2    0    0  0.11973621778E+02 -0.15005412387E+02 -0.10222475492E+03  0.10401168462E+03  0.00000000000E+00 0. -1.
         11    1    1    2    0    0 -0.15041047730E+02  0.17086454442E+02  0.10473215532E+02  0.25057300050E+02  0.00000000000E+00 0.  1.
</event>
<event>
 7    1  0.3001243E-009  0.1282790E+03  0.7561462E-02  0.1230032E+00
         -1   -1    0    0    0  501 -0.00000000000E+00  0.00000000000E+00  0.39113613476E+02  0.39113613476E+02  0.00000000000E+00 0.  1.
          1   -1    0    0  501    0  0.00000000000E+00 -0.00000000000E+00 -0.88461632230E+03  0.88461632230E+03  0.00000000000E+00 0. -1.
         25    2    1    2    0    0  0.61951188411E+02  0.63905310013E+02 -0.73765741788E+03  0.75346396227E+03  0.12509051878E+03 0.  0.
          5    1    3    3  502    0  0.51743088207E+02 -0.10038371162E+02 -0.11789336678E+03  0.12920694410E+03  0.41800000000E+01 0.  1.
         -5    1    3    3    0  502  0.10208100205E+02  0.73943681175E+02 -0.61976405111E+03  0.62425701817E+03  0.41800000000E+01 0.  1.
        -11    1    1    2    0    0 -0.55338133569E+02  0.86991320957E+01 -0.64578139968E+02  0.85488713219E+02  0.00000000000E+00 0.  1.
         11    1    1    2    0    0 -0.66130548427E+01 -0.72604442108E+02 -0.43267150971E+02  0.84777260285E+02  0.00000000000E+00 0. -1.
</event>
<event>
 7    1  0.3001243E-009  0.2486269E+03  0.7561462E-02  0.1114176E+00
          2   -1    0    0  501    0  0.00000000000E+00  0.00000000000E+00  0.81852058600E+03  0.81852058600E+03  0.00000000000E+00 0. -1.
         -2   -1    0    0    0  501 -0.00000000000E+00 -0.00000000000E+00 -0.89034819480E+02  0.89034819480E+02  0.00000000000E+00 0.  1.
         25    2    1    2    0    0 -0.23511790334E+03  0.42995421688E+02  0.47397398470E+03  0.54536895068E+03  0.12508764698E+03 0.  0.
          5    1    3    3  502    0 -0.21073939068E+03  0.23706720547E+02  0.29311772708E+03  0.36181289877E+03  0.41800000000E+01 0.  1.
         -5    1    3    3    0  502 -0.24378512657E+02  0.19288701140E+02  0.18085625762E+03  0.18355605191E+03  0.41800000000E+01 0.  1.
        -11    1    1    2    0    0  0.94817711772E+02 -0.60370898951E+02  0.86449039957E+02  0.14180437375E+03  0.00000000000E+00 0.  1.
         11    1    1    2    0    0  0.14030019157E+03  0.17375477263E+02  0.16906274186E+03  0.22038208105E+03  0.00000000000E+00 0. -1.
</event>
<event>
 7    1  0.3001243E-009  0.1086879E+03  0.7561462E-02  0.1263019E+00
          1   -1    0    0  501    0  0.00000000000E+00  0.00000000000E+00  0.76360538834E+02  0.76360538834E+02  0.00000000000E+00 0. -1.
         -1   -1    0    0    0  501 -0.00000000000E+00 -0.00000000000E+00 -0.20974083945E+03  0.20974083945E+03  0.00000000000E+00 0.  1.
         25    2    1    2    0    0 -0.48004303528E+02  0.77813800976E+01 -0.12353428249E+03  0.18240964263E+03  0.12509035031E+03 0.  0.
          5    1    3    3  502    0  0.33581033403E+01 -0.46377221168E+02 -0.12111529482E+02  0.48231577288E+02  0.41800000000E+01 0. -1.
         -5    1    3    3    0  502 -0.51362406868E+02  0.54158601265E+02 -0.11142275301E+03  0.13417806534E+03  0.41800000000E+01 0. -1.
        -11    1    1    2    0    0 -0.36819610113E+01  0.31060354590E+02  0.14667927552E+02  0.34546353828E+02  0.00000000000E+00 0. -1.
         11    1    1    2    0    0  0.51686264539E+02 -0.38841734688E+02 -0.24513945679E+02  0.69145381829E+02  0.00000000000E+00 0.  1.
</event>
<event>
 7    1  0.3001243E-009  0.1086925E+03  0.7561462E-02  0.1263010E+00
          2   -1    0    0  501    0  0.00000000000E+00  0.00000000000E+00  0.63972338854E+03  0.63972338854E+03  0.00000000000E+00 0. -1.
         -2   -1    0    0    0  501 -0.00000000000E+00 -0.00000000000E+00 -0.23498172921E+02  0.23498172921E+02  0.00000000000E+00 0.  1.
         25    2    1    2    0    0  0.42561573849E+02  0.80442151642E+01  0.43891866564E+03  0.45844657202E+03  0.12508983726E+03 0.  0.
          5    1    3    3  502    0  0.11199652410E+02 -0.57213994497E+02  0.16326849950E+03  0.17341553769E+03  0.41800000000E+01 0.  1.
         -5    1    3    3    0  502  0.31361921439E+02  0.65258209662E+02  0.27565016614E+03  0.28503103434E+03  0.41800000000E+01 0.  1.
        -11    1    1    2    0    0 -0.47582932771E+02 -0.34951443523E+02  0.16407253090E+03  0.17437182769E+03  0.00000000000E+00 0. -1.
         11    1    1    2    0    0  0.50213589221E+01  0.26907228359E+02  0.13234019079E+02  0.30403161750E+02  0.00000000000E+00 0.  1.
</event>
<event>
 7    1  0.3001243E-009  0.8015403E+02  0.7561462E-02  0.1328615E+00
          1   -1    0    0  501    0  0.00000000000E+00  0.00000000000E+00  0.80723660298E+03  0.80723660298E+03  0.00000000000E+00 0.  1.
         -1   -1    0    0    0  501 -0.00000000000E+00 -0.00000000000E+00 -0.14826509039E+02  0.14826509039E+02  0.00000000000E+00 0. -1.
         25    2    1    2    0    0  0.13796262509E+02  0.90147851423E+01  0.42826906458E+03  0.44646851636E+03  0.12509253063E+03 0.  0.
          5    1    3    3  502    0 -0.26880086620E+02  0.41443217066E+01  0.15365215178E+02  0.31516292558E+02  0.41800000000E+01 0.  1.
         -5    1    3    3    0  502  0.40676349130E+02  0.48704634357E+01  0.41290384940E+03  0.41495222380E+03  0.41800000000E+01 0.  1.
        -11    1    1    2    0    0 -0.46863728587E+02  0.16670332977E+02  0.21573923860E+03  0.22139902468E+03  0.00000000000E+00 0.  1.
         11    1    1    2    0    0  0.33067466078E+02 -0.25685118120E+02  0.14840179077E+03  0.15419557098E+03  0.00000000000E+00 0. -1.
</event>
<event>
 7    1  0.3001243E-009  0.1111433E+03  0.7561462E-02  0.1258467E+00
         -1   -1    0    0    0  501 -0.00000000000E+00  0.00000000000E+00  0.50008628098E+02  0.50008628098E+02  0.00000000000E+00 0.  1.
          1   -1    0    0  501    0  0.00000000000E+00 -0.00000000000E+00 -0.32309320270E+03  0.32309320270E+03  0.00000000000E+00 0. -1.
         25    2    1    2    0    0  0.21570917872E+02 -0.28451796839E+02 -0.23327055017E+03  0.26709004178E+03  0.12508849508E+03 0.  0.
          5    1    3    3  502    0 -0.12091004723E+01 -0.74839392201E+02 -0.10755793860E+03  0.13110522150E+03  0.41800000000E+01 0. -1.
         -5    1    3    3    0  502  0.22780018344E+02  0.46387595363E+02 -0.12571261157E+03  0.13598482028E+03  0.41800000000E+01 0. -1.
        -11    1    1    2    0    0 -0.45352245359E+02  0.47000151757E+02 -0.15140192632E+02  0.67045252310E+02  0.00000000000E+00 0.  1.
         11    1    1    2    0    0  0.23781327487E+02 -0.18548354918E+02 -0.24673831802E+02  0.38966536708E+02  0.00000000000E+00 0. -1.
</event>
<event>
 7    1  0.3001243E-009  0.1925578E+03  0.7561462E-02  0.1156174E+00
         -2   -1    0    0    0  501 -0.00000000000E+00  0.00000000000E+00  0.12357084030E+03  0.12357084030E+03  0.00000000000E+00 0.  1.
          2   -1    0    0  501    0  0.00000000000E+00 -0.00000000000E+00 -0.37915048957E+03  0.37915048957E+03  0.00000000000E+00 0. -1.
         25    2    1    2    0    0  0.13341486771E+03 -0.11389404437E+03 -0.20913365118E+03  0.30025850740E+03  0.12508759708E+03 0.  0.
          5    1    3    3  502    0  0.10056172322E+03 -0.11993145697E+03 -0.21512214187E+03  0.26606620017E+03  0.41800000000E+01 0. -1.
         -5    1    3    3    0  502  0.32853144486E+02  0.60374125944E+01  0.59884906927E+01  0.34192307238E+02  0.41800000000E+01 0. -1.
        -11    1    1    2    0    0 -0.25074440799E+02  0.76124926810E+02 -0.33975025898E+02  0.87051906631E+02  0.00000000000E+00 0. -1.
         11    1    1    2    0    0 -0.10834042691E+03  0.37769117561E+02 -0.12470972192E+02  0.11541091583E+03  0.00000000000E+00 0.  1.
</event>
<event>
 7    1  0.3001243E-009  0.1335593E+03  0.7561462E-02  0.1222268E+00
          2   -1    0    0  501    0  0.00000000000E+00  0.00000000000E+00  0.12845626094E+03  0.12845626094E+03  0.00000000000E+00 0. -1.
         -2   -1    0    0    0  501 -0.00000000000E+00 -0.00000000000E+00 -0.16701563352E+03  0.16701563352E+03  0.00000000000E+00 0.  1.
         25    2    1    2    0    0 -0.28838296546E+02 -0.89388161856E+02 -0.60021315952E+02  0.16754452711E+03  0.12508684731E+03 0.  0.
          5    1    3    3  502    0  0.28266443251E+02 -0.88924773041E+02 -0.58607880555E+02  0.11026768855E+03  0.41800000000E+01 0.  1.
         -5    1    3    3    0  502 -0.57104739797E+02 -0.46338881449E+00 -0.14134353966E+01  0.57276838566E+02  0.41800000000E+01 0.  1.
        -11    1    1    2    0    0  0.51740904730E+02  0.62278536867E+02  0.37201290019E+02  0.89104844738E+02  0.00000000000E+00 0. -1.
         11    1    1    2    0    0 -0.22902608184E+02  0.27109624988E+02 -0.15739346653E+02  0.38822522609E+02  0.00000000000E+00 0.  1.
</event>
<event>
 7    1  0.3001243E-009  0.1073090E+03  0.7561462E-02  0.1265636E+00
          3   -1    0    0  501    0  0.00000000000E+00  0.00000000000E+00  0.11941360041E+03  0.11941360041E+03  0.00000000000E+00 0. -1.
         -3   -1    0    0    0  501 -0.00000000000E+00 -0.00000000000E+00 -0.10792509030E+03  0.10792509030E+03  0.00000000000E+00 0.  1.
         25    2    1    2    0    0  0.17546191629E+01  0.17790196452E+02 -0.21367470104E+02  0.12815097136E+03  0.12508610196E+03 0.  0.
          5    1    3    3  502    0 -0.26866414224E+02 -0.44631321581E+02  0.88582490450E+01  0.53006603885E+02  0.41800000000E+01 0. -1.
         -5    1    3    3    0  502  0.28621033387E+02  0.62421518033E+02 -0.30225719149E+02  0.75144367478E+02  0.41800000000E+01 0. -1.
        -11    1    1    2    0    0  0.41674147450E+02  0.88599651463E+01  0.13743763401E+02  0.44767450011E+02  0.00000000000E+00 0.  1.
         11    1    1    2    0    0 -0.43428766613E+02 -0.26650161598E+02  0.19112216813E+02  0.54420269332E+02  0.00000000000E+00 0. -1.
</event>
<event>
 7    1  0.3150815E-009  0.8701576E+02  0.7561462E-02  0.1310244E+00
          1   -1    0    0  501    0  0.00000000000E+00  0.00000000000E+00  0.21114542947E+03  0.21114542947E+03  0.00000000000E+00 0. -1.
         -1   -1    0    0    0  501 -0.00000000000E+00 -0.00000000000E+00 -0.59740532738E+02  0.59740532738E+02  0.00000000000E+00 0.  1.
         25    2    1    2    0    0  0.24849776189E+02 -0.18217933412E+02  0.87228679414E+02  0.15557836982E+03  0.12508549944E+03 0.  0.
          5    1    3    3  502    0  0.52629633926E+02  0.15258673926E+02 -0.32979430327E+01  0.55055011810E+02  0.41800000000E+01 0. -1.
         -5    1    3    3    0  502 -0.27779857737E+02 -0.33476607338E+02  0.90526622446E+02  0.10052335801E+03  0.41800000000E+01 0. -1.
        -11    1    1    2    0    0  0.16154646434E+02  0.28803530337E+02 -0.57851251705E+01  0.33527356509E+02  0.00000000000E+00 0.  1.
         11    1    1    2    0    0 -0.41004422623E+02 -0.10585596925E+02  0.69961342492E+02  0.81780235878E+02  0.00000000000E+00 0. -1.
</event>
<event>
 7    1  0.3001243E-009  0.1151767E+03  0.7561462E-02  0.1251273E+00
         -1   -1    0    0    0  501 -0.00000000000E+00  0.00000000000E+00  0.88932573756E+02  0.88932573756E+02  0.00000000000E+00 0.  1.
          1   -1    0    0  501    0  0.00000000000E+00 -0.00000000000E+00 -0.17346373620E+03  0.17346373620E+03  0.00000000000E+00 0. -1.
         25    2    1    2    0    0 -0.30780665627E+02  0.38491865868E+02 -0.10434293214E+02  0.13485358598E+03  0.12509013575E+03 0.  0.
          5    1    3    3  502    0  0.32119810534E+01 -0.43674722609E+02 -0.12758896643E+02  0.45804585587E+02  0.41800000000E+01 0. -1.
         -5    1    3    3    0  502 -0.33992646681E+02  0.82166588477E+02  0.23246034294E+01  0.89049000396E+02  0.41800000000E+01 0. -1.
        -11    1    1    2    0    0 -0.65765145723E+01  0.23808917699E+02 -0.13508436000E+01  0.24737418709E+02  0.00000000000E+00 0.  1.
         11    1    1    2    0    0  0.37357180199E+02 -0.62300783568E+02 -0.72746025630E+02  0.10280530526E+03  0.00000000000E+00 0. -1.
</event>
<event>
 7    1  0.3001243E-009  0.1069241E+03  0.7561462E-02  0.1266374E+00
         -1   -1    0    0    0  501 -0.00000000000E+00  0.00000000000E+00  0.10364703844E+03  0.10364703844E+03  0.00000000000E+00 0.  1.
          1   -1    0    0  501    0  0.00000000000E+00 -0.00000000000E+00 -0.25947856869E+03  0.25947856869E+03  0.00000000000E+00 0. -1.
         25    2    1    2    0    0  0.34417628154E+02  0.51605011166E+02  0.34267098452E+02  0.14376481366E+03  0.12508571983E+03 0.  0.
          5    1    3    3  502    0 -0.19891315758E+02  0.52033274315E+02 -0.26779197995E+02  0.61949365806E+02  0.41800000000E+01 0. -1.
         -5    1    3    3    0  502  0.54308943913E+02 -0.42826314929E+00  0.61046296447E+02  0.81815447858E+02  0.41800000000E+01 0. -1.
        -11    1    1    2    0    0 -0.56483161969E+02 -0.11355149804E+02 -0.14011972865E+03  0.15150189889E+03  0.00000000000E+00 0. -1.
         11    1    1    2    0    0  0.22065533815E+02 -0.40249861361E+02 -0.49978900053E+02  0.67858894573E+02  0.00000000000E+00 0.  1.
</event>
<event>
 7    1  0.3001243E-009  0.1698260E+03  0.7561462E-02  0.1178029E+00
          2   -1    0    0  501    0  0.00000000000E+00  0.00000000000E+00  0.17255351489E+03  0.17255351489E+03  0.00000000000E+00 0. -1.
         -2   -1    0    0    0  501 -0.00000000000E+00 -0.00000000000E+00 -0.19322750845E+03  0.19322750845E+03  0.00000000000E+00 0.  1.
         25    2    1    2    0    0 -0.10264883211E+03  0.10528267720E+03 -0.59994608672E+01  0.19314056357E+03  0.12508420729E+03 0.  0.
          5    1    3    3  502    0 -0.41384409260E+02  0.10651448667E+03 -0.42153516108E+02  0.12187040872E+03  0.41800000000E+01 0.  1.
         -5    1    3    3    0  502 -0.61264422847E+02 -0.12318094791E+01  0.36154055241E+02  0.71270154845E+02  0.41800000000E+01 0.  1.
        -11    1    1    2    0    0  0.17328274802E+02 -0.69047410530E+02  0.19556102288E+02  0.73825843342E+02  0.00000000000E+00 0.  1.
         11    1    1    2    0    0  0.85320557305E+02 -0.36235266666E+02 -0.34230634984E+02  0.98814616432E+02  0.00000000000E+00 0. -1.
</event>
<event>
 7    1  0.3001243E-009  0.5948293E+02  0.7561462E-02  0.1400015E+00
          3   -1    0    0  501    0  0.00000000000E+00  0.00000000000E+00  0.36059158732E+02  0.36059158732E+02  0.00000000000E+00 0. -1.
         -3   -1    0    0    0  501 -0.00000000000E+00 -0.00000000000E+00 -0.40241083862E+03  0.40241083862E+03  0.00000000000E+00 0.  1.
         25    2    1    2    0    0  0.73326891037E+01  0.46348447840E+02 -0.16473403538E+03  0.21209945616E+03  0.12508768902E+03 0.  0.
          5    1    3    3  502    0  0.19386789218E+02  0.22822002095E+02  0.12601261902E+02  0.32756000631E+02  0.41800000000E+01 0.  1.
         -5    1    3    3    0  502 -0.12054100114E+02  0.23526445744E+02 -0.17733529728E+03  0.17934345553E+03  0.41800000000E+01 0.  1.
        -11    1    1    2    0    0  0.16859529104E+02 -0.20948016525E+02 -0.58937314321E+01  0.27528152647E+02  0.00000000000E+00 0. -1.
         11    1    1    2    0    0 -0.24192218208E+02 -0.25400431314E+02 -0.19572391308E+03  0.19884238855E+03  0.00000000000E+00 0.  1.
</event>
<event>
 7    1  0.3001243E-009  0.1032095E+03  0.7561462E-02  0.1273688E+00
         -1   -1    0    0    0  501 -0.00000000000E+00  0.00000000000E+00  0.27492703621E+02  0.27492703621E+02  0.00000000000E+00 0.  1.
          1   -1    0    0  501    0  0.00000000000E+00 -0.00000000000E+00 -0.48095023978E+03  0.48095023978E+03  0.00000000000E+00 0. -1.
         25    2    1    2    0    0  0.25890972662E+02 -0.22466076363E+02 -0.21982713357E+03  0.25523788606E+03  0.12508933919E+03 0.  0.
          5    1    3    3  502    0  0.15494670760E+01  0.47151145209E+02 -0.13332585145E+03  0.14148811402E+03  0.41800000000E+01 0.  1.
         -5    1    3    3    0  502  0.24341505586E+02 -0.69617221572E+02 -0.86501282114E+02  0.11374977205E+03  0.41800000000E+01 0.  1.
        -11    1    1    2    0    0  0.22300154298E+02 -0.12578500654E+02 -0.13928422822E+03  0.14161783712E+03  0.00000000000E+00 0.  1.
         11    1    1    2    0    0 -0.48191126959E+02  0.35044577018E+02 -0.94346174372E+02  0.11158722021E+03  0.00000000000E+00 0. -1.
</event>
<event>
 7    1  0.3158839E-009  0.1061079E+03  0.7561462E-02  0.1267952E+00
          3   -1    0    0  501    0  0.00000000000E+00  0.00000000000E+00  0.21126232249E+03  0.21126232249E+03  0.00000000000E+00 0. -1.
         -3   -1    0    0    0  501 -0.00000000000E+00 -0.00000000000E+00 -0.77918645528E+02  0.77918645528E+02  0.00000000000E+00 0.  1.
         25    2    1    2    0    0  0.60952219473E+02  0.25190929568E+02  0.55296907247E+02  0.15183659469E+03  0.12508735965E+03 0.  0.
          5    1    3    3  502    0  0.97488795148E+02  0.33797622113E+02  0.35523939998E+02  0.10920516083E+03  0.41800000000E+01 0.  1.
         -5    1    3    3    0  502 -0.36536575675E+02 -0.86066925446E+01  0.19772967249E+02  0.42631433854E+02  0.41800000000E+01 0.  1.
        -11    1    1    2    0    0 -0.71595537733E+01 -0.14734506325E+02 -0.19494490015E+02  0.25463700199E+02  0.00000000000E+00 0.  1.
         11    1    1    2    0    0 -0.53792665700E+02 -0.10456423244E+02  0.97541259727E+02  0.11188067313E+03  0.00000000000E+00 0. -1.
</event>
<event>
 7    1  0.3001243E-009  0.2159473E+03  0.7561462E-02  0.1136941E+00
          1   -1    0    0  501    0  0.00000000000E+00  0.00000000000E+00  0.38799636718E+03  0.38799636718E+03  0.00000000000E+00 0. -1.
         -1   -1    0    0    0  501 -0.00000000000E+00 -0.00000000000E+00 -0.13598000285E+03  0.13598000285E+03  0.00000000000E+00 0.  1.
         25    2    1    2    0    0 -0.15041905394E+03 -0.12158071170E+03  0.19837324697E+03  0.30398573520E+03  0.12509045066E+03 0.  0.
          5    1    3    3  502    0 -0.12811119537E+03 -0.14480297940E+03  0.18847742540E+03  0.27003998502E+03  0.41800000000E+01 0. -1.
         -5    1    3    3    0  502 -0.22307858564E+02  0.23222267703E+02  0.98958215745E+01  0.33945750184E+02  0.41800000000E+01 0. -1.
        -11    1    1    2    0    0  0.79084633048E+02  0.19414874944E+02  0.49539697709E+02  0.95317879763E+02  0.00000000000E+00 0. -1.
         11    1    1    2    0    0  0.71334420889E+02  0.10216583675E+03  0.41034196467E+01  0.12467275507E+03  0.00000000000E+00 0.  1.
</event>
<event>
 7    1  0.3001243E-009  0.1921302E+03  0.7561462E-02  0.1156554E+00
          2   -1    0    0  501    0  0.00000000000E+00  0.00000000000E+00  0.34283953677E+02  0.34283953677E+02  0.00000000000E+00 0. -1.
         -2   -1    0    0    0  501 -0.00000000000E+00 -0.00000000000E+00 -0.15442408055E+04  0.15442408055E+04  0.00000000000E+00 0.  1.
         25    2    1    2    0    0  0.18905515710E+03  0.28639853169E+01 -0.10484161109E+04  0.10726483067E+04  0.12509194052E+03 0.  0.
          5    1    3    3  502    0  0.23935418208E+02  0.39244625923E+01 -0.48229856187E+03  0.48292616499E+03  0.41800000000E+01 0.  1.
         -5    1    3    3    0  502  0.16511973889E+03 -0.10604772754E+01 -0.56611754899E+03  0.58972214174E+03  0.41800000000E+01 0.  1.
        -11    1    1    2    0    0 -0.96334096330E+02 -0.24200605591E+02 -0.14818579071E+03  0.17839550441E+03  0.00000000000E+00 0. -1.
         11    1    1    2    0    0 -0.92721060767E+02  0.21336620274E+02 -0.31335495022E+03  0.32748094800E+03  0.00000000000E+00 0.  1.
</event>
<event>
 7    1  0.3001243E-009  0.1187755E+03  0.7561462E-02  0.1245131E+00
          1   -1    0    0  501    0  0.00000000000E+00  0.00000000000E+00  0.17052200292E+03  0.17052200292E+03  0.00000000000E+00 0. -1.
         -1   -1    0    0    0  501 -0.00000000000E+00 -0.00000000000E+00 -0.87136615293E+02  0.87136615293E+02  0.00000000000E+00 0.  1.
         25    2    1    2    0    0  0.28134811162E+02 -0.41551479964E+02  0.30705812478E+02  0.13823129427E+03  0.12508777202E+03 0.  0.
          5    1    3    3  502    0 -0.15220265770E+02 -0.74832397923E+02  0.23481262591E+01  0.76514902901E+02  0.41800000000E+01 0. -1.
         -5    1    3    3    0  502  0.43355076932E+02  0.33280917959E+02  0.28357686219E+02  0.61716391369E+02  0.41800000000E+01 0. -1.
        -11    1    1    2    0    0 -0.58128742440E+02  0.48225349639E+02  0.44364147905E+02  0.87594592669E+02  0.00000000000E+00 0.  1.
         11    1    1    2    0    0  0.29993931279E+02 -0.66738696751E+01  0.83154272416E+01  0.31832731271E+02  0.00000000000E+00 0. -1.
</event>
<event>
 6    1  0.3001243E-009  0.1036983E+03  0.7561462E-02  0.1272706E+00
         -1   -1    0    0    0  501 -0.00000000000E+00  0.00000000000E+00  0.82009241666E+02  0.82009241666E+02  0.00000000000E+00 0.  1.
          1   -1    0    0  501    0  0.00000000000E+00 -0.00000000000E+00 -0.25730046138E+03  0.25730046138E+03  0.00000000000E+00 0. -1.
          5    1    1    2  502    0  0.27078342644E+02 -0.40200644431E+02 -0.17644442334E+02  0.51750625101E+02  0.41800000000E+01 0.  1.
         -5    1    1    2    0  502 -0.64968346829E+02  0.37889894049E+02  0.25252623358E+02  0.79446192780E+02  0.41800000000E+01 0.  1.
        -11    1    1    2    0    0 -0.72818785682E+01  0.29709699524E+02 -0.12923728433E+03  0.13280801053E+03  0.00000000000E+00 0. -1.
         11    1    1    2    0    0  0.45171882753E+02 -0.27398949141E+02 -0.53662116405E+02  0.75304874627E+02  0.00000000000E+00 0.  1.
</event>
<event>
 7    1  0.3001243E-009  0.8742375E+02  0.7561462E-02  0.1309213E+00
         -2   -1    0    0    0  501 -0.00000000000E+00  0.00000000000E+00  0.20803162296E+02  0.20803162296E+02  0.00000000000E+00 0.  1.
          2   -1    0    0  501    0  0.00000000000E+00 -0.00000000000E+00 -0.71228202703E+03  0.71228202703E+03  0.00000000000E+00 0. -1.
         25    2    1    2    0    0  0.41140659562E+02  0.37434428067E+02 -0.37258188127E+03  0.39693544207E+03  0.12508635674E+03 0.  0.
          5    1    3    3  502    0  0.62941223610E+02  0.32764998386E+02 -0.36666711526E+03  0.37349349199E+03  0.41800000000E+01 0. -1.
         -5    1    3    3    0  502 -0.21800564048E+02  0.46694296811E+01 -0.59147660151E+01  0.23441950076E+02  0.41800000000E+01 0. -1.
        -11    1    1    2    0    0 -0.29212854049E+02  0.10989046903E+02 -0.31089559776E+02  0.44053498392E+02  0.00000000000E+00 0.  1.
         11    1    1    2    0    0 -0.11927805513E+02 -0.48423474971E+02 -0.28780742369E+03  0.29209624887E+03  0.00000000000E+00 0. -1.
</event>
<event>
 7    1  0.3001243E-009  0.7297419E+02  0.7561462E-02  0.1350262E+00
          2   -1    0    0  501    0  0.00000000000E+00  0.00000000000E+00  0.40001611661E+02  0.40001611661E+02  0.00000000000E+00 0. -1.
         -2   -1    0    0    0  501 -0.00000000000E+00 -0.00000000000E+00 -0.39382017253E+03  0.39382017253E+03  0.00000000000E+00 0.  1.
         25    2    1    2    0    0 -0.87749323523E+00  0.13488075545E+01 -0.85675670423E+02  0.15162641209E+03  0.12509060342E+03 0.  0.
          5    1    3    3  502    0 -0.29119934053E+02  0.32771354448E+01  0.24107451012E+02  0.38175276951E+02  0.41800000000E+01 0. -1.
         -5    1    3    3    0  502  0.28242440818E+02 -0.19283278903E+01 -0.10978312144E+03  0.11345113514E+03  0.41800000000E+01 0. -1.
        -11    1    1    2    0    0  0.39552455665E+02  0.19168525965E+02 -0.14403512181E+03  0.15059198336E+03  0.00000000000E+00 0. -1.
         11    1    1    2    0    0 -0.38674962429E+02 -0.20517333520E+02 -0.12410776864E+03  0.13160338875E+03  0.00000000000E+00 0.  1.
</event>
<event>
 7    1  0.3001243E-009  0.1168273E+03  0.7561462E-02  0.1248425E+00
         -1   -1    0    0    0  501 -0.00000000000E+00  0.00000000000E+00  0.13392207891E+03  0.13392207891E+03  0.00000000000E+00 0.  1.
          1   -1    0    0  501    0  0.00000000000E+00 -0.00000000000E+00 -0.22700014929E+03  0.22700014929E+03  0.00000000000E+00 0. -1.
         25    2    1    2    0    0  0.10642886900E+03  0.70797370699E+01  0.38462305997E+02  0.16883200303E+03  0.12509064486E+03 0.  0.
          5    1    3    3  502    0  0.10465606163E+03  0.25330845701E+02  0.72546058128E+02  0.12990360245E+03  0.41800000000E+01 0.  1.
         -5    1    3    3    0  502  0.17728073661E+01 -0.18251108631E+02 -0.34083752131E+02  0.38928400578E+02  0.41800000000E+01 0.  1.
        -11    1    1    2    0    0 -0.26246328414E+02  0.23580826211E+01 -0.10322063589E+03  0.10653135680E+03  0.00000000000E+00 0. -1.
         11    1    1    2    0    0 -0.80182540587E+02 -0.94378196910E+01 -0.28319740485E+02  0.85558868369E+02  0.00000000000E+00 0.  1.
</event>
<event>
 7    1  0.3001243E-009  0.3401952E+03  0.7561462E-02  0.1066713E+00
         -1   -1    0    0    0  501 -0.00000000000E+00  0.00000000000E+00  0.96328321073E+03  0.96328321073E+03  0.00000000000E+00 0.  1.
          1   -1    0    0  501    0  0.00000000000E+00 -0.00000000000E+00 -0.17087221171E+03  0.17087221171E+03  0.00000000000E+00 0. -1.
         25    2    1    2    0    0 -0.18409310228E+03 -0.27730945019E+03  0.68638730812E+03  0.77302376306E+03  0.12508956808E+03 0.  0.
          5    1    3    3  502    0 -0.92735777998E+02 -0.17521246077E+03  0.27232616632E+03  0.33686546898E+03  0.41800000000E+01 0.  1.
         -5    1    3    3    0  502 -0.91357324281E+02 -0.10209698942E+03  0.41406114179E+03  0.43615829408E+03  0.41800000000E+01 0.  1.
        -11    1    1    2    0    0  0.10838931363E+03  0.83048652851E+02  0.47655485454E+02  0.14462491951E+03  0.00000000000E+00 0. -1.
         11    1    1    2    0    0  0.75703788645E+02  0.19426079734E+03  0.58368205456E+02  0.21650673986E+03  0.00000000000E+00 0.  1.
</event>
<event>
 7    1  0.3001243E-009  0.1192223E+03  0.7561462E-02  0.1244386E+00
         -2   -1    0    0    0  501 -0.00000000000E+00  0.00000000000E+00  0.22827336055E+03  0.22827336055E+03  0.00000000000E+00 0.  1.
          2   -1    0    0  501    0  0.00000000000E+00 -0.00000000000E+00 -0.84916352722E+02  0.84916352722E+02  0.00000000000E+00 0. -1.
         25    2    1    2    0    0  0.38864636087E+02 -0.70283540674E+02  0.11463959752E+03  0.18772284125E+03  0.12508953506E+03 0.  0.
          5    1    3    3  502    0  0.42885133749E+02  0.51522866542E+01  0.10222250871E+03  0.11105221493E+03  0.41800000000E+01 0. -1.
         -5    1    3    3    0  502 -0.40204976621E+01 -0.75435827328E+02  0.12417088808E+02  0.76670626322E+02  0.41800000000E+01 0. -1.
        -11    1    1    2    0    0  0.22228353051E+02 -0.46493510498E+01 -0.46668063899E+01  0.23183943289E+02  0.00000000000E+00 0.  1.
         11    1    1    2    0    0 -0.61092989138E+02  0.74932891724E+02  0.33384216695E+02  0.10228292872E+03  0.00000000000E+00 0. -1.
</event>
<event>
 7    1  0.3001243E-009  0.5260941E+02  0.7561462E-02  0.1431755E+00
         -1   -1    0    0    0  501 -0.00000000000E+00  0.00000000000E+00  0.56962747829E+02  0.56962747829E+02  0.00000000000E+00 0.  1.
          1   -1    0    0  501    0  0.00000000000E+00 -0.00000000000E+00 -0.26521324067E+03  0.26521324067E+03  0.00000000000E+00 0. -1.
         25    2    1    2    0    0 -0.66874333494E+00  0.51107908662E+02 -0.15165704810E+03  0.20312440704E+03  0.12508876430E+03 0.  0.
          5    1    3    3  502    0 -0.37574937927E+01  0.25861818837E+02  0.17685902779E+02  0.31831053866E+02  0.41800000000E+01 0.  1.
         -5    1    3    3    0  502  0.30887504578E+01  0.25246089825E+02 -0.16934295088E+03  0.17129335318E+03  0.41800000000E+01 0.  1.
        -11    1    1    2    0    0  0.67918856880E+01 -0.36692472040E+02 -0.81496204217E+02  0.89633132922E+02  0.00000000000E+00 0. -1.
         11    1    1    2    0    0 -0.61231423530E+01 -0.14415436621E+02  0.24902759469E+02  0.29418448539E+02  0.00000000000E+00 0.  1.
</event>
<event>
 7    1  0.3001243E-009  0.1301866E+03  0.7561462E-02  0.1227179E+00
          2   -1    0    0  501    0  0.00000000000E+00  0.00000000000E+00  0.87464872372E+02  0.87464872372E+02  0.00000000000E+00 0. -1.
         -2   -1    0    0    0  501 -0.00000000000E+00 -0.00000000000E+00 -0.21524206833E+03  0.21524206833E+03  0.00000000000E+00 0.  1.
         25    2    1    2    0    0 -0.52493325546E+02 -0.60608257129E+02 -0.42324671139E+02  0.15449315355E+03  0.12509135320E+03 0.  0.
          5    1    3    3  502    0 -0.68882323317E+02 -0.86593212116E+02 -0.12429254079E+02  0.11142314664E+03  0.41800000000E+01 0. -1.
         -5    1    3    3    0  502  0.16388997771E+02  0.25984954988E+02 -0.29895417059E+02  0.43070006905E+02  0.41800000000E+01 0. -1.
        -11    1    1    2    0    0 -0.13058074527E+02  0.50687926017E+02 -0.23142859566E+02  0.57230857963E+02  0.00000000000E+00 0.  1.
         11    1    1    2    0    0  0.65551400073E+02  0.99203311113E+01 -0.62309665253E+02  0.90982929195E+02  0.00000000000E+00 0. -1.
</event>
<event>
 7    1  0.3001243E-009  0.9680079E+02  0.7561462E-02  0.1287171E+00
         -1   -1    0    0    0  501 -0.00000000000E+00  0.00000000000E+00  0.20447530515E+02  0.20447530515E+02  0.00000000000E+00 0.  1.
          1   -1    0    0  501    0  0.00000000000E+00 -0.00000000000E+00 -0.87867461117E+03  0.87867461117E+03  0.00000000000E+00 0. -1.
         25    2    1    2    0    0 -0.71115220898E+01 -0.37503619163E+02 -0.69179661190E+03  0.70405056901E+03  0.12509019263E+03 0.  0.
          5    1    3    3  502    0  0.65640722161E+01 -0.64176879176E+02 -0.17821505484E+03  0.18957804998E+03  0.41800000000E+01 0.  1.
         -5    1    3    3    0  502 -0.13675594306E+02  0.26673260013E+02 -0.51358155706E+03  0.51447251903E+03  0.41800000000E+01 0.  1.
        -11    1    1    2    0    0  0.46468111518E+02  0.36885919334E+02 -0.75760002423E+02  0.96225954920E+02  0.00000000000E+00 0. -1.
         11    1    1    2    0    0 -0.39356589428E+02  0.61769982934E+00 -0.90670466338E+02  0.98845617760E+02  0.00000000000E+00 0.  1.
</event>
<event>
 7    1  0.3001243E-009  0.2299858E+03  0.7561462E-02  0.1126650E+00
         -2   -1    0    0    0  501 -0.00000000000E+00  0.00000000000E+00  0.40003098205E+03  0.40003098205E+03  0.00000000000E+00 0. -1.
          2   -1    0    0  501    0  0.00000000000E+00 -0.00000000000E+00 -0.15079366675E+03  0.15079366675E+03  0.00000000000E+00 0.  1.
         25    2    1    2    0    0 -0.14605278362E+03 -0.16345253436E+03  0.10898344896E+03  0.27490599690E+03  0.12509104040E+03 0.  0.
          5    1    3    3  502    0 -0.71390870539E+02 -0.14746246545E+02  0.75671425389E+02  0.10515581393E+03  0.41800000000E+01 0. -1.
         -5    1    3    3    0  502 -0.74661913082E+02 -0.14870628782E+03  0.33312023571E+02  0.16975018296E+03  0.41800000000E+01 0. -1.
        -11    1    1    2    0    0  0.25093944939E+02  0.43087702650E+02 -0.72181468025E+01  0.50382118212E+02  0.00000000000E+00 0.  1.
         11    1    1    2    0    0  0.12095883868E+03  0.12036483171E+03  0.14747201315E+03  0.22553653369E+03  0.00000000000E+00 0. -1.
</event>
<event>
 7    1  0.3001243E-009  0.1133355E+03  0.7561462E-02  0.1254515E+00
         -2   -1    0    0    0  501 -0.00000000000E+00  0.00000000000E+00  0.28925502866E+02  0.28925502866E+02  0.00000000000E+00 0.  1.
          2   -1    0    0  501    0  0.00000000000E+00 -0.00000000000E+00 -0.65608016275E+03  0.65608016275E+03  0.00000000000E+00 0. -1.
         25    2    1    2    0    0 -0.26259338043E+02 -0.30408018942E+02 -0.52683666168E+03  0.54297236124E+03  0.12509163251E+03 0.  0.
          5    1    3    3  502    0  0.26516086003E+02  0.36144877187E+02 -0.14740518587E+03  0.15412759709E+03  0.41800000000E+01 0. -1.
         -5    1    3    3    0  502 -0.52775424046E+02 -0.66552896129E+02 -0.37943147581E+03  0.38884476415E+03  0.41800000000E+01 0. -1.
        -11    1    1    2    0    0 -0.31073285533E+02  0.23293915818E+02 -0.21749134828E+02  0.44510453308E+02  0.00000000000E+00 0.  1.
         11    1    1    2    0    0  0.57332623575E+02  0.71141031242E+01 -0.78568863376E+02  0.97522851073E+02  0.00000000000E+00 0. -1.
</event>
<event>
 7    1  0.3001243E-009  0.1042657E+03  0.7561462E-02  0.1271573E+00
         -2   -1    0    0    0  501 -0.00000000000E+00  0.00000000000E+00  0.14083230158E+03  0.14083230158E+03  0.00000000000E+00 0.  1.
          2   -1    0    0  501    0  0.00000000000E+00 -0.00000000000E+00 -0.85132979375E+02  0.85132979375E+02  0.00000000000E+00 0. -1.
         25    2    1    2    0    0 -0.23165830285E+02 -0.30394508199E+02  0.54944483196E+02  0.14186536085E+03  0.12508558092E+03 0.  0.
          5    1    3    3  502    0  0.30310879741E+02 -0.60933698074E+02  0.20594563533E+02  0.71226915128E+02  0.41800000000E+01 0.  1.
         -5    1    3    3    0  502 -0.53476710026E+02  0.30539189875E+02  0.34349919663E+02  0.70638445724E+02  0.41800000000E+01 0.  1.
        -11    1    1    2    0    0  0.22593226022E+02 -0.18819905759E+02 -0.14208713420E+02  0.32657774755E+02  0.00000000000E+00 0.  1.
         11    1    1    2    0    0  0.57260426300E+00  0.49214413958E+02  0.14963552430E+02  0.51442145350E+02  0.00000000000E+00 0. -1.
</event>
<event>
 7    1  0.3001243E-009  0.1000693E+03  0.7561462E-02  0.1280150E+00
         -2   -1    0    0    0  501 -0.00000000000E+00  0.00000000000E+00  0.19060358637E+02  0.19060358637E+02  0.00000000000E+00 0. -1.
          2   -1    0    0  501    0  0.00000000000E+00 -0.00000000000E+00 -0.63303529972E+03  0.63303529972E+03  0.00000000000E+00 0.  1.
         25    2    1    2    0    0  0.14908364004E+02 -0.49275899282E+01 -0.34177053254E+03  0.36428123620E+03  0.12508869523E+03 0.  0.
          5    1    3    3  502    0 -0.32876566734E+02 -0.36436602050E+02 -0.25849198370E+03  0.26314268496E+03  0.41800000000E+01 0. -1.
         -5    1    3    3    0  502  0.47784930738E+02  0.31509012122E+02 -0.83278548838E+02  0.10113855124E+03  0.41800000000E+01 0. -1.
        -11    1    1    2    0    0  0.36338695502E+02 -0.13887428281E+02 -0.11463679693E+03  0.12105765843E+03  0.00000000000E+00 0.  1.
         11    1    1    2    0    0 -0.51247059506E+02  0.18815018209E+02 -0.15756761161E+03  0.16675676372E+03  0.00000000000E+00 0. -1.
</event>
<event>
 7    1  0.3001243E-009  0.1403790E+03  0.7561462E-02  0.1212820E+00
          2   -1    0    0  501    0  0.00000000000E+00  0.00000000000E+00  0.38184542958E+03  0.38184542958E+03  0.00000000000E+00 0. -1.
         -2   -1    0    0    0  501 -0.00000000000E+00 -0.00000000000E+00 -0.77698148632E+02  0.77698148632E+02  0.00000000000E+00 0.  1.
         25    2    1    2    0    0 -0.37215229946E+02 -0.11758889326E+03  0.22764883893E+03  0.28754786490E+03  0.12509060551E+03 0.  0.
          5    1    3    3  502    0  0.30099205979E+02 -0.31114376188E+02  0.14167161612E+03  0.14819711812E+03  0.41800000000E+01 0. -1.
         -5    1    3    3    0  502 -0.67314435925E+02 -0.86474517071E+02  0.85977222813E+02  0.13935074678E+03  0.41800000000E+01 0. -1.
        -11    1    1    2    0    0  0.29964831957E+02  0.41610075352E+02  0.80637147138E+02  0.95559609792E+02  0.00000000000E+00 0. -1.
         11    1    1    2    0    0  0.72503979887E+01  0.75978817907E+02 -0.41387051139E+01  0.76436103522E+02  0.00000000000E+00 0.  1.
</event>
<event>
 7    1  0.3001243E-009  0.1010231E+03  0.7561462E-02  0.1278159E+00
         -2   -1    0    0    0  501 -0.00000000000E+00  0.00000000000E+00  0.43423875369E+02  0.43423875369E+02  0.00000000000E+00 0.  1.
          2   -1    0    0  501    0  0.00000000000E+00 -0.00000000000E+00 -0.33263591269E+03  0.33263591269E+03  0.00000000000E+00 0. -1.
         25    2    1    2    0    0  0.29037173688E+02  0.10187432715E+02 -0.22917001843E+03  0.26289461477E+03  0.12509092648E+03 0.  0.
          5    1    3    3  502    0  0.41809743800E+02  0.62167512277E+02 -0.13855024500E+03  0.15756426324E+03  0.41800000000E+01 0. -1.
         -5    1    3    3    0  502 -0.12772570112E+02 -0.51980079562E+02 -0.90619773425E+02  0.10533035153E+03  0.41800000000E+01 0. -1.
        -11    1    1    2    0    0 -0.36566703439E-01 -0.35093657914E+02  0.71922128365E+01  0.35823094344E+02  0.00000000000E+00 0.  1.
         11    1    1    2    0    0 -0.29000606985E+02  0.24906225199E+02 -0.67234231729E+02  0.77342078943E+02  0.00000000000E+00 0. -1.
</event>
<event>
 7    1  0.3001243E-009  0.2058967E+03  0.7561462E-02  0.1144857E+00
         -1   -1    0    0    0  501 -0.00000000000E+00  0.00000000000E+00  0.13654551863E+03  0.13654551863E+03  0.00000000000E+00 0.  1.
          1   -1    0    0  501    0  0.00000000000E+00 -0.00000000000E+00 -0.37932529514E+03  0.37932529514E+03  0.00000000000E+00 0. -1.
         25    2    1    2    0    0 -0.18771485483E+03  0.10426060767E+02 -0.39292323817E+02  0.22920878389E+03  0.12508881019E+03 0.  0.
          5    1    3    3  502    0 -0.37513162734E+01  0.37378693957E+02 -0.18478143637E+02  0.42073190133E+02  0.41800000000E+01 0.  1.
         -5    1    3    3    0  502 -0.18396353855E+03 -0.26952633190E+02 -0.20814180180E+02  0.18713559375E+03  0.41800000000E+01 0.  1.
        -11    1    1    2    0    0  0.26594135137E+02 -0.61072540517E+00  0.40908923074E+00  0.26604292196E+02  0.00000000000E+00 0.  1.
         11    1    1    2    0    0  0.16112071969E+03 -0.98153353619E+01 -0.20389654192E+03  0.26005773769E+03  0.00000000000E+00 0. -1.
</event>
<event>
 7    1  0.3001243E-009  0.9983838E+02  0.7561462E-02  0.1280636E+00
          2   -1    0    0  501    0  0.00000000000E+00  0.00000000000E+00  0.14376384268E+03  0.14376384268E+03  0.00000000000E+00 0.  1.
         -2   -1    0    0    0  501 -0.00000000000E+00 -0.00000000000E+00 -0.83410911359E+02  0.83410911359E+02  0.00000000000E+00 0. -1.
         25    2    1    2    0    0 -0.69375971202E+00 -0.24626486037E+02  0.26992718306E+02  0.13032039134E+03  0.12509137636E+03 0.  0.
          5    1    3    3  502    0  0.17321328806E+02  0.47109244231E+02  0.24958353253E+02  0.56211218815E+02  0.41800000000E+01 0.  1.
         -5    1    3    3    0  502 -0.18015088518E+02 -0.71735730267E+02  0.20343650530E+01  0.74109172526E+02  0.41800000000E+01 0.  1.
        -11    1    1    2    0    0  0.34238972009E+02  0.11008944981E+01  0.42787528781E+02  0.54811420271E+02  0.00000000000E+00 0.  1.
         11    1    1    2    0    0 -0.33545212297E+02  0.23525591539E+02 -0.94273157656E+01  0.42042942426E+02  0.00000000000E+00 0. -1.
</event>
<event>
 7    1  0.3001243E-009  0.1170289E+03  0.7561462E-02  0.1248081E+00
         -2   -1    0    0    0  501 -0.00000000000E+00  0.00000000000E+00  0.37546118505E+02  0.37546118505E+02  0.00000000000E+00 0.  1.
          2   -1    0    0  501    0  0.00000000000E+00 -0.00000000000E+00 -0.57061930852E+03  0.57061930852E+03  0.00000000000E+00 0. -1.
         25    2    1    2    0    0 -0.69761065741E+02 -0.21939861406E+02 -0.41991618213E+03  0.44421407475E+03  0.12509428596E+03 0.  0.
          5    1    3    3  502    0 -0.22315395249E+02 -0.67284920554E+02 -0.29042766489E+03  0.29898317399E+03  0.41800000000E+01 0. -1.
         -5    1    3    3    0  502 -0.47445670492E+02  0.45345059147E+02 -0.12948851725E+03  0.14523090076E+03  0.41800000000E+01 0. -1.
        -11    1    1    2    0    0  0.55009724653E+02  0.44207978332E+02 -0.11732774371E+03  0.13691681634E+03  0.00000000000E+00 0. -1.
         11    1    1    2    0    0  0.14751341087E+02 -0.22268116926E+02  0.41707358278E+01  0.27034535924E+02  0.00000000000E+00 0.  1.
</event>
<event>
 7    1  0.3001243E-009  0.8762837E+02  0.7561462E-02  0.1308699E+00
         -4   -1    0    0    0  501 -0.00000000000E+00  0.00000000000E+00  0.62351075574E+03  0.62351075574E+03  0.00000000000E+00 0. -1.
          4   -1    0    0  501    0  0.00000000000E+00 -0.00000000000E+00 -0.24692712827E+02  0.24692712827E+02  0.00000000000E+00 0.  1.
         25    2    1    2    0    0  0.12185884545E+02  0.60118152630E+02  0.33260972807E+03  0.36061024044E+03  0.12509127168E+03 0.  0.
          5    1    3    3  502    0 -0.23265426786E+02  0.45391493437E+02  0.38668848682E+02  0.64143744967E+02  0.41800000000E+01 0. -1.
         -5    1    3    3    0  502  0.35451311331E+02  0.14726659193E+02  0.29394087938E+03  0.29646649548E+03  0.41800000000E+01 0. -1.
        -11    1    1    2    0    0  0.20025673015E+02 -0.46239472158E+02  0.23595049494E+03  0.24127111810E+03  0.00000000000E+00 0.  1.
         11    1    1    2    0    0 -0.32211557560E+02 -0.13878680472E+02  0.30257819910E+02  0.46322110032E+02  0.00000000000E+00 0. -1.
</event>
<event>
 7    1  0.3001243E-009  0.1728598E+03  0.7561462E-02  0.1174898E+00
         -1   -1    0    0    0  501 -0.00000000000E+00  0.00000000000E+00  0.59813939841E+03  0.59813939841E+03  0.00000000000E+00 0.  1.
          1   -1    0    0  501    0  0.00000000000E+00 -0.00000000000E+00 -0.57451558544E+02  0.57451558544E+02  0.00000000000E+00 0. -1.
         25    2    1    2    0    0  0.14215549217E+03  0.23259096154E+01  0.19953785419E+03  0.27509373866E+03  0.12509043122E+03 0.  0.
          5    1    3    3  502    0  0.23748546150E+02  0.46922842728E+02  0.22273697865E+02  0.57265492493E+02  0.41800000000E+01 0.  1.
         -5    1    3    3    0  502  0.11840694602E+03 -0.44596933113E+02  0.17726415632E+03  0.21782824616E+03  0.41800000000E+01 0.  1.
        -11    1    1    2    0    0 -0.22575631294E+02  0.34513600139E+02  0.11295496636E+03  0.12024837690E+03  0.00000000000E+00 0.  1.
         11    1    1    2    0    0 -0.11957986088E+03 -0.36839509754E+02  0.22819501932E+03  0.26024884140E+03  0.00000000000E+00 0. -1.
</event>
<event>
 7    1  0.3001243E-009  0.9835725E+02  0.7561462E-02  0.1283789E+00
         -1   -1    0    0    0  501 -0.00000000000E+00  0.00000000000E+00  0.25270225882E+03  0.25270225882E+03  0.00000000000E+00 0.  1.
          1   -1    0    0  501    0  0.00000000000E+00 -0.00000000000E+00 -0.10715370881E+03  0.10715370881E+03  0.00000000000E+00 0. -1.
         25    2    1    2    0    0 -0.56854617026E+00  0.16705628721E+02  0.18302703968E+03  0.22232097690E+03  0.12509323819E+03 0.  0.
          5    1    3    3  502    0  0.31789070830E+01  0.52764646151E+02  0.22335163293E+02  0.57537337904E+02  0.41800000000E+01 0.  1.
         -5    1    3    3    0  502 -0.37474532533E+01 -0.36059017431E+02  0.16069187639E+03  0.16478363900E+03  0.41800000000E+01 0.  1.
        -11    1    1    2    0    0  0.53178490664E+02 -0.60967961120E+01 -0.59044174638E+02  0.79695278096E+02  0.00000000000E+00 0. -1.
         11    1    1    2    0    0 -0.52609944494E+02 -0.10608832609E+02  0.21565684964E+02  0.57839712628E+02  0.00000000000E+00 0.  1.
</event>
<event>
 7    1  0.3001243E-009  0.1467213E+03  0.7561462E-02  0.1204561E+00
          1   -1    0    0  501    0  0.00000000000E+00  0.00000000000E+00  0.11329845866E+04  0.11329845866E+04  0.00000000000E+00 0. -1.
         -1   -1    0    0    0  501 -0.00000000000E+00 -0.00000000000E+00 -0.20252644249E+02  0.20252644249E+02  0.00000000000E+00 0.  1.
         25    2    1    2    0    0  0.63592899696E+02  0.84206098909E+02  0.60257137103E+03  0.62439936354E+03  0.12509030346E+03 0.  0.
          5    1    3    3  502    0 -0.12159529208E+02 -0.26217439761E+02  0.12726549062E+03  0.13057253081E+03  0.41800000000E+01 0.  1.
         -5    1    3    3    0  502  0.75752428904E+02  0.11042353867E+03  0.47530588040E+03  0.49382683273E+03  0.41800000000E+01 0.  1.
        -11    1    1    2    0    0  0.30916707686E+01 -0.58839633485E+02  0.14048985932E+03  0.15234520494E+03  0.00000000000E+00 0.  1.
         11    1    1    2    0    0 -0.66684570465E+02 -0.25366465424E+02  0.36967071204E+03  0.37649266241E+03  0.00000000000E+00 0. -1.
</event>
<event>
 7    1  0.3001243E-009  0.9556874E+02  0.7561462E-02  0.1289900E+00
         -1   -1    0    0    0  501 -0.00000000000E+00  0.00000000000E+00  0.41519247608E+02  0.41519247608E+02  0.00000000000E+00 0.  1.
          1   -1    0    0  501    0  0.00000000000E+00 -0.00000000000E+00 -0.50246362644E+03  0.50246362644E+03  0.00000000000E+00 0. -1.
         25    2    1    2    0    0  0.73519874755E+02 -0.58763120649E+02 -0.24040182688E+03  0.28686791113E+03  0.12506751672E+03 0.  0.
          5    1    3    3  502    0  0.60207574639E+02 -0.45377261586E+02 -0.25284191901E+03  0.26387602453E+03  0.41800000000E+01 0.  1.
         -5    1    3    3    0  502  0.13312300116E+02 -0.13385859063E+02  0.12440092133E+02  0.22991886602E+02  0.41800000000E+01 0.  1.
        -11    1    1    2    0    0 -0.52816660613E+02  0.29651708912E+02 -0.38884733795E+02  0.71978093904E+02  0.00000000000E+00 0.  1.
         11    1    1    2    0    0 -0.20703214142E+02  0.29111411736E+02 -0.18165781816E+03  0.18513686901E+03  0.00000000000E+00 0. -1.
</event>
<event>
 7    1  0.4849754E-009  0.1180161E+03  0.7561462E-02  0.1246406E+00
         -2   -1    0    0    0  501 -0.00000000000E+00  0.00000000000E+00  0.46462037894E+02  0.46462037894E+02  0.00000000000E+00 0.  1.
          2   -1    0    0  501    0  0.00000000000E+00 -0.00000000000E+00 -0.38490958418E+03  0.38490958418E+03  0.00000000000E+00 0. -1.
         25    2    1    2    0    0  0.40543658197E+02  0.61858556041E+02 -0.14791150587E+03  0.20735155728E+03  0.12508631245E+03 0.  0.
          5    1    3    3  502    0  0.44662871345E+02  0.98168638573E+02 -0.11824337155E+03  0.16009628662E+03  0.41800000000E+01 0.  1.
         -5    1    3    3    0  502 -0.41192131486E+01 -0.36310082531E+02 -0.29668134319E+02  0.47255270652E+02  0.41800000000E+01 0.  1.
        -11    1    1    2    0    0 -0.34292206963E+02 -0.71803634404E+02 -0.19564707783E+03  0.21120960308E+03  0.00000000000E+00 0. -1.
         11    1    1    2    0    0 -0.62514512335E+01  0.99450783624E+01  0.51110374027E+01  0.12810461720E+02  0.00000000000E+00 0.  1.
</event>
<event>
 7    1  0.3001243E-009  0.9767128E+02  0.7561462E-02  0.1285271E+00
          2   -1    0    0  501    0  0.00000000000E+00  0.00000000000E+00  0.27392133644E+03  0.27392133644E+03  0.00000000000E+00 0. -1.
         -2   -1    0    0    0  501 -0.00000000000E+00 -0.00000000000E+00 -0.64394121599E+02  0.64394121599E+02  0.00000000000E+00 0.  1.
         25    2    1    2    0    0 -0.25901460688E+02  0.67552398979E+02  0.15017203238E+03  0.20840178100E+03  0.12508177622E+03 0.  0.
          5    1    3    3  502    0  0.32068477316E+02 -0.19340571148E+01  0.99418518957E+02  0.10456405752E+03  0.41800000000E+01 0. -1.
         -5    1    3    3    0  502 -0.57969938004E+02  0.69486456094E+02  0.50753513423E+02  0.10383772348E+03  0.41800000000E+01 0. -1.
        -11    1    1    2    0    0  0.13839353898E+02 -0.34569133162E+02  0.80657796068E+02  0.88838239235E+02  0.00000000000E+00 0. -1.
         11    1    1    2    0    0  0.12062106790E+02 -0.32983265817E+02 -0.21302613605E+02  0.41075437801E+02  0.00000000000E+00 0.  1.
</event>
<event>
 7    1  0.3001243E-009  0.1613064E+03  0.7561462E-02  0.1187230E+00
         -2   -1    0    0    0  501 -0.00000000000E+00  0.00000000000E+00  0.88200269689E+02  0.88200269689E+02  0.00000000000E+00 0.  1.
          2   -1    0    0  501    0  0.00000000000E+00 -0.00000000000E+00 -0.39291431197E+03  0.39291431197E+03  0.00000000000E+00 0. -1.
         25    2    1    2    0    0  0.41081532067E+01 -0.14651922498E+03 -0.10922234359E+03  0.22149977711E+03  0.12509144939E+03 0.  0.
          5    1    3    3  502    0  0.16275093011E+02 -0.13633397728E+03 -0.13392312066E+03  0.19184552813E+03  0.41800000000E+01 0.  1.
         -5    1    3    3    0  502 -0.12166939805E+02 -0.10185247694E+02  0.24700777072E+02  0.29654248983E+02  0.41800000000E+01 0.  1.
        -11    1    1    2    0    0 -0.32519256578E+02  0.13382693639E+03 -0.17347375453E+03  0.22149558565E+03  0.00000000000E+00 0. -1.
         11    1    1    2    0    0  0.28411103372E+02  0.12692288584E+02 -0.22017944166E+02  0.38119218901E+02  0.00000000000E+00 0.  1.
</event>
<event>
 7    1  0.3001243E-009  0.5624177E+02  0.7561462E-02  0.1414316E+00
          1   -1    0    0  501    0  0.00000000000E+00  0.00000000000E+00  0.57137683266E+02  0.57137683266E+02  0.00000000000E+00 0. -1.
         -1   -1    0    0    0  501 -0.00000000000E+00 -0.00000000000E+00 -0.23005767752E+03  0.23005767752E+03  0.00000000000E+00 0.  1.
         25    2    1    2    0    0 -0.37793427515E+02  0.41846479537E+01 -0.94229012826E+02  0.16116087421E+03  0.12509143087E+03 0.  0.
          5    1    3    3  502    0  0.12002524516E+02  0.18367290216E+02  0.23536720217E+02  0.32447920476E+02  0.41800000000E+01 0.  1.
         -5    1    3    3    0  502 -0.49795952031E+02 -0.14182642262E+02 -0.11776573304E+03  0.12871295374E+03  0.41800000000E+01 0.  1.
        -11    1    1    2    0    0  0.26077229355E+02 -0.11619332476E+01 -0.99005893274E+02  0.10238915413E+03  0.00000000000E+00 0.  1.
         11    1    1    2    0    0  0.11716198160E+02 -0.30227147060E+01  0.20314911843E+02  0.23645332451E+02  0.00000000000E+00 0. -1.
</event>
<event>
 7    1  0.3001243E-009  0.1223746E+03  0.7561462E-02  0.1239230E+00
          1   -1    0    0  501    0  0.00000000000E+00  0.00000000000E+00  0.10495400557E+04  0.10495400557E+04  0.00000000000E+00 0. -1.
         -1   -1    0    0    0  501 -0.00000000000E+00 -0.00000000000E+00 -0.15319781597E+02  0.15319781597E+02  0.00000000000E+00 0.  1.
         25    2    1    2    0    0  0.44460717557E+02 -0.42455311290E+02  0.45432969295E+03  0.47522925466E+03  0.12509262859E+03 0.  0.
          5    1    3    3  502    0  0.67793823615E+02 -0.72853619466E+02  0.29749327298E+03  0.31372499463E+03  0.41800000000E+01 0. -1.
         -5    1    3    3    0  502 -0.23333106058E+02  0.30398308176E+02  0.15683641996E+03  0.16150426002E+03  0.41800000000E+01 0. -1.
        -11    1    1    2    0    0  0.15953814651E+02 -0.15954604767E+02  0.13519096709E+03  0.13706083028E+03  0.00000000000E+00 0. -1.
         11    1    1    2    0    0 -0.60414532208E+02  0.58409916057E+02  0.44469961403E+03  0.45256975232E+03  0.00000000000E+00 0.  1.
</event>
<event>
 7    1  0.3001243E-009  0.1068247E+03  0.7561462E-02  0.1266566E+00
          2   -1    0    0  501    0  0.00000000000E+00  0.00000000000E+00  0.10729020116E+04  0.10729020116E+04  0.00000000000E+00 0. -1.
         -2   -1    0    0    0  501 -0.00000000000E+00 -0.00000000000E+00 -0.15813571132E+02  0.15813571132E+02  0.00000000000E+00 0.  1.
         25    2    1    2    0    0 -0.42176627815E+02 -0.10225733675E+02  0.81411061296E+03  0.82480713272E+03  0.12508909820E+03 0.  0.
          5    1    3    3  502    0  0.18797223578E+02  0.35328262978E+02  0.12092790025E+03  0.12744587572E+03  0.41800000000E+01 0.  1.
         -5    1    3    3    0  502 -0.60973851393E+02 -0.45553996652E+02  0.69318271270E+03  0.69736125699E+03  0.41800000000E+01 0.  1.
        -11    1    1    2    0    0  0.65116318848E+02 -0.10876220849E+02  0.20140224493E+03  0.21194643527E+03  0.00000000000E+00 0.  1.
         11    1    1    2    0    0 -0.22939691034E+02  0.21101954524E+02  0.41575582577E+02  0.51962014742E+02  0.00000000000E+00 0. -1.
</event>
<event>
 7    1  0.3001243E-009  0.1079541E+03  0.7561462E-02  0.1264406E+00
         -2   -1    0    0    0  501 -0.00000000000E+00  0.00000000000E+00  0.16063794497E+02  0.16063794497E+02  0.00000000000E+00 0.  1.
          2   -1    0    0  501    0  0.00000000000E+00 -0.00000000000E+00 -0.10700696910E+04  0.10700696910E+04  0.00000000000E+00 0. -1.
         25    2    1    2    0    0 -0.11559166110E+02 -0.44843837687E+02 -0.80832015972E+03  0.81925178013E+03  0.12508962603E+03 0.  0.
          5    1    3    3  502    0  0.53491354594E+02 -0.11577812122E+02 -0.23754473509E+03  0.24380390547E+03  0.41800000000E+01 0. -1.
         -5    1    3    3    0  502 -0.65050520705E+02 -0.33266025565E+02 -0.57077542463E+03  0.57544787467E+03  0.41800000000E+01 0. -1.
        -11    1    1    2    0    0  0.37437323741E+02  0.16376480860E+01 -0.18133214159E+03  0.18516365916E+03  0.00000000000E+00 0.  1.
         11    1    1    2    0    0 -0.25878157630E+02  0.43206189601E+02 -0.64353595219E+02  0.81718046230E+02  0.00000000000E+00 0. -1.
</event>
<event>
 7    1  0.3001243E-009  0.9480704E+02  0.7561462E-02  0.1291611E+00
         -2   -1    0    0    0  501 -0.00000000000E+00  0.00000000000E+00  0.73058260993E+03  0.73058260993E+03  0.00000000000E+00 0.  1.
          2   -1    0    0  501    0  0.00000000000E+00 -0.00000000000E+00 -0.23671224735E+02  0.23671224735E+02  0.00000000000E+00 0. -1.
         25    2    1    2    0    0 -0.58580419436E+02 -0.46864204607E+02  0.39925435381E+03  0.42506474041E+03  0.12509226710E+03 0.  0.
          5    1    3    3  502    0 -0.17774629187E+01  0.19340984554E+02  0.25954772768E+03  0.26030698877E+03  0.41800000000E+01 0.  1.
         -5    1    3    3    0  502 -0.56802956517E+02 -0.66205189161E+02  0.13970662613E+03  0.16475775164E+03  0.41800000000E+01 0.  1.
        -11    1    1    2    0    0  0.10373595930E+02  0.29340127499E+02  0.19995313286E+02  0.36990094993E+02  0.00000000000E+00 0. -1.
         11    1    1    2    0    0  0.48206823506E+02  0.17524077107E+02  0.28766171810E+03  0.29219899926E+03  0.00000000000E+00 0.  1.
</event>
<event>
 7    1  0.3001243E-009  0.1028278E+03  0.7561462E-02  0.1274459E+00
          3   -1    0    0  501    0  0.00000000000E+00  0.00000000000E+00  0.78386099646E+02  0.78386099646E+02  0.00000000000E+00 0. -1.
         -3   -1    0    0    0  501 -0.00000000000E+00 -0.00000000000E+00 -0.36648150691E+03  0.36648150691E+03  0.00000000000E+00 0.  1.
         25    2    1    2    0    0 -0.77641690246E+02  0.45575160923E+02 -0.27691994031E+03  0.31691870706E+03  0.12508991240E+03 0.  0.
          5    1    3    3  502    0 -0.28497689852E+02  0.22839129696E+02 -0.25614825562E+03  0.25877238150E+03  0.41800000000E+01 0.  1.
         -5    1    3    3    0  502 -0.49144000394E+02  0.22736031227E+02 -0.20771684694E+02  0.58146325556E+02  0.41800000000E+01 0.  1.
        -11    1    1    2    0    0  0.56102315801E+02  0.81627946706E+01  0.22475303429E+02  0.60985574682E+02  0.00000000000E+00 0. -1.
         11    1    1    2    0    0  0.21539374445E+02 -0.53737955594E+02 -0.33650770377E+02  0.66963324812E+02  0.00000000000E+00 0.  1.
</event>
<event>
 7    1  0.3451545E-009  0.8533539E+02  0.7561462E-02  0.1314558E+00
          2   -1    0    0  501    0  0.00000000000E+00  0.00000000000E+00  0.32452855738E+03  0.32452855738E+03  0.00000000000E+00 0. -1.
         -2   -1    0    0    0  501 -0.00000000000E+00 -0.00000000000E+00 -0.48965333533E+02  0.48965333533E+02  0.00000000000E+00 0.  1.
         25    2    1    2    0    0  0.50530727852E+02 -0.32954060822E+02  0.18593867345E+03  0.23207647260E+03  0.12508786618E+03 0.  0.
          5    1    3    3  502    0 -0.26553269422E+02 -0.28518643709E+01 -0.15696375883E+01  0.27076658020E+02  0.41800000000E+01 0. -1.
         -5    1    3    3    0  502  0.77083997274E+02 -0.30102196451E+02  0.18750831104E+03  0.20499981458E+03  0.41800000000E+01 0. -1.
        -11    1    1    2    0    0 -0.31132343144E+02  0.15927416733E+02 -0.11685737967E+02  0.36870880993E+02  0.00000000000E+00 0.  1.
         11    1    1    2    0    0 -0.19398384708E+02  0.17026644089E+02  0.10131028836E+03  0.10454653732E+03  0.00000000000E+00 0. -1.
</event>
<event>
 7    1  0.3001243E-009  0.1049372E+03  0.7561462E-02  0.1270243E+00
          4   -1    0    0  501    0  0.00000000000E+00  0.00000000000E+00  0.11701913172E+03  0.11701913172E+03  0.00000000000E+00 0. -1.
         -4   -1    0    0    0  501 -0.00000000000E+00 -0.00000000000E+00 -0.12062229843E+03  0.12062229843E+03  0.00000000000E+00 0.  1.
         25    2    1    2    0    0 -0.28078111480E+02 -0.36674900295E+02  0.15883029982E+01  0.13335582568E+03  0.12509126620E+03 0.  0.
          5    1    3    3  502    0 -0.65233363721E+02 -0.35838200638E+02  0.35774502531E+02  0.82686491029E+02  0.41800000000E+01 0. -1.
         -5    1    3    3    0  502  0.37155252241E+02 -0.83669965713E+00 -0.34186199533E+02  0.50669334650E+02  0.41800000000E+01 0. -1.
        -11    1    1    2    0    0  0.58359968120E+02  0.13777123823E+02  0.14248026979E+02  0.61633605221E+02  0.00000000000E+00 0.  1.
         11    1    1    2    0    0 -0.30281856640E+02  0.22897776472E+02 -0.19439496684E+02  0.42651999253E+02  0.00000000000E+00 0. -1.
</event>
<event>
 7    1  0.3001243E-009  0.5175563E+02  0.7561462E-02  0.1436096E+00
         -3   -1    0    0    0  501 -0.00000000000E+00  0.00000000000E+00  0.52353999305E+03  0.52353999305E+03  0.00000000000E+00 0.  1.
          3   -1    0    0  501    0  0.00000000000E+00 -0.00000000000E+00 -0.24921181863E+02  0.24921181863E+02  0.00000000000E+00 0. -1.
         25    2    1    2    0    0  0.37722197200E+02  0.65663621152E+01  0.28715100956E+03  0.31554597863E+03  0.12508989194E+03 0.  0.
          5    1    3    3  502    0  0.21514843623E+02  0.13493850037E+02  0.29477197654E+03  0.29589349948E+03  0.41800000000E+01 0.  1.
         -5    1    3    3    0  502  0.16207353577E+02 -0.69274879221E+01 -0.76209669779E+01  0.19652479146E+02  0.41800000000E+01 0.  1.
        -11    1    1    2    0    0 -0.48312343181E+02 -0.27104264514E+01  0.21556051550E+03  0.22092479434E+03  0.00000000000E+00 0.  1.
         11    1    1    2    0    0  0.10590145980E+02 -0.38559356638E+01 -0.40927138723E+01  0.11990401935E+02  0.00000000000E+00 0. -1.
</event>
<event>
 7    1  0.3001243E-009  0.1316781E+03  0.7561462E-02  0.1224987E+00
         -2   -1    0    0    0  501 -0.00000000000E+00  0.00000000000E+00  0.30007461660E+02  0.30007461660E+02  0.00000000000E+00 0.  1.
          2   -1    0    0  501    0  0.00000000000E+00 -0.00000000000E+00 -0.59213710846E+03  0.59213710846E+03  0.00000000000E+00 0. -1.
         25    2    1    2    0    0 -0.26795577048E+02 -0.73551085196E+02 -0.28585743376E+03  0.32169641742E+03  0.12508536071E+03 0.  0.
          5    1    3    3  502    0 -0.47058322679E+02  0.19306510336E+02 -0.79599924364E+02  0.94556054452E+02  0.41800000000E+01 0. -1.
         -5    1    3    3    0  502  0.20262745631E+02 -0.92857595532E+02 -0.20625750939E+03  0.22714036297E+03  0.41800000000E+01 0. -1.
        -11    1    1    2    0    0 -0.19576478975E+01 -0.19599992367E+02 -0.61703583799E+02  0.64771323436E+02  0.00000000000E+00 0. -1.
         11    1    1    2    0    0  0.28753224945E+02  0.93151077564E+02 -0.21456862925E+03  0.23567682927E+03  0.00000000000E+00 0.  1.
</event>
<event>
 7    1  0.3001243E-009  0.1206507E+03  0.7561462E-02  0.1242027E+00
          4   -1    0    0  501    0  0.00000000000E+00  0.00000000000E+00  0.12539638474E+03  0.12539638474E+03  0.00000000000E+00 0.  1.
         -4   -1    0    0    0  501 -0.00000000000E+00 -0.00000000000E+00 -0.39453350448E+03  0.39453350448E+03  0.00000000000E+00 0. -1.
         25    2    1    2    0    0  0.40231184318E+02 -0.99994199339E+02 -0.32766192629E+03  0.36691373557E+03  0.12508382517E+03 0.  0.
          5    1    3    3  502    0  0.51454842276E+02 -0.31337891118E+02 -0.26936852108E+03  0.27605531468E+03  0.41800000000E+01 0.  1.
         -5    1    3    3    0  502 -0.11223657958E+02 -0.68656308220E+02 -0.58293405207E+02  0.90858420892E+02  0.41800000000E+01 0.  1.
        -11    1    1    2    0    0 -0.19110241223E+02  0.17000267954E+02  0.62245884712E+02  0.67296066703E+02  0.00000000000E+00 0.  1.
         11    1    1    2    0    0 -0.21120943096E+02  0.82993931384E+02 -0.37210781691E+01  0.85720086949E+02  0.00000000000E+00 0. -1.
</event>
<event>
 7    1  0.3001243E-009  0.7495494E+02  0.7561462E-02  0.1344011E+00
          2   -1    0    0  501    0  0.00000000000E+00  0.00000000000E+00  0.17762081823E+03  0.17762081823E+03  0.00000000000E+00 0. -1.
         -2   -1    0    0    0  501 -0.00000000000E+00 -0.00000000000E+00 -0.80396566273E+02  0.80396566273E+02  0.00000000000E+00 0.  1.
         25    2    1    2    0    0  0.12562618236E+02 -0.26553223418E+02  0.86666987574E+01  0.12878593480E+03  0.12509121586E+03 0.  0.
          5    1    3    3  502    0 -0.41618209955E+02 -0.18965854209E+02  0.43936951260E+02  0.63558690293E+02  0.41800000000E+01 0.  1.
         -5    1    3    3    0  502  0.54180828192E+02 -0.75873692089E+01 -0.35270252502E+02  0.65227244512E+02  0.41800000000E+01 0.  1.
        -11    1    1    2    0    0 -0.82511702142E+01 -0.96264147462E+01 -0.14888970437E+02  0.19555845966E+02  0.00000000000E+00 0.  1.
         11    1    1    2    0    0 -0.43114480222E+01  0.36179638164E+02  0.10344652364E+03  0.10967560374E+03  0.00000000000E+00 0. -1.
</event>
<event>
 7    1  0.3001243E-009  0.1671059E+03  0.7561462E-02  0.1180900E+00
         -2   -1    0    0    0  501 -0.00000000000E+00  0.00000000000E+00  0.48453968633E+03  0.48453968633E+03  0.00000000000E+00 0.  1.
          2   -1    0    0  501    0  0.00000000000E+00 -0.00000000000E+00 -0.73493336032E+02  0.73493336032E+02  0.00000000000E+00 0. -1.
         25    2    1    2    0    0 -0.91809997477E+02  0.12110791346E+03  0.26846782697E+03  0.33289497168E+03  0.12509150936E+03 0.  0.
          5    1    3    3  502    0 -0.94425616893E+01  0.53961226280E+02  0.19759889063E+03  0.20509453891E+03  0.41800000000E+01 0. -1.
         -5    1    3    3    0  502 -0.82367435788E+02  0.67146687184E+02  0.70868936334E+02  0.12780043277E+03  0.41800000000E+01 0. -1.
        -11    1    1    2    0    0  0.57563915104E+02 -0.12317275648E+02  0.61980881582E+02  0.85480695383E+02  0.00000000000E+00 0.  1.
         11    1    1    2    0    0  0.34246082373E+02 -0.10879063782E+03  0.80597641752E+02  0.13965735530E+03  0.00000000000E+00 0. -1.
</event>
<event>
 7    1  0.3001243E-009  0.1714115E+03  0.7561462E-02  0.1176384E+00
         -2   -1    0    0    0  501 -0.00000000000E+00  0.00000000000E+00  0.40851308987E+02  0.40851308987E+02  0.00000000000E+00 0.  1.
          2   -1    0    0  501    0  0.00000000000E+00 -0.00000000000E+00 -0.79180847767E+03  0.79180847767E+03  0.00000000000E+00 0. -1.
         25    2    1    2    0    0 -0.13635087140E+03 -0.44402103687E+02 -0.42165698118E+03  0.46260661849E+03  0.12508863558E+03 0.  0.
          5    1    3    3  502    0 -0.17049214298E+02 -0.58185852455E+02 -0.80237160737E+02  0.10065656212E+03  0.41800000000E+01 0.  1.
         -5    1    3    3    0  502 -0.11930165710E+03  0.13783748768E+02 -0.34141982045E+03  0.36195005638E+03  0.41800000000E+01 0.  1.
        -11    1    1    2    0    0  0.59583482023E+02 -0.18760232754E+02 -0.78857507886E+02  0.10060141258E+03  0.00000000000E+00 0.  1.
         11    1    1    2    0    0  0.76767389373E+02  0.63162336441E+02 -0.25044267961E+03  0.26945175558E+03  0.00000000000E+00 0. -1.
</event>
<event>
 7    1  0.3001243E-009  0.1733312E+03  0.7561462E-02  0.1174418E+00
          2   -1    0    0  501    0  0.00000000000E+00  0.00000000000E+00  0.19525325264E+03  0.19525325264E+03  0.00000000000E+00 0.  1.
         -2   -1    0    0    0  501 -0.00000000000E+00 -0.00000000000E+00 -0.21620667172E+03  0.21620667172E+03  0.00000000000E+00 0. -1.
         25    2    1    2    0    0 -0.13005845194E+03  0.64929977863E+02 -0.10720972723E+03  0.21971018096E+03  0.12509010777E+03 0.  0.
          5    1    3    3  502    0 -0.15048188788E+03  0.57032111547E+02 -0.11299447798E+03  0.19667914170E+03  0.41800000000E+01 0. -1.
         -5    1    3    3    0  502  0.20423435944E+02  0.78978663164E+01  0.57847507527E+01  0.23031039260E+02  0.41800000000E+01 0. -1.
        -11    1    1    2    0    0  0.17341029792E+02 -0.45912405459E+02  0.54010858853E+02  0.72978306114E+02  0.00000000000E+00 0.  1.
         11    1    1    2    0    0  0.11271742215E+03 -0.19017572404E+02  0.32245449291E+02  0.11877143729E+03  0.00000000000E+00 0. -1.
</event>
<event>
 7    1  0.3001243E-009  0.1201397E+03  0.7561462E-02  0.1242867E+00
          2   -1    0    0  501    0  0.00000000000E+00  0.00000000000E+00  0.10181551949E+04  0.10181551949E+04  0.00000000000E+00 0.  1.
         -2   -1    0    0    0  501 -0.00000000000E+00 -0.00000000000E+00 -0.24269887872E+02  0.24269887872E+02  0.00000000000E+00 0. -1.
         25    2    1    2    0    0  0.96491739900E+02  0.46818659335E+02  0.40010274748E+03  0.43270981201E+03  0.12511167067E+03 0.  0.
          5    1    3    3  502    0  0.78153050004E+02  0.11353861118E+02  0.89132237428E+02  0.11915887519E+03  0.41800000000E+01 0. -1.
         -5    1    3    3    0  502  0.18338689896E+02  0.35464798217E+02  0.31097051005E+03  0.31355093682E+03  0.41800000000E+01 0. -1.
        -11    1    1    2    0    0  0.24597421577E+01 -0.17748532729E+02  0.20488133672E+02  0.27218088964E+02  0.00000000000E+00 0. -1.
         11    1    1    2    0    0 -0.98951482058E+02 -0.29070126606E+02  0.57329442591E+03  0.58249718183E+03  0.00000000000E+00 0.  1.
</event>
<event>
 7    1  0.3360782E-009  0.1376902E+03  0.7561462E-02  0.1216471E+00
          1   -1    0    0  501    0  0.00000000000E+00  0.00000000000E+00  0.72909090308E+03  0.72909090308E+03  0.00000000000E+00 0. -1.
         -1   -1    0    0    0  501 -0.00000000000E+00 -0.00000000000E+00 -0.43005279096E+02  0.43005279096E+02  0.00000000000E+00 0.  1.
         25    2    1    2    0    0 -0.38361908771E+02  0.96246414216E+02  0.56796428691E+03  0.59073273541E+03  0.12508687057E+03 0.  0.
          5    1    3    3  502    0  0.41387002104E+02  0.49630135796E+02  0.16403957804E+03  0.17635898017E+03  0.41800000000E+01 0.  1.
         -5    1    3    3    0  502 -0.79748910875E+02  0.46616278420E+02  0.40392470887E+03  0.41437375525E+03  0.41800000000E+01 0.  1.
        -11    1    1    2    0    0  0.40298714367E+02 -0.26168432701E+02  0.50385971079E+01  0.48313152562E+02  0.00000000000E+00 0.  1.
         11    1    1    2    0    0 -0.19368055964E+01 -0.70077981515E+02  0.11308273997E+03  0.13305029420E+03  0.00000000000E+00 0. -1.
</event>
<event>
 7    1  0.3001243E-009  0.1115489E+03  0.7561462E-02  0.1257728E+00
          2   -1    0    0  501    0  0.00000000000E+00  0.00000000000E+00  0.28199649597E+03  0.28199649597E+03  0.00000000000E+00 0. -1.
         -2   -1    0    0    0  501 -0.00000000000E+00 -0.00000000000E+00 -0.55293680682E+02  0.55293680682E+02  0.00000000000E+00 0.  1.
         25    2    1    2    0    0  0.12129674959E+02 -0.58488345703E+02  0.14888057126E+03  0.20342307155E+03  0.12508999137E+03 0.  0.
          5    1    3    3  502    0  0.20496998005E+02 -0.90884127631E+02  0.14057281773E+03  0.16869570553E+03  0.41800000000E+01 0.  1.
         -5    1    3    3    0  502 -0.83673230461E+01  0.32395781928E+02  0.83077535390E+01  0.34727366018E+02  0.41800000000E+01 0.  1.
        -11    1    1    2    0    0 -0.42019762154E+02  0.49449274544E+02  0.79468315821E+02  0.10259680494E+03  0.00000000000E+00 0. -1.
         11    1    1    2    0    0  0.29890087195E+02  0.90390711587E+01 -0.16460717935E+01  0.31270300163E+02  0.00000000000E+00 0.  1.
</event>
<event>
 7    1  0.3001243E-009  0.1471559E+03  0.7561462E-02  0.1204012E+00
         -1   -1    0    0    0  501 -0.00000000000E+00  0.00000000000E+00  0.22591074656E+03  0.22591074656E+03  0.00000000000E+00 0.  1.
          1   -1    0    0  501    0  0.00000000000E+00 -0.00000000000E+00 -0.13410020849E+03  0.13410020849E+03  0.00000000000E+00 0. -1.
         25    2    1    2    0    0 -0.12397890216E+03 -0.44813272888E+02  0.50349817541E+02  0.18858098900E+03  0.12509471484E+03 0.  0.
          5    1    3    3  502    0 -0.50954894295E+02 -0.46329461318E+01  0.84125677862E+02  0.98551851927E+02  0.41800000000E+01 0.  1.
         -5    1    3    3    0  502 -0.73024007861E+02 -0.40180326756E+02 -0.33775860321E+02  0.90029137077E+02  0.41800000000E+01 0.  1.
        -11    1    1    2    0    0  0.10714013361E+03 -0.46814473835E+01  0.43752478183E+01  0.10733157491E+03  0.00000000000E+00 0. -1.
         11    1    1    2    0    0  0.16838768550E+02  0.49494720271E+02  0.37085472706E+02  0.64098391141E+02  0.00000000000E+00 0.  1.
</event>
<event>
 7    1  0.3001243E-009  0.9268092E+02  0.7561462E-02  0.1296486E+00
          2   -1    0    0  501    0  0.00000000000E+00  0.00000000000E+00  0.18330229528E+04  0.18330229528E+04  0.00000000000E+00 0.  1.
         -2   -1    0    0    0  501 -0.00000000000E+00 -0.00000000000E+00 -0.10693663923E+02  0.10693663923E+02  0.00000000000E+00 0. -1.
         25    2    1    2    0    0 -0.55500525631E+02  0.77504127311E+01  0.14697999587E+04  0.14761764548E+04  0.12507849533E+03 0.  0.
          5    1    3    3  502    0 -0.68939861194E+02  0.15814244464E+02  0.39825495213E+03  0.40450868234E+03  0.41800000000E+01 0.  1.
         -5    1    3    3    0  502  0.13439335563E+02 -0.80638317324E+01  0.10715450066E+04  0.10716677725E+04  0.41800000000E+01 0.  1.
        -11    1    1    2    0    0  0.75634007384E+01  0.33930637995E+02  0.18773167044E+03  0.19092321313E+03  0.00000000000E+00 0.  1.
         11    1    1    2    0    0  0.47937124892E+02 -0.41681050726E+02  0.16479765978E+03  0.17661694879E+03  0.00000000000E+00 0. -1.
</event>
<event>
 7    1  0.3001243E-009  0.6836456E+02  0.7561462E-02  0.1365744E+00
         -2   -1    0    0    0  501 -0.00000000000E+00  0.00000000000E+00  0.95768303318E+02  0.95768303318E+02  0.00000000000E+00 0.  1.
          2   -1    0    0  501    0  0.00000000000E+00 -0.00000000000E+00 -0.16978325396E+03  0.16978325396E+03  0.00000000000E+00 0. -1.
         25    2    1    2    0    0  0.36219940440E+02  0.40923762762E+02 -0.80835698342E+02  0.15864478256E+03  0.12508844256E+03 0.  0.
          5    1    3    3  502    0  0.27177311416E+01  0.13831017167E+02 -0.10703860864E+03  0.10804359878E+03  0.41800000000E+01 0.  1.
         -5    1    3    3    0  502  0.33502209299E+02  0.27092745594E+02  0.26202910297E+02  0.50601183778E+02  0.41800000000E+01 0.  1.
        -11    1    1    2    0    0 -0.43123796810E+02 -0.50833399442E+02  0.35689332830E+02  0.75613655036E+02  0.00000000000E+00 0.  1.
         11    1    1    2    0    0  0.69038563702E+01  0.99096366799E+01 -0.28868585127E+02  0.31293119677E+02  0.00000000000E+00 0. -1.
</event>
<event>
 7    1  0.3001243E-009  0.1240246E+03  0.7561462E-02  0.1236602E+00
          2   -1    0    0  501    0  0.00000000000E+00  0.00000000000E+00  0.70731342789E+03  0.70731342789E+03  0.00000000000E+00 0. -1.
         -2   -1    0    0    0  501 -0.00000000000E+00 -0.00000000000E+00 -0.27422467112E+02  0.27422467112E+02  0.00000000000E+00 0.  1.
         25    2    1    2    0    0 -0.86954375185E+02 -0.60673297460E+01  0.36672185802E+03  0.39715191302E+03  0.12508734951E+03 0.  0.
          5    1    3    3  502    0 -0.65331981320E+02 -0.43997330565E+02  0.10260997270E+03  0.12942299555E+03  0.41800000000E+01 0. -1.
         -5    1    3    3    0  502 -0.21622393864E+02  0.37930000819E+02  0.26411188532E+03  0.26772891746E+03  0.41800000000E+01 0. -1.
        -11    1    1    2    0    0  0.84878502862E+01 -0.35510882473E+02  0.75443831677E+02  0.83814307338E+02  0.00000000000E+00 0.  1.
         11    1    1    2    0    0  0.78466524898E+02  0.41578212218E+02  0.23772527107E+03  0.25376967464E+03  0.00000000000E+00 0. -1.
</event>
<event>
 7    1  0.3001243E-009  0.1678080E+03  0.7561462E-02  0.1180153E+00
         -2   -1    0    0    0  501 -0.00000000000E+00  0.00000000000E+00  0.17518261155E+03  0.17518261155E+03  0.00000000000E+00 0.  1.
          2   -1    0    0  501    0  0.00000000000E+00 -0.00000000000E+00 -0.19077076938E+03  0.19077076938E+03  0.00000000000E+00 0. -1.
         25    2    1    2    0    0 -0.14567950502E+03  0.18838809599E+02 -0.96179893194E+01  0.19317349646E+03  0.12508427193E+03 0.  0.
          5    1    3    3  502    0 -0.24433564584E+02  0.50573897516E+02 -0.33482267775E+02  0.65522918460E+02  0.41800000000E+01 0. -1.
         -5    1    3    3    0  502 -0.12124594043E+03 -0.31735087917E+02  0.23864278455E+02  0.12765057800E+03  0.41800000000E+01 0. -1.
        -11    1    1    2    0    0  0.11422112809E+03 -0.33718107638E+02  0.29913479571E+02  0.12279329438E+03  0.00000000000E+00 0.  1.
         11    1    1    2    0    0  0.31458376930E+02  0.14879298039E+02 -0.35883648090E+02  0.49986590097E+02  0.00000000000E+00 0. -1.
</event>
<event>
 7    1  0.3345325E-009  0.1303327E+03  0.7561462E-02  0.1226963E+00
         -1   -1    0    0    0  501 -0.00000000000E+00  0.00000000000E+00  0.20554539247E+03  0.20554539247E+03  0.00000000000E+00 0.  1.
          1   -1    0    0  501    0  0.00000000000E+00 -0.00000000000E+00 -0.13451590116E+03  0.13451590116E+03  0.00000000000E+00 0. -1.
         25    2    1    2    0    0 -0.91109350079E+00 -0.12521566081E+03  0.50372120373E+02  0.18402327611E+03  0.12508966318E+03 0.  0.
          5    1    3    3  502    0 -0.24503867154E+02 -0.49661328422E+02  0.81705325819E+02  0.98792305942E+02  0.41800000000E+01 0.  1.
         -5    1    3    3    0  502  0.23592773654E+02 -0.75554332390E+02 -0.31333205446E+02  0.85230970164E+02  0.41800000000E+01 0.  1.
        -11    1    1    2    0    0  0.67067665266E+01  0.80296587783E+02  0.56389922293E+02  0.98348086219E+02  0.00000000000E+00 0.  1.
         11    1    1    2    0    0 -0.57956730258E+01  0.44919073029E+02 -0.35732551361E+02  0.57689931308E+02  0.00000000000E+00 0. -1.
</event>
<event>
 7    1  0.3001243E-009  0.1579587E+03  0.7561462E-02  0.1191021E+00
         -3   -1    0    0    0  501 -0.00000000000E+00  0.00000000000E+00  0.47157097022E+03  0.47157097022E+03  0.00000000000E+00 0.  1.
          3   -1    0    0  501    0  0.00000000000E+00 -0.00000000000E+00 -0.68056879448E+02  0.68056879448E+02  0.00000000000E+00 0. -1.
         25    2    1    2    0    0 -0.91308794656E+02  0.97839971740E+02  0.27951710861E+03  0.33419473365E+03  0.12508537061E+03 0.  0.
          5    1    3    3  502    0 -0.67573047958E+02 -0.46392411560E+01  0.16620927669E+03  0.17952892644E+03  0.41800000000E+01 0.  1.
         -5    1    3    3    0  502 -0.23735746699E+02  0.10247921290E+03  0.11330783192E+03  0.15466580722E+03  0.41800000000E+01 0.  1.
        -11    1    1    2    0    0 -0.54921676868E+00 -0.26418892004E+02  0.74388682334E+02  0.78942609238E+02  0.00000000000E+00 0.  1.
         11    1    1    2    0    0  0.91858011425E+02 -0.71421079736E+02  0.49608299825E+02  0.12649050678E+03  0.00000000000E+00 0. -1.
</event>
<event>
 7    1  0.3001243E-009  0.1049713E+03  0.7561462E-02  0.1270176E+00
          2   -1    0    0  501    0  0.00000000000E+00  0.00000000000E+00  0.43118921906E+03  0.43118921906E+03  0.00000000000E+00 0. -1.
         -2   -1    0    0    0  501 -0.00000000000E+00 -0.00000000000E+00 -0.40101097714E+02  0.40101097714E+02  0.00000000000E+00 0.  1.
         25    2    1    2    0    0 -0.73682931093E+02  0.11533873680E+02  0.21393439521E+03  0.25879976602E+03  0.12508872395E+03 0.  0.
          5    1    3    3  502    0 -0.97616177818E+02  0.29424445162E+02  0.10769496185E+03  0.14835900159E+03  0.41800000000E+01 0. -1.
         -5    1    3    3    0  502  0.23933246725E+02 -0.17890571482E+02  0.10623943336E+03  0.11044076443E+03  0.41800000000E+01 0. -1.
        -11    1    1    2    0    0  0.30682540681E+02 -0.15813139548E+02  0.16360039000E+03  0.16720215696E+03  0.00000000000E+00 0. -1.
         11    1    1    2    0    0  0.43000390412E+02  0.42792658681E+01  0.13553336137E+02  0.45288393793E+02  0.00000000000E+00 0.  1.
</event>
<event>
 7    1  0.3001243E-009  0.1124059E+03  0.7561462E-02  0.1256178E+00
          2   -1    0    0  501    0  0.00000000000E+00  0.00000000000E+00  0.24835970301E+03  0.24835970301E+03  0.00000000000E+00 0. -1.
         -2   -1    0    0    0  501 -0.00000000000E+00 -0.00000000000E+00 -0.58222880371E+02  0.58222880371E+02  0.00000000000E+00 0.  1.
         25    2    1    2    0    0  0.20403372721E+02  0.25183694740E+02  0.15850159531E+03  0.20450064192E+03  0.12508893129E+03 0.  0.
          5    1    3    3  502    0  0.51576935741E+02  0.61329180210E+02  0.86243899631E+02  0.11780038739E+03  0.41800000000E+01 0.  1.
         -5    1    3    3    0  502 -0.31173563019E+02 -0.36145485469E+02  0.72257695679E+02  0.86700254532E+02  0.41800000000E+01 0.  1.
        -11    1    1    2    0    0  0.34121367714E+02 -0.24708453977E+02  0.18404885885E+02  0.45972983991E+02  0.00000000000E+00 0.  1.
         11    1    1    2    0    0 -0.54524740435E+02 -0.47524076266E+00  0.13230341442E+02  0.56108957466E+02  0.00000000000E+00 0. -1.
</event>
<event>
 7    1  0.3001243E-009  0.1197526E+03  0.7561462E-02  0.1243506E+00
          2   -1    0    0  501    0  0.00000000000E+00  0.00000000000E+00  0.10586120232E+03  0.10586120232E+03  0.00000000000E+00 0. -1.
         -2   -1    0    0    0  501 -0.00000000000E+00 -0.00000000000E+00 -0.19081215181E+03  0.19081215181E+03  0.00000000000E+00 0.  1.
         25    2    1    2    0    0 -0.79766267621E+02 -0.70008524772E+01 -0.92343925019E+02  0.17489192397E+03  0.12509242662E+03 0.  0.
          5    1    3    3  502    0 -0.77851222148E+02 -0.57372527574E+02 -0.70732643375E+02  0.11988744283E+03  0.41800000000E+01 0. -1.
         -5    1    3    3    0  502 -0.19150454733E+01  0.50371675097E+02 -0.21611281644E+02  0.55004481140E+02  0.41800000000E+01 0. -1.
        -11    1    1    2    0    0  0.42532406628E+02 -0.19131118051E+02 -0.35999801234E+02  0.58915116738E+02  0.00000000000E+00 0.  1.
         11    1    1    2    0    0  0.37233860994E+02  0.26131970529E+02  0.43392776766E+02  0.62866313425E+02  0.00000000000E+00 0. -1.
</event>
<event>
 7    1  0.3001243E-009  0.1154621E+03  0.7561462E-02  0.1250777E+00
         -1   -1    0    0    0  501 -0.00000000000E+00  0.00000000000E+00  0.12785537316E+03  0.12785537316E+03  0.00000000000E+00 0.  1.
          1   -1    0    0  501    0  0.00000000000E+00 -0.00000000000E+00 -0.16002845108E+03  0.16002845108E+03  0.00000000000E+00 0. -1.
         25    2    1    2    0    0 -0.29136240317E+02  0.62772017809E+02 -0.79799120367E+02  0.16372118532E+03  0.12508988845E+03 0.  0.
          5    1    3    3  502    0  0.34277182144E+01  0.79488513511E+02 -0.43893966501E+01  0.79792933492E+02  0.41800000000E+01 0.  1.
         -5    1    3    3    0  502 -0.32563958532E+02 -0.16716495702E+02 -0.75409723717E+02  0.83928251828E+02  0.41800000000E+01 0.  1.
        -11    1    1    2    0    0  0.13420818527E+01 -0.81103878835E+02  0.29960577189E+02  0.86471246847E+02  0.00000000000E+00 0.  1.
         11    1    1    2    0    0  0.27794158465E+02  0.18331861026E+02  0.17665465259E+02  0.37691392071E+02  0.00000000000E+00 0. -1.
</event>
<event>
 7    1  0.3001243E-009  0.1027717E+03  0.7561462E-02  0.1274573E+00
         -1   -1    0    0    0  501 -0.00000000000E+00  0.00000000000E+00  0.23847899858E+02  0.23847899858E+02  0.00000000000E+00 0.  1.
          1   -1    0    0  501    0  0.00000000000E+00 -0.00000000000E+00 -0.70665009375E+03  0.70665009375E+03  0.00000000000E+00 0. -1.
         25    2    1    2    0    0  0.36349689922E+02  0.60752703832E+02 -0.33197759850E+03  0.36175802926E+03  0.12509018684E+03 0.  0.
          5    1    3    3  502    0  0.52780369625E+02  0.35561708419E+02 -0.32419829013E+03  0.33041247895E+03  0.41800000000E+01 0.  1.
         -5    1    3    3    0  502 -0.16430679703E+02  0.25190995413E+02 -0.77793083752E+01  0.31345550309E+02  0.41800000000E+01 0.  1.
        -11    1    1    2    0    0 -0.35821334631E+02 -0.82345448538E+02 -0.30728153205E+03  0.32013416071E+03  0.00000000000E+00 0. -1.
         11    1    1    2    0    0 -0.52835529084E+00  0.21592744706E+02 -0.43543063343E+02  0.48605803650E+02  0.00000000000E+00 0.  1.
</event>
<event>
 7    1  0.3001243E-009  0.1167559E+03  0.7561462E-02  0.1248547E+00
         -2   -1    0    0    0  501 -0.00000000000E+00  0.00000000000E+00  0.10871145256E+03  0.10871145256E+03  0.00000000000E+00 0.  1.
          2   -1    0    0  501    0  0.00000000000E+00 -0.00000000000E+00 -0.19624869602E+03  0.19624869602E+03  0.00000000000E+00 0. -1.
         25    2    1    2    0    0  0.39751294524E+02  0.83197770964E+02 -0.13115098915E+02  0.15595358415E+03  0.12508988801E+03 0.  0.
          5    1    3    3  502    0  0.81689669426E+00  0.94253161869E+02 -0.44740273217E+02  0.10441977921E+03  0.41800000000E+01 0.  1.
         -5    1    3    3    0  502  0.38934397830E+02 -0.11055390906E+02  0.31625174302E+02  0.51533804945E+02  0.41800000000E+01 0.  1.
        -11    1    1    2    0    0 -0.28724710780E+02 -0.21712666342E+02  0.15758095975E+02  0.39304789503E+02  0.00000000000E+00 0.  1.
         11    1    1    2    0    0 -0.11026583744E+02 -0.61485104622E+02 -0.90180240519E+02  0.10970177492E+03  0.00000000000E+00 0. -1.
</event>
<event>
 7    1  0.3001243E-009  0.1035983E+03  0.7561462E-02  0.1272906E+00
         -2   -1    0    0    0  501 -0.00000000000E+00  0.00000000000E+00  0.15427826767E+02  0.15427826767E+02  0.00000000000E+00 0.  1.
          2   -1    0    0  501    0  0.00000000000E+00 -0.00000000000E+00 -0.12235710675E+04  0.12235710675E+04  0.00000000000E+00 0. -1.
         25    2    1    2    0    0  0.27503313362E+02  0.34370603518E+02 -0.97879649500E+03  0.98773909469E+03  0.12509264534E+03 0.  0.
          5    1    3    3  502    0  0.42299294539E+02  0.75439072682E+02 -0.72877263425E+03  0.73389870475E+03  0.41800000000E+01 0.  1.
         -5    1    3    3    0  502 -0.14795981176E+02 -0.41068469164E+02 -0.25002386076E+03  0.25384038994E+03  0.41800000000E+01 0.  1.
        -11    1    1    2    0    0 -0.59687639886E+01 -0.49867849157E+02 -0.21561222446E+03  0.22138441648E+03  0.00000000000E+00 0. -1.
         11    1    1    2    0    0 -0.21534549373E+02  0.15497245639E+02 -0.13734521224E+02  0.29875383050E+02  0.00000000000E+00 0.  1.
</event>
<event>
 7    1  0.3001243E-009  0.1098806E+03  0.7561462E-02  0.1260791E+00
         -2   -1    0    0    0  501 -0.00000000000E+00  0.00000000000E+00  0.29526665773E+03  0.29526665773E+03  0.00000000000E+00 0.  1.
          2   -1    0    0  501    0  0.00000000000E+00 -0.00000000000E+00 -0.59526299564E+02  0.59526299564E+02  0.00000000000E+00 0. -1.
         25    2    1    2    0    0 -0.47061001240E+02  0.59345643587E+02  0.14982165839E+03  0.20935851722E+03  0.12509123134E+03 0.  0.
          5    1    3    3  502    0 -0.29341591604E+02 -0.34562581319E+02  0.75732620531E+02  0.88365169823E+02  0.41800000000E+01 0.  1.
         -5    1    3    3    0  502 -0.17719409637E+02  0.93908224906E+02  0.74089037862E+02  0.12099334740E+03  0.41800000000E+01 0.  1.
        -11    1    1    2    0    0  0.21667219711E+02 -0.11798788809E+02  0.88097910663E+02  0.91487276113E+02  0.00000000000E+00 0. -1.
         11    1    1    2    0    0  0.25393781529E+02 -0.47546854778E+02 -0.21792108887E+01  0.53947163964E+02  0.00000000000E+00 0.  1.
</event>
<event>
 7    1  0.3001243E-009  0.2110546E+03  0.7561462E-02  0.1140734E+00
          2   -1    0    0  501    0  0.00000000000E+00  0.00000000000E+00  0.40899976021E+03  0.40899976021E+03  0.00000000000E+00 0. -1.
         -2   -1    0    0    0  501 -0.00000000000E+00 -0.00000000000E+00 -0.13837306309E+03  0.13837306309E+03  0.00000000000E+00 0.  1.
         25    2    1    2    0    0 -0.14238661934E+03 -0.14525955647E+03  0.20699452645E+03  0.31602562812E+03  0.12510465832E+03 0.  0.
          5    1    3    3  502    0 -0.72335109910E+02 -0.11636622080E+03  0.19623931300E+03  0.23937586728E+03  0.41800000000E+01 0. -1.
         -5    1    3    3    0  502 -0.70051509432E+02 -0.28893335666E+02  0.10755213450E+02  0.76649760835E+02  0.41800000000E+01 0. -1.
        -11    1    1    2    0    0  0.46034850367E+02  0.81491922805E+02  0.68052288126E+02  0.11572058957E+03  0.00000000000E+00 0. -1.
         11    1    1    2    0    0  0.96351768975E+02  0.63767633664E+02 -0.44201174627E+01  0.11562660562E+03  0.00000000000E+00 0.  1.
</event>
<event>
 7    1  0.3001243E-009  0.7754733E+02  0.7561462E-02  0.1336159E+00
          1   -1    0    0  501    0  0.00000000000E+00  0.00000000000E+00  0.30216288825E+03  0.30216288825E+03  0.00000000000E+00 0. -1.
         -1   -1    0    0    0  501 -0.00000000000E+00 -0.00000000000E+00 -0.43736442741E+02  0.43736442741E+02  0.00000000000E+00 0.  1.
         25    2    1    2    0    0  0.32962564982E+02  0.17154705651E+02  0.16398175958E+03  0.20956564309E+03  0.12508767594E+03 0.  0.
          5    1    3    3  502    0  0.20486755739E+02  0.45865112715E+02  0.17008725208E+03  0.17739915853E+03  0.41800000000E+01 0.  1.
         -5    1    3    3    0  502  0.12475809242E+02 -0.28710407064E+02 -0.61054925050E+01  0.32166484557E+02  0.41800000000E+01 0.  1.
        -11    1    1    2    0    0 -0.50958939978E+02 -0.46048031438E+01  0.14138058326E+02  0.53083919118E+02  0.00000000000E+00 0.  1.
         11    1    1    2    0    0  0.17996374996E+02 -0.12549902507E+02  0.80306627604E+02  0.83249768787E+02  0.00000000000E+00 0. -1.
</event>
<event>
 7    1  0.3001243E-009  0.1054501E+03  0.7561462E-02  0.1269235E+00
          1   -1    0    0  501    0  0.00000000000E+00  0.00000000000E+00  0.27438640405E+03  0.27438640405E+03  0.00000000000E+00 0. -1.
         -1   -1    0    0    0  501 -0.00000000000E+00 -0.00000000000E+00 -0.70715811501E+02  0.70715811501E+02  0.00000000000E+00 0.  1.
         25    2    1    2    0    0 -0.56883322681E+02 -0.12188741866E+02  0.33823776322E+02  0.14204105743E+03  0.12508931339E+03 0.  0.
          5    1    3    3  502    0 -0.43100438614E+02  0.52700057036E+02  0.32510111377E+02  0.75560065922E+02  0.41800000000E+01 0.  1.
         -5    1    3    3    0  502 -0.13782884067E+02 -0.64888798902E+02  0.13136649446E+01  0.66480991507E+02  0.41800000000E+01 0.  1.
        -11    1    1    2    0    0  0.26088282538E+02 -0.19091985880E+02  0.15245643015E+03  0.15584628807E+03  0.00000000000E+00 0.  1.
         11    1    1    2    0    0  0.30795040143E+02  0.31280727746E+02  0.17390386068E+02  0.47214870044E+02  0.00000000000E+00 0. -1.
</event>
<event>
 7    1  0.3001243E-009  0.1385063E+03  0.7561462E-02  0.1215353E+00
          4   -1    0    0  501    0  0.00000000000E+00  0.00000000000E+00  0.13337157669E+03  0.13337157669E+03  0.00000000000E+00 0. -1.
         -4   -1    0    0    0  501 -0.00000000000E+00 -0.00000000000E+00 -0.18944038341E+03  0.18944038341E+03  0.00000000000E+00 0.  1.
         25    2    1    2    0    0  0.10781205762E+03  0.82947833395E+01 -0.10210647418E+02  0.16566070920E+03  0.12508784934E+03 0.  0.
          5    1    3    3  502    0  0.39467428350E+02  0.62623257812E+02  0.12888926595E+02  0.75252555759E+02  0.41800000000E+01 0.  1.
         -5    1    3    3    0  502  0.68344629267E+02 -0.54328474472E+02 -0.23099574013E+02  0.90408153436E+02  0.41800000000E+01 0.  1.
        -11    1    1    2    0    0 -0.37310768376E+02 -0.22467209512E+02 -0.69010324032E+02  0.81604495973E+02  0.00000000000E+00 0.  1.
         11    1    1    2    0    0 -0.70501289241E+02  0.14172426172E+02  0.23152164727E+02  0.75546754926E+02  0.00000000000E+00 0. -1.
</event>
<event>
 7    1  0.3001243E-009  0.9483162E+02  0.7561462E-02  0.1291556E+00
         -1   -1    0    0    0  501 -0.00000000000E+00  0.00000000000E+00  0.65766157944E+03  0.65766157944E+03  0.00000000000E+00 0.  1.
          1   -1    0    0  501    0  0.00000000000E+00 -0.00000000000E+00 -0.72463760216E+02  0.72463760216E+02  0.00000000000E+00 0. -1.
         25    2    1    2    0    0  0.90024744556E+00  0.34835549444E+02  0.61506843080E+03  0.62862764266E+03  0.12509681291E+03 0.  0.
          5    1    3    3  502    0  0.14418355262E+01  0.81907637289E+02  0.36110335352E+03  0.37030263874E+03  0.41800000000E+01 0.  1.
         -5    1    3    3    0  502 -0.54158808065E+00 -0.47072087845E+02  0.25396507728E+03  0.25832500392E+03  0.41800000000E+01 0.  1.
        -11    1    1    2    0    0  0.54751480145E+01  0.11957058687E+02  0.25519374410E+02  0.28708656683E+02  0.00000000000E+00 0.  1.
         11    1    1    2    0    0 -0.63753954601E+01 -0.46792608131E+02 -0.55389985983E+02  0.72789040316E+02  0.00000000000E+00 0. -1.
</event>
<event>
 7    1  0.3001243E-009  0.1089745E+03  0.7561462E-02  0.1262481E+00
         -1   -1    0    0    0  501 -0.00000000000E+00  0.00000000000E+00  0.41950713491E+03  0.41950713491E+03  0.00000000000E+00 0.  1.
          1   -1    0    0  501    0  0.00000000000E+00 -0.00000000000E+00 -0.34186664394E+02  0.34186664394E+02  0.00000000000E+00 0. -1.
         25    2    1    2    0    0  0.84226046802E+01  0.45213549245E+02  0.22134133438E+03  0.25836720213E+03  0.12508564877E+03 0.  0.
          5    1    3    3  502    0 -0.58085299830E+02  0.15229936693E+02  0.98883255202E+02  0.11576365400E+03  0.41800000000E+01 0. -1.
         -5    1    3    3    0  502  0.66507904510E+02  0.29983612552E+02  0.12245807918E+03  0.14260354813E+03  0.41800000000E+01 0. -1.
        -11    1    1    2    0    0  0.31449206106E+02 -0.16246373308E+02  0.13179326119E+03  0.13646413780E+03  0.00000000000E+00 0.  1.
         11    1    1    2    0    0 -0.39871810786E+02 -0.28967175936E+02  0.32185874942E+02  0.58862459368E+02  0.00000000000E+00 0. -1.
</event>
<event>
 7    1  0.3001243E-009  0.9491804E+02  0.7561462E-02  0.1291361E+00
         -2   -1    0    0    0  501 -0.00000000000E+00  0.00000000000E+00  0.90443573221E+02  0.90443573221E+02  0.00000000000E+00 0. -1.
          2   -1    0    0  501    0  0.00000000000E+00 -0.00000000000E+00 -0.14621583657E+03  0.14621583657E+03  0.00000000000E+00 0.  1.
         25    2    1    2    0    0  0.23854363811E+02  0.25090375770E+02 -0.53805143254E+02  0.14050123040E+03  0.12508814762E+03 0.  0.
          5    1    3    3  502    0  0.68065295001E+02 -0.14149374786E+02 -0.20882116853E+02  0.72709176826E+02  0.41800000000E+01 0.  1.
         -5    1    3    3    0  502 -0.44210931190E+02  0.39239750556E+02 -0.32923026401E+02  0.67792053574E+02  0.41800000000E+01 0.  1.
        -11    1    1    2    0    0 -0.18652585664E+02 -0.40541248995E+02 -0.36706832592E+02  0.57783244812E+02  0.00000000000E+00 0.  1.
         11    1    1    2    0    0 -0.52017781464E+01  0.15450873224E+02  0.34739712499E+02  0.38374934577E+02  0.00000000000E+00 0. -1.
</event>
<event>
 7    1  0.3001243E-009  0.2656861E+03  0.7561462E-02  0.1103774E+00
          2   -1    0    0  501    0  0.00000000000E+00  0.00000000000E+00  0.11001735049E+04  0.11001735049E+04  0.00000000000E+00 0. -1.
         -2   -1    0    0    0  501 -0.00000000000E+00 -0.00000000000E+00 -0.73151243204E+02  0.73151243204E+02  0.00000000000E+00 0.  1.
         25    2    1    2    0    0  0.10722758728E+02 -0.25818163225E+03  0.43722810324E+03  0.52305638632E+03  0.12508731437E+03 0.  0.
          5    1    3    3  502    0 -0.40006688457E+01 -0.82666222357E+02  0.47890463859E+02  0.95711434002E+02  0.41800000000E+01 0.  1.
         -5    1    3    3    0  502  0.14723427574E+02 -0.17551540990E+03  0.38933763938E+03  0.42734495232E+03  0.41800000000E+01 0.  1.
        -11    1    1    2    0    0 -0.44787828436E+02  0.19953638018E+03  0.41158129225E+03  0.45958663680E+03  0.00000000000E+00 0. -1.
         11    1    1    2    0    0  0.34065069708E+02  0.58645252076E+02  0.17821286625E+03  0.19068172504E+03  0.00000000000E+00 0.  1.
</event>
<event>
 7    1  0.3001243E-009  0.1454488E+03  0.7561462E-02  0.1206180E+00
         -2   -1    0    0    0  501 -0.00000000000E+00  0.00000000000E+00  0.18077588639E+03  0.18077588639E+03  0.00000000000E+00 0.  1.
          2   -1    0    0  501    0  0.00000000000E+00 -0.00000000000E+00 -0.15351321687E+03  0.15351321687E+03  0.00000000000E+00 0. -1.
         25    2    1    2    0    0 -0.81000490991E+02 -0.66609400147E+02  0.84444226330E+02  0.18378336429E+03  0.12509039091E+03 0.  0.
          5    1    3    3  502    0 -0.48180910023E+02  0.27142865909E+02  0.59387552646E+02  0.81255701767E+02  0.41800000000E+01 0. -1.
         -5    1    3    3    0  502 -0.32819580968E+02 -0.93752266055E+02  0.25056673684E+02  0.10252766252E+03  0.41800000000E+01 0. -1.
        -11    1    1    2    0    0 -0.26038252742E+01  0.50883575832E+02 -0.61933557097E+01  0.51325197033E+02  0.00000000000E+00 0.  1.
         11    1    1    2    0    0  0.83604316266E+02  0.15725824315E+02 -0.50988201096E+02  0.99180541941E+02  0.00000000000E+00 0. -1.
</event>
<event>
 7    1  0.3001243E-009  0.1143409E+03  0.7561462E-02  0.1252736E+00
         -2   -1    0    0    0  501 -0.00000000000E+00  0.00000000000E+00  0.24400382902E+02  0.24400382902E+02  0.00000000000E+00 0.  1.
          2   -1    0    0  501    0  0.00000000000E+00 -0.00000000000E+00 -0.83930181055E+03  0.83930181055E+03  0.00000000000E+00 0. -1.
         25    2    1    2    0    0  0.40098694734E+02  0.78126324431E+02 -0.35054410432E+03  0.38241146826E+03  0.12508290889E+03 0.  0.
          5    1    3    3  502    0  0.17433630251E+02  0.77078361506E+02 -0.86023990762E+02  0.11688714499E+03  0.41800000000E+01 0.  1.
         -5    1    3    3    0  502  0.22665064483E+02  0.10479629246E+01 -0.26452011356E+03  0.26552432327E+03  0.41800000000E+01 0.  1.
        -11    1    1    2    0    0  0.29665704301E+02 -0.21916122705E+02 -0.14268333112E+03  0.14737334706E+03  0.00000000000E+00 0.  1.
         11    1    1    2    0    0 -0.69764399035E+02 -0.56210201726E+02 -0.32167399221E+03  0.33391737813E+03  0.00000000000E+00 0. -1.
</event>
<event>
 7    1  0.3001243E-009  0.8917066E+02  0.7561462E-02  0.1304873E+00
         -2   -1    0    0    0  501 -0.00000000000E+00  0.00000000000E+00  0.33460502869E+02  0.33460502869E+02  0.00000000000E+00 0.  1.
          2   -1    0    0  501    0  0.00000000000E+00 -0.00000000000E+00 -0.57989316657E+03  0.57989316657E+03  0.00000000000E+00 0. -1.
         25    2    1    2    0    0  0.62039273596E+02 -0.19907011837E+02 -0.37928655676E+03  0.40466134608E+03  0.12508937719E+03 0.  0.
          5    1    3    3  502    0  0.77610590624E+02 -0.39778555683E+02 -0.36511605909E+03  0.37541037049E+03  0.41800000000E+01 0. -1.
         -5    1    3    3    0  502 -0.15571317028E+02  0.19871543846E+02 -0.14170497678E+02  0.29250975595E+02  0.41800000000E+01 0. -1.
        -11    1    1    2    0    0 -0.29595083057E+02  0.62961126054E+01 -0.17067127969E+03  0.17333261576E+03  0.00000000000E+00 0. -1.
         11    1    1    2    0    0 -0.32444190540E+02  0.13610899232E+02  0.35251727595E+01  0.35359707587E+02  0.00000000000E+00 0.  1.
</event>
<event>
 7    1  0.3001243E-009  0.9597831E+02  0.7561462E-02  0.1288988E+00
          1   -1    0    0  501    0  0.00000000000E+00  0.00000000000E+00  0.18376082507E+03  0.18376082507E+03  0.00000000000E+00 0. -1.
         -1   -1    0    0    0  501 -0.00000000000E+00 -0.00000000000E+00 -0.10127890358E+03  0.10127890358E+03  0.00000000000E+00 0.  1.
         25    2    1    2    0    0 -0.54106176581E+02 -0.31602664799E+02 -0.10807261265E+02  0.14031482648E+03  0.12508096126E+03 0.  0.
          5    1    3    3  502    0 -0.14419058582E+02 -0.60760924975E+02 -0.47655889974E+02  0.78666101362E+02  0.41800000000E+01 0. -1.
         -5    1    3    3    0  502 -0.39687117999E+02  0.29158260176E+02  0.36848628709E+02  0.61648725123E+02  0.41800000000E+01 0. -1.
        -11    1    1    2    0    0  0.22275231759E+02  0.41081604522E+02  0.10041498855E+03  0.11075673391E+03  0.00000000000E+00 0. -1.
         11    1    1    2    0    0  0.31830944821E+02 -0.94789397233E+01 -0.71258058026E+01  0.33968168258E+02  0.00000000000E+00 0.  1.
</event>
<event>
 7    1  0.3001243E-009  0.2219039E+03  0.7561462E-02  0.1132472E+00
         -1   -1    0    0    0  501 -0.00000000000E+00  0.00000000000E+00  0.13986631880E+03  0.13986631880E+03  0.00000000000E+00 0.  1.
          1   -1    0    0  501    0  0.00000000000E+00 -0.00000000000E+00 -0.45273837428E+03  0.45273837428E+03  0.00000000000E+00 0. -1.
         25    2    1    2    0    0  0.12155414709E+03 -0.15664271027E+03 -0.31338733559E+02  0.23652096251E+03  0.12509076757E+03 0.  0.
          5    1    3    3  502    0  0.13997348603E+03 -0.15469515186E+03 -0.44578947182E+02  0.21337272959E+03  0.41800000000E+01 0.  1.
         -5    1    3    3    0  502 -0.18419338937E+02 -0.19475584065E+01  0.13240213624E+02  0.23148232922E+02  0.41800000000E+01 0.  1.
        -11    1    1    2    0    0 -0.21304456433E+02  0.97415298202E+02 -0.10687390118E+03  0.14616993857E+03  0.00000000000E+00 0.  1.
         11    1    1    2    0    0 -0.10024969066E+03  0.59227412070E+02 -0.17465942074E+03  0.20991379200E+03  0.00000000000E+00 0. -1.
</event>
<event>
 7    1  0.3001243E-009  0.2671293E+03  0.7561462E-02  0.1102934E+00
          1   -1    0    0  501    0  0.00000000000E+00  0.00000000000E+00  0.66006185297E+03  0.66006185297E+03  0.00000000000E+00 0.  1.
         -1   -1    0    0    0  501 -0.00000000000E+00 -0.00000000000E+00 -0.11999130281E+03  0.11999130281E+03  0.00000000000E+00 0. -1.
         25    2    1    2    0    0  0.22374289779E+03 -0.10469969329E+03  0.38537078204E+03  0.47452566590E+03  0.12506421497E+03 0.  0.
          5    1    3    3  502    0  0.63743877688E+02  0.26901333761E+02  0.86379455932E+02  0.11075128220E+03  0.41800000000E+01 0.  1.
         -5    1    3    3    0  502  0.15999902010E+03 -0.13160102705E+03  0.29899132611E+03  0.36377438371E+03  0.41800000000E+01 0.  1.
        -11    1    1    2    0    0 -0.10415092877E+03  0.89505100720E+01  0.94522407003E+02  0.14093265420E+03  0.00000000000E+00 0.  1.
         11    1    1    2    0    0 -0.11959196902E+03  0.95749183220E+02  0.60177361121E+02  0.16459483568E+03  0.00000000000E+00 0. -1.
</event>
<event>
 7    1  0.3001243E-009  0.2568347E+03  0.7561462E-02  0.1109060E+00
          1   -1    0    0  501    0  0.00000000000E+00  0.00000000000E+00  0.52358944548E+03  0.52358944548E+03  0.00000000000E+00 0. -1.
         -1   -1    0    0    0  501 -0.00000000000E+00 -0.00000000000E+00 -0.14631734271E+03  0.14631734271E+03  0.00000000000E+00 0.  1.
         25    2    1    2    0    0 -0.12910896406E+03 -0.20707471025E+03  0.10833916626E+03  0.29484587973E+03  0.12509059767E+03 0.  0.
          5    1    3    3  502    0 -0.10285866030E+03 -0.95157269935E+02  0.50978163009E+01  0.14027925774E+03  0.41800000000E+01 0. -1.
         -5    1    3    3    0  502 -0.26250303753E+02 -0.11191744031E+03  0.10324134996E+03  0.15456662199E+03  0.41800000000E+01 0. -1.
        -11    1    1    2    0    0  0.84389036206E+02  0.56948736120E+02  0.78984379413E+02  0.12885340573E+03  0.00000000000E+00 0.  1.
         11    1    1    2    0    0  0.44719927851E+02  0.15012597413E+03  0.18994855710E+03  0.24620750273E+03  0.00000000000E+00 0. -1.
</event>
<event>
 7    1  0.3001243E-009  0.1562228E+03  0.7561462E-02  0.1193028E+00
         -2   -1    0    0    0  501 -0.00000000000E+00  0.00000000000E+00  0.19563004360E+02  0.19563004360E+02  0.00000000000E+00 0.  1.
          2   -1    0    0  501    0  0.00000000000E+00 -0.00000000000E+00 -0.14226621253E+04  0.14226621253E+04  0.00000000000E+00 0. -1.
         25    2    1    2    0    0  0.78969670081E+02  0.87724567112E+02 -0.91504220158E+03  0.93106600436E+03  0.12509942179E+03 0.  0.
          5    1    3    3  502    0 -0.12434574827E+02 -0.18799532876E+02 -0.26706782397E+03  0.26804987612E+03  0.41800000000E+01 0.  1.
         -5    1    3    3    0  502  0.91404244908E+02  0.10652409999E+03 -0.64797437761E+03  0.66301612824E+03  0.41800000000E+01 0.  1.
        -11    1    1    2    0    0 -0.96875727865E+02 -0.53994399217E+02 -0.40182304361E+03  0.41684776618E+03  0.00000000000E+00 0. -1.
         11    1    1    2    0    0  0.17906057785E+02 -0.33730167895E+02 -0.86233875741E+02  0.94311359109E+02  0.00000000000E+00 0.  1.
</event>
<event>
 7    1  0.3001243E-009  0.9823445E+02  0.7561462E-02  0.1284053E+00
          1   -1    0    0  501    0  0.00000000000E+00  0.00000000000E+00  0.26422213993E+03  0.26422213993E+03  0.00000000000E+00 0. -1.
         -1   -1    0    0    0  501 -0.00000000000E+00 -0.00000000000E+00 -0.56404401036E+02  0.56404401036E+02  0.00000000000E+00 0.  1.
         25    2    1    2    0    0  0.48276290054E+02  0.13026940835E+02  0.14085967181E+03  0.19490919014E+03  0.12509134218E+03 0.  0.
          5    1    3    3  502    0  0.65027505965E+02 -0.41598116013E+02  0.84937049963E+02  0.11485101064E+03  0.41800000000E+01 0. -1.
         -5    1    3    3    0  502 -0.16751215912E+02  0.54625056849E+02  0.55922621849E+02  0.80058179499E+02  0.41800000000E+01 0. -1.
        -11    1    1    2    0    0 -0.24935852846E+02 -0.25282435703E+02  0.86101977239E+02  0.93137257833E+02  0.00000000000E+00 0. -1.
         11    1    1    2    0    0 -0.23340437207E+02  0.12255494868E+02 -0.19143910158E+02  0.32580092996E+02  0.00000000000E+00 0.  1.
</event>
<event>
 7    1  0.3001243E-009  0.1020267E+03  0.7561462E-02  0.1276091E+00
          1   -1    0    0  501    0  0.00000000000E+00  0.00000000000E+00  0.11802102778E+03  0.11802102778E+03  0.00000000000E+00 0. -1.
         -1   -1    0    0    0  501 -0.00000000000E+00 -0.00000000000E+00 -0.15481093961E+03  0.15481093961E+03  0.00000000000E+00 0.  1.
         25    2    1    2    0    0 -0.80170944264E+02  0.41749853045E+01 -0.49357507111E+01  0.14872150588E+03  0.12509561891E+03 0.  0.
          5    1    3    3  502    0  0.48053732663E+01 -0.62501872859E+01  0.47439206295E+02  0.48271183404E+02  0.41800000000E+01 0.  1.
         -5    1    3    3    0  502 -0.84976317530E+02  0.10425172590E+02 -0.52374957006E+02  0.10045032248E+03  0.41800000000E+01 0.  1.
        -11    1    1    2    0    0 -0.69325641458E+00  0.23828614288E+02  0.13357128939E+02  0.27325745311E+02  0.00000000000E+00 0. -1.
         11    1    1    2    0    0  0.80864200678E+02 -0.28003599592E+02 -0.45211290051E+02  0.96784716198E+02  0.00000000000E+00 0.  1.
</event>
<event>
 7    1  0.3001243E-009  0.1515718E+03  0.7561462E-02  0.1198555E+00
          3   -1    0    0  501    0  0.00000000000E+00  0.00000000000E+00  0.27447462191E+03  0.27447462191E+03  0.00000000000E+00 0. -1.
         -3   -1    0    0    0  501 -0.00000000000E+00 -0.00000000000E+00 -0.93521277167E+02  0.93521277167E+02  0.00000000000E+00 0.  1.
         25    2    1    2    0    0  0.11281781474E+02  0.11594295177E+03  0.11169455669E+03  0.20418812949E+03  0.12508825512E+03 0.  0.
          5    1    3    3  502    0 -0.19938763171E+02 -0.21620990119E+02  0.22102644252E+02  0.37027297679E+02  0.41800000000E+01 0.  1.
         -5    1    3    3    0  502  0.31220544645E+02  0.13756394189E+03  0.89591912441E+02  0.16716083181E+03  0.41800000000E+01 0.  1.
        -11    1    1    2    0    0  0.25626522054E+02 -0.35261992435E+02  0.60620833452E+02  0.74666004256E+02  0.00000000000E+00 0. -1.
         11    1    1    2    0    0 -0.36908303528E+02 -0.80680959333E+02  0.86379546019E+01  0.89141765340E+02  0.00000000000E+00 0.  1.
</event>
<event>
 7    1  0.3001243E-009  0.8981262E+02  0.7561462E-02  0.1303306E+00
         -2   -1    0    0    0  501 -0.00000000000E+00  0.00000000000E+00  0.57892554628E+03  0.57892554628E+03  0.00000000000E+00 0.  1.
          2   -1    0    0  501    0  0.00000000000E+00 -0.00000000000E+00 -0.44695847805E+02  0.44695847805E+02  0.00000000000E+00 0. -1.
         25    2    1    2    0    0 -0.22648350176E+02 -0.61279842876E+02  0.48006418880E+03  0.50037817464E+03  0.12509406615E+03 0.  0.
          5    1    3    3  502    0 -0.20198063774E+02 -0.87657717159E+01  0.41938889885E+03  0.41998728720E+03  0.41800000000E+01 0.  1.
         -5    1    3    3    0  502 -0.24502864023E+01 -0.52514071160E+02  0.60675289947E+02  0.80390887440E+02  0.41800000000E+01 0.  1.
        -11    1    1    2    0    0 -0.30216960539E+02  0.13043001660E+02  0.37249535316E+02  0.49706261957E+02  0.00000000000E+00 0.  1.
         11    1    1    2    0    0  0.52865310715E+02  0.48236841216E+02  0.16915974363E+02  0.73536957485E+02  0.00000000000E+00 0. -1.
</event>
<event>
 7    1  0.3001243E-009  0.8639050E+02  0.7561462E-02  0.1311836E+00
         -1   -1    0    0    0  501 -0.00000000000E+00  0.00000000000E+00  0.13490113103E+03  0.13490113103E+03  0.00000000000E+00 0.  1.
          1   -1    0    0  501    0  0.00000000000E+00 -0.00000000000E+00 -0.10278407638E+03  0.10278407638E+03  0.00000000000E+00 0. -1.
         25    2    1    2    0    0  0.35750129978E+02  0.17006628324E+02 -0.68592827856E+01  0.13137792821E+03  0.12508322454E+03 0.  0.
          5    1    3    3  502    0  0.42798253172E+01  0.40234119950E+02 -0.55507317767E+02  0.68815957732E+02  0.41800000000E+01 0.  1.
         -5    1    3    3    0  502  0.31470304660E+02 -0.23227491626E+02  0.48648034981E+02  0.62561970479E+02  0.41800000000E+01 0.  1.
        -11    1    1    2    0    0 -0.63337895213E+02 -0.85451933519E+01  0.87322097777E+01  0.64505509741E+02  0.00000000000E+00 0. -1.
         11    1    1    2    0    0  0.27587765235E+02 -0.84614349720E+01  0.30244127651E+02  0.41801769458E+02  0.00000000000E+00 0.  1.
</event>
<event>
 7    1  0.3001243E-009  0.1450657E+03  0.7561462E-02  0.1206671E+00
         -2   -1    0    0    0  501 -0.00000000000E+00  0.00000000000E+00  0.22203941023E+02  0.22203941023E+02  0.00000000000E+00 0.  1.
          2   -1    0    0  501    0  0.00000000000E+00 -0.00000000000E+00 -0.11982482206E+04  0.11982482206E+04  0.00000000000E+00 0. -1.
         25    2    1    2    0    0  0.10188424141E+03 -0.43466917125E+02 -0.86277233297E+03  0.87880196649E+03  0.12508807390E+03 0.  0.
          5    1    3    3  502    0  0.10537883982E+02 -0.63330937596E+02 -0.50140202508E+03  0.50551292547E+03  0.41800000000E+01 0. -1.
         -5    1    3    3    0  502  0.91346357424E+02  0.19864020472E+02 -0.36137030788E+03  0.37328904102E+03  0.41800000000E+01 0. -1.
        -11    1    1    2    0    0 -0.97199804948E+02  0.60542395422E+02 -0.23519967826E+03  0.26159524533E+03  0.00000000000E+00 0.  1.
         11    1    1    2    0    0 -0.46844364581E+01 -0.17075478297E+02 -0.78072268374E+02  0.80054949835E+02  0.00000000000E+00 0. -1.
</event>
<event>
 7    1  0.3063788E-009  0.1209762E+03  0.7561462E-02  0.1241495E+00
          1   -1    0    0  501    0  0.00000000000E+00  0.00000000000E+00  0.33689907100E+03  0.33689907100E+03  0.00000000000E+00 0. -1.
         -1   -1    0    0    0  501 -0.00000000000E+00 -0.00000000000E+00 -0.60801728594E+02  0.60801728594E+02  0.00000000000E+00 0.  1.
         25    2    1    2    0    0 -0.84521552531E+02 -0.23141402298E+02  0.19654126015E+03  0.24890972694E+03  0.12509263719E+03 0.  0.
          5    1    3    3  502    0 -0.10388969593E+03 -0.29811589711E+02  0.91100616421E+02  0.14141638701E+03  0.41800000000E+01 0. -1.
         -5    1    3    3    0  502  0.19368143401E+02  0.66701874124E+01  0.10544064373E+03  0.10749333993E+03  0.41800000000E+01 0. -1.
        -11    1    1    2    0    0  0.17934804149E+02  0.40308607554E+02  0.64567213271E+00  0.44123213111E+02  0.00000000000E+00 0.  1.
         11    1    1    2    0    0  0.66586748382E+02 -0.17167205255E+02  0.78910410126E+02  0.10466785955E+03  0.00000000000E+00 0. -1.
</event>
<event>
 7    1  0.3001243E-009  0.1450338E+03  0.7561462E-02  0.1206712E+00
          2   -1    0    0  501    0  0.00000000000E+00  0.00000000000E+00  0.17270618710E+04  0.17270618710E+04  0.00000000000E+00 0. -1.
         -2   -1    0    0    0  501 -0.00000000000E+00 -0.00000000000E+00 -0.12685153632E+02  0.12685153632E+02  0.00000000000E+00 0.  1.
         25    2    1    2    0    0 -0.95581389466E+02  0.19518344279E+02  0.98770810080E+03  0.10003658460E+04  0.12509102933E+03 0.  0.
          5    1    3    3  502    0 -0.51664261549E+02  0.69983525043E+02  0.67206813166E+03  0.67768719606E+03  0.41800000000E+01 0.  1.
         -5    1    3    3    0  502 -0.43917127916E+02 -0.50465180764E+02  0.31563996914E+03  0.32267864991E+03  0.41800000000E+01 0.  1.
        -11    1    1    2    0    0 -0.12940750995E+02 -0.24074678366E+02  0.12082638950E+03  0.12387925401E+03  0.00000000000E+00 0.  1.
         11    1    1    2    0    0  0.10852214046E+03  0.45563340873E+01  0.60584222705E+03  0.61550192463E+03  0.00000000000E+00 0. -1.
</event>
<event>
 7    1  0.3001243E-009  0.1298928E+03  0.7561462E-02  0.1227615E+00
         -1   -1    0    0    0  501 -0.00000000000E+00  0.00000000000E+00  0.53055966569E+03  0.53055966569E+03  0.00000000000E+00 0.  1.
          1   -1    0    0  501    0  0.00000000000E+00 -0.00000000000E+00 -0.40147738157E+02  0.40147738157E+02  0.00000000000E+00 0. -1.
         25    2    1    2    0    0  0.70907950076E+02 -0.54446245890E+02  0.20047844762E+03  0.25264962595E+03  0.12509154431E+03 0.  0.
          5    1    3    3  502    0 -0.21987179843E+02  0.21459260010E+02  0.23964122600E+02  0.39187848750E+02  0.41800000000E+01 0.  1.
         -5    1    3    3    0  502  0.92895129919E+02 -0.75905505900E+02  0.17651432502E+03  0.21346177720E+03  0.41800000000E+01 0.  1.
        -11    1    1    2    0    0 -0.84195239422E+01  0.44715954939E+02  0.21611726809E+03  0.22085533405E+03  0.00000000000E+00 0.  1.
         11    1    1    2    0    0 -0.62488426133E+02  0.97302909513E+01  0.73816211823E+02  0.97202443851E+02  0.00000000000E+00 0. -1.
</event>
<event>
 7    1  0.3001243E-009  0.7945600E+02  0.7561462E-02  0.1330602E+00
          2   -1    0    0  501    0  0.00000000000E+00  0.00000000000E+00  0.51997640600E+02  0.51997640600E+02  0.00000000000E+00 0. -1.
         -2   -1    0    0    0  501 -0.00000000000E+00 -0.00000000000E+00 -0.33714807266E+03  0.33714807266E+03  0.00000000000E+00 0.  1.
         25    2    1    2    0    0  0.96608553246E+01 -0.23137874396E+02 -0.67911119634E+02  0.14452612872E+03  0.12508872194E+03 0.  0.
          5    1    3    3  502    0  0.32716859079E+02 -0.22102392300E+02 -0.98371600127E+02  0.10608182090E+03  0.41800000000E+01 0.  1.
         -5    1    3    3    0  502 -0.23056003754E+02 -0.10354820954E+01  0.30460480494E+02  0.38444307826E+02  0.41800000000E+01 0.  1.
        -11    1    1    2    0    0  0.41615604542E+02  0.11448294802E+02 -0.36954490314E+02  0.56820386743E+02  0.00000000000E+00 0. -1.
         11    1    1    2    0    0 -0.51276459866E+02  0.11689579593E+02 -0.18028482211E+03  0.18779919779E+03  0.00000000000E+00 0.  1.
</event>
<event>
 7    1  0.3001243E-009  0.3182232E+03  0.7561462E-02  0.1076470E+00
         -2   -1    0    0    0  501 -0.00000000000E+00  0.00000000000E+00  0.12624886993E+03  0.12624886993E+03  0.00000000000E+00 0. -1.
          2   -1    0    0  501    0  0.00000000000E+00 -0.00000000000E+00 -0.10514002747E+04  0.10514002747E+04  0.00000000000E+00 0.  1.
         25    2    1    2    0    0  0.26121898412E+03 -0.16443766410E+03 -0.72755457526E+03  0.80016204996E+03  0.12509413725E+03 0.  0.
          5    1    3    3  502    0  0.20745038443E+03 -0.96094821568E+02 -0.39511496968E+03  0.45651198057E+03  0.41800000000E+01 0.  1.
         -5    1    3    3    0  502  0.53768599691E+02 -0.68342842534E+02 -0.33243960558E+03  0.34365006940E+03  0.41800000000E+01 0.  1.
        -11    1    1    2    0    0 -0.18691455621E+03  0.67821737792E+02 -0.10854436021E+03  0.22653634934E+03  0.00000000000E+00 0.  1.
         11    1    1    2    0    0 -0.74304427911E+02  0.96615926309E+02 -0.89052469264E+02  0.15095074530E+03  0.00000000000E+00 0. -1.
</event>
<event>
 7    1  0.3001243E-009  0.9918137E+02  0.7561462E-02  0.1282027E+00
         -2   -1    0    0    0  501 -0.00000000000E+00  0.00000000000E+00  0.26181112814E+02  0.26181112814E+02  0.00000000000E+00 0.  1.
          2   -1    0    0  501    0  0.00000000000E+00 -0.00000000000E+00 -0.46692426293E+03  0.46692426293E+03  0.00000000000E+00 0. -1.
         25    2    1    2    0    0  0.21105107435E+02 -0.68591857741E+01 -0.27256833715E+03  0.30072043384E+03  0.12508719729E+03 0.  0.
          5    1    3    3  502    0  0.56106623799E+02 -0.29527837943E+02 -0.23817443594E+03  0.24650432204E+03  0.41800000000E+01 0. -1.
         -5    1    3    3    0  502 -0.35001516364E+02  0.22668652169E+02 -0.34393901210E+02  0.54216111806E+02  0.41800000000E+01 0. -1.
        -11    1    1    2    0    0  0.41141170644E+01  0.46091092905E+02 -0.93869884690E+02  0.10465596044E+03  0.00000000000E+00 0. -1.
         11    1    1    2    0    0 -0.25219224499E+02 -0.39231907131E+02 -0.74304928277E+02  0.87728981458E+02  0.00000000000E+00 0.  1.
</event>
<event>
 7    1  0.3312351E-009  0.1360370E+03  0.7561462E-02  0.1218763E+00
         -1   -1    0    0    0  501 -0.00000000000E+00  0.00000000000E+00  0.23376836725E+02  0.23376836725E+02  0.00000000000E+00 0.  1.
          1   -1    0    0  501    0  0.00000000000E+00 -0.00000000000E+00 -0.99256770843E+03  0.99256770843E+03  0.00000000000E+00 0. -1.
         25    2    1    2    0    0  0.34320665320E+02  0.94046722220E+02 -0.64438860768E+03  0.66400532739E+03  0.12507478986E+03 0.  0.
          5    1    3    3  502    0  0.43315349293E+02  0.11543546890E+03 -0.40277829234E+03  0.42124742390E+03  0.41800000000E+01 0.  1.
         -5    1    3    3    0  502 -0.89946839730E+01 -0.21388746679E+02 -0.24161031535E+03  0.24275790349E+03  0.41800000000E+01 0.  1.
        -11    1    1    2    0    0 -0.34446662531E+02 -0.35433136908E+01 -0.39025534323E+02  0.52173939478E+02  0.00000000000E+00 0.  1.
         11    1    1    2    0    0  0.12599721101E+00 -0.90503408530E+02 -0.28577672970E+03  0.29976527829E+03  0.00000000000E+00 0. -1.
</event>
<event>
 7    1  0.3001243E-009  0.1003891E+03  0.7561462E-02  0.1279480E+00
         -2   -1    0    0    0  501 -0.00000000000E+00  0.00000000000E+00  0.68944133510E+02  0.68944133510E+02  0.00000000000E+00 0.  1.
          2   -1    0    0  501    0  0.00000000000E+00 -0.00000000000E+00 -0.19737095406E+03  0.19737095406E+03  0.00000000000E+00 0. -1.
         25    2    1    2    0    0  0.22821020207E+02  0.35813632066E+02 -0.64448688802E+02  0.14698034245E+03  0.12508466083E+03 0.  0.
          5    1    3    3  502    0  0.34218002395E+02  0.72021202323E+02 -0.99931435591E+01  0.80469003910E+02  0.41800000000E+01 0.  1.
         -5    1    3    3    0  502 -0.11396982188E+02 -0.36207570257E+02 -0.54455545243E+02  0.66511338542E+02  0.41800000000E+01 0.  1.
        -11    1    1    2    0    0 -0.42880405209E+02 -0.13911846662E+01 -0.66803695568E+02  0.79393943643E+02  0.00000000000E+00 0.  1.
         11    1    1    2    0    0  0.20059385002E+02 -0.34422447400E+02  0.28255638191E+01  0.39940801476E+02  0.00000000000E+00 0. -1.
</event>
<event>
 6    1  0.3001243E-009  0.1267073E+03  0.7561462E-02  0.1232425E+00
         -2   -1    0    0    0  501 -0.00000000000E+00  0.00000000000E+00  0.35941482951E+02  0.35941482951E+02  0.00000000000E+00 0.  1.
          2   -1    0    0  501    0  0.00000000000E+00 -0.00000000000E+00 -0.79720940840E+03  0.79720940840E+03  0.00000000000E+00 0. -1.
          5    1    1    2  502    0  0.86845296618E+02  0.65633987276E+02 -0.31568216871E+03  0.33395004098E+03  0.41800000000E+01 0. -1.
         -5    1    1    2    0  502  0.36212165292E+00 -0.27610282617E+02 -0.30603225573E+03  0.30730387695E+03  0.41800000000E+01 0. -1.
        -11    1    1    2    0    0 -0.49682928962E+02 -0.56067078888E+02 -0.42124989022E+02  0.85944316074E+02  0.00000000000E+00 0.  1.
         11    1    1    2    0    0 -0.37524489309E+02  0.18043374229E+02 -0.97428511992E+02  0.10595265735E+03  0.00000000000E+00 0. -1.
</event>
<event>
 7    1  0.3001243E-009  0.1641008E+03  0.7561462E-02  0.1184143E+00
          1   -1    0    0  501    0  0.00000000000E+00  0.00000000000E+00  0.87340751500E+02  0.87340751500E+02  0.00000000000E+00 0. -1.
         -1   -1    0    0    0  501 -0.00000000000E+00 -0.00000000000E+00 -0.36174851255E+03  0.36174851255E+03  0.00000000000E+00 0.  1.
         25    2    1    2    0    0  0.10196591459E+03  0.95654020332E+02 -0.12833356864E+03  0.22729514600E+03  0.12508732634E+03 0.  0.
          5    1    3    3  502    0 -0.92299566380E+01 -0.22804095252E+02 -0.14368505540E+02  0.28794881685E+02  0.41800000000E+01 0. -1.
         -5    1    3    3    0  502  0.11119587123E+03  0.11845811558E+03 -0.11396506310E+03  0.19850026432E+03  0.41800000000E+01 0. -1.
        -11    1    1    2    0    0 -0.94662037881E+01 -0.16298051490E+02 -0.81929260499E+02  0.84069252539E+02  0.00000000000E+00 0.  1.
         11    1    1    2    0    0 -0.92499710802E+02 -0.79355968842E+02 -0.64144931905E+02  0.13772486551E+03  0.00000000000E+00 0. -1.
</event>
<event>
 7    1  0.3001243E-009  0.9922570E+02  0.7561462E-02  0.1281933E+00
          1   -1    0    0  501    0  0.00000000000E+00  0.00000000000E+00  0.17867172252E+03  0.17867172252E+03  0.00000000000E+00 0. -1.
         -1   -1    0    0    0  501 -0.00000000000E+00 -0.00000000000E+00 -0.69332160787E+02  0.69332160787E+02  0.00000000000E+00 0.  1.
         25    2    1    2    0    0 -0.90957467960E+01  0.13789319752E+02  0.69489508900E+02  0.14404953774E+03  0.12509436249E+03 0.  0.
          5    1    3    3  502    0 -0.33575959511E+01  0.62928496254E+02  0.59840266580E+01  0.63439341630E+02  0.41800000000E+01 0. -1.
         -5    1    3    3    0  502 -0.57381508449E+01 -0.49139176503E+02  0.63505482242E+02  0.80610196112E+02  0.41800000000E+01 0. -1.
        -11    1    1    2    0    0 -0.26700446709E+02 -0.35011811188E+02  0.43858277154E+02  0.62147318946E+02  0.00000000000E+00 0. -1.
         11    1    1    2    0    0  0.35796193505E+02  0.21222491436E+02 -0.40082243245E+01  0.41807026616E+02  0.00000000000E+00 0.  1.
</event>
<event>
 7    1  0.3001243E-009  0.9590310E+02  0.7561462E-02  0.1289155E+00
         -2   -1    0    0    0  501 -0.00000000000E+00  0.00000000000E+00  0.59526116074E+02  0.59526116074E+02  0.00000000000E+00 0.  1.
          2   -1    0    0  501    0  0.00000000000E+00 -0.00000000000E+00 -0.41465574672E+03  0.41465574672E+03  0.00000000000E+00 0. -1.
         25    2    1    2    0    0  0.68279115234E+02 -0.54923370772E+02 -0.81446911181E+02  0.17308672774E+03  0.12508717658E+03 0.  0.
          5    1    3    3  502    0  0.51952836108E+02 -0.23972898335E+02 -0.11239205224E+03  0.12618733233E+03  0.41800000000E+01 0.  1.
         -5    1    3    3    0  502  0.16326279126E+02 -0.30950472438E+02  0.30945141060E+02  0.46899395406E+02  0.41800000000E+01 0.  1.
        -11    1    1    2    0    0 -0.23803625555E+02  0.48805591763E+02 -0.52952536292E+02  0.75845695175E+02  0.00000000000E+00 0.  1.
         11    1    1    2    0    0 -0.44475489679E+02  0.61177790098E+01 -0.22073018318E+03  0.22524943988E+03  0.00000000000E+00 0. -1.
</event>
<event>
 7    1  0.3001243E-009  0.1196850E+03  0.7561462E-02  0.1243618E+00
          1   -1    0    0  501    0  0.00000000000E+00  0.00000000000E+00  0.62901656307E+02  0.62901656307E+02  0.00000000000E+00 0. -1.
         -1   -1    0    0    0  501 -0.00000000000E+00 -0.00000000000E+00 -0.44173293740E+03  0.44173293740E+03  0.00000000000E+00 0.  1.
         25    2    1    2    0    0 -0.36364537095E+02 -0.84717911442E+02 -0.33438251337E+03  0.36873465996E+03  0.12511626647E+03 0.  0.
          5    1    3    3  502    0 -0.25287850139E+02  0.22137486661E+00 -0.23938253054E+03  0.24075089346E+03  0.41800000000E+01 0. -1.
         -5    1    3    3    0  502 -0.11076686956E+02 -0.84939286309E+02 -0.94999982824E+02  0.12798376651E+03  0.41800000000E+01 0. -1.
        -11    1    1    2    0    0  0.64443381212E+02  0.42222124764E+02 -0.32278154594E+02  0.83531649484E+02  0.00000000000E+00 0.  1.
         11    1    1    2    0    0 -0.28078844117E+02  0.42495786678E+02 -0.12170613135E+02  0.52368284260E+02  0.00000000000E+00 0. -1.
</event>
<event>
 7    1  0.3001243E-009  0.1007323E+03  0.7561462E-02  0.1278763E+00
          3   -1    0    0  501    0  0.00000000000E+00  0.00000000000E+00  0.25237504286E+03  0.25237504286E+03  0.00000000000E+00 0. -1.
         -3   -1    0    0    0  501 -0.00000000000E+00 -0.00000000000E+00 -0.68493071776E+02  0.68493071776E+02  0.00000000000E+00 0.  1.
         25    2    1    2    0    0 -0.31786204687E+02 -0.29576633514E+02  0.27380133416E+02  0.13521405587E+03  0.12509208265E+03 0.  0.
          5    1    3    3  502    0 -0.37129476826E+02  0.34413335259E+02 -0.20734934909E+02  0.54866069831E+02  0.41800000000E+01 0. -1.
         -5    1    3    3    0  502  0.53432721394E+01 -0.63989968773E+02  0.48115068325E+02  0.80347986040E+02  0.41800000000E+01 0. -1.
        -11    1    1    2    0    0  0.29166201629E+02  0.54203921228E+02  0.14657081003E+03  0.15897086132E+03  0.00000000000E+00 0. -1.
         11    1    1    2    0    0  0.26200030580E+01 -0.24627287714E+02  0.99310276320E+01  0.26683197447E+02  0.00000000000E+00 0.  1.
</event>
<event>
 7    1  0.3001243E-009  0.2794460E+03  0.7561462E-02  0.1095992E+00
          1   -1    0    0  501    0  0.00000000000E+00  0.00000000000E+00  0.48832325760E+03  0.48832325760E+03  0.00000000000E+00 0. -1.
         -1   -1    0    0    0  501 -0.00000000000E+00 -0.00000000000E+00 -0.17618127186E+03  0.17618127186E+03  0.00000000000E+00 0.  1.
         25    2    1    2    0    0  0.26954267096E+03 -0.36242120834E+02  0.15727438421E+03  0.33815465941E+03  0.12508636600E+03 0.  0.
          5    1    3    3  502    0  0.16185091996E+03 -0.66086963216E+01  0.15808421165E+03  0.22637907485E+03  0.41800000000E+01 0.  1.
         -5    1    3    3    0  502  0.10769175100E+03 -0.29633424512E+02 -0.80982743799E+00  0.11177558455E+03  0.41800000000E+01 0.  1.
        -11    1    1    2    0    0 -0.10175766669E+02  0.23259501900E+02  0.31372051187E+01  0.25581100678E+02  0.00000000000E+00 0.  1.
         11    1    1    2    0    0 -0.25936690429E+03  0.12982618934E+02  0.15173039641E+03  0.30076876937E+03  0.00000000000E+00 0. -1.
</event>
<event>
 7    1  0.3001243E-009  0.1060494E+03  0.7561462E-02  0.1268066E+00
         -2   -1    0    0    0  501 -0.00000000000E+00  0.00000000000E+00  0.73119076153E+03  0.73119076153E+03  0.00000000000E+00 0.  1.
          2   -1    0    0  501    0  0.00000000000E+00 -0.00000000000E+00 -0.27693282763E+02  0.27693282763E+02  0.00000000000E+00 0. -1.
         25    2    1    2    0    0  0.53549387205E+02 -0.75155573123E+02  0.38454470601E+03  0.41477490569E+03  0.12509074477E+03 0.  0.
          5    1    3    3  502    0  0.61344601303E+01 -0.97376188654E+01  0.29034338819E+03  0.29060145954E+03  0.41800000000E+01 0. -1.
         -5    1    3    3    0  502  0.47414927074E+02 -0.65417954258E+02  0.94201317825E+02  0.12417344615E+03  0.41800000000E+01 0. -1.
        -11    1    1    2    0    0 -0.70455261707E+02  0.73738825717E+02  0.30661600196E+03  0.32313268324E+03  0.00000000000E+00 0.  1.
         11    1    1    2    0    0  0.16905874503E+02  0.14167474062E+01  0.12336770790E+02  0.20976455359E+02  0.00000000000E+00 0. -1.
</event>
<event>
 7    1  0.3001243E-009  0.9414943E+02  0.7561462E-02  0.1293103E+00
          2   -1    0    0  501    0  0.00000000000E+00  0.00000000000E+00  0.24171657656E+03  0.24171657656E+03  0.00000000000E+00 0. -1.
         -2   -1    0    0    0  501 -0.00000000000E+00 -0.00000000000E+00 -0.51849247091E+02  0.51849247091E+02  0.00000000000E+00 0.  1.
         25    2    1    2    0    0 -0.27732570562E+02 -0.53108713977E+01  0.98398058663E+02  0.16163624091E+03  0.12508715203E+03 0.  0.
          5    1    3    3  502    0  0.27126668676E+02  0.44671962074E+02  0.52923863326E+02  0.74497302356E+02  0.41800000000E+01 0. -1.
         -5    1    3    3    0  502 -0.54859239238E+02 -0.49982833472E+02  0.45474195337E+02  0.87138938559E+02  0.41800000000E+01 0. -1.
        -11    1    1    2    0    0  0.39045303198E+02 -0.12008135561E+02  0.10115201556E+03  0.10908923537E+03  0.00000000000E+00 0. -1.
         11    1    1    2    0    0 -0.11312732637E+02  0.17319006959E+02 -0.96827447563E+01  0.22840347365E+02  0.00000000000E+00 0.  1.
</event>
<event>
 7    1  0.3001243E-009  0.1342128E+03  0.7561462E-02  0.1221335E+00
          1   -1    0    0  501    0  0.00000000000E+00  0.00000000000E+00  0.33846540153E+02  0.33846540153E+02  0.00000000000E+00 0. -1.
         -1   -1    0    0    0  501 -0.00000000000E+00 -0.00000000000E+00 -0.74661802561E+03  0.74661802561E+03  0.00000000000E+00 0.  1.
         25    2    1    2    0    0 -0.11333085142E+03 -0.23987400361E+02 -0.36917847528E+03  0.40664239644E+03  0.12508403063E+03 0.  0.
          5    1    3    3  502    0 -0.17315770753E+02  0.21539187342E+02 -0.22895460326E+03  0.23065440656E+03  0.41800000000E+01 0.  1.
         -5    1    3    3    0  502 -0.96015080664E+02 -0.45526587702E+02 -0.14022387201E+03  0.17598798989E+03  0.41800000000E+01 0.  1.
        -11    1    1    2    0    0  0.57219120551E+02 -0.22280225846E+02 -0.23669611269E+03  0.24453115544E+03  0.00000000000E+00 0.  1.
         11    1    1    2    0    0  0.56111730865E+02  0.46267626206E+02 -0.10689689749E+03  0.12929101387E+03  0.00000000000E+00 0. -1.
</event>
<event>
 7    1  0.3001243E-009  0.7744880E+02  0.7561462E-02  0.1336451E+00
         -1   -1    0    0    0  501 -0.00000000000E+00  0.00000000000E+00  0.21992209334E+03  0.21992209334E+03  0.00000000000E+00 0.  1.
          1   -1    0    0  501    0  0.00000000000E+00 -0.00000000000E+00 -0.68325782661E+02  0.68325782661E+02  0.00000000000E+00 0. -1.
         25    2    1    2    0    0  0.45721547854E+02 -0.47489518836E+01  0.11545360376E+03  0.17632319474E+03  0.12508925574E+03 0.  0.
          5    1    3    3  502    0  0.19993167605E+02 -0.10190158065E+02 -0.24717641823E+02  0.33645211986E+02  0.41800000000E+01 0. -1.
         -5    1    3    3    0  502  0.25728380249E+02  0.54412061814E+01  0.14017124558E+03  0.14267798276E+03  0.41800000000E+01 0. -1.
        -11    1    1    2    0    0 -0.92053200714E+01  0.47979593691E+02  0.22091112471E+02  0.53617129526E+02  0.00000000000E+00 0.  1.
         11    1    1    2    0    0 -0.36516227782E+02 -0.43230641808E+02  0.14051594449E+02  0.58307551733E+02  0.00000000000E+00 0. -1.
</event>
<event>
 7    1  0.3001243E-009  0.1486686E+03  0.7561462E-02  0.1202119E+00
          3   -1    0    0  501    0  0.00000000000E+00  0.00000000000E+00  0.87542710408E+02  0.87542710408E+02  0.00000000000E+00 0. -1.
         -3   -1    0    0    0  501 -0.00000000000E+00 -0.00000000000E+00 -0.35010836894E+03  0.35010836894E+03  0.00000000000E+00 0.  1.
         25    2    1    2    0    0 -0.85060161242E+02 -0.75374462184E+02 -0.42885594543E+02  0.17436065526E+03  0.12508366521E+03 0.  0.
          5    1    3    3  502    0  0.29021114368E+02  0.45136926430E+01 -0.70864833016E+01  0.30500641732E+02  0.41800000000E+01 0.  1.
         -5    1    3    3    0  502 -0.11408127561E+03 -0.79888154827E+02 -0.35799111242E+02  0.14386001353E+03  0.41800000000E+01 0.  1.
        -11    1    1    2    0    0  0.61033772050E+02  0.83093996976E+02 -0.21382600364E+03  0.23738427390E+03  0.00000000000E+00 0.  1.
         11    1    1    2    0    0  0.24026389192E+02 -0.77195347924E+01 -0.58540603509E+01  0.25906150189E+02  0.00000000000E+00 0. -1.
</event>
<event>
 7    1  0.3001243E-009  0.7042588E+02  0.7561462E-02  0.1358651E+00
         -3   -1    0    0    0  501 -0.00000000000E+00  0.00000000000E+00  0.18581020692E+03  0.18581020692E+03  0.00000000000E+00 0.  1.
          3   -1    0    0  501    0  0.00000000000E+00 -0.00000000000E+00 -0.10519501060E+03  0.10519501060E+03  0.00000000000E+00 0. -1.
         25    2    1    2    0    0  0.79049416177E+01  0.20906519776E+02 -0.43846337252E+02  0.13442583568E+03  0.12509289883E+03 0.  0.
          5    1    3    3  502    0  0.16431706979E+02 -0.85102883495E+01 -0.82658846198E+02  0.84807919777E+02  0.41800000000E+01 0. -1.
         -5    1    3    3    0  502 -0.85267653613E+01  0.29416808125E+02  0.38812508946E+02  0.49617915903E+02  0.41800000000E+01 0. -1.
        -11    1    1    2    0    0 -0.30364423999E+02  0.25345546057E+02  0.77195863144E+02  0.86738666327E+02  0.00000000000E+00 0.  1.
         11    1    1    2    0    0  0.22459482382E+02 -0.46252065833E+02  0.47265670425E+02  0.69840715513E+02  0.00000000000E+00 0. -1.
</event>
<event>
 7    1  0.3001243E-009  0.7679127E+02  0.7561462E-02  0.1338412E+00
          1   -1    0    0  501    0  0.00000000000E+00  0.00000000000E+00  0.60679353131E+03  0.60679353131E+03  0.00000000000E+00 0. -1.
         -1   -1    0    0    0  501 -0.00000000000E+00 -0.00000000000E+00 -0.18083848078E+02  0.18083848078E+02  0.00000000000E+00 0.  1.
         25    2    1    2    0    0  0.15730945445E+02  0.20990602163E+02  0.36169044480E+03  0.38360865713E+03  0.12509019122E+03 0.  0.
          5    1    3    3  502    0 -0.23408278520E+02 -0.92549727068E+01  0.84227696179E+01  0.26870382787E+02  0.41800000000E+01 0. -1.
         -5    1    3    3    0  502  0.39139223965E+02  0.30245574870E+02  0.35326767518E+03  0.35673827434E+03  0.41800000000E+01 0. -1.
        -11    1    1    2    0    0  0.18186502240E+02 -0.36767093722E+02  0.84614795929E+02  0.94033141682E+02  0.00000000000E+00 0. -1.
         11    1    1    2    0    0 -0.33917447685E+02  0.15776491559E+02  0.14240444250E+03  0.14723558058E+03  0.00000000000E+00 0.  1.
</event>
<event>
 7    1  0.3001243E-009  0.1280359E+03  0.7561462E-02  0.1230400E+00
          2   -1    0    0  501    0  0.00000000000E+00  0.00000000000E+00  0.26736057665E+03  0.26736057665E+03  0.00000000000E+00 0. -1.
         -2   -1    0    0    0  501 -0.00000000000E+00 -0.00000000000E+00 -0.10031881291E+03  0.10031881291E+03  0.00000000000E+00 0.  1.
         25    2    1    2    0    0 -0.98319377376E+02 -0.28636051052E+02  0.14707387502E+03  0.21855256450E+03  0.12509106821E+03 0.  0.
          5    1    3    3  502    0 -0.54914064825E+02 -0.69284116424E+02  0.42502004960E+02  0.98182157900E+02  0.41800000000E+01 0.  1.
         -5    1    3    3    0  502 -0.43405312551E+02  0.40648065371E+02  0.10457187006E+03  0.12037040660E+03  0.41800000000E+01 0.  1.
        -11    1    1    2    0    0  0.90586713701E+02  0.35806642367E+02  0.55468548465E+02  0.11209294450E+03  0.00000000000E+00 0. -1.
         11    1    1    2    0    0  0.77326636752E+01 -0.71705913151E+01 -0.35500659744E+02  0.37033880563E+02  0.00000000000E+00 0.  1.
</event>
<event>
 7    1  0.3001243E-009  0.1203355E+03  0.7561462E-02  0.1242545E+00
          1   -1    0    0  501    0  0.00000000000E+00  0.00000000000E+00  0.54558556128E+03  0.54558556128E+03  0.00000000000E+00 0. -1.
         -1   -1    0    0    0  501 -0.00000000000E+00 -0.00000000000E+00 -0.48269632589E+02  0.48269632589E+02  0.00000000000E+00 0.  1.
         25    2    1    2    0    0  0.10319127653E+03  0.47713910898E+02  0.18364712734E+03  0.24960567884E+03  0.12510663726E+03 0.  0.
          5    1    3    3  502    0  0.57321183934E+02  0.21369919047E+02  0.18664515455E+03  0.19645935377E+03  0.41800000000E+01 0.  1.
         -5    1    3    3    0  502  0.45870092593E+02  0.26343991851E+02 -0.29980272114E+01  0.53146325069E+02  0.41800000000E+01 0.  1.
        -11    1    1    2    0    0 -0.73459615435E+02 -0.59274266175E+02  0.28870143387E+03  0.30374046759E+03  0.00000000000E+00 0. -1.
         11    1    1    2    0    0 -0.29731661092E+02  0.11560355277E+02  0.24967367477E+02  0.40509047436E+02  0.00000000000E+00 0.  1.
</event>
<event>
 7    1  0.3001243E-009  0.6949311E+02  0.7561462E-02  0.1361825E+00
          2   -1    0    0  501    0  0.00000000000E+00  0.00000000000E+00  0.14762788008E+03  0.14762788008E+03  0.00000000000E+00 0. -1.
         -2   -1    0    0    0  501 -0.00000000000E+00 -0.00000000000E+00 -0.10201721786E+03  0.10201721786E+03  0.00000000000E+00 0.  1.
         25    2    1    2    0    0  0.52654364272E+02 -0.15444296338E+02  0.45368712056E+02  0.14393265458E+03  0.12508909087E+03 0.  0.
          5    1    3    3  502    0  0.29770617525E+01 -0.43434858551E+01 -0.42105915251E+02  0.42639292503E+02  0.41800000000E+01 0. -1.
         -5    1    3    3    0  502  0.49677302520E+02 -0.11100810483E+02  0.87474627306E+02  0.10129336208E+03  0.41800000000E+01 0. -1.
        -11    1    1    2    0    0 -0.20748562882E+02  0.37183905883E+02 -0.33702014150E+02  0.54304433301E+02  0.00000000000E+00 0.  1.
         11    1    1    2    0    0 -0.31905801390E+02 -0.21739609545E+02  0.33943964312E+02  0.51408010064E+02  0.00000000000E+00 0. -1.
</event>
<event>
 7    1  0.3001243E-009  0.1273999E+03  0.7561462E-02  0.1231366E+00
         -1   -1    0    0    0  501 -0.00000000000E+00  0.00000000000E+00  0.32792207272E+03  0.32792207272E+03  0.00000000000E+00 0.  1.
          1   -1    0    0  501    0  0.00000000000E+00 -0.00000000000E+00 -0.77980967578E+02  0.77980967578E+02  0.00000000000E+00 0. -1.
         25    2    1    2    0    0 -0.76178037870E+02  0.49816150588E+02  0.22406601358E+03  0.27228090595E+03  0.12508625421E+03 0.  0.
          5    1    3    3  502    0 -0.15357362997E+02 -0.33732146398E+02  0.17353021762E+02  0.41137647759E+02  0.41800000000E+01 0.  1.
         -5    1    3    3    0  502 -0.60820674873E+02  0.83548296987E+02  0.20671299182E+03  0.23114325820E+03  0.41800000000E+01 0.  1.
        -11    1    1    2    0    0 -0.10943655721E+02 -0.18503148205E+02  0.34493328507E+02  0.40643816326E+02  0.00000000000E+00 0.  1.
         11    1    1    2    0    0  0.87121693591E+02 -0.31313002383E+02 -0.86182369535E+01  0.92978318014E+02  0.00000000000E+00 0. -1.
</event>
<event>
 7    1  0.3001243E-009  0.1379960E+03  0.7561462E-02  0.1216051E+00
          4   -1    0    0  501    0  0.00000000000E+00  0.00000000000E+00  0.29015262397E+02  0.29015262397E+02  0.00000000000E+00 0.  1.
         -4   -1    0    0    0  501 -0.00000000000E+00 -0.00000000000E+00 -0.81437550913E+03  0.81437550913E+03  0.00000000000E+00 0. -1.
         25    2    1    2    0    0 -0.80004557344E+02  0.45039239153E+02 -0.26783803337E+03  0.30953881509E+03  0.12509118142E+03 0.  0.
          5    1    3    3  502    0 -0.98594102654E+02  0.70836190441E+02 -0.22851964545E+03  0.25879965941E+03  0.41800000000E+01 0. -1.
         -5    1    3    3    0  502  0.18589545310E+02 -0.25796951289E+02 -0.39318387916E+02  0.50739155678E+02  0.41800000000E+01 0. -1.
        -11    1    1    2    0    0  0.23678519665E+02 -0.59716774994E+02 -0.17497989912E+03  0.18639938467E+03  0.00000000000E+00 0.  1.
         11    1    1    2    0    0  0.56326037679E+02  0.14677535842E+02 -0.34254231424E+03  0.34745257176E+03  0.00000000000E+00 0. -1.
</event>
<event>
 7    1  0.3001243E-009  0.1425789E+03  0.7561462E-02  0.1209900E+00
          2   -1    0    0  501    0  0.00000000000E+00  0.00000000000E+00  0.11845754905E+04  0.11845754905E+04  0.00000000000E+00 0. -1.
         -2   -1    0    0    0  501 -0.00000000000E+00 -0.00000000000E+00 -0.21572356746E+02  0.21572356746E+02  0.00000000000E+00 0.  1.
         25    2    1    2    0    0 -0.94530486596E+02 -0.10313568658E+02  0.87529559001E+03  0.88928766939E+03  0.12509119253E+03 0.  0.
          5    1    3    3  502    0 -0.27714799868E+02  0.55786945824E+02  0.38846242345E+03  0.39344735390E+03  0.41800000000E+01 0.  1.
         -5    1    3    3    0  502 -0.66815686728E+02 -0.66100514482E+02  0.48683316656E+03  0.49584031550E+03  0.41800000000E+01 0.  1.
        -11    1    1    2    0    0  0.80934172862E+02 -0.29834287166E+02  0.15298743689E+03  0.17562910031E+03  0.00000000000E+00 0.  1.
         11    1    1    2    0    0  0.13596313733E+02  0.40147855824E+02  0.13472010681E+03  0.14123107751E+03  0.00000000000E+00 0. -1.
</event>
<event>
 7    1  0.3001243E-009  0.1311401E+03  0.7561462E-02  0.1225774E+00
          2   -1    0    0  501    0  0.00000000000E+00  0.00000000000E+00  0.59940117140E+02  0.59940117140E+02  0.00000000000E+00 0. -1.
         -2   -1    0    0    0  501 -0.00000000000E+00 -0.00000000000E+00 -0.35436840989E+03  0.35436840989E+03  0.00000000000E+00 0.  1.
         25    2    1    2    0    0  0.81898455935E+02  0.43187267355E+02 -0.20007785549E+03  0.25347703582E+03  0.12508781829E+03 0.  0.
          5    1    3    3  502    0  0.49177413816E+02 -0.26374658357E+02 -0.23214206816E+02  0.60583928819E+02  0.41800000000E+01 0.  1.
         -5    1    3    3    0  502  0.32721042120E+02  0.69561925712E+02 -0.17686364867E+03  0.19289310700E+03  0.41800000000E+01 0.  1.
        -11    1    1    2    0    0 -0.10585519302E+02 -0.55902287018E+02 -0.51035673743E+02  0.76431400008E+02  0.00000000000E+00 0. -1.
         11    1    1    2    0    0 -0.71312936633E+02  0.12715019664E+02 -0.43314763513E+02  0.84400091200E+02  0.00000000000E+00 0.  1.
</event>
<event>
 7    1  0.3001243E-009  0.9943413E+02  0.7561462E-02  0.1281490E+00
          2   -1    0    0  501    0  0.00000000000E+00  0.00000000000E+00  0.93606314135E+03  0.93606314135E+03  0.00000000000E+00 0. -1.
         -2   -1    0    0    0  501 -0.00000000000E+00 -0.00000000000E+00 -0.17583844192E+02  0.17583844192E+02  0.00000000000E+00 0.  1.
         25    2    1    2    0    0 -0.36583077287E+02 -0.42107050656E+02  0.65976633374E+03  0.67383236779E+03  0.12508844667E+03 0.  0.
          5    1    3    3  502    0  0.28995432119E+02 -0.15154290346E+02  0.47088732405E+03  0.47204102782E+03  0.41800000000E+01 0. -1.
         -5    1    3    3    0  502 -0.65578509407E+02 -0.26952760310E+02  0.18887900969E+03  0.20179133997E+03  0.41800000000E+01 0. -1.
        -11    1    1    2    0    0  0.53478282023E+02  0.52568614272E+02  0.24350756278E+03  0.25479269807E+03  0.00000000000E+00 0. -1.
         11    1    1    2    0    0 -0.16895204735E+02 -0.10461563617E+02  0.15205400642E+02  0.25021919691E+02  0.00000000000E+00 0.  1.
</event>
<event>
 7    1  0.3001243E-009  0.6696319E+02  0.7561462E-02  0.1370735E+00
          3   -1    0    0  501    0  0.00000000000E+00  0.00000000000E+00  0.25592010550E+02  0.25592010550E+02  0.00000000000E+00 0. -1.
         -3   -1    0    0    0  501 -0.00000000000E+00 -0.00000000000E+00 -0.46246670509E+03  0.46246670509E+03  0.00000000000E+00 0.  1.
         25    2    1    2    0    0  0.10276723854E+02 -0.55268557763E+01 -0.24781987423E+03  0.27784630333E+03  0.12509085107E+03 0.  0.
          5    1    3    3  502    0 -0.13174096172E+02 -0.14812177880E+02 -0.25123722759E+03  0.25205272137E+03  0.41800000000E+01 0. -1.
         -5    1    3    3    0  502  0.23450820026E+02  0.92853221037E+01  0.34173533550E+01  0.25793581962E+02  0.41800000000E+01 0. -1.
        -11    1    1    2    0    0  0.10413629453E+02  0.43569115867E+02 -0.12593990592E+03  0.13366963544E+03  0.00000000000E+00 0.  1.
         11    1    1    2    0    0 -0.20690353308E+02 -0.38042260090E+02 -0.63114914393E+02  0.76542776874E+02  0.00000000000E+00 0. -1.
</event>
<event>
 7    1  0.3001243E-009  0.1034292E+03  0.7561462E-02  0.1273246E+00
          2   -1    0    0  501    0  0.00000000000E+00  0.00000000000E+00  0.29063051651E+03  0.29063051651E+03  0.00000000000E+00 0. -1.
         -2   -1    0    0    0  501 -0.00000000000E+00 -0.00000000000E+00 -0.73388547054E+02  0.73388547054E+02  0.00000000000E+00 0.  1.
         25    2    1    2    0    0  0.61063297391E+02  0.14869860737E+02  0.24744789306E+02  0.14215959856E+03  0.12508879974E+03 0.  0.
          5    1    3    3  502    0  0.17106607347E+02 -0.44096866088E+02 -0.24616285434E+02  0.53484610144E+02  0.41800000000E+01 0. -1.
         -5    1    3    3    0  502  0.43956690044E+02  0.58966726825E+02  0.49361074739E+02  0.88674988421E+02  0.41800000000E+01 0. -1.
        -11    1    1    2    0    0 -0.29795900139E+02 -0.36923718977E+02  0.32893303136E+02  0.57733232019E+02  0.00000000000E+00 0.  1.
         11    1    1    2    0    0 -0.31267397252E+02  0.22053858240E+02  0.15960387701E+03  0.16412623298E+03  0.00000000000E+00 0. -1.
</event>
<event>
 6    1  0.3001243E-009  0.1006887E+03  0.7561462E-02  0.1278854E+00
          2   -1    0    0  501    0  0.00000000000E+00  0.00000000000E+00  0.37981124860E+03  0.37981124860E+03  0.00000000000E+00 0. -1.
         -2   -1    0    0    0  501 -0.00000000000E+00 -0.00000000000E+00 -0.31770420850E+02  0.31770420850E+02  0.00000000000E+00 0.  1.
          5    1    1    2  502    0  0.43169642172E+02 -0.34952279584E+02  0.80930649683E+02  0.98247250910E+02  0.41800000000E+01 0.  1.
         -5    1    1    2    0  502 -0.44443479947E+02  0.54049190072E+02  0.12073765821E+03  0.13961229304E+03  0.41800000000E+01 0.  1.
        -11    1    1    2    0    0 -0.32039906415E+02 -0.26346921496E+02  0.12890382815E+03  0.13541385745E+03  0.00000000000E+00 0. -1.
         11    1    1    2    0    0  0.33313744191E+02  0.72500110085E+01  0.17468691702E+02  0.38308268055E+02  0.00000000000E+00 0.  1.
</event>
<event>
 7    1  0.3001243E-009  0.1011342E+03  0.7561462E-02  0.1277929E+00
         -2   -1    0    0    0  501 -0.00000000000E+00  0.00000000000E+00  0.84996738568E+02  0.84996738568E+02  0.00000000000E+00 0.  1.
          2   -1    0    0  501    0  0.00000000000E+00 -0.00000000000E+00 -0.20391864215E+03  0.20391864215E+03  0.00000000000E+00 0. -1.
         25    2    1    2    0    0  0.20429008238E+01  0.71564184767E+02 -0.91896250892E+02  0.17093391810E+03  0.12509147630E+03 0.  0.
          5    1    3    3  502    0 -0.51124158974E+02  0.53106775435E+02 -0.87264891211E+02  0.11430941722E+03  0.41800000000E+01 0. -1.
         -5    1    3    3    0  502  0.53167059798E+02  0.18457409332E+02 -0.46313596810E+01  0.56624500874E+02  0.41800000000E+01 0. -1.
        -11    1    1    2    0    0  0.23783547412E+01 -0.45567253268E+02 -0.60240861782E+02  0.75571109360E+02  0.00000000000E+00 0. -1.
         11    1    1    2    0    0 -0.44212555650E+01 -0.25996931499E+02  0.33215209095E+02  0.42410353257E+02  0.00000000000E+00 0.  1.
</event>
<event>
 7    1  0.3001243E-009  0.1248526E+03  0.7561462E-02  0.1235300E+00
         -2   -1    0    0    0  501 -0.00000000000E+00  0.00000000000E+00  0.35655876436E+02  0.35655876436E+02  0.00000000000E+00 0.  1.
          2   -1    0    0  501    0  0.00000000000E+00 -0.00000000000E+00 -0.53577185701E+03  0.53577185701E+03  0.00000000000E+00 0. -1.
         25    2    1    2    0    0 -0.51337826687E+02 -0.63942181622E+02 -0.23255332776E+03  0.27650134339E+03  0.12509103727E+03 0.  0.
          5    1    3    3  502    0 -0.67340898228E+02 -0.75690233567E+01 -0.19571685087E+03  0.20715850165E+03  0.41800000000E+01 0.  1.
         -5    1    3    3    0  502  0.16003071542E+02 -0.56373158265E+02 -0.36836476889E+02  0.69342841744E+02  0.41800000000E+01 0.  1.
        -11    1    1    2    0    0 -0.24451963654E+02  0.88102132199E+00 -0.39497957086E+02  0.46462493896E+02  0.00000000000E+00 0.  1.
         11    1    1    2    0    0  0.75789790340E+02  0.63061160300E+02 -0.22806469572E+03  0.24846389616E+03  0.00000000000E+00 0. -1.
</event>
<event>
 7    1  0.3001243E-009  0.9108527E+02  0.7561462E-02  0.1300245E+00
          2   -1    0    0  501    0  0.00000000000E+00  0.00000000000E+00  0.14076104652E+03  0.14076104652E+03  0.00000000000E+00 0. -1.
         -2   -1    0    0    0  501 -0.00000000000E+00 -0.00000000000E+00 -0.11284029686E+03  0.11284029686E+03  0.00000000000E+00 0.  1.
         25    2    1    2    0    0 -0.21863170105E+02  0.45684309202E+02 -0.23241272492E+02  0.13694002511E+03  0.12508940569E+03 0.  0.
          5    1    3    3  502    0  0.50112446401E+02  0.13778274860E+02  0.67747263293E+01  0.52578203271E+02  0.41800000000E+01 0. -1.
         -5    1    3    3    0  502 -0.71975616506E+02  0.31906034342E+02 -0.30015998822E+02  0.84361821840E+02  0.41800000000E+01 0. -1.
        -11    1    1    2    0    0  0.93083156893E+01 -0.27961231915E+02 -0.24262081868E+02  0.38172291623E+02  0.00000000000E+00 0.  1.
         11    1    1    2    0    0  0.12554854416E+02 -0.17723077286E+02  0.75424104012E+02  0.78489026646E+02  0.00000000000E+00 0. -1.
</event>
<event>
 7    1  0.3292235E-009  0.2177182E+03  0.7561462E-02  0.1135596E+00
          2   -1    0    0  501    0  0.00000000000E+00  0.00000000000E+00  0.10280851433E+04  0.10280851433E+04  0.00000000000E+00 0. -1.
         -2   -1    0    0    0  501 -0.00000000000E+00 -0.00000000000E+00 -0.55851097662E+02  0.55851097662E+02  0.00000000000E+00 0.  1.
         25    2    1    2    0    0  0.16964862217E+03 -0.12055155248E+03  0.60594941951E+03  0.65279053093E+03  0.12508975361E+03 0.  0.
          5    1    3    3  502    0  0.14050438806E+03 -0.11935760812E+03  0.35425179509E+03  0.39937392054E+03  0.41800000000E+01 0. -1.
         -5    1    3    3    0  502  0.29144234102E+02 -0.11939443634E+01  0.25169762442E+03  0.25341661039E+03  0.41800000000E+01 0. -1.
        -11    1    1    2    0    0 -0.53994483138E+02  0.84763571474E+02  0.21543185605E+03  0.23772074343E+03  0.00000000000E+00 0. -1.
         11    1    1    2    0    0 -0.11565413903E+03  0.35787981006E+02  0.15085277004E+03  0.19342496656E+03  0.00000000000E+00 0.  1.
</event>
<event>
 7    1  0.3001243E-009  0.1498655E+03  0.7561462E-02  0.1200638E+00
          2   -1    0    0  501    0  0.00000000000E+00  0.00000000000E+00  0.19187296169E+03  0.19187296169E+03  0.00000000000E+00 0. -1.
         -2   -1    0    0    0  501 -0.00000000000E+00 -0.00000000000E+00 -0.18601027031E+03  0.18601027031E+03  0.00000000000E+00 0.  1.
         25    2    1    2    0    0  0.11804876096E+03  0.38427635502E+02 -0.88610914909E+02  0.19725402617E+03  0.12508022811E+03 0.  0.
          5    1    3    3  502    0 -0.25944982534E+02 -0.29302552703E+00 -0.68960173896E+01  0.27170856418E+02  0.41800000000E+01 0.  1.
         -5    1    3    3    0  502  0.14399374350E+03  0.38720661029E+02 -0.81714897519E+02  0.17008316975E+03  0.41800000000E+01 0.  1.
        -11    1    1    2    0    0 -0.55146572168E+02 -0.14899727082E+02 -0.84370778203E+01  0.57743662605E+02  0.00000000000E+00 0.  1.
         11    1    1    2    0    0 -0.62902188794E+02 -0.23527908421E+02  0.10291068411E+03  0.12288554323E+03  0.00000000000E+00 0. -1.
</event>
<event>
 7    1  0.3001243E-009  0.1740484E+03  0.7561462E-02  0.1173691E+00
          2   -1    0    0  501    0  0.00000000000E+00  0.00000000000E+00  0.10183450008E+03  0.10183450008E+03  0.00000000000E+00 0. -1.
         -2   -1    0    0    0  501 -0.00000000000E+00 -0.00000000000E+00 -0.33954189183E+03  0.33954189183E+03  0.00000000000E+00 0.  1.
         25    2    1    2    0    0 -0.14980859987E+03  0.10709714702E+02 -0.13301617955E+03  0.23642605365E+03  0.12508661094E+03 0.  0.
          5    1    3    3  502    0 -0.12069838970E+03  0.56638527359E+02 -0.12203762841E+03  0.18079457737E+03  0.41800000000E+01 0.  1.
         -5    1    3    3    0  502 -0.29110210168E+02 -0.45928812657E+02 -0.10978551146E+02  0.55631476282E+02  0.41800000000E+01 0.  1.
        -11    1    1    2    0    0  0.22211140067E+02 -0.23006220062E+02 -0.62137133619E+02  0.69883075770E+02  0.00000000000E+00 0.  1.
         11    1    1    2    0    0  0.12759745980E+03  0.12296505360E+02 -0.42554078577E+02  0.13506726249E+03  0.00000000000E+00 0. -1.
</event>
<event>
 7    1  0.3001243E-009  0.9628999E+02  0.7561462E-02  0.1288297E+00
         -1   -1    0    0    0  501 -0.00000000000E+00  0.00000000000E+00  0.31398477076E+02  0.31398477076E+02  0.00000000000E+00 0.  1.
          1   -1    0    0  501    0  0.00000000000E+00 -0.00000000000E+00 -0.37368955584E+03  0.37368955584E+03  0.00000000000E+00 0. -1.
         25    2    1    2    0    0 -0.42460870062E+01  0.10362275137E+02 -0.19361040937E+03  0.23077690071E+03  0.12509029252E+03 0.  0.
          5    1    3    3  502    0  0.55361838186E+02 -0.19362474181E+02 -0.94011066659E+02  0.11088458679E+03  0.41800000000E+01 0.  1.
         -5    1    3    3    0  502 -0.59607925192E+02  0.29724749318E+02 -0.99599342712E+02  0.11989231392E+03  0.41800000000E+01 0.  1.
        -11    1    1    2    0    0  0.22119797601E+02 -0.32047359679E+02 -0.13936903105E+03  0.14470675701E+03  0.00000000000E+00 0. -1.
         11    1    1    2    0    0 -0.17873710595E+02  0.21685084542E+02 -0.93116383379E+01  0.29604375193E+02  0.00000000000E+00 0.  1.
</event>
<event>
 7    1  0.3001243E-009  0.1262055E+03  0.7561462E-02  0.1233197E+00
         -2   -1    0    0    0  501 -0.00000000000E+00  0.00000000000E+00  0.11581503181E+03  0.11581503181E+03  0.00000000000E+00 0. -1.
          2   -1    0    0  501    0  0.00000000000E+00 -0.00000000000E+00 -0.17799369841E+03  0.17799369841E+03  0.00000000000E+00 0.  1.
         25    2    1    2    0    0  0.16708134705E+02  0.92783138700E+02 -0.42201331157E+02  0.16220593272E+03  0.12506774031E+03 0.  0.
          5    1    3    3  502    0  0.77290222979E+01 -0.29925055891E+02 -0.20171556633E+02  0.37143113127E+02  0.41800000000E+01 0. -1.
         -5    1    3    3    0  502  0.89791124073E+01  0.12270819459E+03 -0.22029774524E+02  0.12506281959E+03  0.41800000000E+01 0. -1.
        -11    1    1    2    0    0 -0.23126962357E+02 -0.53119502176E+02 -0.53814652229E+02  0.79073097156E+02  0.00000000000E+00 0.  1.
         11    1    1    2    0    0  0.64188276520E+01 -0.39663636524E+02  0.33837316792E+02  0.52529700346E+02  0.00000000000E+00 0. -1.
</event>
<event>
 7    1  0.3001243E-009  0.1056553E+03  0.7561462E-02  0.1268834E+00
         -1   -1    0    0    0  501 -0.00000000000E+00  0.00000000000E+00  0.40184684278E+02  0.40184684278E+02  0.00000000000E+00 0.  1.
          1   -1    0    0  501    0  0.00000000000E+00 -0.00000000000E+00 -0.29656706325E+03  0.29656706325E+03  0.00000000000E+00 0. -1.
         25    2    1    2    0    0 -0.44422005627E+01  0.13028235694E+02 -0.11491736073E+03  0.17041722419E+03  0.12508621999E+03 0.  0.
          5    1    3    3  502    0  0.59973678431E+02  0.10647764759E+02 -0.60538652234E+02  0.85980333875E+02  0.41800000000E+01 0. -1.
         -5    1    3    3    0  502 -0.64415878994E+02  0.23804709349E+01 -0.54378708491E+02  0.84436890312E+02  0.41800000000E+01 0. -1.
        -11    1    1    2    0    0  0.32264785883E+02  0.23375234554E+02 -0.82889525474E+02  0.91967882611E+02  0.00000000000E+00 0. -1.
         11    1    1    2    0    0 -0.27822585321E+02 -0.36403470247E+02 -0.58575492776E+02  0.74366640733E+02  0.00000000000E+00 0.  1.
</event>
<event>
 7    1  0.3001243E-009  0.9729258E+02  0.7561462E-02  0.1286095E+00
         -2   -1    0    0    0  501 -0.00000000000E+00  0.00000000000E+00  0.53756595110E+02  0.53756595110E+02  0.00000000000E+00 0.  1.
          2   -1    0    0  501    0  0.00000000000E+00 -0.00000000000E+00 -0.42988859979E+03  0.42988859979E+03  0.00000000000E+00 0. -1.
         25    2    1    2    0    0  0.26696752970E+02  0.61848368785E+02 -0.33524156257E+03  0.36408550575E+03  0.12503364699E+03 0.  0.
          5    1    3    3  502    0  0.83632821568E+01 -0.91819723892E+01 -0.25480152718E+03  0.25513828360E+03  0.41800000000E+01 0. -1.
         -5    1    3    3    0  502  0.18333470813E+02  0.71030341174E+02 -0.80440035388E+02  0.10894722214E+03  0.41800000000E+01 0. -1.
        -11    1    1    2    0    0  0.55245742036E+01 -0.73524609095E+02 -0.11930860814E+02  0.74690926507E+02  0.00000000000E+00 0.  1.
         11    1    1    2    0    0 -0.32221327173E+02  0.11676240310E+02 -0.28959581296E+02  0.44868762646E+02  0.00000000000E+00 0. -1.
</event>
<event>
 6    1  0.3001243E-009  0.1870894E+03  0.7561462E-02  0.1161113E+00
          3   -1    0    0  501    0  0.00000000000E+00  0.00000000000E+00  0.23283499435E+02  0.23283499435E+02  0.00000000000E+00 0.  1.
         -3   -1    0    0    0  501 -0.00000000000E+00 -0.00000000000E+00 -0.15134509642E+04  0.15134509642E+04  0.00000000000E+00 0. -1.
          5    1    1    2  502    0  0.17602792865E+01  0.13649761558E+03 -0.57336695042E+03  0.58940803343E+03  0.41800000000E+01 0. -1.
         -5    1    1    2    0  502  0.62573493723E+02  0.50162234657E+01 -0.23933788072E+03  0.24746858015E+03  0.41800000000E+01 0. -1.
        -11    1    1    2    0    0 -0.63116470002E+02 -0.43461980387E+02 -0.26181669141E+03  0.27280141573E+03  0.00000000000E+00 0. -1.
         11    1    1    2    0    0 -0.12173030067E+01 -0.98051858659E+02 -0.41564594223E+03  0.42705643433E+03  0.00000000000E+00 0.  1.
</event>
<event>
 7    1  0.3001243E-009  0.1294096E+03  0.7561462E-02  0.1228334E+00
         -1   -1    0    0    0  501 -0.00000000000E+00  0.00000000000E+00  0.38437111298E+02  0.38437111298E+02  0.00000000000E+00 0.  1.
          1   -1    0    0  501    0  0.00000000000E+00 -0.00000000000E+00 -0.85353667583E+03  0.85353667583E+03  0.00000000000E+00 0. -1.
         25    2    1    2    0    0 -0.32359227200E+02 -0.99665081952E+02 -0.68131529401E+03  0.70058412817E+03  0.12508933864E+03 0.  0.
          5    1    3    3  502    0  0.17668911225E+02 -0.47504565133E+02 -0.53425765734E+03  0.53667270375E+03  0.41800000000E+01 0. -1.
         -5    1    3    3    0  502 -0.50028138425E+02 -0.52160516819E+02 -0.14705763668E+03  0.16391142442E+03  0.41800000000E+01 0. -1.
        -11    1    1    2    0    0 -0.25963694466E+02  0.84553620777E+01 -0.17107183076E+02  0.32222077695E+02  0.00000000000E+00 0.  1.
         11    1    1    2    0    0  0.58322921666E+02  0.91209719874E+02 -0.11667708745E+03  0.15916758127E+03  0.00000000000E+00 0. -1.
</event>
<event>
 7    1  0.3001243E-009  0.1665865E+03  0.7561462E-02  0.1181455E+00
          2   -1    0    0  501    0  0.00000000000E+00  0.00000000000E+00  0.10227837932E+04  0.10227837932E+04  0.00000000000E+00 0. -1.
         -2   -1    0    0    0  501 -0.00000000000E+00 -0.00000000000E+00 -0.30801317187E+02  0.30801317187E+02  0.00000000000E+00 0.  1.
         25    2    1    2    0    0 -0.11579239580E+03  0.75693639677E+02  0.49711514599E+03  0.53095070674E+03  0.12509108122E+03 0.  0.
          5    1    3    3  502    0 -0.11431434356E+03  0.19482459103E+02  0.41794041162E+03  0.43374992267E+03  0.41800000000E+01 0. -1.
         -5    1    3    3    0  502 -0.14780522399E+01  0.56211180574E+02  0.79174734378E+02  0.97200784070E+02  0.41800000000E+01 0. -1.
        -11    1    1    2    0    0  0.11109838398E+03 -0.30358321652E+02  0.41491964312E+03  0.43060746494E+03  0.00000000000E+00 0. -1.
         11    1    1    2    0    0  0.46940118159E+01 -0.45335318025E+02  0.79947686920E+02  0.92026938725E+02  0.00000000000E+00 0.  1.
</event>
<event>
 7    1  0.3001243E-009  0.1470591E+03  0.7561462E-02  0.1204134E+00
          2   -1    0    0  501    0  0.00000000000E+00  0.00000000000E+00  0.93178437176E+03  0.93178437176E+03  0.00000000000E+00 0. -1.
         -2   -1    0    0    0  501 -0.00000000000E+00 -0.00000000000E+00 -0.40440951074E+02  0.40440951074E+02  0.00000000000E+00 0.  1.
         25    2    1    2    0    0 -0.43557123307E+02  0.11925951209E+03  0.22052231299E+03  0.28354404234E+03  0.12508828565E+03 0.  0.
          5    1    3    3  502    0  0.18162051929E+02  0.11374218049E+00  0.10437549543E+03  0.10602636235E+03  0.41800000000E+01 0.  1.
         -5    1    3    3    0  502 -0.61719175236E+02  0.11914576991E+03  0.11614681756E+03  0.17751767999E+03  0.41800000000E+01 0.  1.
        -11    1    1    2    0    0  0.31138015559E+02 -0.12179103468E+02  0.62485719560E+02  0.70868693534E+02  0.00000000000E+00 0.  1.
         11    1    1    2    0    0  0.12419107748E+02 -0.10708040862E+03  0.60833538814E+03  0.61781258696E+03  0.00000000000E+00 0. -1.
</event>
<event>
 7    1  0.3001243E-009  0.1171229E+03  0.7561462E-02  0.1247920E+00
         -1   -1    0    0    0  501 -0.00000000000E+00  0.00000000000E+00  0.38137725607E+03  0.38137725607E+03  0.00000000000E+00 0.  1.
          1   -1    0    0  501    0  0.00000000000E+00 -0.00000000000E+00 -0.64253081915E+02  0.64253081915E+02  0.00000000000E+00 0. -1.
         25    2    1    2    0    0  0.10995264887E+02  0.39485686598E+02  0.22427217532E+02  0.13350037508E+03  0.12505740588E+03 0.  0.
          5    1    3    3  502    0  0.66633791229E+02  0.72326648735E+01  0.11183698264E+02  0.68080254712E+02  0.41800000000E+01 0. -1.
         -5    1    3    3    0  502 -0.55638526342E+02  0.32253021725E+02  0.11243519269E+02  0.65420120371E+02  0.41800000000E+01 0. -1.
        -11    1    1    2    0    0  0.11301416233E+02 -0.66592633206E+02  0.20318884036E+03  0.21412147406E+03  0.00000000000E+00 0.  1.
         11    1    1    2    0    0 -0.22296681121E+02  0.27106946608E+02  0.91508116261E+02  0.98008488842E+02  0.00000000000E+00 0. -1.
</event>
<event>
 7    1  0.3001243E-009  0.1004402E+03  0.7561462E-02  0.1279373E+00
         -1   -1    0    0    0  501 -0.00000000000E+00  0.00000000000E+00  0.28196319931E+03  0.28196319931E+03  0.00000000000E+00 0.  1.
          1   -1    0    0  501    0  0.00000000000E+00 -0.00000000000E+00 -0.42932759556E+02  0.42932759556E+02  0.00000000000E+00 0. -1.
         25    2    1    2    0    0 -0.11163799533E+02 -0.10568357791E+02  0.16503193322E+03  0.20765161696E+03  0.12508930586E+03 0.  0.
          5    1    3    3  502    0  0.32130900373E+02 -0.52628988144E+02  0.10838057271E+03  0.12476388137E+03  0.41800000000E+01 0. -1.
         -5    1    3    3    0  502 -0.43294699905E+02  0.42060630352E+02  0.56651360505E+02  0.82887735598E+02  0.41800000000E+01 0. -1.
        -11    1    1    2    0    0 -0.20107696163E+02 -0.24427276439E+02  0.25246975417E+01  0.31739334853E+02  0.00000000000E+00 0. -1.
         11    1    1    2    0    0  0.31271495696E+02  0.34995634230E+02  0.71473808991E+02  0.85505007045E+02  0.00000000000E+00 0.  1.
</event>
<event>
 7    1  0.3001243E-009  0.1153908E+03  0.7561462E-02  0.1250900E+00
         -2   -1    0    0    0  501 -0.00000000000E+00  0.00000000000E+00  0.20324842086E+02  0.20324842086E+02  0.00000000000E+00 0.  1.
          2   -1    0    0  501    0  0.00000000000E+00 -0.00000000000E+00 -0.74567302248E+03  0.74567302248E+03  0.00000000000E+00 0. -1.
         25    2    1    2    0    0 -0.21915059234E+02 -0.50115696116E+02 -0.47245660414E+03  0.49178725505E+03  0.12509040175E+03 0.  0.
          5    1    3    3  502    0  0.41652205643E+01  0.35337005217E+02 -0.24103331825E+03  0.24368132039E+03  0.41800000000E+01 0. -1.
         -5    1    3    3    0  502 -0.26080279799E+02 -0.85452701332E+02 -0.23142328589E+03  0.24810593465E+03  0.41800000000E+01 0. -1.
        -11    1    1    2    0    0 -0.14952376348E+02  0.64297062934E+02 -0.17070438650E+03  0.18302369636E+03  0.00000000000E+00 0. -1.
         11    1    1    2    0    0  0.36867435583E+02 -0.14181366819E+02 -0.82187189759E+02  0.91186913161E+02  0.00000000000E+00 0.  1.
</event>
<event>
 7    1  0.3001243E-009  0.1305758E+03  0.7561462E-02  0.1226604E+00
         -2   -1    0    0    0  501 -0.00000000000E+00  0.00000000000E+00  0.11652713361E+03  0.11652713361E+03  0.00000000000E+00 0.  1.
          2   -1    0    0  501    0  0.00000000000E+00 -0.00000000000E+00 -0.17376151071E+03  0.17376151071E+03  0.00000000000E+00 0. -1.
         25    2    1    2    0    0  0.64258055013E+02  0.57191057310E+02 -0.59573705281E+02  0.16308459844E+03  0.12509054808E+03 0.  0.
          5    1    3    3  502    0  0.98234134013E+02  0.52664701650E+02 -0.63473301092E+02  0.12833490654E+03  0.41800000000E+01 0. -1.
         -5    1    3    3    0  502 -0.33976079000E+02  0.45263556593E+01  0.38995958108E+01  0.34749691902E+02  0.41800000000E+01 0. -1.
        -11    1    1    2    0    0  0.42671512467E+01 -0.45339260585E+02 -0.25619684475E+02  0.52251558472E+02  0.00000000000E+00 0. -1.
         11    1    1    2    0    0 -0.68525206260E+02 -0.11851796725E+02  0.27959012657E+02  0.74952487399E+02  0.00000000000E+00 0.  1.
</event>
<event>
 6    1  0.3001243E-009  0.1198400E+03  0.7561462E-02  0.1243361E+00
         -1   -1    0    0    0  501 -0.00000000000E+00  0.00000000000E+00  0.19034501173E+03  0.19034501173E+03  0.00000000000E+00 0.  1.
          1   -1    0    0  501    0  0.00000000000E+00 -0.00000000000E+00 -0.97608683205E+02  0.97608683205E+02  0.00000000000E+00 0. -1.
          5    1    1    2  502    0  0.17607142707E+02 -0.33452634643E+02  0.40464501281E+02  0.55533219812E+02  0.41800000000E+01 0.  1.
         -5    1    1    2    0  502 -0.95411134905E+02  0.11713466422E+02 -0.96932552448E+01  0.96705333652E+02  0.41800000000E+01 0.  1.
        -11    1    1    2    0    0  0.23363130231E+02  0.41406912551E+02 -0.42891892886E+01  0.47736415931E+02  0.00000000000E+00 0. -1.
         11    1    1    2    0    0  0.54440861967E+02 -0.19667744331E+02  0.66254271779E+02  0.87978725540E+02  0.00000000000E+00 0.  1.
</event>
<event>
 7    1  0.3620917E-009  0.1591607E+03  0.7561462E-02  0.1189648E+00
          1   -1    0    0  501    0  0.00000000000E+00  0.00000000000E+00  0.13736726858E+04  0.13736726858E+04  0.00000000000E+00 0. -1.
         -1   -1    0    0    0  501 -0.00000000000E+00 -0.00000000000E+00 -0.24378895991E+02  0.24378895991E+02  0.00000000000E+00 0.  1.
         25    2    1    2    0    0  0.10579543833E+03 -0.10173797801E+03  0.71468400625E+03  0.74024590701E+03  0.12508990012E+03 0.  0.
          5    1    3    3  502    0  0.10224299220E+03 -0.87725130523E+02  0.34705404664E+03  0.37230808703E+03  0.41800000000E+01 0. -1.
         -5    1    3    3    0  502  0.35524461334E+01 -0.14012847488E+02  0.36762995961E+03  0.36793781998E+03  0.41800000000E+01 0. -1.
        -11    1    1    2    0    0 -0.33957158059E+02  0.89356772883E+02  0.43287424389E+03  0.44330331881E+03  0.00000000000E+00 0. -1.
         11    1    1    2    0    0 -0.71838280270E+02  0.12381205128E+02  0.20173553965E+03  0.21450235596E+03  0.00000000000E+00 0.  1.
</event>
<event>
 7    1  0.3001243E-009  0.8927676E+02  0.7561462E-02  0.1304613E+00
          2   -1    0    0  501    0  0.00000000000E+00  0.00000000000E+00  0.16033552601E+03  0.16033552601E+03  0.00000000000E+00 0.  1.
         -2   -1    0    0    0  501 -0.00000000000E+00 -0.00000000000E+00 -0.90004842881E+02  0.90004842881E+02  0.00000000000E+00 0. -1.
         25    2    1    2    0    0  0.29078786487E+02  0.13464041474E+02 -0.18451275120E+01  0.12915244545E+03  0.12510033347E+03 0.  0.
          5    1    3    3  502    0  0.38715285577E+02 -0.47650090106E+02 -0.19715248704E+02  0.64618633968E+02  0.41800000000E+01 0. -1.
         -5    1    3    3    0  502 -0.96364990902E+01  0.61114131579E+02  0.17870121192E+02  0.64533811485E+02  0.41800000000E+01 0. -1.
        -11    1    1    2    0    0 -0.39894641532E+02 -0.30822554815E+01 -0.69861460892E+01  0.40618825180E+02  0.00000000000E+00 0. -1.
         11    1    1    2    0    0  0.10815855045E+02 -0.10381785992E+02  0.79161956729E+02  0.80569098256E+02  0.00000000000E+00 0.  1.
</event>
<event>
 7    1  0.3001243E-009  0.7614838E+02  0.7561462E-02  0.1340351E+00
          3   -1    0    0  501    0  0.00000000000E+00  0.00000000000E+00  0.22217154486E+03  0.22217154486E+03  0.00000000000E+00 0. -1.
         -3   -1    0    0    0  501 -0.00000000000E+00 -0.00000000000E+00 -0.37798908751E+02  0.37798908751E+02  0.00000000000E+00 0.  1.
         25    2    1    2    0    0  0.88951455688E+01  0.60522975923E+01  0.13031689587E+03  0.18095789828E+03  0.12509002231E+03 0.  0.
          5    1    3    3  502    0  0.58022896215E+02  0.22111300144E+02  0.32411049104E+02  0.70167760283E+02  0.41800000000E+01 0. -1.
         -5    1    3    3    0  502 -0.49127750646E+02 -0.16059002552E+02  0.97905846768E+02  0.11079013800E+03  0.41800000000E+01 0. -1.
        -11    1    1    2    0    0 -0.77465042805E+01  0.15128517925E+02 -0.37781809377E+01  0.17411347862E+02  0.00000000000E+00 0.  1.
         11    1    1    2    0    0 -0.11486412883E+01 -0.21180815517E+02  0.57833921177E+02  0.61601207468E+02  0.00000000000E+00 0. -1.
</event>
<event>
 7    1  0.3001243E-009  0.1227061E+03  0.7561462E-02  0.1238698E+00
         -1   -1    0    0    0  501 -0.00000000000E+00  0.00000000000E+00  0.24904907377E+03  0.24904907377E+03  0.00000000000E+00 0.  1.
          1   -1    0    0  501    0  0.00000000000E+00 -0.00000000000E+00 -0.86288055266E+02  0.86288055266E+02  0.00000000000E+00 0. -1.
         25    2    1    2    0    0 -0.67910263101E+02 -0.56297844581E+02  0.38830425775E+02  0.15791131888E+03  0.12508769534E+03 0.  0.
          5    1    3    3  502    0  0.10328427773E+00  0.29823135605E+02  0.37486130547E+02  0.48084430623E+02  0.41800000000E+01 0. -1.
         -5    1    3    3    0  502 -0.68013547378E+02 -0.86120980185E+02  0.13442952287E+01  0.10982688826E+03  0.41800000000E+01 0. -1.
        -11    1    1    2    0    0  0.12292444716E+02  0.47628697170E+02  0.97816090412E+01  0.50152535994E+02  0.00000000000E+00 0. -1.
         11    1    1    2    0    0  0.55617818384E+02  0.86691474110E+01  0.11414898368E+03  0.12727327416E+03  0.00000000000E+00 0.  1.
</event>
<event>
 7    1  0.3001243E-009  0.1481696E+03  0.7561462E-02  0.1202740E+00
          1   -1    0    0  501    0  0.00000000000E+00  0.00000000000E+00  0.67321284416E+03  0.67321284416E+03  0.00000000000E+00 0. -1.
         -1   -1    0    0    0  501 -0.00000000000E+00 -0.00000000000E+00 -0.46594089257E+02  0.46594089257E+02  0.00000000000E+00 0.  1.
         25    2    1    2    0    0 -0.74501099443E+00 -0.10317938309E+03  0.52332575894E+03  0.54787214591E+03  0.12508996029E+03 0.  0.
          5    1    3    3  502    0 -0.62311338077E+02 -0.54186832552E+02  0.24285967559E+03  0.25654865055E+03  0.41800000000E+01 0. -1.
         -5    1    3    3    0  502  0.61566327082E+02 -0.48992550543E+02  0.28046608335E+03  0.29132349536E+03  0.41800000000E+01 0. -1.
        -11    1    1    2    0    0 -0.39606726644E+02  0.24862052745E+02  0.52227948049E+02  0.70104015717E+02  0.00000000000E+00 0. -1.
         11    1    1    2    0    0  0.40351737639E+02  0.78317330350E+02  0.51065047915E+02  0.10183077178E+03  0.00000000000E+00 0.  1.
</event>
<event>
 7    1  0.3001243E-009  0.9896158E+02  0.7561462E-02  0.1282495E+00
         -2   -1    0    0    0  501 -0.00000000000E+00  0.00000000000E+00  0.97256146790E+02  0.97256146790E+02  0.00000000000E+00 0.  1.
          2   -1    0    0  501    0  0.00000000000E+00 -0.00000000000E+00 -0.16333813876E+03  0.16333813876E+03  0.00000000000E+00 0. -1.
         25    2    1    2    0    0 -0.21428924395E+02  0.40021626057E+02 -0.85385701338E+02  0.15810662240E+03  0.12508419844E+03 0.  0.
          5    1    3    3  502    0 -0.66587318773E+02  0.53757798034E+02 -0.54769032610E+02  0.10169017260E+03  0.41800000000E+01 0. -1.
         -5    1    3    3    0  502  0.45158394377E+02 -0.13736171978E+02 -0.30616668728E+02  0.56416449794E+02  0.41800000000E+01 0. -1.
        -11    1    1    2    0    0  0.35809887100E+02 -0.22943020820E+02 -0.27490112634E+02  0.50640265709E+02  0.00000000000E+00 0. -1.
         11    1    1    2    0    0 -0.14380962705E+02 -0.17078605237E+02  0.46793821997E+02  0.51847397449E+02  0.00000000000E+00 0.  1.
</event>
<event>
 7    1  0.3001243E-009  0.1486559E+03  0.7561462E-02  0.1202134E+00
         -4   -1    0    0    0  501 -0.00000000000E+00  0.00000000000E+00  0.26327185156E+03  0.26327185156E+03  0.00000000000E+00 0.  1.
          4   -1    0    0  501    0  0.00000000000E+00 -0.00000000000E+00 -0.10366558631E+03  0.10366558631E+03  0.00000000000E+00 0. -1.
         25    2    1    2    0    0  0.83565071457E+02  0.88778533020E+02  0.10787839300E+03  0.20530664100E+03  0.12509324550E+03 0.  0.
          5    1    3    3  502    0  0.49519116379E+02  0.62362084519E+00 -0.13425314758E+02  0.51480513462E+02  0.41800000000E+01 0.  1.
         -5    1    3    3    0  502  0.34045955078E+02  0.88154912175E+02  0.12130370776E+03  0.15382612754E+03  0.41800000000E+01 0.  1.
        -11    1    1    2    0    0 -0.19588569001E+02 -0.86831126292E+02  0.27056967729E+02  0.93034595884E+02  0.00000000000E+00 0. -1.
         11    1    1    2    0    0 -0.63976502456E+02 -0.19474067281E+01  0.24670904519E+02  0.68596200983E+02  0.00000000000E+00 0.  1.
</event>
<event>
 7    1  0.3001243E-009  0.1245315E+03  0.7561462E-02  0.1235803E+00
         -2   -1    0    0    0  501 -0.00000000000E+00  0.00000000000E+00  0.20399225959E+03  0.20399225959E+03  0.00000000000E+00 0. -1.
          2   -1    0    0  501    0  0.00000000000E+00 -0.00000000000E+00 -0.11405795827E+03  0.11405795827E+03  0.00000000000E+00 0.  1.
         25    2    1    2    0    0  0.49787016094E+02  0.55314159418E+02  0.13037417091E+03  0.19540303598E+03  0.12508604569E+03 0.  0.
          5    1    3    3  502    0 -0.36499192077E+02  0.32231525626E+02  0.18669127236E+02  0.52317023789E+02  0.41800000000E+01 0. -1.
         -5    1    3    3    0  502  0.86286208171E+02  0.23082633792E+02  0.11170504368E+03  0.14308601220E+03  0.41800000000E+01 0. -1.
        -11    1    1    2    0    0  0.11730510251E+02 -0.47302463526E+02 -0.35733527426E+02  0.60431886522E+02  0.00000000000E+00 0.  1.
         11    1    1    2    0    0 -0.61517526344E+02 -0.80116958924E+01 -0.47063421691E+01  0.62215295348E+02  0.00000000000E+00 0. -1.
</event>
<event>
 7    1  0.3001243E-009  0.1168609E+03  0.7561462E-02  0.1248367E+00
          3   -1    0    0  501    0  0.00000000000E+00  0.00000000000E+00  0.35526962357E+03  0.35526962357E+03  0.00000000000E+00 0. -1.
         -3   -1    0    0    0  501 -0.00000000000E+00 -0.00000000000E+00 -0.53891958049E+02  0.53891958049E+02  0.00000000000E+00 0.  1.
         25    2    1    2    0    0 -0.60983017151E+02  0.22969541152E+02  0.85026659303E+02  0.16469428361E+03  0.12509254997E+03 0.  0.
          5    1    3    3  502    0 -0.64178737309E+02  0.65277138169E+02  0.32926269659E+02  0.97373644914E+02  0.41800000000E+01 0. -1.
         -5    1    3    3    0  502  0.31957201577E+01 -0.42307597017E+02  0.52100389645E+02  0.67320638692E+02  0.41800000000E+01 0. -1.
        -11    1    1    2    0    0  0.18508829065E+02  0.27711818543E+02  0.13787903248E+03  0.14184903679E+03  0.00000000000E+00 0. -1.
         11    1    1    2    0    0  0.42474188086E+02 -0.50681359695E+02  0.78471973731E+02  0.10261826122E+03  0.00000000000E+00 0.  1.
</event>
<event>
 7    1  0.3001243E-009  0.2316671E+03  0.7561462E-02  0.1125472E+00
          1   -1    0    0  501    0  0.00000000000E+00  0.00000000000E+00  0.71012172020E+03  0.71012172020E+03  0.00000000000E+00 0. -1.
         -1   -1    0    0    0  501 -0.00000000000E+00 -0.00000000000E+00 -0.12670504752E+03  0.12670504752E+03  0.00000000000E+00 0.  1.
         25    2    1    2    0    0  0.17785914073E+03  0.12038148578E+03  0.48404068384E+02  0.25321241126E+03  0.12509194746E+03 0.  0.
          5    1    3    3  502    0  0.98330679202E+02  0.13079810285E+03  0.94900143062E+01  0.16396523702E+03  0.41800000000E+01 0. -1.
         -5    1    3    3    0  502  0.79528461526E+02 -0.10416617065E+02  0.38914054078E+02  0.89247174232E+02  0.41800000000E+01 0. -1.
        -11    1    1    2    0    0 -0.92763390510E+02 -0.89217686632E+02  0.40631359521E+03  0.42621072239E+03  0.00000000000E+00 0. -1.
         11    1    1    2    0    0 -0.85095750217E+02 -0.31163799151E+02  0.12869900908E+03  0.15740363408E+03  0.00000000000E+00 0.  1.
</event>
<event>
 7    1  0.3001243E-009  0.1520761E+03  0.7561462E-02  0.1197945E+00
          2   -1    0    0  501    0  0.00000000000E+00  0.00000000000E+00  0.12910545985E+03  0.12910545985E+03  0.00000000000E+00 0. -1.
         -2   -1    0    0    0  501 -0.00000000000E+00 -0.00000000000E+00 -0.24074873789E+03  0.24074873789E+03  0.00000000000E+00 0.  1.
         25    2    1    2    0    0  0.44041316953E+02  0.12521025822E+03 -0.17146954422E+02  0.18319147840E+03  0.12509138001E+03 0.  0.
          5    1    3    3  502    0 -0.86400320079E+01  0.57195993457E+02  0.47930596814E+02  0.75238596024E+02  0.41800000000E+01 0.  1.
         -5    1    3    3    0  502  0.52681348961E+02  0.68014264761E+02 -0.65077551236E+02  0.10795288238E+03  0.41800000000E+01 0.  1.
        -11    1    1    2    0    0 -0.71705124090E+02 -0.95586151811E+02 -0.79119122810E+02  0.14331145395E+03  0.00000000000E+00 0.  1.
         11    1    1    2    0    0  0.27663807137E+02 -0.29624106407E+02 -0.15377200811E+02  0.43351265386E+02  0.00000000000E+00 0. -1.
</event>
<event>
 7    1  0.3001243E-009  0.1167518E+03  0.7561462E-02  0.1248554E+00
          2   -1    0    0  501    0  0.00000000000E+00  0.00000000000E+00  0.97413666606E+02  0.97413666606E+02  0.00000000000E+00 0. -1.
         -2   -1    0    0    0  501 -0.00000000000E+00 -0.00000000000E+00 -0.27374369125E+03  0.27374369125E+03  0.00000000000E+00 0.  1.
         25    2    1    2    0    0 -0.69019375720E+01 -0.73626834138E+02 -0.20406811821E+03  0.25052069526E+03  0.12509306310E+03 0.  0.
          5    1    3    3  502    0  0.19927104933E+02  0.15570369540E+02  0.57456515842E+00  0.25638417341E+02  0.41800000000E+01 0.  1.
         -5    1    3    3    0  502 -0.26829042505E+02 -0.89197203678E+02 -0.20464268337E+03  0.22488227792E+03  0.41800000000E+01 0.  1.
        -11    1    1    2    0    0  0.19501340581E+02 -0.15319482600E+02 -0.44788406797E+01  0.25200175504E+02  0.00000000000E+00 0.  1.
         11    1    1    2    0    0 -0.12599403009E+02  0.88946316739E+02  0.32216934241E+02  0.95436487097E+02  0.00000000000E+00 0. -1.
</event>
<event>
 7    1  0.3001243E-009  0.1286859E+03  0.7561462E-02  0.1229419E+00
         -1   -1    0    0    0  501 -0.00000000000E+00  0.00000000000E+00  0.29358777980E+03  0.29358777980E+03  0.00000000000E+00 0.  1.
          1   -1    0    0  501    0  0.00000000000E+00 -0.00000000000E+00 -0.86018290033E+02  0.86018290033E+02  0.00000000000E+00 0. -1.
         25    2    1    2    0    0  0.98165527533E+02  0.33558874057E+02  0.19107685984E+03  0.25084049582E+03  0.12509164302E+03 0.  0.
          5    1    3    3  502    0  0.82317509296E+02 -0.11269756260E+02  0.39816584288E+02  0.92228046316E+02  0.41800000000E+01 0.  1.
         -5    1    3    3    0  502  0.15848018237E+02  0.44828630318E+02  0.15126027555E+03  0.15861244950E+03  0.41800000000E+01 0.  1.
        -11    1    1    2    0    0 -0.33592845178E+02  0.22916712311E+02 -0.30602071379E+01  0.40780139995E+02  0.00000000000E+00 0.  1.
         11    1    1    2    0    0 -0.64572682355E+02 -0.56475586369E+02  0.19552837067E+02  0.87985434019E+02  0.00000000000E+00 0. -1.
</event>
<event>
 7    1  0.3001243E-009  0.2190021E+03  0.7561462E-02  0.1134629E+00
          2   -1    0    0  501    0  0.00000000000E+00  0.00000000000E+00  0.22137437279E+03  0.22137437279E+03  0.00000000000E+00 0. -1.
         -2   -1    0    0    0  501 -0.00000000000E+00 -0.00000000000E+00 -0.44884365140E+03  0.44884365140E+03  0.00000000000E+00 0.  1.
         25    2    1    2    0    0  0.66959939799E+02 -0.15504143850E+03 -0.34352539137E+03  0.40272418203E+03  0.12512230452E+03 0.  0.
          5    1    3    3  502    0  0.62121139336E+01 -0.14876640681E+03 -0.24129059152E+03  0.28356420104E+03  0.41800000000E+01 0. -1.
         -5    1    3    3    0  502  0.60747825866E+02 -0.62750316901E+01 -0.10223479985E+03  0.11915998099E+03  0.41800000000E+01 0. -1.
        -11    1    1    2    0    0  0.57847094977E+01  0.15498300933E+03  0.35787515526E+02  0.15916639819E+03  0.00000000000E+00 0.  1.
         11    1    1    2    0    0 -0.72744649297E+02  0.58429172256E-01  0.80268597237E+02  0.10832744397E+03  0.00000000000E+00 0. -1.
</event>
<event>
 7    1  0.3001243E-009  0.1378704E+03  0.7561462E-02  0.1216224E+00
          2   -1    0    0  501    0  0.00000000000E+00  0.00000000000E+00  0.35129629636E+03  0.35129629636E+03  0.00000000000E+00 0. -1.
         -2   -1    0    0    0  501 -0.00000000000E+00 -0.00000000000E+00 -0.85378701672E+02  0.85378701672E+02  0.00000000000E+00 0.  1.
         25    2    1    2    0    0 -0.94907174477E+02 -0.78096787143E+02  0.67862192529E+02  0.18803891002E+03  0.12508746771E+03 0.  0.
          5    1    3    3  502    0 -0.55092024032E+02 -0.65820223054E+02 -0.22166626683E+02  0.88748321749E+02  0.41800000000E+01 0.  1.
         -5    1    3    3    0  502 -0.39815150445E+02 -0.12276564089E+02  0.90028819212E+02  0.99290588273E+02  0.41800000000E+01 0.  1.
        -11    1    1    2    0    0  0.42925708926E+02  0.85262315929E+02  0.10577626915E+03  0.14248122024E+03  0.00000000000E+00 0.  1.
         11    1    1    2    0    0  0.51981465550E+02 -0.71655287861E+01  0.92279133005E+02  0.10615486777E+03  0.00000000000E+00 0. -1.
</event>
<event>
 7    1  0.3001243E-009  0.9464987E+02  0.7561462E-02  0.1291967E+00
          2   -1    0    0  501    0  0.00000000000E+00  0.00000000000E+00  0.27468319936E+03  0.27468319936E+03  0.00000000000E+00 0. -1.
         -2   -1    0    0    0  501 -0.00000000000E+00 -0.00000000000E+00 -0.45053045557E+02  0.45053045557E+02  0.00000000000E+00 0.  1.
         25    2    1    2    0    0  0.23600334766E+02  0.12649095020E+02  0.15306161266E+03  0.19947934517E+03  0.12508867444E+03 0.  0.
          5    1    3    3  502    0 -0.43307643957E+02  0.29076454618E+02  0.98342016540E+02  0.11139845984E+03  0.41800000000E+01 0.  1.
         -5    1    3    3    0  502  0.66907978723E+02 -0.16427359599E+02  0.54719596115E+02  0.88080885323E+02  0.41800000000E+01 0.  1.
        -11    1    1    2    0    0  0.18200056801E+02 -0.18249446828E+02 -0.69498720265E+01  0.26694289619E+02  0.00000000000E+00 0.  1.
         11    1    1    2    0    0 -0.41800391567E+02  0.56003518081E+01  0.83518413175E+02  0.93562610133E+02  0.00000000000E+00 0. -1.
</event>
<event>
 7    1  0.3001243E-009  0.1190408E+03  0.7561462E-02  0.1244688E+00
         -2   -1    0    0    0  501 -0.00000000000E+00  0.00000000000E+00  0.39232538590E+03  0.39232538590E+03  0.00000000000E+00 0. -1.
          2   -1    0    0  501    0  0.00000000000E+00 -0.00000000000E+00 -0.64691970954E+02  0.64691970954E+02  0.00000000000E+00 0.  1.
         25    2    1    2    0    0 -0.25128924867E+02  0.82840614658E+02  0.28705608279E+03  0.32487277088E+03  0.12508833793E+03 0.  0.
          5    1    3    3  502    0  0.39085460480E+02  0.68138178365E+02  0.20492015438E+03  0.21949994680E+03  0.41800000000E+01 0.  1.
         -5    1    3    3    0  502 -0.64214385347E+02  0.14702436293E+02  0.82135928413E+02  0.10537282408E+03  0.41800000000E+01 0.  1.
        -11    1    1    2    0    0  0.21021061068E+02 -0.15935614006E+02 -0.26446865918E+02  0.37353253125E+02  0.00000000000E+00 0.  1.
         11    1    1    2    0    0  0.41078637988E+01 -0.66905000652E+02  0.67024198073E+02  0.94791332856E+02  0.00000000000E+00 0. -1.
</event>
<event>
 7    1  0.4276923E-009  0.1025297E+03  0.7561462E-02  0.1275065E+00
         -1   -1    0    0    0  501 -0.00000000000E+00  0.00000000000E+00  0.44269303576E+02  0.44269303576E+02  0.00000000000E+00 0.  1.
          1   -1    0    0  501    0  0.00000000000E+00 -0.00000000000E+00 -0.36265308546E+03  0.36265308546E+03  0.00000000000E+00 0. -1.
         25    2    1    2    0    0 -0.42711867563E+02 -0.49772891122E+02 -0.17736499649E+03  0.22673229642E+03  0.12509015923E+03 0.  0.
          5    1    3    3  502    0 -0.65716093225E+02  0.13956929126E+02 -0.12115338456E+03  0.13859659364E+03  0.41800000000E+01 0. -1.
         -5    1    3    3    0  502  0.23004225662E+02 -0.63729820248E+02 -0.56211611934E+02  0.88135702774E+02  0.41800000000E+01 0. -1.
        -11    1    1    2    0    0  0.34063323821E+02  0.21459710333E+02 -0.45138455404E+01  0.40511776052E+02  0.00000000000E+00 0.  1.
         11    1    1    2    0    0  0.86485437414E+01  0.28313180789E+02 -0.13650493985E+03  0.13967831656E+03  0.00000000000E+00 0. -1.
</event>
<event>
 7    1  0.3001243E-009  0.1280299E+03  0.7561462E-02  0.1230409E+00
          3   -1    0    0  501    0  0.00000000000E+00  0.00000000000E+00  0.24269590033E+03  0.24269590033E+03  0.00000000000E+00 0. -1.
         -3   -1    0    0    0  501 -0.00000000000E+00 -0.00000000000E+00 -0.95677868843E+02  0.95677868843E+02  0.00000000000E+00 0.  1.
         25    2    1    2    0    0 -0.59945839538E+02  0.89744429797E+02  0.69085067018E+02  0.17907522842E+03  0.12509046563E+03 0.  0.
          5    1    3    3  502    0 -0.56696645327E+02  0.28793439267E+02 -0.23653035279E+02  0.67974334965E+02  0.41800000000E+01 0. -1.
         -5    1    3    3    0  502 -0.32491942118E+01  0.60950990530E+02  0.92738102297E+02  0.11110089346E+03  0.41800000000E+01 0. -1.
        -11    1    1    2    0    0  0.77277118754E+02 -0.65208399941E+02  0.80364993948E+02  0.12916044580E+03  0.00000000000E+00 0.  1.
         11    1    1    2    0    0 -0.17331279216E+02 -0.24536029856E+02 -0.24320294748E+01  0.30138094958E+02  0.00000000000E+00 0. -1.
</event>
<event>
 7    1  0.3001243E-009  0.1436813E+03  0.7561462E-02  0.1208460E+00
         -2   -1    0    0    0  501 -0.00000000000E+00  0.00000000000E+00  0.16154591625E+03  0.16154591625E+03  0.00000000000E+00 0.  1.
          2   -1    0    0  501    0  0.00000000000E+00 -0.00000000000E+00 -0.21115990800E+03  0.21115990800E+03  0.00000000000E+00 0. -1.
         25    2    1    2    0    0 -0.10339774994E+03  0.86401691928E+02 -0.90566733001E+02  0.20495443071E+03  0.12509052115E+03 0.  0.
          5    1    3    3  502    0 -0.10920304445E+03  0.68062090838E+02 -0.18281039271E+02  0.13003623312E+03  0.41800000000E+01 0. -1.
         -5    1    3    3    0  502  0.58052945112E+01  0.18339601090E+02 -0.72285693730E+02  0.74918197592E+02  0.41800000000E+01 0. -1.
        -11    1    1    2    0    0  0.95897111373E+02 -0.63958672270E+02  0.66380575529E+02  0.13301634687E+03  0.00000000000E+00 0.  1.
         11    1    1    2    0    0  0.75006385700E+01 -0.22443019658E+02 -0.25427834287E+02  0.34735046665E+02  0.00000000000E+00 0. -1.
</event>
<event>
 7    1  0.3001243E-009  0.1362083E+03  0.7561462E-02  0.1218524E+00
         -2   -1    0    0    0  501 -0.00000000000E+00  0.00000000000E+00  0.93060636197E+03  0.93060636197E+03  0.00000000000E+00 0.  1.
          2   -1    0    0  501    0  0.00000000000E+00 -0.00000000000E+00 -0.29803661232E+02  0.29803661232E+02  0.00000000000E+00 0. -1.
         25    2    1    2    0    0 -0.13189334504E+01  0.80040106892E+02  0.20318831995E+03  0.25165449186E+03  0.12504531822E+03 0.  0.
          5    1    3    3  502    0 -0.37051501214E+02 -0.19047529210E+02  0.72812883842E+02  0.83992919729E+02  0.41800000000E+01 0. -1.
         -5    1    3    3    0  502  0.35732567764E+02  0.99087636102E+02  0.13037543611E+03  0.16766157213E+03  0.41800000000E+01 0. -1.
        -11    1    1    2    0    0 -0.87330127255E-01 -0.10256313162E+03  0.56440616638E+03  0.57364930423E+03  0.00000000000E+00 0.  1.
         11    1    1    2    0    0  0.14062635776E+01  0.22523024730E+02  0.13320821440E+03  0.13510622711E+03  0.00000000000E+00 0. -1.
</event>
<event>
 7    1  0.3001243E-009  0.1285971E+03  0.7561462E-02  0.1229552E+00
         -1   -1    0    0    0  501 -0.00000000000E+00  0.00000000000E+00  0.36015471085E+03  0.36015471085E+03  0.00000000000E+00 0.  1.
          1   -1    0    0  501    0  0.00000000000E+00 -0.00000000000E+00 -0.50429638901E+02  0.50429638901E+02  0.00000000000E+00 0. -1.
         25    2    1    2    0    0  0.77825746547E+02  0.19200506168E+01  0.16148686845E+03  0.21859999215E+03  0.12508962574E+03 0.  0.
          5    1    3    3  502    0  0.90527973690E+01  0.57305754712E+02  0.75170423353E+02  0.95047186231E+02  0.41800000000E+01 0. -1.
         -5    1    3    3    0  502  0.68772949178E+02 -0.55385704095E+02  0.86316445094E+02  0.12355280592E+03  0.41800000000E+01 0. -1.
        -11    1    1    2    0    0 -0.75687724084E+02 -0.30765627161E+02  0.66709043109E+02  0.10547630930E+03  0.00000000000E+00 0. -1.
         11    1    1    2    0    0 -0.21380224632E+01  0.28845576544E+02  0.81529160389E+02  0.86508048296E+02  0.00000000000E+00 0.  1.
</event>
<event>
 7    1  0.3001243E-009  0.2576203E+03  0.7561462E-02  0.1108581E+00
          2   -1    0    0  501    0  0.00000000000E+00  0.00000000000E+00  0.32011327226E+03  0.32011327226E+03  0.00000000000E+00 0. -1.
         -2   -1    0    0    0  501 -0.00000000000E+00 -0.00000000000E+00 -0.26788924183E+03  0.26788924183E+03  0.00000000000E+00 0.  1.
         25    2    1    2    0    0  0.80367649220E+02  0.23306835710E+03 -0.86082084859E+02  0.28954666024E+03  0.12508926813E+03 0.  0.
          5    1    3    3  502    0 -0.16395743658E+02  0.32872394792E+02  0.21211025996E+02  0.42623875625E+02  0.41800000000E+01 0.  1.
         -5    1    3    3    0  502  0.96763392878E+02  0.20019596231E+03 -0.10729311086E+03  0.24692278461E+03  0.41800000000E+01 0.  1.
        -11    1    1    2    0    0 -0.85125218634E+02 -0.14846181992E+03  0.12668344594E+03  0.21292231047E+03  0.00000000000E+00 0.  1.
         11    1    1    2    0    0  0.47575694139E+01 -0.84606537182E+02  0.11622669349E+02  0.85533543382E+02  0.00000000000E+00 0. -1.
</event>
<event>
 7    1  0.3001243E-009  0.1282192E+03  0.7561462E-02  0.1230122E+00
         -3   -1    0    0    0  501 -0.00000000000E+00  0.00000000000E+00  0.61798491416E+02  0.61798491416E+02  0.00000000000E+00 0.  1.
          3   -1    0    0  501    0  0.00000000000E+00 -0.00000000000E+00 -0.31245898700E+03  0.31245898700E+03  0.00000000000E+00 0. -1.
         25    2    1    2    0    0 -0.74576735922E+02 -0.34206052764E+02 -0.10031062817E+03  0.18011360440E+03  0.12508774831E+03 0.  0.
          5    1    3    3  502    0 -0.10236566035E+03 -0.42052067837E+02 -0.49029376044E+02  0.12111340530E+03  0.41800000000E+01 0. -1.
         -5    1    3    3    0  502  0.27788924427E+02  0.78460150724E+01 -0.51281252130E+02  0.59000199096E+02  0.41800000000E+01 0. -1.
        -11    1    1    2    0    0  0.81834868033E+02  0.52232822188E+02 -0.96457692258E+02  0.13685503182E+03  0.00000000000E+00 0.  1.
         11    1    1    2    0    0 -0.72581321107E+01 -0.18026769424E+02 -0.53892175153E+02  0.57288842197E+02  0.00000000000E+00 0. -1.
</event>
<event>
 7    1  0.3001243E-009  0.4517668E+03  0.7561462E-02  0.1027196E+00
          2   -1    0    0  501    0  0.00000000000E+00  0.00000000000E+00  0.15764803675E+04  0.15764803675E+04  0.00000000000E+00 0. -1.
         -2   -1    0    0    0  501 -0.00000000000E+00 -0.00000000000E+00 -0.13005197963E+03  0.13005197963E+03  0.00000000000E+00 0.  1.
         25    2    1    2    0    0  0.28671092141E+03 -0.33224073378E+03  0.77580786691E+03  0.90006184226E+03  0.12508563426E+03 0.  0.
          5    1    3    3  502    0 -0.12143224061E+02 -0.71590623756E+01  0.26676796229E+02  0.30460366408E+02  0.41800000000E+01 0. -1.
         -5    1    3    3    0  502  0.29885414547E+03 -0.32508167140E+03  0.74913107068E+03  0.86960147585E+03  0.41800000000E+01 0. -1.
        -11    1    1    2    0    0 -0.12406637209E+03  0.81778980023E+02  0.24474495220E+03  0.28632212259E+03  0.00000000000E+00 0.  1.
         11    1    1    2    0    0 -0.16264454932E+03  0.25046175375E+03  0.42587556879E+03  0.52014838230E+03  0.00000000000E+00 0. -1.
</event>
<event>
 7    1  0.3001243E-009  0.8553591E+02  0.7561462E-02  0.1314037E+00
         -1   -1    0    0    0  501 -0.00000000000E+00  0.00000000000E+00  0.93923011008E+02  0.93923011008E+02  0.00000000000E+00 0.  1.
          1   -1    0    0  501    0  0.00000000000E+00 -0.00000000000E+00 -0.16151710321E+03  0.16151710321E+03  0.00000000000E+00 0. -1.
         25    2    1    2    0    0 -0.43633719397E+02  0.38615305136E+02 -0.35693629692E+02  0.14252626791E+03  0.12507860963E+03 0.  0.
          5    1    3    3  502    0  0.12316002442E+02 -0.37418309862E+01  0.38205035178E+02  0.40531251254E+02  0.41800000000E+01 0.  1.
         -5    1    3    3    0  502 -0.55949721838E+02  0.42357136122E+02 -0.73898664869E+02  0.10199501666E+03  0.41800000000E+01 0.  1.
        -11    1    1    2    0    0  0.60883227091E+02 -0.31844209487E+02 -0.51556060979E+02  0.85900223763E+02  0.00000000000E+00 0. -1.
         11    1    1    2    0    0 -0.17249507694E+02 -0.67710956486E+01  0.19655598465E+02  0.27013622545E+02  0.00000000000E+00 0.  1.
</event>
<event>
 7    1  0.3001243E-009  0.1417263E+03  0.7561462E-02  0.1211025E+00
         -1   -1    0    0    0  501 -0.00000000000E+00  0.00000000000E+00  0.62791193893E+02  0.62791193893E+02  0.00000000000E+00 0.  1.
          1   -1    0    0  501    0  0.00000000000E+00 -0.00000000000E+00 -0.49786234450E+03  0.49786234450E+03  0.00000000000E+00 0. -1.
         25    2    1    2    0    0 -0.17422766307E+02  0.10583050058E+03 -0.39282506204E+03  0.42598351454E+03  0.12508708029E+03 0.  0.
          5    1    3    3  502    0 -0.65793083974E+02  0.88981066080E+02 -0.23059799769E+03  0.25581100242E+03  0.41800000000E+01 0.  1.
         -5    1    3    3    0  502  0.48370317667E+02  0.16849434495E+02 -0.16222706434E+03  0.17017251212E+03  0.41800000000E+01 0.  1.
        -11    1    1    2    0    0  0.19430297197E+02 -0.44689092319E+01  0.80458936966E+01  0.21499860564E+02  0.00000000000E+00 0.  1.
         11    1    1    2    0    0 -0.20075308898E+01 -0.10136159134E+03 -0.50291982270E+02  0.11317016330E+03  0.00000000000E+00 0. -1.
</event>
<event>
 7    1  0.3001243E-009  0.9085061E+02  0.7561462E-02  0.1300805E+00
          2   -1    0    0  501    0  0.00000000000E+00  0.00000000000E+00  0.72951374030E+02  0.72951374030E+02  0.00000000000E+00 0. -1.
         -2   -1    0    0    0  501 -0.00000000000E+00 -0.00000000000E+00 -0.20966583968E+03  0.20966583968E+03  0.00000000000E+00 0.  1.
         25    2    1    2    0    0  0.53019032092E+01 -0.52935096220E+02 -0.10203815142E+03  0.16996412623E+03  0.12508311345E+03 0.  0.
          5    1    3    3  502    0 -0.25896279181E+02 -0.60181043222E+01  0.21286730626E+02  0.34313731301E+02  0.41800000000E+01 0. -1.
         -5    1    3    3    0  502  0.31198182391E+02 -0.46916991898E+02 -0.12332488204E+03  0.13565039493E+03  0.41800000000E+01 0. -1.
        -11    1    1    2    0    0  0.38754343015E+02  0.24099283505E+02 -0.38712858508E+02  0.59844464922E+02  0.00000000000E+00 0.  1.
         11    1    1    2    0    0 -0.44056246224E+02  0.28835812716E+02  0.40365442800E+01  0.52808622554E+02  0.00000000000E+00 0. -1.
</event>
<event>
 7    1  0.3001243E-009  0.1303615E+03  0.7561462E-02  0.1226920E+00
          2   -1    0    0  501    0  0.00000000000E+00  0.00000000000E+00  0.10213312736E+03  0.10213312736E+03  0.00000000000E+00 0. -1.
         -2   -1    0    0    0  501 -0.00000000000E+00 -0.00000000000E+00 -0.26774775711E+03  0.26774775711E+03  0.00000000000E+00 0.  1.
         25    2    1    2    0    0 -0.11871922046E+03  0.29579927570E+01 -0.51092760983E+02  0.17987133083E+03  0.12506087479E+03 0.  0.
          5    1    3    3  502    0  0.96637838328E+01 -0.35914556875E+01 -0.50027014753E+02  0.51249018303E+02  0.41800000000E+01 0. -1.
         -5    1    3    3    0  502 -0.12838300429E+03  0.65494484445E+01 -0.10657462305E+01  0.12862231253E+03  0.41800000000E+01 0. -1.
        -11    1    1    2    0    0  0.10434259357E+03  0.51598461193E+01 -0.13041078827E+03  0.16709570474E+03  0.00000000000E+00 0.  1.
         11    1    1    2    0    0  0.14376626885E+02 -0.81178388763E+01  0.15888919498E+02  0.22913848900E+02  0.00000000000E+00 0. -1.
</event>
<event>
 7    1  0.3001243E-009  0.1085350E+03  0.7561462E-02  0.1263307E+00
         -1   -1    0    0    0  501 -0.00000000000E+00  0.00000000000E+00  0.23875269683E+02  0.23875269683E+02  0.00000000000E+00 0.  1.
          1   -1    0    0  501    0  0.00000000000E+00 -0.00000000000E+00 -0.79332932695E+03  0.79332932695E+03  0.00000000000E+00 0. -1.
         25    2    1    2    0    0  0.42719193565E+02  0.27551327748E+02 -0.53266912215E+03  0.54951582032E+03  0.12508892009E+03 0.  0.
          5    1    3    3  502    0 -0.18481116350E+02  0.49624181147E+02 -0.11359340734E+03  0.12539954389E+03  0.41800000000E+01 0. -1.
         -5    1    3    3    0  502  0.61200309915E+02 -0.22072853399E+02 -0.41907571481E+03  0.42411627643E+03  0.41800000000E+01 0. -1.
        -11    1    1    2    0    0 -0.56472468137E+02 -0.47999359797E+02 -0.23068980016E+03  0.24230324409E+03  0.00000000000E+00 0. -1.
         11    1    1    2    0    0  0.13753274572E+02  0.20448032049E+02 -0.60951349564E+01  0.25385532224E+02  0.00000000000E+00 0.  1.
</event>
<event>
 7    1  0.3001243E-009  0.9424664E+02  0.7561462E-02  0.1292882E+00
          1   -1    0    0  501    0  0.00000000000E+00  0.00000000000E+00  0.44653106273E+03  0.44653106273E+03  0.00000000000E+00 0. -1.
         -1   -1    0    0    0  501 -0.00000000000E+00 -0.00000000000E+00 -0.28269349008E+02  0.28269349008E+02  0.00000000000E+00 0.  1.
         25    2    1    2    0    0 -0.24385155949E+02  0.37437032081E+01  0.19961592035E+03  0.23686611150E+03  0.12510151068E+03 0.  0.
          5    1    3    3  502    0  0.37375163362E+02  0.44639585342E+01  0.12667489469E+02  0.39934539582E+02  0.41800000000E+01 0.  1.
         -5    1    3    3    0  502 -0.61760319311E+02 -0.72025532610E+00  0.18694843088E+03  0.19693157192E+03  0.41800000000E+01 0.  1.
        -11    1    1    2    0    0  0.11880457384E+02  0.40776660550E+02  0.66409718136E+02  0.78829765801E+02  0.00000000000E+00 0.  1.
         11    1    1    2    0    0  0.12504698565E+02 -0.44520363758E+02  0.15223607524E+03  0.15910453445E+03  0.00000000000E+00 0. -1.
</event>
<event>
 7    1  0.3001243E-009  0.4104197E+03  0.7561462E-02  0.1040230E+00
          2   -1    0    0  501    0  0.00000000000E+00  0.00000000000E+00  0.33544109809E+04  0.33544109809E+04  0.00000000000E+00 0. -1.
         -2   -1    0    0    0  501 -0.00000000000E+00 -0.00000000000E+00 -0.54487838018E+02  0.54487838018E+02  0.00000000000E+00 0.  1.
         25    2    1    2    0    0 -0.32442417839E+03  0.23270296990E+03  0.12390056869E+04  0.13077401066E+04  0.12508946627E+03 0.  0.
          5    1    3    3  502    0 -0.30167539841E+03  0.16057757540E+03  0.10451157003E+04  0.10995806033E+04  0.41800000000E+01 0. -1.
         -5    1    3    3    0  502 -0.22748779985E+02  0.72125394500E+02  0.19388998660E+03  0.20815950333E+03  0.41800000000E+01 0. -1.
        -11    1    1    2    0    0  0.58010209373E+02 -0.16766695130E+02  0.20040490377E+03  0.20930463901E+03  0.00000000000E+00 0. -1.
         11    1    1    2    0    0  0.26641396902E+03 -0.21593627477E+03  0.18605125523E+04  0.18918540733E+04  0.00000000000E+00 0.  1.
</event>
<event>
 7    1  0.3001243E-009  0.1167421E+03  0.7561462E-02  0.1248570E+00
          1   -1    0    0  501    0  0.00000000000E+00  0.00000000000E+00  0.36650422595E+02  0.36650422595E+02  0.00000000000E+00 0. -1.
         -1   -1    0    0    0  501 -0.00000000000E+00 -0.00000000000E+00 -0.45060290432E+03  0.45060290432E+03  0.00000000000E+00 0.  1.
         25    2    1    2    0    0  0.54871666389E+02 -0.11282427975E+02 -0.30967609738E+03  0.33865167978E+03  0.12508989557E+03 0.  0.
          5    1    3    3  502    0 -0.25762507519E+02  0.35143167742E+02 -0.10647687759E+03  0.11512405002E+03  0.41800000000E+01 0.  1.
         -5    1    3    3    0  502  0.80634173908E+02 -0.46425595717E+02 -0.20319921979E+03  0.22352762975E+03  0.41800000000E+01 0.  1.
        -11    1    1    2    0    0 -0.75048531699E+02  0.13570042287E+02 -0.51424762620E+02  0.91983337450E+02  0.00000000000E+00 0. -1.
         11    1    1    2    0    0  0.20176865310E+02 -0.22876143118E+01 -0.52851621724E+02  0.56618309687E+02  0.00000000000E+00 0.  1.
</event>
<event>
 7    1  0.3001243E-009  0.1040608E+03  0.7561462E-02  0.1271981E+00
          2   -1    0    0  501    0  0.00000000000E+00  0.00000000000E+00  0.31189693770E+03  0.31189693770E+03  0.00000000000E+00 0. -1.
         -2   -1    0    0    0  501 -0.00000000000E+00 -0.00000000000E+00 -0.48824287999E+02  0.48824287999E+02  0.00000000000E+00 0.  1.
         25    2    1    2    0    0 -0.30645746135E+02 -0.18560682655E+02  0.21561244204E+03  0.25183145622E+03  0.12508675581E+03 0.  0.
          5    1    3    3  502    0 -0.10535840454E+02 -0.69825655280E+02  0.15157323811E+03  0.16726788389E+03  0.41800000000E+01 0. -1.
         -5    1    3    3    0  502 -0.20109905682E+02  0.51264972625E+02  0.64039203936E+02  0.84563572332E+02  0.41800000000E+01 0. -1.
        -11    1    1    2    0    0  0.32032919800E+02  0.45244079439E+02  0.11778680171E+01  0.55448372818E+02  0.00000000000E+00 0.  1.
         11    1    1    2    0    0 -0.13871736642E+01 -0.26683396784E+02  0.46282339639E+02  0.53441396662E+02  0.00000000000E+00 0. -1.
</event>
<event>
 7    1  0.3001243E-009  0.8481442E+02  0.7561462E-02  0.1315919E+00
         -1   -1    0    0    0  501 -0.00000000000E+00  0.00000000000E+00  0.15653486512E+02  0.15653486512E+02  0.00000000000E+00 0.  1.
          1   -1    0    0  501    0  0.00000000000E+00 -0.00000000000E+00 -0.13698842332E+04  0.13698842332E+04  0.00000000000E+00 0. -1.
         25    2    1    2    0    0  0.10628664907E+02  0.26468758390E+01 -0.11897952692E+04  0.11964036934E+04  0.12509612502E+03 0.  0.
          5    1    3    3  502    0 -0.12657940029E+02 -0.37239876104E+02 -0.13721188349E+03  0.14279917783E+03  0.41800000000E+01 0.  1.
         -5    1    3    3    0  502  0.23286604936E+02  0.39886751943E+02 -0.10525833858E+04  0.10536045156E+04  0.41800000000E+01 0.  1.
        -11    1    1    2    0    0 -0.36586756242E+02  0.26118750499E+02 -0.45146521137E+02  0.63710189379E+02  0.00000000000E+00 0.  1.
         11    1    1    2    0    0  0.25958091335E+02 -0.28765626338E+02 -0.11928895633E+03  0.12542383692E+03  0.00000000000E+00 0. -1.
</event>
<event>
 7    1  0.3001243E-009  0.1369263E+03  0.7561462E-02  0.1217526E+00
          2   -1    0    0  501    0  0.00000000000E+00  0.00000000000E+00  0.53292096032E+02  0.53292096032E+02  0.00000000000E+00 0. -1.
         -2   -1    0    0    0  501 -0.00000000000E+00 -0.00000000000E+00 -0.39332480948E+03  0.39332480948E+03  0.00000000000E+00 0.  1.
         25    2    1    2    0    0 -0.50111609848E+01 -0.90206837848E+02 -0.23876432136E+03  0.28428608977E+03  0.12509114420E+03 0.  0.
          5    1    3    3  502    0 -0.56104421595E+02 -0.15260842924E+02 -0.13088675924E+03  0.14328089752E+03  0.41800000000E+01 0.  1.
         -5    1    3    3    0  502  0.51093260610E+02 -0.74945994924E+02 -0.10787756211E+03  0.14100519225E+03  0.41800000000E+01 0.  1.
        -11    1    1    2    0    0  0.11569399906E+02  0.10653548638E+03 -0.75340259839E+02  0.13099547941E+03  0.00000000000E+00 0. -1.
         11    1    1    2    0    0 -0.65582389208E+01 -0.16328648535E+02 -0.25928132252E+02  0.31335336328E+02  0.00000000000E+00 0.  1.
</event>
<event>
 7    1  0.3001243E-009  0.1798826E+03  0.7561462E-02  0.1167917E+00
         -2   -1    0    0    0  501 -0.00000000000E+00  0.00000000000E+00  0.36874219915E+03  0.36874219915E+03  0.00000000000E+00 0.  1.
          2   -1    0    0  501    0  0.00000000000E+00 -0.00000000000E+00 -0.13986769172E+03  0.13986769172E+03  0.00000000000E+00 0. -1.
         25    2    1    2    0    0  0.16403646800E+03  0.48722935587E+02  0.42734000837E+01  0.21200633861E+03  0.12508612383E+03 0.  0.
          5    1    3    3  502    0 -0.69660980463E+01 -0.35671499177E+01 -0.28774520481E+02  0.30111401652E+02  0.41800000000E+01 0.  1.
         -5    1    3    3    0  502  0.17100256604E+03  0.52290085505E+02  0.33047920565E+02  0.18189493695E+03  0.41800000000E+01 0.  1.
        -11    1    1    2    0    0 -0.11015637783E+03 -0.41262372642E+02  0.80393757520E+02  0.14247865531E+03  0.00000000000E+00 0. -1.
         11    1    1    2    0    0 -0.53880090171E+02 -0.74605629449E+01  0.14420734983E+03  0.15412489695E+03  0.00000000000E+00 0.  1.
</event>
<event>
 7    1  0.3001243E-009  0.1022523E+03  0.7561462E-02  0.1275630E+00
          1   -1    0    0  501    0  0.00000000000E+00  0.00000000000E+00  0.40785445331E+03  0.40785445331E+03  0.00000000000E+00 0. -1.
         -1   -1    0    0    0  501 -0.00000000000E+00 -0.00000000000E+00 -0.32555307543E+02  0.32555307543E+02  0.00000000000E+00 0.  1.
         25    2    1    2    0    0 -0.59034247246E+01  0.24981915622E+01  0.14609631481E+03  0.19243922801E+03  0.12509049482E+03 0.  0.
          5    1    3    3  502    0 -0.10050989298E+02 -0.60057880569E+02  0.86283168514E+02  0.10568930397E+03  0.41800000000E+01 0. -1.
         -5    1    3    3    0  502  0.41475645735E+01  0.62556072132E+02  0.59813146293E+02  0.86749924045E+02  0.41800000000E+01 0. -1.
        -11    1    1    2    0    0  0.19837768308E+02 -0.37796627270E+02  0.54676588565E+02  0.69366068229E+02  0.00000000000E+00 0. -1.
         11    1    1    2    0    0 -0.13934343584E+02  0.35298435708E+02  0.17452624240E+03  0.17860446461E+03  0.00000000000E+00 0.  1.
</event>
<event>
 7    1  0.3001243E-009  0.2136326E+03  0.7561462E-02  0.1138721E+00
         -2   -1    0    0    0  501 -0.00000000000E+00  0.00000000000E+00  0.11393820994E+03  0.11393820994E+03  0.00000000000E+00 0.  1.
          2   -1    0    0  501    0  0.00000000000E+00 -0.00000000000E+00 -0.43742006625E+03  0.43742006625E+03  0.00000000000E+00 0. -1.
         25    2    1    2    0    0 -0.10212279480E+03 -0.15989871257E+03 -0.22029295375E+03  0.31650108358E+03  0.12508911598E+03 0.  0.
          5    1    3    3  502    0 -0.33804865935E+02 -0.14208257147E+03 -0.18969216795E+03  0.23943854547E+03  0.41800000000E+01 0.  1.
         -5    1    3    3    0  502 -0.68317928866E+02 -0.17816141092E+02 -0.30600785803E+02  0.77062538109E+02  0.41800000000E+01 0.  1.
        -11    1    1    2    0    0  0.11406959812E+03  0.10769185345E+03 -0.84141095462E+02  0.17801441644E+03  0.00000000000E+00 0. -1.
         11    1    1    2    0    0 -0.11946803314E+02  0.52206859118E+02 -0.19047807100E+02  0.56842776179E+02  0.00000000000E+00 0.  1.
</event>
<event>
 7    1  0.3001243E-009  0.1819604E+03  0.7561462E-02  0.1165919E+00
         -2   -1    0    0    0  501 -0.00000000000E+00  0.00000000000E+00  0.26391727687E+02  0.26391727687E+02  0.00000000000E+00 0.  1.
          2   -1    0    0  501    0  0.00000000000E+00 -0.00000000000E+00 -0.20232537986E+04  0.20232537986E+04  0.00000000000E+00 0. -1.
         25    2    1    2    0    0 -0.75655937750E+02  0.14147395381E+03 -0.15852515868E+04  0.15982518444E+04  0.12509062318E+03 0.  0.
          5    1    3    3  502    0 -0.32623400684E+02  0.14255689834E+03 -0.14169255651E+04  0.14244585937E+04  0.41800000000E+01 0. -1.
         -5    1    3    3    0  502 -0.43032537067E+02 -0.10829445304E+01 -0.16832602168E+03  0.17379325070E+03  0.41800000000E+01 0. -1.
        -11    1    1    2    0    0 -0.39407384566E+01 -0.61189494580E+02 -0.22503134374E+03  0.23323548043E+03  0.00000000000E+00 0. -1.
         11    1    1    2    0    0  0.79596676207E+02 -0.80284459230E+02 -0.18657914032E+03  0.21815820145E+03  0.00000000000E+00 0.  1.
</event>
<event>
 7    1  0.3001243E-009  0.2693531E+03  0.7561462E-02  0.1101650E+00
          1   -1    0    0  501    0  0.00000000000E+00  0.00000000000E+00  0.23107142113E+04  0.23107142113E+04  0.00000000000E+00 0. -1.
         -1   -1    0    0    0  501 -0.00000000000E+00 -0.00000000000E+00 -0.36561171028E+02  0.36561171028E+02  0.00000000000E+00 0.  1.
         25    2    1    2    0    0 -0.13562304594E+03  0.22821914176E+03  0.13450794928E+04  0.13767227020E+04  0.12509583859E+03 0.  0.
          5    1    3    3  502    0 -0.14219431224E+03  0.21687088887E+03  0.13342069076E+04  0.13591827506E+04  0.41800000000E+01 0.  1.
         -5    1    3    3    0  502  0.65712662985E+01  0.11348252892E+02  0.10872585259E+02  0.17539951387E+02  0.41800000000E+01 0.  1.
        -11    1    1    2    0    0  0.51079357215E+02 -0.79044619982E+02  0.49448367232E+03  0.50335996550E+03  0.00000000000E+00 0. -1.
         11    1    1    2    0    0  0.84543688726E+02 -0.14917452178E+03  0.43458987512E+03  0.46719271485E+03  0.00000000000E+00 0.  1.
</event>
<event>
 7    1  0.3001243E-009  0.1260368E+03  0.7561462E-02  0.1233458E+00
         -2   -1    0    0    0  501 -0.00000000000E+00  0.00000000000E+00  0.24215169386E+03  0.24215169386E+03  0.00000000000E+00 0.  1.
          2   -1    0    0  501    0  0.00000000000E+00 -0.00000000000E+00 -0.10551809896E+03  0.10551809896E+03  0.00000000000E+00 0. -1.
         25    2    1    2    0    0 -0.54655974625E+02  0.19579538472E+02  0.15701082146E+03  0.20897736150E+03  0.12509398737E+03 0.  0.
          5    1    3    3  502    0 -0.91214547712E+02  0.27010522585E+02  0.84423460733E+02  0.12725743659E+03  0.41800000000E+01 0. -1.
         -5    1    3    3    0  502  0.36558573088E+02 -0.74309841136E+01  0.72587360726E+02  0.81719924916E+02  0.41800000000E+01 0. -1.
        -11    1    1    2    0    0  0.32466972691E+02 -0.62818517892E+02  0.22162803460E+02  0.74104388285E+02  0.00000000000E+00 0.  1.
         11    1    1    2    0    0  0.22189001934E+02  0.43238979421E+02 -0.42540030016E+02  0.64588043026E+02  0.00000000000E+00 0. -1.
</event>
<event>
 7    1  0.3001243E-009  0.1521998E+03  0.7561462E-02  0.1197796E+00
         -2   -1    0    0    0  501 -0.00000000000E+00  0.00000000000E+00  0.17122042300E+02  0.17122042300E+02  0.00000000000E+00 0. -1.
          2   -1    0    0  501    0  0.00000000000E+00 -0.00000000000E+00 -0.17960601848E+04  0.17960601848E+04  0.00000000000E+00 0.  1.
         25    2    1    2    0    0  0.13398105547E+02  0.12620563959E+03 -0.12193159675E+04  0.12322700218E+04  0.12510237945E+03 0.  0.
          5    1    3    3  502    0 -0.34096548348E+02  0.70899917322E+02 -0.94902195343E+03  0.95228646603E+03  0.41800000000E+01 0.  1.
         -5    1    3    3    0  502  0.47494653895E+02  0.55305722272E+02 -0.27029401407E+03  0.27998355577E+03  0.41800000000E+01 0.  1.
        -11    1    1    2    0    0  0.35371784095E+02 -0.68078189701E+02 -0.34013183226E+03  0.34867673616E+03  0.00000000000E+00 0.  1.
         11    1    1    2    0    0 -0.48769889641E+02 -0.58127449894E+02 -0.21949034272E+03  0.23223546911E+03  0.00000000000E+00 0. -1.
</event>
<event>
 7    1  0.3001243E-009  0.1376503E+03  0.7561462E-02  0.1216526E+00
          1   -1    0    0  501    0  0.00000000000E+00  0.00000000000E+00  0.41741516384E+02  0.41741516384E+02  0.00000000000E+00 0. -1.
         -1   -1    0    0    0  501 -0.00000000000E+00 -0.00000000000E+00 -0.70529757819E+03  0.70529757819E+03  0.00000000000E+00 0.  1.
         25    2    1    2    0    0  0.11754633884E+03 -0.29689416201E+02 -0.46147746449E+03  0.49326148085E+03  0.12508730969E+03 0.  0.
          5    1    3    3  502    0  0.25445802031E+02 -0.37970438994E+01 -0.46146073829E+01  0.26470235825E+02  0.41800000000E+01 0.  1.
         -5    1    3    3    0  502  0.92100536805E+02 -0.25892372302E+02 -0.45686285711E+03  0.46679124502E+03  0.41800000000E+01 0.  1.
        -11    1    1    2    0    0 -0.71199075741E+02  0.64057401730E+02 -0.12900256492E+03  0.16066835674E+03  0.00000000000E+00 0. -1.
         11    1    1    2    0    0 -0.46347263094E+02 -0.34367985528E+02 -0.73076032401E+02  0.93109256989E+02  0.00000000000E+00 0.  1.
</event>
<event>
 7    1  0.3001243E-009  0.1068646E+03  0.7561462E-02  0.1266489E+00
         -2   -1    0    0    0  501 -0.00000000000E+00  0.00000000000E+00  0.75772893639E+01  0.75772893639E+01  0.00000000000E+00 0.  1.
          2   -1    0    0  501    0  0.00000000000E+00 -0.00000000000E+00 -0.18432573647E+04  0.18432573647E+04  0.00000000000E+00 0. -1.
         25    2    1    2    0    0 -0.67706707834E+00 -0.25028800314E+02 -0.13444441110E+04  0.13504828474E+04  0.12508818574E+03 0.  0.
          5    1    3    3  502    0  0.57600008754E+02 -0.52877718782E+01 -0.88793734938E+03  0.88982915796E+03  0.41800000000E+01 0. -1.
         -5    1    3    3    0  502 -0.58277075832E+02 -0.19741028436E+02 -0.45650676164E+03  0.46065368944E+03  0.41800000000E+01 0. -1.
        -11    1    1    2    0    0 -0.43460657953E+02  0.27967397476E+00 -0.19109865690E+03  0.19597857964E+03  0.00000000000E+00 0.  1.
         11    1    1    2    0    0  0.44137725032E+02  0.24749126340E+02 -0.30013730740E+03  0.30437322700E+03  0.00000000000E+00 0. -1.
</event>
<event>
 7    1  0.3001243E-009  0.1168799E+03  0.7561462E-02  0.1248335E+00
          2   -1    0    0  501    0  0.00000000000E+00  0.00000000000E+00  0.13817752840E+03  0.13817752840E+03  0.00000000000E+00 0. -1.
         -2   -1    0    0    0  501 -0.00000000000E+00 -0.00000000000E+00 -0.15154713300E+03  0.15154713300E+03  0.00000000000E+00 0.  1.
         25    2    1    2    0    0  0.39235610849E+02  0.61939536007E+02 -0.70335732376E+02  0.16114392775E+03  0.12507721983E+03 0.  0.
          5    1    3    3  502    0 -0.12547128025E+02 -0.24793857676E+02  0.12196036055E+02  0.30633013165E+02  0.41800000000E+01 0. -1.
         -5    1    3    3    0  502  0.51782738873E+02  0.86733393683E+02 -0.82531768431E+02  0.13051091458E+03  0.41800000000E+01 0. -1.
        -11    1    1    2    0    0 -0.22119684696E+01 -0.67134563132E+02  0.61308258547E+02  0.90943086255E+02  0.00000000000E+00 0. -1.
         11    1    1    2    0    0 -0.37023642379E+02  0.51950271253E+01 -0.43421307774E+01  0.37637647396E+02  0.00000000000E+00 0.  1.
</event>
<event>
 7    1  0.3001243E-009  0.2034865E+03  0.7561462E-02  0.1146830E+00
         -4   -1    0    0    0  501 -0.00000000000E+00  0.00000000000E+00  0.20118703141E+03  0.20118703141E+03  0.00000000000E+00 0. -1.
          4   -1    0    0  501    0  0.00000000000E+00 -0.00000000000E+00 -0.24040757917E+03  0.24040757917E+03  0.00000000000E+00 0.  1.
         25    2    1    2    0    0  0.13545587546E+03  0.13357325296E+03 -0.90423630162E+01  0.22785727579E+03  0.12508823165E+03 0.  0.
          5    1    3    3  502    0  0.12108028495E+03  0.82450590538E+02  0.43670377640E+02  0.15291536733E+03  0.41800000000E+01 0.  1.
         -5    1    3    3    0  502  0.14375590512E+02  0.51122662425E+02 -0.52712740656E+02  0.74941908459E+02  0.41800000000E+01 0.  1.
        -11    1    1    2    0    0 -0.16076928909E+02 -0.70163674364E+02  0.10106016547E+02  0.72687966087E+02  0.00000000000E+00 0. -1.
         11    1    1    2    0    0 -0.11937894655E+03 -0.63409578599E+02 -0.40284201289E+02  0.14104936870E+03  0.00000000000E+00 0.  1.
</event>
<event>
 7    1  0.3001243E-009  0.1169397E+03  0.7561462E-02  0.1248233E+00
         -1   -1    0    0    0  501 -0.00000000000E+00  0.00000000000E+00  0.15687192896E+02  0.15687192896E+02  0.00000000000E+00 0.  1.
          1   -1    0    0  501    0  0.00000000000E+00 -0.00000000000E+00 -0.95033956627E+03  0.95033956627E+03  0.00000000000E+00 0. -1.
         25    2    1    2    0    0 -0.49565736483E+02 -0.78356933787E+01 -0.42254191718E+03  0.44351615397E+03  0.12508695671E+03 0.  0.
          5    1    3    3  502    0 -0.51197972458E+02  0.50407313003E+02 -0.17595845551E+03  0.19010781165E+03  0.41800000000E+01 0.  1.
         -5    1    3    3    0  502  0.16322359746E+01 -0.58243006382E+02 -0.24658346167E+03  0.25340834232E+03  0.41800000000E+01 0.  1.
        -11    1    1    2    0    0 -0.30938453262E+00 -0.36656649382E+02 -0.19862413269E+03  0.20197859231E+03  0.00000000000E+00 0.  1.
         11    1    1    2    0    0  0.49875121016E+02  0.44492342761E+02 -0.31348632351E+03  0.32053201289E+03  0.00000000000E+00 0. -1.
</event>
<event>
 7    1  0.3001243E-009  0.1235919E+03  0.7561462E-02  0.1237286E+00
         -2   -1    0    0    0  501 -0.00000000000E+00  0.00000000000E+00  0.22702924804E+02  0.22702924804E+02  0.00000000000E+00 0.  1.
          2   -1    0    0  501    0  0.00000000000E+00 -0.00000000000E+00 -0.90466316431E+03  0.90466316431E+03  0.00000000000E+00 0. -1.
         25    2    1    2    0    0 -0.49020500545E+02  0.74118734224E+02 -0.38550760312E+03  0.41492219697E+03  0.12509085193E+03 0.  0.
          5    1    3    3  502    0 -0.63594187887E+02  0.86054892803E+02 -0.18709021489E+03  0.21556875056E+03  0.41800000000E+01 0.  1.
         -5    1    3    3    0  502  0.14573687342E+02 -0.11936158578E+02 -0.19841738822E+03  0.19935344641E+03  0.41800000000E+01 0.  1.
        -11    1    1    2    0    0  0.69898239883E+02 -0.71106723860E+02 -0.45652375454E+03  0.46728563918E+03  0.00000000000E+00 0. -1.
         11    1    1    2    0    0 -0.20877739338E+02 -0.30120103643E+01 -0.39928881844E+02  0.45158252973E+02  0.00000000000E+00 0.  1.
</event>
<event>
 7    1  0.3001243E-009  0.1810610E+03  0.7561462E-02  0.1166780E+00
         -1   -1    0    0    0  501 -0.00000000000E+00  0.00000000000E+00  0.13248441471E+03  0.13248441471E+03  0.00000000000E+00 0.  1.
          1   -1    0    0  501    0  0.00000000000E+00 -0.00000000000E+00 -0.33135228739E+03  0.33135228739E+03  0.00000000000E+00 0. -1.
         25    2    1    2    0    0 -0.15170174663E+03 -0.50126556476E+02 -0.14366156870E+02  0.20341823299E+03  0.12508596825E+03 0.  0.
          5    1    3    3  502    0 -0.87943021470E+02 -0.90896985022E+02 -0.15980913175E+01  0.12655537605E+03  0.41800000000E+01 0. -1.
         -5    1    3    3    0  502 -0.63758725163E+02  0.40770428546E+02 -0.12768065552E+02  0.76862856935E+02  0.41800000000E+01 0. -1.
        -11    1    1    2    0    0  0.80185192402E+02  0.27558270575E+02 -0.32278378675E+02  0.90724952949E+02  0.00000000000E+00 0.  1.
         11    1    1    2    0    0  0.71516554231E+02  0.22568285901E+02 -0.15222333713E+03  0.16969351616E+03  0.00000000000E+00 0. -1.
</event>
<event>
 7    1  0.3001243E-009  0.1110561E+03  0.7561462E-02  0.1258627E+00
         -1   -1    0    0    0  501 -0.00000000000E+00  0.00000000000E+00  0.34999407764E+03  0.34999407764E+03  0.00000000000E+00 0.  1.
          1   -1    0    0  501    0  0.00000000000E+00 -0.00000000000E+00 -0.73284655462E+02  0.73284655462E+02  0.00000000000E+00 0. -1.
         25    2    1    2    0    0  0.86046147860E+02 -0.27094199219E+02  0.24713453217E+03  0.29131101134E+03  0.12509433698E+03 0.  0.
          5    1    3    3  502    0  0.50364552425E+02 -0.31575849321E+01  0.24268659915E+03  0.24791292078E+03  0.41800000000E+01 0. -1.
         -5    1    3    3    0  502  0.35681595435E+02 -0.23936614287E+02  0.44479330249E+01  0.43398090563E+02  0.41800000000E+01 0. -1.
        -11    1    1    2    0    0 -0.44719831091E+02  0.60453294183E+02  0.12849006628E+02  0.76286047491E+02  0.00000000000E+00 0.  1.
         11    1    1    2    0    0 -0.41326316769E+02 -0.33359094964E+02  0.16725883376E+02  0.55681674267E+02  0.00000000000E+00 0. -1.
</event>
<event>
 7    1  0.3001243E-009  0.1027089E+03  0.7561462E-02  0.1274700E+00
         -1   -1    0    0    0  501 -0.00000000000E+00  0.00000000000E+00  0.10588293569E+03  0.10588293569E+03  0.00000000000E+00 0.  1.
          1   -1    0    0  501    0  0.00000000000E+00 -0.00000000000E+00 -0.16022931469E+03  0.16022931469E+03  0.00000000000E+00 0. -1.
         25    2    1    2    0    0  0.55313562919E+02  0.37200803342E+02 -0.45124556323E+02  0.14875081160E+03  0.12508832222E+03 0.  0.
          5    1    3    3  502    0  0.77423757980E+02  0.37351171957E+02 -0.73050733175E+02  0.11288680332E+03  0.41800000000E+01 0.  1.
         -5    1    3    3    0  502 -0.22110195060E+02 -0.15036861495E+00  0.27926176852E+02  0.35864008279E+02  0.41800000000E+01 0.  1.
        -11    1    1    2    0    0 -0.71030233182E+02 -0.38999072780E+02  0.20594642063E+02  0.83608378678E+02  0.00000000000E+00 0.  1.
         11    1    1    2    0    0  0.15716670262E+02  0.17982694377E+01 -0.29816464735E+02  0.33753060104E+02  0.00000000000E+00 0. -1.
</event>
<event>
 7    1  0.3001243E-009  0.9546257E+02  0.7561462E-02  0.1290138E+00
         -4   -1    0    0    0  501 -0.00000000000E+00  0.00000000000E+00  0.64219619409E+02  0.64219619409E+02  0.00000000000E+00 0. -1.
          4   -1    0    0  501    0  0.00000000000E+00 -0.00000000000E+00 -0.21681948705E+03  0.21681948705E+03  0.00000000000E+00 0.  1.
         25    2    1    2    0    0  0.28886233182E+02  0.36845806826E+02 -0.74801376686E+02  0.15308155189E+03  0.12508672043E+03 0.  0.
          5    1    3    3  502    0 -0.10807721675E+02 -0.38213482296E+02 -0.12984997505E+00  0.39932021461E+02  0.41800000000E+01 0. -1.
         -5    1    3    3    0  502  0.39693954856E+02  0.75059289122E+02 -0.74671526711E+02  0.11314953043E+03  0.41800000000E+01 0. -1.
        -11    1    1    2    0    0 -0.41719592845E+02 -0.25826601425E+02 -0.93042077709E+02  0.10518729007E+03  0.00000000000E+00 0.  1.
         11    1    1    2    0    0  0.12833359664E+02 -0.11019205401E+02  0.15243586755E+02  0.22770264493E+02  0.00000000000E+00 0. -1.
</event>
<event>
 6    1  0.3001243E-009  0.1123715E+03  0.7561462E-02  0.1256240E+00
          2   -1    0    0  501    0  0.00000000000E+00  0.00000000000E+00  0.33809502651E+03  0.33809502651E+03  0.00000000000E+00 0. -1.
         -2   -1    0    0    0  501 -0.00000000000E+00 -0.00000000000E+00 -0.48416046480E+02  0.48416046480E+02  0.00000000000E+00 0.  1.
          5    1    1    2  502    0 -0.27407504647E+02  0.33591386707E+02  0.11964209717E+03  0.12732343220E+03  0.41800000000E+01 0. -1.
         -5    1    1    2    0  502  0.79436099394E+02 -0.30326844651E+02  0.10798849444E+03  0.13750926778E+03  0.41800000000E+01 0. -1.
        -11    1    1    2    0    0 -0.27226629864E+02 -0.42005320657E+02  0.56276441414E+02  0.75317821234E+02  0.00000000000E+00 0. -1.
         11    1    1    2    0    0 -0.24801964884E+02  0.38740778602E+02  0.57719470037E+01  0.46360551776E+02  0.00000000000E+00 0.  1.
</event>
<event>
 7    1  0.3001243E-009  0.7562756E+02  0.7561462E-02  0.1341939E+00
         -1   -1    0    0    0  501 -0.00000000000E+00  0.00000000000E+00  0.22205627176E+03  0.22205627176E+03  0.00000000000E+00 0.  1.
          1   -1    0    0  501    0  0.00000000000E+00 -0.00000000000E+00 -0.96932274152E+02  0.96932274152E+02  0.00000000000E+00 0. -1.
         25    2    1    2    0    0 -0.38007583564E+02  0.13401932514E+02  0.16589714960E+03  0.21164049917E+03  0.12508256649E+03 0.  0.
          5    1    3    3  502    0 -0.66973577519E+02  0.15788687062E+02  0.34661041332E+02  0.77159593772E+02  0.41800000000E+01 0.  1.
         -5    1    3    3    0  502  0.28965993955E+02 -0.23867545480E+01  0.13123610827E+03  0.13448090540E+03  0.41800000000E+01 0.  1.
        -11    1    1    2    0    0  0.31020896094E+02  0.66462407351E+01  0.23615527833E+02  0.39549483754E+02  0.00000000000E+00 0.  1.
         11    1    1    2    0    0  0.69866874697E+01 -0.20048173249E+02 -0.64388679830E+02  0.67798562984E+02  0.00000000000E+00 0. -1.
</event>
<event>
 7    1  0.3001243E-009  0.1236230E+03  0.7561462E-02  0.1237237E+00
         -3   -1    0    0    0  501 -0.00000000000E+00  0.00000000000E+00  0.52318321257E+02  0.52318321257E+02  0.00000000000E+00 0.  1.
          3   -1    0    0  501    0  0.00000000000E+00 -0.00000000000E+00 -0.42665970585E+03  0.42665970585E+03  0.00000000000E+00 0. -1.
         25    2    1    2    0    0 -0.46603778628E+02  0.89813297067E+02 -0.16791371515E+03  0.23255247994E+03  0.12508916692E+03 0.  0.
          5    1    3    3  502    0 -0.69751842012E+02  0.77756044770E+02 -0.17617661383E+03  0.20485847218E+03  0.41800000000E+01 0.  1.
         -5    1    3    3    0  502  0.23148063384E+02  0.12057252297E+02  0.82628986836E+01  0.27694007765E+02  0.41800000000E+01 0.  1.
        -11    1    1    2    0    0  0.50479101834E+02 -0.35242669796E+02 -0.16972683702E+03  0.18054745830E+03  0.00000000000E+00 0. -1.
         11    1    1    2    0    0 -0.38753232060E+01 -0.54570627272E+02 -0.36700832425E+02  0.65878088857E+02  0.00000000000E+00 0.  1.
</event>
<event>
 7    1  0.3001243E-009  0.1350831E+03  0.7561462E-02  0.1220102E+00
          1   -1    0    0  501    0  0.00000000000E+00  0.00000000000E+00  0.26632166184E+03  0.26632166184E+03  0.00000000000E+00 0. -1.
         -1   -1    0    0    0  501 -0.00000000000E+00 -0.00000000000E+00 -0.70757244123E+02  0.70757244123E+02  0.00000000000E+00 0.  1.
         25    2    1    2    0    0 -0.17002411740E+02 -0.80180953056E+02  0.11330397842E+03  0.18762947253E+03  0.12509580407E+03 0.  0.
          5    1    3    3  502    0  0.31345153593E+02 -0.91556402395E+02  0.56823503137E+02  0.11230082984E+03  0.41800000000E+01 0. -1.
         -5    1    3    3    0  502 -0.48347565332E+02  0.11375449340E+02  0.56480475287E+02  0.75328642693E+02  0.41800000000E+01 0. -1.
        -11    1    1    2    0    0 -0.29764615770E+02 -0.98825352041E+00  0.29579331892E+02  0.41974347787E+02  0.00000000000E+00 0.  1.
         11    1    1    2    0    0  0.46767027510E+02  0.81169206576E+02  0.52681107405E+02  0.10747508565E+03  0.00000000000E+00 0. -1.
</event>
<event>
 7    1  0.3001243E-009  0.1557833E+03  0.7561462E-02  0.1193541E+00
          1   -1    0    0  501    0  0.00000000000E+00  0.00000000000E+00  0.85328707633E+03  0.85328707633E+03  0.00000000000E+00 0. -1.
         -1   -1    0    0    0  501 -0.00000000000E+00 -0.00000000000E+00 -0.39346590647E+02  0.39346590647E+02  0.00000000000E+00 0.  1.
         25    2    1    2    0    0 -0.12362741963E+03 -0.44573674186E+02  0.61619005274E+03  0.64234619355E+03  0.12509156624E+03 0.  0.
          5    1    3    3  502    0  0.15693961185E+01  0.32506838708E+02  0.14813837457E+03  0.15172873159E+03  0.41800000000E+01 0. -1.
         -5    1    3    3    0  502 -0.12519681575E+03 -0.77080512894E+02  0.46805167817E+03  0.49061746196E+03  0.41800000000E+01 0. -1.
        -11    1    1    2    0    0  0.31370117626E+02  0.15149757583E+02  0.58304397894E+01  0.35321289088E+02  0.00000000000E+00 0.  1.
         11    1    1    2    0    0  0.92257302004E+02  0.29423916603E+02  0.19191999315E+03  0.21496618435E+03  0.00000000000E+00 0. -1.
</event>
<event>
 7    1  0.3001243E-009  0.6699136E+02  0.7561462E-02  0.1370634E+00
         -1   -1    0    0    0  501 -0.00000000000E+00  0.00000000000E+00  0.84591194715E+03  0.84591194715E+03  0.00000000000E+00 0.  1.
          1   -1    0    0  501    0  0.00000000000E+00 -0.00000000000E+00 -0.87797711098E+01  0.87797711098E+01  0.00000000000E+00 0. -1.
         25    2    1    2    0    0  0.83563405829E+01  0.16180865256E+02  0.68081417683E+03  0.69245085109E+03  0.12509432030E+03 0.  0.
          5    1    3    3  502    0  0.48542185870E+02  0.66953977801E+01  0.59601779321E+03  0.59804335493E+03  0.41800000000E+01 0.  1.
         -5    1    3    3    0  502 -0.40185845287E+02  0.94854674755E+01  0.84796383621E+02  0.94407496153E+02  0.41800000000E+01 0.  1.
        -11    1    1    2    0    0 -0.21421329028E+02  0.13201231597E+01  0.83878658664E+02  0.86580860713E+02  0.00000000000E+00 0.  1.
         11    1    1    2    0    0  0.13064988446E+02 -0.17500988415E+02  0.72439340550E+02  0.75660006462E+02  0.00000000000E+00 0. -1.
</event>
<event>
 7    1  0.3001243E-009  0.1212430E+03  0.7561462E-02  0.1241060E+00
          1   -1    0    0  501    0  0.00000000000E+00  0.00000000000E+00  0.47356932277E+03  0.47356932277E+03  0.00000000000E+00 0. -1.
         -1   -1    0    0    0  501 -0.00000000000E+00 -0.00000000000E+00 -0.35850723291E+02  0.35850723291E+02  0.00000000000E+00 0.  1.
         25    2    1    2    0    0 -0.60991090282E+02 -0.37590142724E+02  0.22316723513E+03  0.26567665409E+03  0.12509011861E+03 0.  0.
          5    1    3    3  502    0  0.24998080595E+02  0.23329365769E+02  0.86067441360E+02  0.92705125009E+02  0.41800000000E+01 0. -1.
         -5    1    3    3    0  502 -0.85989170877E+02 -0.60919508493E+02  0.13709979377E+03  0.17297152909E+03  0.41800000000E+01 0. -1.
        -11    1    1    2    0    0  0.19374421292E+02 -0.22365339368E+02  0.19378327782E+02  0.35370838173E+02  0.00000000000E+00 0.  1.
         11    1    1    2    0    0  0.41616668990E+02  0.59955482092E+02  0.19517303657E+03  0.20837255380E+03  0.00000000000E+00 0. -1.
</event>
<event>
 7    1  0.3001243E-009  0.8686761E+02  0.7561462E-02  0.1310620E+00
         -2   -1    0    0    0  501 -0.00000000000E+00  0.00000000000E+00  0.46573311555E+03  0.46573311555E+03  0.00000000000E+00 0.  1.
          2   -1    0    0  501    0  0.00000000000E+00 -0.00000000000E+00 -0.28454356095E+02  0.28454356095E+02  0.00000000000E+00 0. -1.
         25    2    1    2    0    0  0.90069134368E+01 -0.20973644924E+02  0.28497077051E+03  0.31204810762E+03  0.12507862789E+03 0.  0.
          5    1    3    3  502    0 -0.43826226823E+02 -0.26893863584E+02  0.22900201721E+03  0.23474116456E+03  0.41800000000E+01 0. -1.
         -5    1    3    3    0  502  0.52833140260E+02  0.59202186597E+01  0.55968753301E+02  0.77306943057E+02  0.41800000000E+01 0. -1.
        -11    1    1    2    0    0  0.18372834120E+02 -0.14923926809E+02  0.12933508264E+03  0.13148326215E+03  0.00000000000E+00 0.  1.
         11    1    1    2    0    0 -0.27379747557E+02  0.35897571733E+02  0.22972906309E+02  0.50656101872E+02  0.00000000000E+00 0. -1.
</event>
<event>
 7    1  0.3001243E-009  0.1809841E+03  0.7561462E-02  0.1166854E+00
         -2   -1    0    0    0  501 -0.00000000000E+00  0.00000000000E+00  0.89307863738E+02  0.89307863738E+02  0.00000000000E+00 0. -1.
          2   -1    0    0  501    0  0.00000000000E+00 -0.00000000000E+00 -0.37539264908E+03  0.37539264908E+03  0.00000000000E+00 0.  1.
         25    2    1    2    0    0 -0.10716621391E+03 -0.97502408852E+02 -0.17858513930E+03  0.26178245699E+03  0.12508431426E+03 0.  0.
          5    1    3    3  502    0 -0.26126293784E+02  0.30171018485E+02 -0.37688398190E+02  0.55052350917E+02  0.41800000000E+01 0.  1.
         -5    1    3    3    0  502 -0.81039920121E+02 -0.12767342734E+03 -0.14089674111E+03  0.20673010607E+03  0.41800000000E+01 0.  1.
        -11    1    1    2    0    0  0.10528854423E+03  0.11328945645E+03 -0.88678441159E+02  0.17828080215E+03  0.00000000000E+00 0. -1.
         11    1    1    2    0    0  0.18776696745E+01 -0.15787047603E+02 -0.18821204885E+02  0.24637253677E+02  0.00000000000E+00 0.  1.
</event>
<event>
 7    1  0.3001243E-009  0.9218256E+02  0.7561462E-02  0.1297651E+00
          1   -1    0    0  501    0  0.00000000000E+00  0.00000000000E+00  0.60731989411E+03  0.60731989411E+03  0.00000000000E+00 0. -1.
         -1   -1    0    0    0  501 -0.00000000000E+00 -0.00000000000E+00 -0.42643027168E+02  0.42643027168E+02  0.00000000000E+00 0.  1.
         25    2    1    2    0    0 -0.57572885852E+01 -0.37114554639E+02  0.51774011408E+03  0.53396614795E+03  0.12511748435E+03 0.  0.
          5    1    3    3  502    0  0.55380050576E+02 -0.38292615661E+02  0.22580471385E+03  0.23566611045E+03  0.41800000000E+01 0.  1.
         -5    1    3    3    0  502 -0.61137339161E+02  0.11780610227E+01  0.29193540022E+03  0.29830003750E+03  0.41800000000E+01 0.  1.
        -11    1    1    2    0    0 -0.15820488989E+02  0.28062810008E+02 -0.24726248029E+02  0.40610300651E+02  0.00000000000E+00 0.  1.
         11    1    1    2    0    0  0.21577777574E+02  0.90517446304E+01  0.71663000891E+02  0.75386472676E+02  0.00000000000E+00 0. -1.
</event>
<event>
 7    1  0.3001243E-009  0.1072981E+03  0.7561462E-02  0.1265657E+00
          2   -1    0    0  501    0  0.00000000000E+00  0.00000000000E+00  0.71641410845E+03  0.71641410845E+03  0.00000000000E+00 0. -1.
         -2   -1    0    0    0  501 -0.00000000000E+00 -0.00000000000E+00 -0.17122651629E+02  0.17122651629E+02  0.00000000000E+00 0.  1.
         25    2    1    2    0    0 -0.48933079052E+01  0.75545589928E+00  0.34575301770E+03  0.36772391009E+03  0.12510479459E+03 0.  0.
          5    1    3    3  502    0 -0.36116003733E+02 -0.50345995578E+02  0.13519936920E+03  0.14877979308E+03  0.41800000000E+01 0. -1.
         -5    1    3    3    0  502  0.31222695827E+02  0.51101451478E+02  0.21055364850E+03  0.21894411701E+03  0.41800000000E+01 0. -1.
        -11    1    1    2    0    0 -0.42230087056E+01 -0.46059221735E+02  0.14427472999E+03  0.15150737085E+03  0.00000000000E+00 0. -1.
         11    1    1    2    0    0  0.91163166108E+01  0.45303765836E+02  0.20926370913E+03  0.21430547913E+03  0.00000000000E+00 0.  1.
</event>
<event>
 7    1  0.3001243E-009  0.8967042E+02  0.7561462E-02  0.1303652E+00
         -2   -1    0    0    0  501 -0.00000000000E+00  0.00000000000E+00  0.22280440948E+03  0.22280440948E+03  0.00000000000E+00 0.  1.
          2   -1    0    0  501    0  0.00000000000E+00 -0.00000000000E+00 -0.58060704407E+02  0.58060704407E+02  0.00000000000E+00 0. -1.
         25    2    1    2    0    0  0.18692931359E+01  0.23425308007E+02  0.12190025001E+03  0.17623636774E+03  0.12508935626E+03 0.  0.
          5    1    3    3  502    0 -0.56454008874E+02  0.28673893347E+02  0.38424494181E+02  0.74183296170E+02  0.41800000000E+01 0. -1.
         -5    1    3    3    0  502  0.58323302009E+02 -0.52485853403E+01  0.83475755830E+02  0.10205307157E+03  0.41800000000E+01 0. -1.
        -11    1    1    2    0    0  0.23810116434E+02 -0.20334707794E+02 -0.19668901562E+02  0.36976853224E+02  0.00000000000E+00 0. -1.
         11    1    1    2    0    0 -0.25679409570E+02 -0.30906002129E+01  0.62512356628E+02  0.67651892928E+02  0.00000000000E+00 0.  1.
</event>
<event>
 7    1  0.3001243E-009  0.1384808E+03  0.7561462E-02  0.1215388E+00
          2   -1    0    0  501    0  0.00000000000E+00  0.00000000000E+00  0.12154464652E+04  0.12154464652E+04  0.00000000000E+00 0. -1.
         -2   -1    0    0    0  501 -0.00000000000E+00 -0.00000000000E+00 -0.29167526559E+02  0.29167526559E+02  0.00000000000E+00 0.  1.
         25    2    1    2    0    0 -0.89230547240E+02 -0.34160615439E+02  0.10225802558E+04  0.10346243031E+04  0.12509208915E+03 0.  0.
          5    1    3    3  502    0  0.13431855449E+02 -0.47765888918E+02  0.44925210137E+03  0.45200322772E+03  0.41800000000E+01 0.  1.
         -5    1    3    3    0  502 -0.10266240269E+03  0.13605273479E+02  0.57332815441E+03  0.58262107534E+03  0.41800000000E+01 0.  1.
        -11    1    1    2    0    0  0.42471224860E+02  0.57322154897E+02  0.57372123143E+02  0.91548866170E+02  0.00000000000E+00 0. -1.
         11    1    1    2    0    0  0.46759322380E+02 -0.23161539458E+02  0.10632655972E+03  0.11844082253E+03  0.00000000000E+00 0.  1.
</event>
<event>
 7    1  0.3001243E-009  0.1363767E+03  0.7561462E-02  0.1218289E+00
         -1   -1    0    0    0  501 -0.00000000000E+00  0.00000000000E+00  0.77679816488E+02  0.77679816488E+02  0.00000000000E+00 0.  1.
          1   -1    0    0  501    0  0.00000000000E+00 -0.00000000000E+00 -0.42148652806E+03  0.42148652806E+03  0.00000000000E+00 0. -1.
         25    2    1    2    0    0  0.23282532312E+02 -0.13277637590E+03 -0.10940882868E+03  0.21398719854E+03  0.12509431257E+03 0.  0.
          5    1    3    3  502    0  0.13361827590E+02 -0.45286676696E+02 -0.11627984289E+03  0.12557028225E+03  0.41800000000E+01 0. -1.
         -5    1    3    3    0  502  0.99207047224E+01 -0.87489699204E+02  0.68710142086E+01  0.88416916285E+02  0.41800000000E+01 0. -1.
        -11    1    1    2    0    0 -0.28290969373E+02  0.95849891727E+02 -0.84977755613E+02  0.13118231451E+03  0.00000000000E+00 0.  1.
         11    1    1    2    0    0  0.50084370607E+01  0.36926484174E+02 -0.14942012728E+03  0.15399683150E+03  0.00000000000E+00 0. -1.
</event>
<event>
 7    1  0.3001243E-009  0.1130932E+03  0.7561462E-02  0.1254947E+00
         -2   -1    0    0    0  501 -0.00000000000E+00  0.00000000000E+00  0.28954085504E+02  0.28954085504E+02  0.00000000000E+00 0.  1.
          2   -1    0    0  501    0  0.00000000000E+00 -0.00000000000E+00 -0.66519325564E+03  0.66519325564E+03  0.00000000000E+00 0. -1.
         25    2    1    2    0    0 -0.10018976432E+02 -0.66186297606E+02 -0.53223367072E+03  0.55081877379E+03  0.12509050898E+03 0.  0.
          5    1    3    3  502    0 -0.57732006798E+02 -0.63738216832E+02 -0.24687125800E+03  0.26145446128E+03  0.41800000000E+01 0. -1.
         -5    1    3    3    0  502  0.47713030366E+02 -0.24480807733E+01 -0.28536241271E+03  0.28936431251E+03  0.41800000000E+01 0. -1.
        -11    1    1    2    0    0 -0.26949743219E+02  0.24633792796E+02 -0.17506302991E+02  0.40491765230E+02  0.00000000000E+00 0.  1.
         11    1    1    2    0    0  0.36968719651E+02  0.41552504810E+02 -0.86499196433E+02  0.10283680213E+03  0.00000000000E+00 0. -1.
</event>
<event>
 7    1  0.3001243E-009  0.1142165E+03  0.7561462E-02  0.1252955E+00
          1   -1    0    0  501    0  0.00000000000E+00  0.00000000000E+00  0.62836258159E+03  0.62836258159E+03  0.00000000000E+00 0. -1.
         -1   -1    0    0    0  501 -0.00000000000E+00 -0.00000000000E+00 -0.21464256700E+02  0.21464256700E+02  0.00000000000E+00 0.  1.
         25    2    1    2    0    0  0.31321749708E+02  0.19599334591E+02  0.36288658439E+03  0.38561554826E+03  0.12508993570E+03 0.  0.
          5    1    3    3  502    0  0.74257053352E+02  0.34131636428E+02  0.27076900860E+03  0.28286464431E+03  0.41800000000E+01 0. -1.
         -5    1    3    3    0  502 -0.42935303645E+02 -0.14532301837E+02  0.92117575783E+02  0.10275090396E+03  0.41800000000E+01 0. -1.
        -11    1    1    2    0    0 -0.64790682613E+02 -0.19320864671E+02  0.15445432454E+03  0.16860387521E+03  0.00000000000E+00 0.  1.
         11    1    1    2    0    0  0.33468932905E+02 -0.27846991982E+00  0.89557415961E+02  0.95607414821E+02  0.00000000000E+00 0. -1.
</event>
<event>
 7    1  0.3001243E-009  0.1138838E+03  0.7561462E-02  0.1253542E+00
         -1   -1    0    0    0  501 -0.00000000000E+00  0.00000000000E+00  0.22900354478E+03  0.22900354478E+03  0.00000000000E+00 0.  1.
          1   -1    0    0  501    0  0.00000000000E+00 -0.00000000000E+00 -0.74982087714E+02  0.74982087714E+02  0.00000000000E+00 0. -1.
         25    2    1    2    0    0 -0.65830310683E+02  0.35597895008E+02  0.99195761578E+02  0.17631741887E+03  0.12508874110E+03 0.  0.
          5    1    3    3  502    0  0.25807037178E+02  0.19199778004E+02 -0.88649731030E+01  0.33625805439E+02  0.41800000000E+01 0.  1.
         -5    1    3    3    0  502 -0.91637347861E+02  0.16398117004E+02  0.10806073468E+03  0.14269161343E+03  0.41800000000E+01 0.  1.
        -11    1    1    2    0    0  0.37293763928E+02  0.18009896747E+02  0.52533406409E+02  0.66894992321E+02  0.00000000000E+00 0.  1.
         11    1    1    2    0    0  0.28536546755E+02 -0.53607791755E+02  0.22922890742E+01  0.60773221296E+02  0.00000000000E+00 0. -1.
</event>
<event>
 7    1  0.3001243E-009  0.1403371E+03  0.7561462E-02  0.1212876E+00
          1   -1    0    0  501    0  0.00000000000E+00  0.00000000000E+00  0.16025711827E+03  0.16025711827E+03  0.00000000000E+00 0. -1.
         -1   -1    0    0    0  501 -0.00000000000E+00 -0.00000000000E+00 -0.14569151180E+03  0.14569151180E+03  0.00000000000E+00 0.  1.
         25    2    1    2    0    0 -0.10056704962E+03  0.18470660511E+02  0.38106714559E+02  0.16599507722E+03  0.12508935686E+03 0.  0.
          5    1    3    3  502    0 -0.16052626805E+02  0.50389613537E+02  0.52247480062E+02  0.74458522364E+02  0.41800000000E+01 0. -1.
         -5    1    3    3    0  502 -0.84514422818E+02 -0.31918953026E+02 -0.14140765504E+02  0.91536554859E+02  0.41800000000E+01 0. -1.
        -11    1    1    2    0    0  0.11370614476E+03  0.98440175655E+00 -0.25020959544E+02  0.11643068676E+03  0.00000000000E+00 0. -1.
         11    1    1    2    0    0 -0.13139095135E+02 -0.19455062268E+02  0.14798514487E+01  0.23522866091E+02  0.00000000000E+00 0.  1.
</event>
<event>
 7    1  0.3001243E-009  0.9222434E+02  0.7561462E-02  0.1297553E+00
          1   -1    0    0  501    0  0.00000000000E+00  0.00000000000E+00  0.92993172363E+02  0.92993172363E+02  0.00000000000E+00 0. -1.
         -1   -1    0    0    0  501 -0.00000000000E+00 -0.00000000000E+00 -0.13073069445E+03  0.13073069445E+03  0.00000000000E+00 0.  1.
         25    2    1    2    0    0  0.80885929244E+01 -0.10762046870E+02 -0.32624524742E+02  0.12997837229E+03  0.12509504650E+03 0.  0.
          5    1    3    3  502    0  0.47771933964E+00  0.54109633062E+02 -0.34835490017E+02  0.64490808419E+02  0.41800000000E+01 0.  1.
         -5    1    3    3    0  502  0.76108735848E+01 -0.64871679931E+02  0.22109652752E+01  0.65487563867E+02  0.41800000000E+01 0.  1.
        -11    1    1    2    0    0 -0.18352731005E+02  0.34380959108E+02  0.30715664503E+02  0.49621821111E+02  0.00000000000E+00 0. -1.
         11    1    1    2    0    0  0.10264138080E+02 -0.23618912238E+02 -0.35828661845E+02  0.44123673413E+02  0.00000000000E+00 0.  1.
</event>
<event>
 7    1  0.3001243E-009  0.9328591E+02  0.7561462E-02  0.1295084E+00
         -1   -1    0    0    0  501 -0.00000000000E+00  0.00000000000E+00  0.57264972150E+02  0.57264972150E+02  0.00000000000E+00 0.  1.
          1   -1    0    0  501    0  0.00000000000E+00 -0.00000000000E+00 -0.23489684483E+03  0.23489684483E+03  0.00000000000E+00 0. -1.
         25    2    1    2    0    0 -0.22551765420E+02  0.85552894164E+01 -0.58869031209E+02  0.14033702183E+03  0.12508853569E+03 0.  0.
          5    1    3    3  502    0  0.52408623112E+01 -0.51620376885E+02 -0.71369734250E+00  0.52058733287E+02  0.41800000000E+01 0. -1.
         -5    1    3    3    0  502 -0.27792627731E+02  0.60175666302E+02 -0.58155333866E+02  0.88278288544E+02  0.41800000000E+01 0. -1.
        -11    1    1    2    0    0 -0.21557165220E+01 -0.33162025746E+02 -0.11131247770E+03  0.11616727060E+03  0.00000000000E+00 0. -1.
         11    1    1    2    0    0  0.24707481942E+02  0.24606736330E+02 -0.74503637640E+01  0.35657524549E+02  0.00000000000E+00 0.  1.
</event>
<event>
 7    1  0.3001243E-009  0.8219740E+02  0.7561462E-02  0.1322929E+00
          2   -1    0    0  501    0  0.00000000000E+00  0.00000000000E+00  0.50818572343E+03  0.50818572343E+03  0.00000000000E+00 0. -1.
         -2   -1    0    0    0  501 -0.00000000000E+00 -0.00000000000E+00 -0.44794965926E+02  0.44794965926E+02  0.00000000000E+00 0.  1.
         25    2    1    2    0    0 -0.46939326841E+02 -0.17866982051E+02  0.41805337824E+03  0.43924627685E+03  0.12508451231E+03 0.  0.
          5    1    3    3  502    0 -0.13387245871E+02 -0.21964493665E+02  0.39971618317E+03  0.40056479728E+03  0.41800000000E+01 0.  1.
         -5    1    3    3    0  502 -0.33552080970E+02  0.40975116145E+01  0.18337195071E+02  0.38681479572E+02  0.41800000000E+01 0.  1.
        -11    1    1    2    0    0 -0.27871056241E+02  0.33739257358E+01  0.10971477612E+02  0.30142204164E+02  0.00000000000E+00 0. -1.
         11    1    1    2    0    0  0.74810383082E+02  0.14493056315E+02  0.34365901649E+02  0.83592208335E+02  0.00000000000E+00 0.  1.
</event>
<event>
 7    1  0.3001243E-009  0.1223367E+03  0.7561462E-02  0.1239291E+00
         -1   -1    0    0    0  501 -0.00000000000E+00  0.00000000000E+00  0.15594532042E+03  0.15594532042E+03  0.00000000000E+00 0.  1.
          1   -1    0    0  501    0  0.00000000000E+00 -0.00000000000E+00 -0.14803040701E+03  0.14803040701E+03  0.00000000000E+00 0. -1.
         25    2    1    2    0    0 -0.30148626399E+02  0.47335203029E+02 -0.65195171281E+02  0.15182039531E+03  0.12509780555E+03 0.  0.
          5    1    3    3  502    0  0.35452953815E+02  0.25561350951E+02 -0.69755681021E+02  0.82423431325E+02  0.41800000000E+01 0.  1.
         -5    1    3    3    0  502 -0.65601580214E+02  0.21773852078E+02  0.45605097408E+01  0.69396963982E+02  0.41800000000E+01 0.  1.
        -11    1    1    2    0    0  0.67350445028E+02 -0.61989864885E+02  0.62333808544E+02  0.11074443319E+03  0.00000000000E+00 0.  1.
         11    1    1    2    0    0 -0.37201818630E+02  0.14654661856E+02  0.10776276148E+02  0.41410898940E+02  0.00000000000E+00 0. -1.
</event>
<event>
 7    1  0.3001243E-009  0.4877560E+02  0.7561462E-02  0.1452060E+00
         -1   -1    0    0    0  501 -0.00000000000E+00  0.00000000000E+00  0.48046055880E+02  0.48046055880E+02  0.00000000000E+00 0.  1.
          1   -1    0    0  501    0  0.00000000000E+00 -0.00000000000E+00 -0.26393343026E+03  0.26393343026E+03  0.00000000000E+00 0. -1.
         25    2    1    2    0    0  0.28630322265E+02  0.92500844895E+01 -0.13372675323E+03  0.18556945388E+03  0.12509163948E+03 0.  0.
          5    1    3    3  502    0  0.33775558463E+02  0.10906682429E+02  0.13486137738E+02  0.38198067781E+02  0.41800000000E+01 0. -1.
         -5    1    3    3    0  502 -0.51452361982E+01 -0.16565979396E+01 -0.14721289097E+03  0.14737138610E+03  0.41800000000E+01 0. -1.
        -11    1    1    2    0    0  0.10173367011E+02 -0.12411059615E+02  0.14858925476E+02  0.21870515847E+02  0.00000000000E+00 0.  1.
         11    1    1    2    0    0 -0.38803689276E+02  0.31609751253E+01 -0.97019546618E+02  0.10453951641E+03  0.00000000000E+00 0. -1.
</event>
<event>
 7    1  0.3001243E-009  0.1172793E+03  0.7561462E-02  0.1247654E+00
          2   -1    0    0  501    0  0.00000000000E+00  0.00000000000E+00  0.40828507175E+03  0.40828507175E+03  0.00000000000E+00 0. -1.
         -2   -1    0    0    0  501 -0.00000000000E+00 -0.00000000000E+00 -0.49403648025E+02  0.49403648025E+02  0.00000000000E+00 0.  1.
         25    2    1    2    0    0 -0.55362508416E+02 -0.21873871919E+02  0.83966353516E+02  0.16199596434E+03  0.12509544488E+03 0.  0.
          5    1    3    3  502    0  0.37772620457E+02 -0.14711697120E+02  0.80149354781E+01  0.41532113829E+02  0.41800000000E+01 0.  1.
         -5    1    3    3    0  502 -0.93135128874E+02 -0.71621747985E+01  0.75951418037E+02  0.12046385051E+03  0.41800000000E+01 0.  1.
        -11    1    1    2    0    0  0.55559867647E+02  0.48455449196E+02  0.24413484908E+03  0.25502284993E+03  0.00000000000E+00 0.  1.
         11    1    1    2    0    0 -0.19735923094E+00 -0.26581577277E+02  0.30780221131E+02  0.40669905509E+02  0.00000000000E+00 0. -1.
</event>
<event>
 7    1  0.3001243E-009  0.1139246E+03  0.7561462E-02  0.1253470E+00
          2   -1    0    0  501    0  0.00000000000E+00  0.00000000000E+00  0.69319495901E+03  0.69319495901E+03  0.00000000000E+00 0. -1.
         -2   -1    0    0    0  501 -0.00000000000E+00 -0.00000000000E+00 -0.34626972312E+02  0.34626972312E+02  0.00000000000E+00 0.  1.
         25    2    1    2    0    0  0.80374514534E+02  0.62187288870E+02  0.44272068276E+03  0.47114323194E+03  0.12508805129E+03 0.  0.
          5    1    3    3  502    0  0.55047936863E+02  0.58297510391E+02  0.43731487221E+03  0.44462416143E+03  0.41800000000E+01 0.  1.
         -5    1    3    3    0  502  0.25326577670E+02  0.38897784786E+01  0.54058105537E+01  0.26519070513E+02  0.41800000000E+01 0.  1.
        -11    1    1    2    0    0 -0.84691039943E+02 -0.31113144842E+02  0.20414535507E+03  0.22319481630E+03  0.00000000000E+00 0.  1.
         11    1    1    2    0    0  0.43165254098E+01 -0.31074144028E+02  0.11701948867E+02  0.33483883078E+02  0.00000000000E+00 0. -1.
</event>
<event>
 7    1  0.3001243E-009  0.1562200E+03  0.7561462E-02  0.1193032E+00
          1   -1    0    0  501    0  0.00000000000E+00  0.00000000000E+00  0.91195505761E+03  0.91195505761E+03  0.00000000000E+00 0. -1.
         -1   -1    0    0    0  501 -0.00000000000E+00 -0.00000000000E+00 -0.34023018625E+02  0.34023018625E+02  0.00000000000E+00 0.  1.
         25    2    1    2    0    0  0.49671309735E+02  0.12469014087E+03  0.54862876587E+03  0.57849461827E+03  0.12509048881E+03 0.  0.
          5    1    3    3  502    0 -0.17773934435E+02  0.99141667677E+01  0.89488065586E+01  0.22622046477E+02  0.41800000000E+01 0. -1.
         -5    1    3    3    0  502  0.67445244170E+02  0.11477597410E+03  0.53967995931E+03  0.55587257179E+03  0.41800000000E+01 0. -1.
        -11    1    1    2    0    0 -0.66974763800E+02 -0.54993702656E+02  0.13590988394E+03  0.16118753944E+03  0.00000000000E+00 0.  1.
         11    1    1    2    0    0  0.17303454065E+02 -0.69696438216E+02  0.19339338917E+03  0.20629591852E+03  0.00000000000E+00 0. -1.
</event>
<event>
 7    1  0.3001243E-009  0.2032876E+03  0.7561462E-02  0.1146995E+00
         -2   -1    0    0    0  501 -0.00000000000E+00  0.00000000000E+00  0.12951776452E+03  0.12951776452E+03  0.00000000000E+00 0.  1.
          2   -1    0    0  501    0  0.00000000000E+00 -0.00000000000E+00 -0.35705870921E+03  0.35705870921E+03  0.00000000000E+00 0. -1.
         25    2    1    2    0    0  0.16856641053E+03  0.55269995007E+02 -0.16809711041E+03  0.27454473422E+03  0.12509502568E+03 0.  0.
          5    1    3    3  502    0 -0.96041220032E+01  0.34520844457E+02 -0.16573886707E+02  0.39700050151E+02  0.41800000000E+01 0. -1.
         -5    1    3    3    0  502  0.17817053254E+03  0.20749150550E+02 -0.15152322370E+03  0.23484468406E+03  0.41800000000E+01 0. -1.
        -11    1    1    2    0    0 -0.16693538828E+03 -0.34777458350E+02 -0.74967662046E+02  0.18627143051E+03  0.00000000000E+00 0. -1.
         11    1    1    2    0    0 -0.16310222499E+01 -0.20492536657E+02  0.15523827763E+02  0.25760309016E+02  0.00000000000E+00 0.  1.
</event>
<event>
 7    1  0.3001243E-009  0.7418117E+02  0.7561462E-02  0.1346426E+00
          1   -1    0    0  501    0  0.00000000000E+00  0.00000000000E+00  0.18523797003E+02  0.18523797003E+02  0.00000000000E+00 0. -1.
         -1   -1    0    0    0  501 -0.00000000000E+00 -0.00000000000E+00 -0.64114340086E+03  0.64114340086E+03  0.00000000000E+00 0.  1.
         25    2    1    2    0    0 -0.67858074453E+00  0.10848085457E+02 -0.33771331935E+03  0.36030579421E+03  0.12510730531E+03 0.  0.
          5    1    3    3  502    0 -0.50006077461E+01 -0.25579985100E+02 -0.31675101840E+03  0.31784905501E+03  0.41800000000E+01 0. -1.
         -5    1    3    3    0  502  0.43220270016E+01  0.36428070557E+02 -0.20962300956E+02  0.42456739198E+02  0.41800000000E+01 0. -1.
        -11    1    1    2    0    0 -0.19816249065E+02  0.31947466050E+02 -0.18471767218E+03  0.18850448995E+03  0.00000000000E+00 0.  1.
         11    1    1    2    0    0  0.20494829810E+02 -0.42795551507E+02 -0.10018861232E+03  0.11085691371E+03  0.00000000000E+00 0. -1.
</event>
<event>
 7    1  0.3157394E-009  0.8498723E+02  0.7561462E-02  0.1315466E+00
         -1   -1    0    0    0  501 -0.00000000000E+00  0.00000000000E+00  0.28783471865E+02  0.28783471865E+02  0.00000000000E+00 0.  1.
          1   -1    0    0  501    0  0.00000000000E+00 -0.00000000000E+00 -0.55736037220E+03  0.55736037220E+03  0.00000000000E+00 0. -1.
         25    2    1    2    0    0 -0.57824780323E+02 -0.27925506172E+02 -0.32555281171E+03  0.35462278799E+03  0.12509656045E+03 0.  0.
          5    1    3    3  502    0 -0.91528516624E+00 -0.21878109784E+02  0.17186771383E+01  0.22358794372E+02  0.41800000000E+01 0. -1.
         -5    1    3    3    0  502 -0.56909495156E+02 -0.60473963874E+01 -0.32727148885E+03  0.33226399362E+03  0.41800000000E+01 0. -1.
        -11    1    1    2    0    0  0.53821149812E+02 -0.77709000759E+01 -0.48462311044E+02  0.72840226845E+02  0.00000000000E+00 0.  1.
         11    1    1    2    0    0  0.40036305105E+01  0.35696406247E+02 -0.15456177758E+03  0.15868082923E+03  0.00000000000E+00 0. -1.
</event>
<event>
 7    1  0.3001243E-009  0.1540354E+03  0.7561462E-02  0.1195600E+00
         -1   -1    0    0    0  501 -0.00000000000E+00  0.00000000000E+00  0.35309139942E+03  0.35309139942E+03  0.00000000000E+00 0.  1.
          1   -1    0    0  501    0  0.00000000000E+00 -0.00000000000E+00 -0.88317860494E+02  0.88317860494E+02  0.00000000000E+00 0. -1.
         25    2    1    2    0    0  0.13755015765E+03 -0.14742056414E+02  0.15146677277E+03  0.24028832134E+03  0.12513560654E+03 0.  0.
          5    1    3    3  502    0  0.58538916846E+02  0.11349915933E+02 -0.80602226143E+01  0.60316373944E+02  0.41800000000E+01 0.  1.
         -5    1    3    3    0  502  0.79011240804E+02 -0.26091972346E+02  0.15952699538E+03  0.17997194740E+03  0.41800000000E+01 0.  1.
        -11    1    1    2    0    0 -0.14565687620E+03 -0.27719541873E+01  0.10721537561E+03  0.18088323881E+03  0.00000000000E+00 0.  1.
         11    1    1    2    0    0  0.81067185513E+01  0.17514010601E+02  0.60913905526E+01  0.20237699767E+02  0.00000000000E+00 0. -1.
</event>
<event>
 7    1  0.3001243E-009  0.9873362E+02  0.7561462E-02  0.1282982E+00
          2   -1    0    0  501    0  0.00000000000E+00  0.00000000000E+00  0.96310855836E+03  0.96310855836E+03  0.00000000000E+00 0. -1.
         -2   -1    0    0    0  501 -0.00000000000E+00 -0.00000000000E+00 -0.24837875144E+02  0.24837875144E+02  0.00000000000E+00 0.  1.
         25    2    1    2    0    0 -0.33139055678E+02 -0.14039184921E+02  0.83369643639E+03  0.84379633092E+03  0.12508878565E+03 0.  0.
          5    1    3    3  502    0 -0.28065326216E+01 -0.67435461849E+02  0.48796477946E+03  0.49262817270E+03  0.41800000000E+01 0.  1.
         -5    1    3    3    0  502 -0.30332523056E+02  0.53396276928E+02  0.34573165693E+03  0.35116815822E+03  0.41800000000E+01 0.  1.
        -11    1    1    2    0    0  0.37329165677E+02  0.32418300389E+02  0.13647718324E+02  0.51290087012E+02  0.00000000000E+00 0.  1.
         11    1    1    2    0    0 -0.41901099995E+01 -0.18379115468E+02  0.90926528495E+02  0.92860015568E+02  0.00000000000E+00 0. -1.
</event>
<event>
 7    1  0.3001243E-009  0.1136438E+03  0.7561462E-02  0.1253967E+00
          1   -1    0    0  501    0  0.00000000000E+00  0.00000000000E+00  0.27156789886E+03  0.27156789886E+03  0.00000000000E+00 0. -1.
         -1   -1    0    0    0  501 -0.00000000000E+00 -0.00000000000E+00 -0.69778455216E+02  0.69778455216E+02  0.00000000000E+00 0.  1.
         25    2    1    2    0    0 -0.69097879943E+02  0.78226968660E+01  0.19559725512E+03  0.24236769244E+03  0.12509236800E+03 0.  0.
          5    1    3    3  502    0  0.94107431734E+01 -0.46350036954E+02  0.59557740688E+02  0.76167479206E+02  0.41800000000E+01 0. -1.
         -5    1    3    3    0  502 -0.78508623117E+02  0.54172733820E+02  0.13603951443E+03  0.16620021323E+03  0.41800000000E+01 0. -1.
        -11    1    1    2    0    0  0.16481480726E+02  0.19098955198E+02  0.26400393059E+02  0.36515613787E+02  0.00000000000E+00 0. -1.
         11    1    1    2    0    0  0.52616399217E+02 -0.26921652064E+02 -0.20208204529E+02  0.62463047850E+02  0.00000000000E+00 0.  1.
</event>
<event>
 7    1  0.3001243E-009  0.2610134E+03  0.7561462E-02  0.1106536E+00
         -1   -1    0    0    0  501 -0.00000000000E+00  0.00000000000E+00  0.66454658173E+03  0.66454658173E+03  0.00000000000E+00 0.  1.
          1   -1    0    0  501    0  0.00000000000E+00 -0.00000000000E+00 -0.13952387879E+03  0.13952387879E+03  0.00000000000E+00 0. -1.
         25    2    1    2    0    0  0.16127676926E+03  0.18713758458E+03  0.45454906728E+03  0.53225291245E+03  0.12509051274E+03 0.  0.
          5    1    3    3  502    0  0.33597791535E+01  0.74096105858E+02  0.19030725247E+03  0.20429352354E+03  0.41800000000E+01 0.  1.
         -5    1    3    3    0  502  0.15791699011E+03  0.11304147873E+03  0.26424181481E+03  0.32795938891E+03  0.41800000000E+01 0.  1.
        -11    1    1    2    0    0 -0.13060662863E+03 -0.11100255058E+03  0.13569541683E+02  0.17194124037E+03  0.00000000000E+00 0. -1.
         11    1    1    2    0    0 -0.30670140630E+02 -0.76135034006E+02  0.56904093970E+02  0.99876307701E+02  0.00000000000E+00 0.  1.
</event>
<event>
 7    1  0.3001243E-009  0.1101105E+03  0.7561462E-02  0.1260365E+00
          2   -1    0    0  501    0  0.00000000000E+00  0.00000000000E+00  0.13147051868E+03  0.13147051868E+03  0.00000000000E+00 0. -1.
         -2   -1    0    0    0  501 -0.00000000000E+00 -0.00000000000E+00 -0.12718630904E+03  0.12718630904E+03  0.00000000000E+00 0.  1.
         25    2    1    2    0    0  0.35683666327E+02  0.56185695597E+02 -0.21424962555E+02  0.14330503074E+03  0.12508855416E+03 0.  0.
          5    1    3    3  502    0  0.21358676002E+02  0.78232169395E+02  0.29047406739E+02  0.86242040833E+02  0.41800000000E+01 0.  1.
         -5    1    3    3    0  502  0.14324990324E+02 -0.22046473798E+02 -0.50472369295E+02  0.57062989905E+02  0.41800000000E+01 0.  1.
        -11    1    1    2    0    0 -0.35674014138E+02 -0.80516368708E+02  0.21612151979E+02  0.90678586379E+02  0.00000000000E+00 0.  1.
         11    1    1    2    0    0 -0.96521884221E-02  0.24330673110E+02  0.40970202181E+01  0.24673210611E+02  0.00000000000E+00 0. -1.
</event>
<event>
 7    1  0.3001243E-009  0.1082307E+03  0.7561462E-02  0.1263882E+00
          3   -1    0    0  501    0  0.00000000000E+00  0.00000000000E+00  0.36046689802E+03  0.36046689802E+03  0.00000000000E+00 0. -1.
         -3   -1    0    0    0  501 -0.00000000000E+00 -0.00000000000E+00 -0.44088557605E+02  0.44088557605E+02  0.00000000000E+00 0.  1.
         25    2    1    2    0    0 -0.18170912830E+02  0.24652327399E+01  0.75731858490E+02  0.14737316658E+03  0.12508907383E+03 0.  0.
          5    1    3    3  502    0  0.52644846829E+02 -0.11628591621E+02  0.30955655814E+02  0.62309141124E+02  0.41800000000E+01 0. -1.
         -5    1    3    3    0  502 -0.70815759658E+02  0.14093824361E+02  0.44776202677E+02  0.85064025459E+02  0.41800000000E+01 0. -1.
        -11    1    1    2    0    0  0.29879248136E+02 -0.40463059571E+02  0.14969115142E+03  0.15791602031E+03  0.00000000000E+00 0. -1.
         11    1    1    2    0    0 -0.11708335306E+02  0.37997826831E+02  0.90955330507E+02  0.99266268727E+02  0.00000000000E+00 0.  1.
</event>
<event>
 7    1  0.3001243E-009  0.1104599E+03  0.7561462E-02  0.1259721E+00
          2   -1    0    0  501    0  0.00000000000E+00  0.00000000000E+00  0.45752868958E+03  0.45752868958E+03  0.00000000000E+00 0. -1.
         -2   -1    0    0    0  501 -0.00000000000E+00 -0.00000000000E+00 -0.42119166261E+02  0.42119166261E+02  0.00000000000E+00 0.  1.
         25    2    1    2    0    0  0.74443098976E+02 -0.16811748193E+02  0.15603557484E+03  0.21405489890E+03  0.12509192325E+03 0.  0.
          5    1    3    3  502    0  0.56360759930E+02  0.37556348634E+02  0.13810217433E+03  0.15387234169E+03  0.41800000000E+01 0.  1.
         -5    1    3    3    0  502  0.18082339046E+02 -0.54368096827E+02  0.17933400510E+02  0.60182557205E+02  0.41800000000E+01 0.  1.
        -11    1    1    2    0    0 -0.42993270826E+02  0.38256310471E+02  0.23114812894E+03  0.23820458463E+03  0.00000000000E+00 0. -1.
         11    1    1    2    0    0 -0.31449828150E+02 -0.21444562278E+02  0.28225819539E+02  0.47388372315E+02  0.00000000000E+00 0.  1.
</event>
<event>
 7    1  0.3001243E-009  0.1259461E+03  0.7561462E-02  0.1233598E+00
         -1   -1    0    0    0  501 -0.00000000000E+00  0.00000000000E+00  0.45255380289E+03  0.45255380289E+03  0.00000000000E+00 0. -1.
          1   -1    0    0  501    0  0.00000000000E+00 -0.00000000000E+00 -0.73143339805E+02  0.73143339805E+02  0.00000000000E+00 0.  1.
         25    2    1    2    0    0  0.18929646127E+02 -0.10777369813E+03  0.34018773563E+03  0.37861465465E+03  0.12509140549E+03 0.  0.
          5    1    3    3  502    0  0.26224916068E+02 -0.24555962428E+02  0.93368351694E+01  0.37354924769E+02  0.41800000000E+01 0.  1.
         -5    1    3    3    0  502 -0.72952699404E+01 -0.83217735699E+02  0.33085090046E+03  0.34125972988E+03  0.41800000000E+01 0.  1.
        -11    1    1    2    0    0  0.21200901067E+02  0.81267475919E+02 -0.15944493529E+01  0.84002518516E+02  0.00000000000E+00 0.  1.
         11    1    1    2    0    0 -0.40130547194E+02  0.26506222208E+02  0.40817176800E+02  0.63079969529E+02  0.00000000000E+00 0. -1.
</event>
<event>
 7    1  0.3001243E-009  0.1607189E+03  0.7561462E-02  0.1187888E+00
          1   -1    0    0  501    0  0.00000000000E+00  0.00000000000E+00  0.45727443024E+03  0.45727443024E+03  0.00000000000E+00 0. -1.
         -1   -1    0    0    0  501 -0.00000000000E+00 -0.00000000000E+00 -0.17924165124E+03  0.17924165124E+03  0.00000000000E+00 0.  1.
         25    2    1    2    0    0  0.13512264184E+03  0.47369734479E+01  0.39509539226E+03  0.43592161116E+03  0.12508682919E+03 0.  0.
          5    1    3    3  502    0  0.15347590254E+02 -0.35144866609E+02  0.27898819853E+02  0.47608053150E+02  0.41800000000E+01 0. -1.
         -5    1    3    3    0  502  0.11977505159E+03  0.39881840056E+02  0.36719657240E+03  0.38831355801E+03  0.41800000000E+01 0. -1.
        -11    1    1    2    0    0 -0.94130132698E+02  0.34067259713E+02 -0.10030962784E+03  0.14171478929E+03  0.00000000000E+00 0. -1.
         11    1    1    2    0    0 -0.40992509146E+02 -0.38804233161E+02 -0.16752985415E+02  0.58879681025E+02  0.00000000000E+00 0.  1.
</event>
<event>
 7    1  0.3001243E-009  0.1199937E+03  0.7561462E-02  0.1243107E+00
          2   -1    0    0  501    0  0.00000000000E+00  0.00000000000E+00  0.20350788874E+03  0.20350788874E+03  0.00000000000E+00 0.  1.
         -2   -1    0    0    0  501 -0.00000000000E+00 -0.00000000000E+00 -0.92416793446E+02  0.92416793446E+02  0.00000000000E+00 0. -1.
         25    2    1    2    0    0 -0.33971934857E+02 -0.49568417397E+02  0.71859913442E+00  0.13877746736E+03  0.12509016229E+03 0.  0.
          5    1    3    3  502    0 -0.75920718705E+02 -0.24750138277E+02  0.25512127168E+02  0.83933699466E+02  0.41800000000E+01 0.  1.
         -5    1    3    3    0  502  0.41948783848E+02 -0.24818279120E+02 -0.24793528033E+02  0.54843767897E+02  0.41800000000E+01 0.  1.
        -11    1    1    2    0    0  0.52258276132E+02 -0.60037467735E+01  0.43183133831E+02  0.68057001455E+02  0.00000000000E+00 0.  1.
         11    1    1    2    0    0 -0.18286341275E+02  0.55572164171E+02  0.67189362327E+02  0.89090213367E+02  0.00000000000E+00 0. -1.
</event>
<event>
 7    1  0.3001243E-009  0.9626759E+02  0.7561462E-02  0.1288346E+00
          1   -1    0    0  501    0  0.00000000000E+00  0.00000000000E+00  0.74392063286E+02  0.74392063286E+02  0.00000000000E+00 0.  1.
         -1   -1    0    0    0  501 -0.00000000000E+00 -0.00000000000E+00 -0.17736125764E+03  0.17736125764E+03  0.00000000000E+00 0. -1.
         25    2    1    2    0    0  0.91412555914E+01  0.45259393849E+02 -0.67110191123E+02  0.14928370846E+03  0.12509945073E+03 0.  0.
          5    1    3    3  502    0  0.50103398772E+02  0.49085877043E+02 -0.79513377088E+02  0.10611137276E+03  0.41800000000E+01 0.  1.
         -5    1    3    3    0  502 -0.40962143181E+02 -0.38264831936E+01  0.12403185964E+02  0.43172335698E+02  0.41800000000E+01 0.  1.
        -11    1    1    2    0    0 -0.36157327020E+02 -0.12061880685E+02  0.10337347342E+02  0.39493062846E+02  0.00000000000E+00 0.  1.
         11    1    1    2    0    0  0.27016071428E+02 -0.33197513164E+02 -0.46196350568E+02  0.62976549616E+02  0.00000000000E+00 0. -1.
</event>
<event>
 7    1  0.3001243E-009  0.1362550E+03  0.7561462E-02  0.1218459E+00
          2   -1    0    0  501    0  0.00000000000E+00  0.00000000000E+00  0.38823145826E+03  0.38823145826E+03  0.00000000000E+00 0. -1.
         -2   -1    0    0    0  501 -0.00000000000E+00 -0.00000000000E+00 -0.56671315353E+02  0.56671315353E+02  0.00000000000E+00 0.  1.
         25    2    1    2    0    0 -0.82603985920E+02 -0.41127059735E+02  0.11962103149E+03  0.19613811566E+03  0.12508443430E+03 0.  0.
          5    1    3    3  502    0  0.14519701956E+02  0.27550496293E+02  0.47547000649E+02  0.56991589394E+02  0.41800000000E+01 0. -1.
         -5    1    3    3    0  502 -0.97123687876E+02 -0.68677556027E+02  0.72074030845E+02  0.13914652626E+03  0.41800000000E+01 0. -1.
        -11    1    1    2    0    0 -0.17709731691E+01  0.37571165184E+02  0.11076527392E+03  0.11697724011E+03  0.00000000000E+00 0. -1.
         11    1    1    2    0    0  0.84374959089E+02  0.35558945506E+01  0.10117383749E+03  0.13178741784E+03  0.00000000000E+00 0.  1.
</event>
<event>
 7    1  0.3001243E-009  0.1101212E+03  0.7561462E-02  0.1260346E+00
         -1   -1    0    0    0  501 -0.00000000000E+00  0.00000000000E+00  0.47012951935E+02  0.47012951935E+02  0.00000000000E+00 0.  1.
          1   -1    0    0  501    0  0.00000000000E+00 -0.00000000000E+00 -0.38740147761E+03  0.38740147761E+03  0.00000000000E+00 0. -1.
         25    2    1    2    0    0 -0.75800423351E+02  0.23124507938E+02 -0.16764296264E+03  0.22368339523E+03  0.12509856647E+03 0.  0.
          5    1    3    3  502    0 -0.96721471303E+02  0.33571264073E+02 -0.72251759696E+02  0.12537887367E+03  0.41800000000E+01 0. -1.
         -5    1    3    3    0  502  0.20921047953E+02 -0.10446756135E+02 -0.95391202940E+02  0.98304521562E+02  0.41800000000E+01 0. -1.
        -11    1    1    2    0    0  0.12756854391E+02  0.15508427936E+02  0.27755566273E+01  0.20271960576E+02  0.00000000000E+00 0.  1.
         11    1    1    2    0    0  0.63043568960E+02 -0.38632935874E+02 -0.17552111967E+03  0.19045907374E+03  0.00000000000E+00 0. -1.
</event>
<event>
 7    1  0.3001243E-009  0.2056823E+03  0.7561462E-02  0.1145031E+00
         -1   -1    0    0    0  501 -0.00000000000E+00  0.00000000000E+00  0.93562833732E+02  0.93562833732E+02  0.00000000000E+00 0.  1.
          1   -1    0    0  501    0  0.00000000000E+00 -0.00000000000E+00 -0.51672384098E+03  0.51672384098E+03  0.00000000000E+00 0. -1.
         25    2    1    2    0    0  0.17936507329E+03 -0.65751643735E+02 -0.22794003394E+03  0.32265028250E+03  0.12510570553E+03 0.  0.
          5    1    3    3  502    0  0.86691691201E+02 -0.68986716067E+02 -0.19470038478E+03  0.22405429822E+03  0.41800000000E+01 0.  1.
         -5    1    3    3    0  502  0.92673382089E+02  0.32350723323E+01 -0.33239649160E+02  0.98595984285E+02  0.41800000000E+01 0.  1.
        -11    1    1    2    0    0 -0.71428900625E+02  0.69511761183E+02 -0.67510962481E+02  0.12038148879E+03  0.00000000000E+00 0. -1.
         11    1    1    2    0    0 -0.10793617267E+03 -0.37601174486E+01 -0.12771001082E+03  0.16725490342E+03  0.00000000000E+00 0.  1.
</event>
<event>
 7    1  0.3001243E-009  0.1240997E+03  0.7561462E-02  0.1236483E+00
          1   -1    0    0  501    0  0.00000000000E+00  0.00000000000E+00  0.25548602037E+03  0.25548602037E+03  0.00000000000E+00 0. -1.
         -1   -1    0    0    0  501 -0.00000000000E+00 -0.00000000000E+00 -0.67540344557E+02  0.67540344557E+02  0.00000000000E+00 0.  1.
         25    2    1    2    0    0 -0.58293479341E+01  0.70298816837E+02  0.80457202592E+02  0.16463381432E+03  0.12512004804E+03 0.  0.
          5    1    3    3  502    0  0.30182232225E+02 -0.23319523770E+02  0.42620698141E+02  0.57347743121E+02  0.41800000000E+01 0.  1.
         -5    1    3    3    0  502 -0.36011580159E+02  0.93618340607E+02  0.37836504451E+02  0.10728607120E+03  0.41800000000E+01 0.  1.
        -11    1    1    2    0    0  0.42843100329E+02 -0.20788395228E+02  0.20905803716E+02  0.52007126925E+02  0.00000000000E+00 0.  1.
         11    1    1    2    0    0 -0.37013752395E+02 -0.49510421609E+02  0.86582669500E+02  0.10638542368E+03  0.00000000000E+00 0. -1.
</event>
<event>
 7    1  0.3001243E-009  0.3172856E+03  0.7561462E-02  0.1076905E+00
         -2   -1    0    0    0  501 -0.00000000000E+00  0.00000000000E+00  0.12709785800E+03  0.12709785800E+03  0.00000000000E+00 0.  1.
          2   -1    0    0  501    0  0.00000000000E+00 -0.00000000000E+00 -0.98539674555E+03  0.98539674555E+03  0.00000000000E+00 0. -1.
         25    2    1    2    0    0  0.11353575448E+03  0.28955439719E+03 -0.63847200610E+03  0.72112844590E+03  0.12509043302E+03 0.  0.
          5    1    3    3  502    0  0.83861528585E+02  0.10765652610E+03 -0.37895101338E+03  0.40279526627E+03  0.41800000000E+01 0.  1.
         -5    1    3    3    0  502  0.29674225890E+02  0.18189787109E+03 -0.25952099273E+03  0.31833317963E+03  0.41800000000E+01 0.  1.
        -11    1    1    2    0    0 -0.58283424237E+02 -0.95086193775E+02 -0.33544274150E+02  0.11646269839E+03  0.00000000000E+00 0.  1.
         11    1    1    2    0    0 -0.55252330238E+02 -0.19446820341E+03 -0.18628260729E+03  0.27490345926E+03  0.00000000000E+00 0. -1.
</event>
<event>
 7    1  0.3001243E-009  0.1396622E+03  0.7561462E-02  0.1213784E+00
         -1   -1    0    0    0  501 -0.00000000000E+00  0.00000000000E+00  0.38886282783E+02  0.38886282783E+02  0.00000000000E+00 0. -1.
          1   -1    0    0  501    0  0.00000000000E+00 -0.00000000000E+00 -0.62344005559E+03  0.62344005559E+03  0.00000000000E+00 0.  1.
         25    2    1    2    0    0  0.54417342543E+02  0.93634095734E+02 -0.25112315726E+03  0.30073019732E+03  0.12508885008E+03 0.  0.
          5    1    3    3  502    0 -0.24542077066E+02 -0.91899137044E+01 -0.90291738385E+02  0.94110777710E+02  0.41800000000E+01 0.  1.
         -5    1    3    3    0  502  0.78959419609E+02  0.10282400944E+03 -0.16083141887E+03  0.20661941961E+03  0.41800000000E+01 0.  1.
        -11    1    1    2    0    0 -0.65298034985E+02 -0.63685385743E+02 -0.30679140986E+03  0.32006347948E+03  0.00000000000E+00 0.  1.
         11    1    1    2    0    0  0.10880692442E+02 -0.29948709991E+02 -0.26639205683E+02  0.41532661575E+02  0.00000000000E+00 0. -1.
</event>
<event>
 7    1  0.3001243E-009  0.7683772E+02  0.7561462E-02  0.1338273E+00
          2   -1    0    0  501    0  0.00000000000E+00  0.00000000000E+00  0.27036768275E+03  0.27036768275E+03  0.00000000000E+00 0. -1.
         -2   -1    0    0    0  501 -0.00000000000E+00 -0.00000000000E+00 -0.50608250417E+02  0.50608250417E+02  0.00000000000E+00 0.  1.
         25    2    1    2    0    0  0.35991101978E+02 -0.10023653085E+02  0.15365986851E+03  0.20163172518E+03  0.12509262315E+03 0.  0.
          5    1    3    3  502    0  0.11470123668E+02  0.17701386193E+02  0.16203336687E+03  0.16345392987E+03  0.41800000000E+01 0.  1.
         -5    1    3    3    0  502  0.24520978310E+02 -0.27725039277E+02 -0.83734983588E+01  0.38177795313E+02  0.41800000000E+01 0.  1.
        -11    1    1    2    0    0 -0.31221478740E+02 -0.36571372622E+02  0.15803439760E+02  0.50616150964E+02  0.00000000000E+00 0. -1.
         11    1    1    2    0    0 -0.47696232387E+01  0.46595025706E+02  0.50296124063E+02  0.68728057023E+02  0.00000000000E+00 0.  1.
</event>
<event>
 7    1  0.3001243E-009  0.1438675E+03  0.7561462E-02  0.1208218E+00
          2   -1    0    0  501    0  0.00000000000E+00  0.00000000000E+00  0.36243966839E+03  0.36243966839E+03  0.00000000000E+00 0. -1.
         -2   -1    0    0    0  501 -0.00000000000E+00 -0.00000000000E+00 -0.13619921823E+03  0.13619921823E+03  0.00000000000E+00 0.  1.
         25    2    1    2    0    0  0.16859578288E+02 -0.10602511440E+03 -0.62964490573E+02  0.17645900132E+03  0.12509069434E+03 0.  0.
          5    1    3    3  502    0 -0.11921763444E+01  0.20325185704E+02 -0.42253183913E+02  0.47088622927E+02  0.41800000000E+01 0.  1.
         -5    1    3    3    0  502  0.18051754632E+02 -0.12635030011E+03 -0.20711306660E+02  0.12937037839E+03  0.41800000000E+01 0.  1.
        -11    1    1    2    0    0  0.31130687765E+02  0.77263893413E+02  0.20281712956E+03  0.21925696566E+03  0.00000000000E+00 0. -1.
         11    1    1    2    0    0 -0.47990266053E+02  0.28761220988E+02  0.86387811164E+02  0.10292291964E+03  0.00000000000E+00 0.  1.
</event>
<event>
 7    1  0.3001243E-009  0.1778026E+03  0.7561462E-02  0.1169947E+00
          2   -1    0    0  501    0  0.00000000000E+00  0.00000000000E+00  0.10732406580E+04  0.10732406580E+04  0.00000000000E+00 0.  1.
         -2   -1    0    0    0  501 -0.00000000000E+00 -0.00000000000E+00 -0.42488860191E+02  0.42488860191E+02  0.00000000000E+00 0. -1.
         25    2    1    2    0    0  0.88041434136E+02  0.13384138332E+03  0.30142644293E+03  0.36355166840E+03  0.12508838909E+03 0.  0.
          5    1    3    3  502    0  0.11426752120E+03  0.11763347164E+03  0.28377449568E+03  0.32778062305E+03  0.41800000000E+01 0. -1.
         -5    1    3    3    0  502 -0.26226087061E+02  0.16207911678E+02  0.17651947254E+02  0.35771045349E+02  0.41800000000E+01 0. -1.
        -11    1    1    2    0    0 -0.79411037018E+02 -0.11540531397E+03  0.71137667935E+03  0.72503881222E+03  0.00000000000E+00 0.  1.
         11    1    1    2    0    0 -0.86303971175E+01 -0.18436069348E+02  0.17948675519E+02  0.27139037571E+02  0.00000000000E+00 0. -1.
</event>
<event>
 6    1  0.3001243E-009  0.1284745E+03  0.7561462E-02  0.1229737E+00
         -1   -1    0    0    0  501 -0.00000000000E+00  0.00000000000E+00  0.66381707012E+02  0.66381707012E+02  0.00000000000E+00 0. -1.
          1   -1    0    0  501    0  0.00000000000E+00 -0.00000000000E+00 -0.35783546831E+03  0.35783546831E+03  0.00000000000E+00 0.  1.
          5    1    1    2  502    0  0.25087499714E+01  0.40083367773E+02 -0.76604642074E+02  0.86595114099E+02  0.41800000000E+01 0.  1.
         -5    1    1    2    0  502  0.54899071117E+02 -0.90732328837E+02 -0.18911804473E+03  0.21686256189E+03  0.41800000000E+01 0.  1.
        -11    1    1    2    0    0 -0.76593916423E+02  0.30017991442E+02 -0.37269803928E+02  0.90314706046E+02  0.00000000000E+00 0.  1.
         11    1    1    2    0    0  0.19186095335E+02  0.20630969622E+02  0.11538729432E+02  0.30444793293E+02  0.00000000000E+00 0. -1.
</event>
<event>
 7    1  0.3001243E-009  0.1295551E+03  0.7561462E-02  0.1228117E+00
          2   -1    0    0  501    0  0.00000000000E+00  0.00000000000E+00  0.61234391202E+03  0.61234391202E+03  0.00000000000E+00 0. -1.
         -2   -1    0    0    0  501 -0.00000000000E+00 -0.00000000000E+00 -0.31377433295E+02  0.31377433295E+02  0.00000000000E+00 0.  1.
         25    2    1    2    0    0  0.64004827937E+02  0.39805549616E+02  0.39592910006E+03  0.42200524748E+03  0.12508987507E+03 0.  0.
          5    1    3    3  502    0 -0.58960124654E+01  0.68928775250E+02  0.21247670938E+03  0.22349443718E+03  0.41800000000E+01 0. -1.
         -5    1    3    3    0  502  0.69900840403E+02 -0.29123225634E+02  0.18345239068E+03  0.19851081030E+03  0.41800000000E+01 0. -1.
        -11    1    1    2    0    0 -0.23596102616E+02  0.27018356495E+02  0.10011107724E+03  0.10634376067E+03  0.00000000000E+00 0. -1.
         11    1    1    2    0    0 -0.40408725321E+02 -0.66823906112E+02  0.84926301422E+02  0.11537233717E+03  0.00000000000E+00 0.  1.
</event>
<event>
 7    1  0.3001243E-009  0.9693338E+02  0.7561462E-02  0.1286880E+00
          2   -1    0    0  501    0  0.00000000000E+00  0.00000000000E+00  0.73982938331E+02  0.73982938331E+02  0.00000000000E+00 0. -1.
         -2   -1    0    0    0  501 -0.00000000000E+00 -0.00000000000E+00 -0.21871413546E+03  0.21871413546E+03  0.00000000000E+00 0.  1.
         25    2    1    2    0    0 -0.45163649375E+02 -0.14700818203E+02 -0.14376400883E+03  0.19639863927E+03  0.12509382875E+03 0.  0.
          5    1    3    3  502    0 -0.56279976169E+02  0.22555337820E+02 -0.16087938044E+02  0.62868697556E+02  0.41800000000E+01 0. -1.
         -5    1    3    3    0  502  0.11116326794E+02 -0.37256156023E+02 -0.12767607079E+03  0.13352994171E+03  0.41800000000E+01 0. -1.
        -11    1    1    2    0    0 -0.17082489005E+02 -0.17029709291E+02 -0.94751090108E+01  0.25915248791E+02  0.00000000000E+00 0. -1.
         11    1    1    2    0    0  0.62246138381E+02  0.31730527493E+02  0.85079207134E+01  0.70383185728E+02  0.00000000000E+00 0.  1.
</event>
<event>
 7    1  0.3001243E-009  0.1472085E+03  0.7561462E-02  0.1203946E+00
          1   -1    0    0  501    0  0.00000000000E+00  0.00000000000E+00  0.56738369548E+02  0.56738369548E+02  0.00000000000E+00 0. -1.
         -1   -1    0    0    0  501 -0.00000000000E+00 -0.00000000000E+00 -0.49870836524E+03  0.49870836524E+03  0.00000000000E+00 0.  1.
         25    2    1    2    0    0  0.55150207203E+02 -0.88240371642E+02 -0.11306024262E+03  0.19813826275E+03  0.12509294210E+03 0.  0.
          5    1    3    3  502    0  0.83183949477E+02 -0.27266862064E+02 -0.33140182398E+02  0.93695225635E+02  0.41800000000E+01 0.  1.
         -5    1    3    3    0  502 -0.28033742273E+02 -0.60973509578E+02 -0.79920060219E+02  0.10444303711E+03  0.41800000000E+01 0.  1.
        -11    1    1    2    0    0 -0.74167848505E+02  0.33113782359E+02 -0.19656936217E+03  0.21268969528E+03  0.00000000000E+00 0. -1.
         11    1    1    2    0    0  0.19017641302E+02  0.55126589283E+02 -0.13234039090E+03  0.14461877675E+03  0.00000000000E+00 0.  1.
</event>
<event>
 7    1  0.3001243E-009  0.1425344E+03  0.7561462E-02  0.1209959E+00
          1   -1    0    0  501    0  0.00000000000E+00  0.00000000000E+00  0.21597598783E+03  0.21597598783E+03  0.00000000000E+00 0. -1.
         -1   -1    0    0    0  501 -0.00000000000E+00 -0.00000000000E+00 -0.10140790830E+03  0.10140790830E+03  0.00000000000E+00 0.  1.
         25    2    1    2    0    0  0.18454004042E+02  0.93854706479E+02  0.95498805605E+02  0.18416312082E+03  0.12508707769E+03 0.  0.
          5    1    3    3  502    0 -0.11880842867E+02  0.11686138877E+03  0.82941874040E+02  0.14385605820E+03  0.41800000000E+01 0.  1.
         -5    1    3    3    0  502  0.30334846909E+02 -0.23006682286E+02  0.12556931565E+02  0.40307062621E+02  0.41800000000E+01 0.  1.
        -11    1    1    2    0    0  0.32744607532E+02 -0.58399312889E+02  0.23069183340E+02  0.70815791236E+02  0.00000000000E+00 0. -1.
         11    1    1    2    0    0 -0.51198611574E+02 -0.35455393590E+02 -0.39999094088E+01  0.62404984072E+02  0.00000000000E+00 0.  1.
</event>
<event>
 7    1  0.3001243E-009  0.1460128E+03  0.7561462E-02  0.1205460E+00
         -1   -1    0    0    0  501 -0.00000000000E+00  0.00000000000E+00  0.31695998685E+02  0.31695998685E+02  0.00000000000E+00 0.  1.
          1   -1    0    0  501    0  0.00000000000E+00 -0.00000000000E+00 -0.72661019666E+03  0.72661019666E+03  0.00000000000E+00 0. -1.
         25    2    1    2    0    0  0.88681279660E+02 -0.25073275486E+02 -0.30981976563E+03  0.34659602259E+03  0.12508987646E+03 0.  0.
          5    1    3    3  502    0  0.56354205255E+02 -0.72041322640E+02 -0.23661342130E+03  0.25371072535E+03  0.41800000000E+01 0.  1.
         -5    1    3    3    0  502  0.32327074405E+02  0.46968047154E+02 -0.73206344332E+02  0.92885297241E+02  0.41800000000E+01 0.  1.
        -11    1    1    2    0    0 -0.42441143425E+02 -0.43379283727E+02 -0.20031503433E+03  0.20930629682E+03  0.00000000000E+00 0. -1.
         11    1    1    2    0    0 -0.46240136235E+02  0.68452559213E+02 -0.18477939802E+03  0.20240387594E+03  0.00000000000E+00 0.  1.
</event>
<event>
 7    1  0.3001243E-009  0.9316792E+02  0.7561462E-02  0.1295357E+00
          1   -1    0    0  501    0  0.00000000000E+00  0.00000000000E+00  0.10882269164E+04  0.10882269164E+04  0.00000000000E+00 0. -1.
         -1   -1    0    0    0  501 -0.00000000000E+00 -0.00000000000E+00 -0.14927373775E+02  0.14927373775E+02  0.00000000000E+00 0.  1.
         25    2    1    2    0    0  0.12381359017E+02 -0.60832892405E+02  0.48515532731E+03  0.50485351789E+03  0.12508974401E+03 0.  0.
          5    1    3    3  502    0  0.68020858713E+01  0.57027595296E+01 -0.43967678686E+01  0.10751456001E+02  0.41800000000E+01 0.  1.
         -5    1    3    3    0  502  0.55792731453E+01 -0.66535651935E+02  0.48955209518E+03  0.49410206189E+03  0.41800000000E+01 0.  1.
        -11    1    1    2    0    0  0.19829112688E+02 -0.16535552789E+02  0.15216126053E+03  0.15433621552E+03  0.00000000000E+00 0. -1.
         11    1    1    2    0    0 -0.32210471705E+02  0.77368445195E+02  0.43598295479E+03  0.44396455677E+03  0.00000000000E+00 0.  1.
</event>
<event>
 7    1  0.3001243E-009  0.1235110E+03  0.7561462E-02  0.1237415E+00
          1   -1    0    0  501    0  0.00000000000E+00  0.00000000000E+00  0.90272446288E+02  0.90272446288E+02  0.00000000000E+00 0. -1.
         -1   -1    0    0    0  501 -0.00000000000E+00 -0.00000000000E+00 -0.22010944391E+03  0.22010944391E+03  0.00000000000E+00 0.  1.
         25    2    1    2    0    0  0.77389881659E+02  0.47247235165E+02 -0.98295689173E+02  0.18311305405E+03  0.12508738162E+03 0.  0.
          5    1    3    3  502    0  0.46960995164E+02  0.90013411219E+02 -0.59986481525E+02  0.11799830351E+03  0.41800000000E+01 0. -1.
         -5    1    3    3    0  502  0.30428886494E+02 -0.42766176053E+02 -0.38309207648E+02  0.65114750542E+02  0.41800000000E+01 0. -1.
        -11    1    1    2    0    0 -0.63957065221E+02 -0.29327547091E+02  0.18236146848E+02  0.72685406114E+02  0.00000000000E+00 0. -1.
         11    1    1    2    0    0 -0.13432816438E+02 -0.17919688074E+02 -0.49777455296E+02  0.54583430030E+02  0.00000000000E+00 0.  1.
</event>
<event>
 7    1  0.3001243E-009  0.1564072E+03  0.7561462E-02  0.1192814E+00
          2   -1    0    0  501    0  0.00000000000E+00  0.00000000000E+00  0.84406832034E+03  0.84406832034E+03  0.00000000000E+00 0.  1.
         -2   -1    0    0    0  501 -0.00000000000E+00 -0.00000000000E+00 -0.44965414846E+02  0.44965414846E+02  0.00000000000E+00 0. -1.
         25    2    1    2    0    0  0.78895549812E+02 -0.10652370954E+03  0.20822817093E+03  0.27672805381E+03  0.12509051172E+03 0.  0.
          5    1    3    3  502    0 -0.14041221514E+02  0.86202152772E+01 -0.44815057914E+01  0.17578973439E+02  0.41800000000E+01 0. -1.
         -5    1    3    3    0  502  0.92936771326E+02 -0.11514392482E+03  0.21270967672E+03  0.25914908037E+03  0.41800000000E+01 0. -1.
        -11    1    1    2    0    0 -0.57009040003E+02  0.23052290963E+02  0.37174967209E+03  0.37680135013E+03  0.00000000000E+00 0.  1.
         11    1    1    2    0    0 -0.21886509808E+02  0.83471418578E+02  0.21912506248E+03  0.23550433125E+03  0.00000000000E+00 0. -1.
</event>
<event>
 7    1  0.3001243E-009  0.2004903E+03  0.7561462E-02  0.1149326E+00
         -1   -1    0    0    0  501 -0.00000000000E+00  0.00000000000E+00  0.50478075180E+03  0.50478075180E+03  0.00000000000E+00 0.  1.
          1   -1    0    0  501    0  0.00000000000E+00 -0.00000000000E+00 -0.87462904952E+02  0.87462904952E+02  0.00000000000E+00 0. -1.
         25    2    1    2    0    0  0.14394043153E+03 -0.10462559387E+03  0.18161984895E+03  0.28337174220E+03  0.12509361304E+03 0.  0.
          5    1    3    3  502    0  0.46971698746E+02  0.12981138923E+02  0.37033453360E+01  0.49051377325E+02  0.41800000000E+01 0.  1.
         -5    1    3    3    0  502  0.96968732780E+02 -0.11760673279E+03  0.17791650361E+03  0.23432036487E+03  0.41800000000E+01 0.  1.
        -11    1    1    2    0    0 -0.28147724743E+02  0.74932227047E+02  0.91640459161E+02  0.12167623767E+03  0.00000000000E+00 0.  1.
         11    1    1    2    0    0 -0.11579270678E+03  0.29693366821E+02  0.14405753874E+03  0.18719567689E+03  0.00000000000E+00 0. -1.
</event>
<event>
 7    1  0.3001243E-009  0.1254699E+03  0.7561462E-02  0.1234337E+00
         -2   -1    0    0    0  501 -0.00000000000E+00  0.00000000000E+00  0.19896127683E+02  0.19896127683E+02  0.00000000000E+00 0.  1.
          2   -1    0    0  501    0  0.00000000000E+00 -0.00000000000E+00 -0.13403329061E+04  0.13403329061E+04  0.00000000000E+00 0. -1.
         25    2    1    2    0    0  0.76358579878E+02 -0.47272148534E+02 -0.10510940238E+04  0.10623137887E+04  0.12508657045E+03 0.  0.
          5    1    3    3  502    0 -0.30287193744E+02 -0.34301221775E+02 -0.27600838253E+03  0.27980705414E+03  0.41800000000E+01 0. -1.
         -5    1    3    3    0  502  0.10664577362E+03 -0.12970926759E+02 -0.77508564126E+03  0.78250673457E+03  0.41800000000E+01 0. -1.
        -11    1    1    2    0    0 -0.51959440098E+02  0.99750439871E+01 -0.23703532028E+03  0.24286833465E+03  0.00000000000E+00 0. -1.
         11    1    1    2    0    0 -0.24399139781E+02  0.37297104547E+02 -0.32307434307E+02  0.55046910368E+02  0.00000000000E+00 0.  1.
</event>
<event>
 7    1  0.3001243E-009  0.1482958E+03  0.7561462E-02  0.1202583E+00
         -1   -1    0    0    0  501 -0.00000000000E+00  0.00000000000E+00  0.58263057486E+02  0.58263057486E+02  0.00000000000E+00 0.  1.
          1   -1    0    0  501    0  0.00000000000E+00 -0.00000000000E+00 -0.50388078020E+03  0.50388078020E+03  0.00000000000E+00 0. -1.
         25    2    1    2    0    0  0.76144087530E+02  0.96732264696E+02 -0.31251087376E+03  0.35842050334E+03  0.12508860019E+03 0.  0.
          5    1    3    3  502    0  0.42319017283E+02 -0.10803409237E+02 -0.27212387708E+02  0.51629442373E+02  0.41800000000E+01 0.  1.
         -5    1    3    3    0  502  0.33825070247E+02  0.10753567393E+03 -0.28529848606E+03  0.30679106097E+03  0.41800000000E+01 0.  1.
        -11    1    1    2    0    0 -0.61744014039E+02 -0.24782965495E+02 -0.21054883848E+02  0.69784144204E+02  0.00000000000E+00 0.  1.
         11    1    1    2    0    0 -0.14400073491E+02 -0.71949299201E+02 -0.11205196510E+03  0.13393919014E+03  0.00000000000E+00 0. -1.
</event>
<event>
 7    1  0.3001243E-009  0.9322398E+02  0.7561462E-02  0.1295227E+00
         -2   -1    0    0    0  501 -0.00000000000E+00  0.00000000000E+00  0.52909351562E+02  0.52909351562E+02  0.00000000000E+00 0. -1.
          2   -1    0    0  501    0  0.00000000000E+00 -0.00000000000E+00 -0.30657240176E+03  0.30657240176E+03  0.00000000000E+00 0.  1.
         25    2    1    2    0    0 -0.11077540658E+02 -0.25708418134E+02 -0.54547411399E+02  0.13930876143E+03  0.12509147153E+03 0.  0.
          5    1    3    3  502    0 -0.20450244451E+02 -0.65323036823E+02 -0.67660747878E+02  0.96336705577E+02  0.41800000000E+01 0.  1.
         -5    1    3    3    0  502  0.93727037929E+01  0.39614618689E+02  0.13113336480E+02  0.42972055849E+02  0.41800000000E+01 0.  1.
        -11    1    1    2    0    0  0.21086860999E+02  0.48046768646E+02 -0.18415641500E+03  0.19148559442E+03  0.00000000000E+00 0.  1.
         11    1    1    2    0    0 -0.10009320341E+02 -0.22338350512E+02 -0.14959223798E+02  0.28687397476E+02  0.00000000000E+00 0. -1.
</event>
<event>
 7    1  0.4421932E-009  0.1128998E+03  0.7561462E-02  0.1255292E+00
         -2   -1    0    0    0  501 -0.00000000000E+00  0.00000000000E+00  0.29268287708E+03  0.29268287708E+03  0.00000000000E+00 0.  1.
          2   -1    0    0  501    0  0.00000000000E+00 -0.00000000000E+00 -0.62457452764E+02  0.62457452764E+02  0.00000000000E+00 0. -1.
         25    2    1    2    0    0 -0.76484340666E+02  0.12387896836E+02  0.15519412455E+03  0.21386061886E+03  0.12509130125E+03 0.  0.
          5    1    3    3  502    0 -0.10985036728E+03  0.76099129092E+01  0.13531252810E+03  0.17450491864E+03  0.41800000000E+01 0. -1.
         -5    1    3    3    0  502  0.33366026619E+02  0.47779839266E+01  0.19881596450E+02  0.39355700224E+02  0.41800000000E+01 0. -1.
        -11    1    1    2    0    0  0.37764820095E+02 -0.19140042977E+02  0.89809947580E+02  0.99289221803E+02  0.00000000000E+00 0.  1.
         11    1    1    2    0    0  0.38719520571E+02  0.67521461415E+01 -0.14778647811E+02  0.41990489183E+02  0.00000000000E+00 0. -1.
</event>
<event>
 7    1  0.3001243E-009  0.1025502E+03  0.7561462E-02  0.1275023E+00
         -2   -1    0    0    0  501 -0.00000000000E+00  0.00000000000E+00  0.47202430357E+02  0.47202430357E+02  0.00000000000E+00 0. -1.
          2   -1    0    0  501    0  0.00000000000E+00 -0.00000000000E+00 -0.26832567650E+03  0.26832567650E+03  0.00000000000E+00 0.  1.
         25    2    1    2    0    0 -0.96892468952E+01  0.19963715218E+02 -0.93047251763E+02  0.15747549897E+03  0.12509320639E+03 0.  0.
          5    1    3    3  502    0  0.41936824910E+02 -0.22963095827E+02 -0.73902929203E+01  0.48560167657E+02  0.41800000000E+01 0.  1.
         -5    1    3    3    0  502 -0.51626071805E+02  0.42926811044E+02 -0.85656958842E+02  0.10891533131E+03  0.41800000000E+01 0.  1.
        -11    1    1    2    0    0  0.38130427745E+02  0.18189680201E+02 -0.41275616710E+02  0.59063275567E+02  0.00000000000E+00 0. -1.
         11    1    1    2    0    0 -0.28441180850E+02 -0.38153395419E+02 -0.86800377674E+02  0.98989332327E+02  0.00000000000E+00 0.  1.
</event>
<event>
 7    1  0.3001243E-009  0.1522182E+03  0.7561462E-02  0.1197773E+00
         -2   -1    0    0    0  501 -0.00000000000E+00  0.00000000000E+00  0.15499344786E+03  0.15499344786E+03  0.00000000000E+00 0.  1.
          2   -1    0    0  501    0  0.00000000000E+00 -0.00000000000E+00 -0.17497275248E+03  0.17497275248E+03  0.00000000000E+00 0. -1.
         25    2    1    2    0    0  0.11558117487E+03  0.31689145801E+02 -0.39717846349E+02  0.17773088056E+03  0.12509016205E+03 0.  0.
          5    1    3    3  502    0 -0.10071217282E+02  0.25368848486E+02  0.24051744537E+02  0.36619212257E+02  0.41800000000E+01 0.  1.
         -5    1    3    3    0  502  0.12565239215E+03  0.63202973150E+01 -0.63769590887E+02  0.14111166831E+03  0.41800000000E+01 0.  1.
        -11    1    1    2    0    0  0.14728386325E+01 -0.33836988821E+02  0.37956195864E+01  0.34081047433E+02  0.00000000000E+00 0.  1.
         11    1    1    2    0    0 -0.11705401350E+03  0.21478430202E+01  0.15942922140E+02  0.11815427234E+03  0.00000000000E+00 0. -1.
</event>
<event>
 7    1  0.3001243E-009  0.3030552E+03  0.7561462E-02  0.1083723E+00
         -2   -1    0    0    0  501 -0.00000000000E+00  0.00000000000E+00  0.44748720830E+03  0.44748720830E+03  0.00000000000E+00 0. -1.
          2   -1    0    0  501    0  0.00000000000E+00 -0.00000000000E+00 -0.24253916766E+03  0.24253916766E+03  0.00000000000E+00 0.  1.
         25    2    1    2    0    0  0.24582716958E+03 -0.16336952374E+03  0.39886260990E+01  0.32060373007E+03  0.12510093529E+03 0.  0.
          5    1    3    3  502    0  0.57131074325E+02 -0.11376209689E+02 -0.44552832106E+02  0.73456143712E+02  0.41800000000E+01 0.  1.
         -5    1    3    3    0  502  0.18869609525E+03 -0.15199331405E+03  0.48541458205E+02  0.24714758636E+03  0.41800000000E+01 0.  1.
        -11    1    1    2    0    0 -0.12672322028E+03  0.37657547283E+02  0.11884470608E+03  0.17776650300E+03  0.00000000000E+00 0. -1.
         11    1    1    2    0    0 -0.11910394930E+03  0.12571197646E+03  0.82114708464E+02  0.19165614289E+03  0.00000000000E+00 0.  1.
</event>
<event>
 7    1  0.3001243E-009  0.1515364E+03  0.7561462E-02  0.1198598E+00
         -3   -1    0    0    0  501 -0.00000000000E+00  0.00000000000E+00  0.57453690837E+03  0.57453690837E+03  0.00000000000E+00 0.  1.
          3   -1    0    0  501    0  0.00000000000E+00 -0.00000000000E+00 -0.62874501207E+02  0.62874501207E+02  0.00000000000E+00 0. -1.
         25    2    1    2    0    0  0.11844608056E+03 -0.34606496902E+02  0.42841461996E+03  0.46305642446E+03  0.12512027020E+03 0.  0.
          5    1    3    3  502    0  0.13402897524E+03 -0.28353214907E+02  0.26144419134E+03  0.29519181659E+03  0.41800000000E+01 0. -1.
         -5    1    3    3    0  502 -0.15582894676E+02 -0.62532819951E+01  0.16697042862E+03  0.16786460787E+03  0.41800000000E+01 0. -1.
        -11    1    1    2    0    0 -0.60274200641E+02 -0.25153903927E+02  0.16056166108E+02  0.67256959608E+02  0.00000000000E+00 0. -1.
         11    1    1    2    0    0 -0.58171879924E+02  0.59760400829E+02  0.67191621096E+02  0.10709802550E+03  0.00000000000E+00 0.  1.
</event>
<event>
 7    1  0.3001243E-009  0.2104799E+03  0.7561462E-02  0.1141187E+00
         -2   -1    0    0    0  501 -0.00000000000E+00  0.00000000000E+00  0.10411432682E+03  0.10411432682E+03  0.00000000000E+00 0.  1.
          2   -1    0    0  501    0  0.00000000000E+00 -0.00000000000E+00 -0.52841494459E+03  0.52841494459E+03  0.00000000000E+00 0. -1.
         25    2    1    2    0    0 -0.15821029598E+03  0.11664282644E+03 -0.12899884230E+03  0.26631682767E+03  0.12509158513E+03 0.  0.
          5    1    3    3  502    0 -0.66597351721E+02  0.87312193956E+02 -0.12974565560E+03  0.17002950925E+03  0.41800000000E+01 0. -1.
         -5    1    3    3    0  502 -0.91612944256E+02  0.29330632482E+02  0.74681330093E+00  0.96287318413E+02  0.41800000000E+01 0. -1.
        -11    1    1    2    0    0  0.15596745010E+03 -0.74968529726E+02 -0.25515912076E+03  0.30830553489E+03  0.00000000000E+00 0. -1.
         11    1    1    2    0    0  0.22428458723E+01 -0.41674296712E+02 -0.40142654715E+02  0.57906908842E+02  0.00000000000E+00 0.  1.
</event>
<event>
 7    1  0.3001243E-009  0.5452631E+02  0.7561462E-02  0.1422352E+00
          1   -1    0    0  501    0  0.00000000000E+00  0.00000000000E+00  0.46342217350E+03  0.46342217350E+03  0.00000000000E+00 0. -1.
         -1   -1    0    0    0  501 -0.00000000000E+00 -0.00000000000E+00 -0.30258239568E+02  0.30258239568E+02  0.00000000000E+00 0.  1.
         25    2    1    2    0    0 -0.69695079866E+01  0.31316079553E+02  0.31028867052E+03  0.33608903055E+03  0.12508999368E+03 0.  0.
          5    1    3    3  502    0 -0.13827803559E+02 -0.12508142510E+01  0.30091098758E+03  0.30126013267E+03  0.41800000000E+01 0. -1.
         -5    1    3    3    0  502  0.68582955726E+01  0.32566893804E+02  0.93776829414E+01  0.34828897880E+02  0.41800000000E+01 0. -1.
        -11    1    1    2    0    0 -0.21044108678E+02 -0.24271875888E+02  0.78862973141E+00  0.32134100361E+02  0.00000000000E+00 0.  1.
         11    1    1    2    0    0  0.28013616665E+02 -0.70442036652E+01  0.12208663368E+03  0.12545728216E+03  0.00000000000E+00 0. -1.
</event>
<event>
 7    1  0.3001243E-009  0.1183573E+03  0.7561462E-02  0.1245832E+00
          1   -1    0    0  501    0  0.00000000000E+00  0.00000000000E+00  0.71150209615E+03  0.71150209615E+03  0.00000000000E+00 0. -1.
         -1   -1    0    0    0  501 -0.00000000000E+00 -0.00000000000E+00 -0.22718225984E+02  0.22718225984E+02  0.00000000000E+00 0.  1.
         25    2    1    2    0    0 -0.38539150641E+02 -0.43939450140E+02  0.29282387605E+03  0.32374037703E+03  0.12508424332E+03 0.  0.
          5    1    3    3  502    0 -0.84075125138E+02 -0.36270222948E+02  0.19805354830E+03  0.21823573523E+03  0.41800000000E+01 0.  1.
         -5    1    3    3    0  502  0.45535974497E+02 -0.76692271918E+01  0.94770327751E+02  0.10550464180E+03  0.41800000000E+01 0.  1.
        -11    1    1    2    0    0  0.63449293879E+02  0.32118388802E+02  0.34770457412E+03  0.35490262700E+03  0.00000000000E+00 0. -1.
         11    1    1    2    0    0 -0.24910143238E+02  0.11821061338E+02  0.48255420008E+02  0.55577318103E+02  0.00000000000E+00 0.  1.
</event>
<event>
 7    1  0.3001243E-009  0.8305612E+02  0.7561462E-02  0.1320596E+00
          1   -1    0    0  501    0  0.00000000000E+00  0.00000000000E+00  0.32099671160E+02  0.32099671160E+02  0.00000000000E+00 0. -1.
         -1   -1    0    0    0  501 -0.00000000000E+00 -0.00000000000E+00 -0.52805393969E+03  0.52805393969E+03  0.00000000000E+00 0.  1.
         25    2    1    2    0    0  0.16497319553E+02 -0.60062231753E+02 -0.19963592846E+03  0.24368287707E+03  0.12508879809E+03 0.  0.
          5    1    3    3  502    0  0.14534948858E+02 -0.27740604200E+02 -0.20766946804E+03  0.21005924453E+03  0.41800000000E+01 0.  1.
         -5    1    3    3    0  502  0.19623706946E+01 -0.32321627553E+02  0.80335395778E+01  0.33623632530E+02  0.41800000000E+01 0.  1.
        -11    1    1    2    0    0  0.32401263257E+02  0.31745832788E+02 -0.19745729708E+03  0.20260065136E+03  0.00000000000E+00 0.  1.
         11    1    1    2    0    0 -0.48898582810E+02  0.28316398965E+02 -0.98861042988E+02  0.11387008243E+03  0.00000000000E+00 0. -1.
</event>
<event>
 7    1  0.3001243E-009  0.1072891E+03  0.7561462E-02  0.1265674E+00
          1   -1    0    0  501    0  0.00000000000E+00  0.00000000000E+00  0.28308145356E+03  0.28308145356E+03  0.00000000000E+00 0. -1.
         -1   -1    0    0    0  501 -0.00000000000E+00 -0.00000000000E+00 -0.66529808993E+02  0.66529808993E+02  0.00000000000E+00 0.  1.
         25    2    1    2    0    0 -0.77688208620E+02 -0.24848320308E+01  0.14669271469E+03  0.20786476270E+03  0.12508946750E+03 0.  0.
          5    1    3    3  502    0 -0.53991631532E+02 -0.37184691921E+02  0.15172902766E+03  0.16533894830E+03  0.41800000000E+01 0.  1.
         -5    1    3    3    0  502 -0.23696577088E+02  0.34699859890E+02 -0.50363129707E+01  0.42525814400E+02  0.41800000000E+01 0.  1.
        -11    1    1    2    0    0  0.21013103994E+02  0.35366402815E+02  0.63841426081E+02  0.75947749615E+02  0.00000000000E+00 0. -1.
         11    1    1    2    0    0  0.56675104625E+02 -0.32881570784E+02  0.60175037953E+01  0.65798750242E+02  0.00000000000E+00 0.  1.
</event>
<event>
 7    1  0.3001243E-009  0.1111086E+03  0.7561462E-02  0.1258531E+00
          1   -1    0    0  501    0  0.00000000000E+00  0.00000000000E+00  0.43309041779E+03  0.43309041779E+03  0.00000000000E+00 0. -1.
         -1   -1    0    0    0  501 -0.00000000000E+00 -0.00000000000E+00 -0.36244311221E+02  0.36244311221E+02  0.00000000000E+00 0.  1.
         25    2    1    2    0    0  0.50784818274E+02 -0.74769337576E+01  0.15910097591E+03  0.20879314930E+03  0.12508579597E+03 0.  0.
          5    1    3    3  502    0  0.63272711450E+02  0.40689337860E+02  0.13197493758E+03  0.15196682131E+03  0.41800000000E+01 0.  1.
         -5    1    3    3    0  502 -0.12487893176E+02 -0.48166271618E+02  0.27126038331E+02  0.56826327992E+02  0.41800000000E+01 0.  1.
        -11    1    1    2    0    0 -0.43466003910E+02 -0.33773979019E+02  0.18593626341E+03  0.19391304548E+03  0.00000000000E+00 0. -1.
         11    1    1    2    0    0 -0.73188143640E+01  0.41250912777E+02  0.51808867251E+02  0.66628534236E+02  0.00000000000E+00 0.  1.
</event>
<event>
 7    1  0.3001243E-009  0.1441731E+03  0.7561462E-02  0.1207821E+00
          1   -1    0    0  501    0  0.00000000000E+00  0.00000000000E+00  0.22298266121E+03  0.22298266121E+03  0.00000000000E+00 0. -1.
         -1   -1    0    0    0  501 -0.00000000000E+00 -0.00000000000E+00 -0.10363232138E+03  0.10363232138E+03  0.00000000000E+00 0.  1.
         25    2    1    2    0    0 -0.76576196695E+02  0.68777356433E+02  0.37549535606E+02  0.16628931181E+03  0.12509168214E+03 0.  0.
          5    1    3    3  502    0 -0.92167643402E+02  0.40202221014E+01  0.37169924658E+02  0.99549547337E+02  0.41800000000E+01 0. -1.
         -5    1    3    3    0  502  0.15591446707E+02  0.64757134331E+02  0.37961094788E+00  0.66739764471E+02  0.41800000000E+01 0. -1.
        -11    1    1    2    0    0  0.63024361877E+02 -0.86451710141E+02  0.42431133574E+02  0.11509287325E+03  0.00000000000E+00 0.  1.
         11    1    1    2    0    0  0.13551834818E+02  0.17674353708E+02  0.39369670652E+02  0.45232797539E+02  0.00000000000E+00 0. -1.
</event>
<event>
 7    1  0.3001243E-009  0.1168076E+03  0.7561462E-02  0.1248458E+00
         -1   -1    0    0    0  501 -0.00000000000E+00  0.00000000000E+00  0.57408609872E+03  0.57408609872E+03  0.00000000000E+00 0.  1.
          1   -1    0    0  501    0  0.00000000000E+00 -0.00000000000E+00 -0.41374207174E+02  0.41374207174E+02  0.00000000000E+00 0. -1.
         25    2    1    2    0    0  0.58946892752E+01  0.10757596592E+03  0.31248446319E+03  0.35341254643E+03  0.12508618003E+03 0.  0.
          5    1    3    3  502    0 -0.21045033833E+02  0.91910046230E+02  0.95884904702E+02  0.13454269730E+03  0.41800000000E+01 0.  1.
         -5    1    3    3    0  502  0.26939723108E+02  0.15665919692E+02  0.21659955849E+03  0.21886984913E+03  0.41800000000E+01 0.  1.
        -11    1    1    2    0    0 -0.57741439619E+01 -0.77403758778E+02  0.21844223544E+03  0.23182254600E+03  0.00000000000E+00 0.  1.
         11    1    1    2    0    0 -0.12054531321E+00 -0.30172207144E+02  0.17851929170E+01  0.30225213463E+02  0.00000000000E+00 0. -1.
</event>
<event>
 7    1  0.3001243E-009  0.1949288E+03  0.7561462E-02  0.1154089E+00
          1   -1    0    0  501    0  0.00000000000E+00  0.00000000000E+00  0.20441288645E+03  0.20441288645E+03  0.00000000000E+00 0. -1.
         -1   -1    0    0    0  501 -0.00000000000E+00 -0.00000000000E+00 -0.21689508620E+03  0.21689508620E+03  0.00000000000E+00 0.  1.
         25    2    1    2    0    0 -0.59965571429E+02  0.16769371226E+03  0.18910073939E+02  0.21844157967E+03  0.12506830912E+03 0.  0.
          5    1    3    3  502    0  0.13065533308E+02  0.40058089912E+02 -0.41612204665E+02  0.59366713781E+02  0.41800000000E+01 0. -1.
         -5    1    3    3    0  502 -0.73031104737E+02  0.12763562234E+03  0.60522278604E+02  0.15907486589E+03  0.41800000000E+01 0. -1.
        -11    1    1    2    0    0 -0.19812662477E+02 -0.77490474939E+02 -0.13886315417E+02  0.81179708404E+02  0.00000000000E+00 0. -1.
         11    1    1    2    0    0  0.79778233907E+02 -0.90203237318E+02 -0.17505958279E+02  0.12168668458E+03  0.00000000000E+00 0.  1.
</event>
<event>
 7    1  0.3001243E-009  0.1239369E+03  0.7561462E-02  0.1236740E+00
          2   -1    0    0  501    0  0.00000000000E+00  0.00000000000E+00  0.13614374823E+03  0.13614374823E+03  0.00000000000E+00 0. -1.
         -2   -1    0    0    0  501 -0.00000000000E+00 -0.00000000000E+00 -0.12232975312E+03  0.12232975312E+03  0.00000000000E+00 0.  1.
         25    2    1    2    0    0  0.38862995818E+02 -0.52482438201E+02 -0.17238446853E+02  0.14215984684E+03  0.12509004452E+03 0.  0.
          5    1    3    3  502    0 -0.20142085703E+02 -0.73419958958E+02  0.27707230110E+01  0.76297727986E+02  0.41800000000E+01 0.  1.
         -5    1    3    3    0  502  0.59005081521E+02  0.20937520757E+02 -0.20009169864E+02  0.65862118850E+02  0.41800000000E+01 0.  1.
        -11    1    1    2    0    0 -0.62672909539E+02  0.14952781026E+02  0.31821696826E+02  0.71861670168E+02  0.00000000000E+00 0. -1.
         11    1    1    2    0    0  0.23809913721E+02  0.37529657174E+02 -0.76925485947E+00  0.44451984343E+02  0.00000000000E+00 0.  1.
</event>
<event>
 7    1  0.3001243E-009  0.3412278E+03  0.7561462E-02  0.1066274E+00
          3   -1    0    0  501    0  0.00000000000E+00  0.00000000000E+00  0.88759553205E+03  0.88759553205E+03  0.00000000000E+00 0. -1.
         -3   -1    0    0    0  501 -0.00000000000E+00 -0.00000000000E+00 -0.17442832125E+03  0.17442832125E+03  0.00000000000E+00 0.  1.
         25    2    1    2    0    0  0.24766209927E+03  0.21867498918E+03  0.60857459840E+03  0.70367961251E+03  0.12508672562E+03 0.  0.
          5    1    3    3  502    0  0.95117503066E+02  0.35074595248E+02  0.27778622012E+03  0.29573674630E+03  0.41800000000E+01 0. -1.
         -5    1    3    3    0  502  0.15254459621E+03  0.18360039393E+03  0.33078837828E+03  0.40794286621E+03  0.41800000000E+01 0. -1.
        -11    1    1    2    0    0 -0.15971879318E+03 -0.81509489498E+02  0.64343994043E+02  0.19050994552E+03  0.00000000000E+00 0. -1.
         11    1    1    2    0    0 -0.87943306091E+02 -0.13716549968E+03  0.40248618349E+02  0.16783429527E+03  0.00000000000E+00 0.  1.
</event>
<event>
 7    1  0.3001243E-009  0.1077664E+03  0.7561462E-02  0.1264763E+00
         -2   -1    0    0    0  501 -0.00000000000E+00  0.00000000000E+00  0.11793525242E+02  0.11793525242E+02  0.00000000000E+00 0.  1.
          2   -1    0    0  501    0  0.00000000000E+00 -0.00000000000E+00 -0.11711207373E+04  0.11711207373E+04  0.00000000000E+00 0. -1.
         25    2    1    2    0    0  0.51259359203E+01 -0.99364867947E+01 -0.88394783356E+03  0.89282521832E+03  0.12509232200E+03 0.  0.
          5    1    3    3  502    0  0.56298194684E+02 -0.36389508677E+02 -0.52079958783E+03  0.52511271756E+03  0.41800000000E+01 0. -1.
         -5    1    3    3    0  502 -0.51172258764E+02  0.26453021882E+02 -0.36314824573E+03  0.36771250075E+03  0.41800000000E+01 0. -1.
        -11    1    1    2    0    0  0.39222453629E+02 -0.12157938037E+02 -0.10854626487E+03  0.11605390103E+03  0.00000000000E+00 0. -1.
         11    1    1    2    0    0 -0.44348389550E+02  0.22094424832E+02 -0.16683311363E+03  0.17403514320E+03  0.00000000000E+00 0.  1.
</event>
<event>
 7    1  0.3001243E-009  0.1209073E+03  0.7561462E-02  0.1241608E+00
          4   -1    0    0  501    0  0.00000000000E+00  0.00000000000E+00  0.31993445133E+02  0.31993445133E+02  0.00000000000E+00 0. -1.
         -4   -1    0    0    0  501 -0.00000000000E+00 -0.00000000000E+00 -0.49702910887E+03  0.49702910887E+03  0.00000000000E+00 0.  1.
         25    2    1    2    0    0 -0.14169439668E+02  0.60217003824E+02 -0.23266326828E+03  0.27129168757E+03  0.12506047644E+03 0.  0.
          5    1    3    3  502    0  0.33833315967E+02  0.75803412649E+02 -0.10475870842E+03  0.13372625033E+03  0.41800000000E+01 0.  1.
         -5    1    3    3    0  502 -0.48002755635E+02 -0.15586408825E+02 -0.12790455986E+03  0.13756543724E+03  0.41800000000E+01 0.  1.
        -11    1    1    2    0    0  0.33442243374E+02 -0.76072571338E+02 -0.20196985117E+03  0.21839697923E+03  0.00000000000E+00 0.  1.
         11    1    1    2    0    0 -0.19272803706E+02  0.15855567514E+02 -0.30402544281E+02  0.39333887204E+02  0.00000000000E+00 0. -1.
</event>
<event>
 7    1  0.3001243E-009  0.9647745E+02  0.7561462E-02  0.1287883E+00
          1   -1    0    0  501    0  0.00000000000E+00  0.00000000000E+00  0.55493392754E+03  0.55493392754E+03  0.00000000000E+00 0. -1.
         -1   -1    0    0    0  501 -0.00000000000E+00 -0.00000000000E+00 -0.26282589359E+02  0.26282589359E+02  0.00000000000E+00 0.  1.
         25    2    1    2    0    0  0.13095567753E+02 -0.26179518369E+02  0.40381364443E+03  0.42375661820E+03  0.12508937190E+03 0.  0.
          5    1    3    3  502    0 -0.18289995416E+02 -0.68329358791E+02  0.17199431152E+03  0.18601865713E+03  0.41800000000E+01 0.  1.
         -5    1    3    3    0  502  0.31385563169E+02  0.42149840422E+02  0.23181933290E+03  0.23773796106E+03  0.41800000000E+01 0.  1.
        -11    1    1    2    0    0  0.19234226573E+02 -0.93122552221E+01  0.10214727586E+03  0.10435870608E+03  0.00000000000E+00 0. -1.
         11    1    1    2    0    0 -0.32329794326E+02  0.35491773591E+02  0.22690417897E+02  0.53101192624E+02  0.00000000000E+00 0.  1.
</event>
<event>
 6    1  0.3001243E-009  0.1273171E+03  0.7561462E-02  0.1231492E+00
         -1   -1    0    0    0  501 -0.00000000000E+00  0.00000000000E+00  0.14862926968E+03  0.14862926968E+03  0.00000000000E+00 0.  1.
          1   -1    0    0  501    0  0.00000000000E+00 -0.00000000000E+00 -0.16147056255E+03  0.16147056255E+03  0.00000000000E+00 0. -1.
          5    1    1    2  502    0  0.83307627571E+02  0.80913209795E+02 -0.32798904212E+01  0.11625548766E+03  0.41800000000E+01 0.  1.
         -5    1    1    2    0  502 -0.35174794825E+02 -0.73364820281E+01 -0.51435238342E+01  0.36537903566E+02  0.41800000000E+01 0.  1.
        -11    1    1    2    0    0 -0.47419695931E+02 -0.24882595886E+02  0.57471546712E+02  0.78554120335E+02  0.00000000000E+00 0.  1.
         11    1    1    2    0    0 -0.71313681464E+00 -0.48694131881E+02 -0.61889425323E+02  0.78752320668E+02  0.00000000000E+00 0. -1.
</event>
<event>
 7    1  0.3001243E-009  0.2305865E+03  0.7561462E-02  0.1126228E+00
         -1   -1    0    0    0  501 -0.00000000000E+00  0.00000000000E+00  0.59064595295E+03  0.59064595295E+03  0.00000000000E+00 0.  1.
          1   -1    0    0  501    0  0.00000000000E+00 -0.00000000000E+00 -0.11292784231E+03  0.11292784231E+03  0.00000000000E+00 0. -1.
         25    2    1    2    0    0  0.16700990953E+03  0.11783572496E+03  0.40134855770E+03  0.46744704951E+03  0.12509401013E+03 0.  0.
          5    1    3    3  502    0  0.12746210392E+03  0.14309104879E+03  0.30558812657E+03  0.36072595094E+03  0.41800000000E+01 0. -1.
         -5    1    3    3    0  502  0.39547805604E+02 -0.25255323832E+02  0.95760431135E+02  0.10672109858E+03  0.41800000000E+01 0. -1.
        -11    1    1    2    0    0 -0.11650236238E+03 -0.12557150994E+03  0.68253571264E+02  0.18438968122E+03  0.00000000000E+00 0. -1.
         11    1    1    2    0    0 -0.50507547146E+02  0.77357849803E+01  0.81159816738E+01  0.51737064533E+02  0.00000000000E+00 0.  1.
</event>
<event>
 7    1  0.3001243E-009  0.1127723E+03  0.7561462E-02  0.1255520E+00
          2   -1    0    0  501    0  0.00000000000E+00  0.00000000000E+00  0.10916474267E+04  0.10916474267E+04  0.00000000000E+00 0.  1.
         -2   -1    0    0    0  501 -0.00000000000E+00 -0.00000000000E+00 -0.14526519665E+02  0.14526519665E+02  0.00000000000E+00 0. -1.
         25    2    1    2    0    0  0.39874853066E+02 -0.43357277290E+02  0.72248082746E+03  0.73559253515E+03  0.12509186352E+03 0.  0.
          5    1    3    3  502    0  0.30571718361E+02 -0.77770073073E+02  0.64253157718E+03  0.64795610523E+03  0.41800000000E+01 0.  1.
         -5    1    3    3    0  502  0.93031347045E+01  0.34412795783E+02  0.79949250281E+02  0.87636429922E+02  0.41800000000E+01 0.  1.
        -11    1    1    2    0    0 -0.63416156901E+02  0.85875911844E+01  0.24365339528E+03  0.25191731324E+03  0.00000000000E+00 0.  1.
         11    1    1    2    0    0  0.23541303835E+02  0.34769686105E+02  0.11098668432E+03  0.11866409800E+03  0.00000000000E+00 0. -1.
</event>
<event>
 7    1  0.3001243E-009  0.1313603E+03  0.7561462E-02  0.1225451E+00
          1   -1    0    0  501    0  0.00000000000E+00  0.00000000000E+00  0.15245123620E+04  0.15245123620E+04  0.00000000000E+00 0. -1.
         -1   -1    0    0    0  501 -0.00000000000E+00 -0.00000000000E+00 -0.15641860275E+02  0.15641860275E+02  0.00000000000E+00 0.  1.
         25    2    1    2    0    0 -0.61684229430E+02  0.46065829044E+02  0.11421835168E+04  0.11515891648E+04  0.12508962277E+03 0.  0.
          5    1    3    3  502    0 -0.53455482041E+02 -0.30739820475E+02  0.69696347014E+03  0.69969848952E+03  0.41800000000E+01 0.  1.
         -5    1    3    3    0  502 -0.82287473890E+01  0.76805649519E+02  0.44522004667E+03  0.45189067531E+03  0.41800000000E+01 0.  1.
        -11    1    1    2    0    0  0.13811873060E+01  0.28007189743E+02  0.13644906562E+03  0.13930060253E+03  0.00000000000E+00 0. -1.
         11    1    1    2    0    0  0.60303042124E+02 -0.74073018787E+02  0.23023791926E+03  0.24926445488E+03  0.00000000000E+00 0.  1.
</event>
<event>
 7    1  0.3001243E-009  0.1612619E+03  0.7561462E-02  0.1187279E+00
         -1   -1    0    0    0  501 -0.00000000000E+00  0.00000000000E+00  0.42877686525E+02  0.42877686525E+02  0.00000000000E+00 0.  1.
          1   -1    0    0  501    0  0.00000000000E+00 -0.00000000000E+00 -0.85855675563E+03  0.85855675563E+03  0.00000000000E+00 0. -1.
         25    2    1    2    0    0  0.29749508247E+02 -0.14004327463E+03 -0.58766554996E+03  0.61765331094E+03  0.12509061473E+03 0.  0.
          5    1    3    3  502    0  0.56777409371E+02 -0.61002587470E+02 -0.44092096827E+03  0.44874688027E+03  0.41800000000E+01 0.  1.
         -5    1    3    3    0  502 -0.27027901124E+02 -0.79040687157E+02 -0.14674458169E+03  0.16890643067E+03  0.41800000000E+01 0.  1.
        -11    1    1    2    0    0 -0.48342827972E+02  0.91997148506E+02 -0.19938153660E+03  0.22484105827E+03  0.00000000000E+00 0.  1.
         11    1    1    2    0    0  0.18593319724E+02  0.48046126121E+02 -0.28631982542E+02  0.58940072937E+02  0.00000000000E+00 0. -1.
</event>
<event>
 7    1  0.3001243E-009  0.1349507E+03  0.7561462E-02  0.1220289E+00
          2   -1    0    0  501    0  0.00000000000E+00  0.00000000000E+00  0.10390059553E+04  0.10390059553E+04  0.00000000000E+00 0. -1.
         -2   -1    0    0    0  501 -0.00000000000E+00 -0.00000000000E+00 -0.26858506088E+02  0.26858506088E+02  0.00000000000E+00 0.  1.
         25    2    1    2    0    0  0.56513714286E+02  0.68576965174E+02  0.82883621017E+03  0.84291977154E+03  0.12509067874E+03 0.  0.
          5    1    3    3  502    0 -0.19755994198E+02 -0.21497853543E+02  0.90156037437E+02  0.94858001772E+02  0.41800000000E+01 0.  1.
         -5    1    3    3    0  502  0.76269708484E+02  0.90074818717E+02  0.73868017273E+03  0.74806176977E+03  0.41800000000E+01 0.  1.
        -11    1    1    2    0    0  0.13464612849E+02 -0.47276810279E+02  0.45790520750E+02  0.67180089162E+02  0.00000000000E+00 0.  1.
         11    1    1    2    0    0 -0.69978327135E+02 -0.21300154895E+02  0.13752071827E+03  0.15576460067E+03  0.00000000000E+00 0. -1.
</event>
<event>
 7    1  0.3001243E-009  0.1146416E+03  0.7561462E-02  0.1252208E+00
         -2   -1    0    0    0  501 -0.00000000000E+00  0.00000000000E+00  0.19697734037E+03  0.19697734037E+03  0.00000000000E+00 0. -1.
          2   -1    0    0  501    0  0.00000000000E+00 -0.00000000000E+00 -0.12811907930E+03  0.12811907930E+03  0.00000000000E+00 0.  1.
         25    2    1    2    0    0 -0.76267286221E+02 -0.61419548549E+02  0.10011040893E+03  0.18777327756E+03  0.12509056677E+03 0.  0.
          5    1    3    3  502    0 -0.42076463338E+02 -0.49583066020E+02  0.12683674635E+03  0.14259713120E+03  0.41800000000E+01 0. -1.
         -5    1    3    3    0  502 -0.34190822883E+02 -0.11836482530E+02 -0.26726337412E+02  0.45176146355E+02  0.41800000000E+01 0. -1.
        -11    1    1    2    0    0 -0.79766917547E+01  0.39979028804E+02  0.86476333927E+01  0.41674115693E+02  0.00000000000E+00 0. -1.
         11    1    1    2    0    0  0.84243977976E+02  0.21440519745E+02 -0.39899781255E+02  0.95649026426E+02  0.00000000000E+00 0.  1.
</event>
<event>
 7    1  0.3001243E-009  0.1038357E+03  0.7561462E-02  0.1272431E+00
          1   -1    0    0  501    0  0.00000000000E+00  0.00000000000E+00  0.10521992322E+03  0.10521992322E+03  0.00000000000E+00 0. -1.
         -1   -1    0    0    0  501 -0.00000000000E+00 -0.00000000000E+00 -0.13257769421E+03  0.13257769421E+03  0.00000000000E+00 0.  1.
         25    2    1    2    0    0  0.22168467654E+02  0.39906869832E+02 -0.19177224835E+01  0.13316854364E+03  0.12508470785E+03 0.  0.
          5    1    3    3  502    0  0.49225407396E+02 -0.27649600304E+02  0.14517446158E+02  0.58445442707E+02  0.41800000000E+01 0.  1.
         -5    1    3    3    0  502 -0.27056939742E+02  0.67556470136E+02 -0.16435168641E+02  0.74723100937E+02  0.41800000000E+01 0.  1.
        -11    1    1    2    0    0 -0.30762947699E+02  0.60998428514E+01 -0.44208981512E+02  0.54203330897E+02  0.00000000000E+00 0.  1.
         11    1    1    2    0    0  0.85944800454E+01 -0.46006712683E+02  0.18768933006E+02  0.50425742883E+02  0.00000000000E+00 0. -1.
</event>
<event>
 7    1  0.3001243E-009  0.1200177E+03  0.7561462E-02  0.1243068E+00
         -1   -1    0    0    0  501 -0.00000000000E+00  0.00000000000E+00  0.17723271726E+03  0.17723271726E+03  0.00000000000E+00 0.  1.
          1   -1    0    0  501    0  0.00000000000E+00 -0.00000000000E+00 -0.99115473188E+02  0.99115473188E+02  0.00000000000E+00 0. -1.
         25    2    1    2    0    0  0.43427703808E+02  0.57222644083E+02  0.17808094390E+02  0.14534443556E+03  0.12508988876E+03 0.  0.
          5    1    3    3  502    0  0.11069387887E+02  0.94196462431E+02  0.12027982611E+02  0.95695609348E+02  0.41800000000E+01 0.  1.
         -5    1    3    3    0  502  0.32358315921E+02 -0.36973818348E+02  0.57801117791E+01  0.49648826216E+02  0.41800000000E+01 0.  1.
        -11    1    1    2    0    0 -0.56701686954E+02 -0.27048630764E+02  0.72431965642E+02  0.95880651731E+02  0.00000000000E+00 0.  1.
         11    1    1    2    0    0  0.13273983146E+02 -0.30174013320E+02 -0.12122815960E+02  0.35123103154E+02  0.00000000000E+00 0. -1.
</event>
<event>
 7    1  0.3001243E-009  0.1258946E+03  0.7561462E-02  0.1233678E+00
          1   -1    0    0  501    0  0.00000000000E+00  0.00000000000E+00  0.30368619699E+03  0.30368619699E+03  0.00000000000E+00 0. -1.
         -1   -1    0    0    0  501 -0.00000000000E+00 -0.00000000000E+00 -0.86936807467E+02  0.86936807467E+02  0.00000000000E+00 0.  1.
         25    2    1    2    0    0 -0.12075829655E+02 -0.89390212409E+02  0.50325122255E+02  0.16222221391E+03  0.12508794114E+03 0.  0.
          5    1    3    3  502    0 -0.49296292517E+02 -0.10305649791E+03  0.38766218203E+02  0.12071063868E+03  0.41800000000E+01 0. -1.
         -5    1    3    3    0  502  0.37220462862E+02  0.13666285501E+02  0.11558904053E+02  0.41511575229E+02  0.41800000000E+01 0. -1.
        -11    1    1    2    0    0 -0.13405395159E+02  0.36778598993E+02 -0.11758845995E+02  0.40873468441E+02  0.00000000000E+00 0.  1.
         11    1    1    2    0    0  0.25481224814E+02  0.52611613417E+02  0.17818311326E+03  0.18752732210E+03  0.00000000000E+00 0. -1.
</event>
<event>
 7    1  0.3001243E-009  0.1357419E+03  0.7561462E-02  0.1219176E+00
          2   -1    0    0  501    0  0.00000000000E+00  0.00000000000E+00  0.13018207005E+04  0.13018207005E+04  0.00000000000E+00 0. -1.
         -2   -1    0    0    0  501 -0.00000000000E+00 -0.00000000000E+00 -0.19440954015E+02  0.19440954015E+02  0.00000000000E+00 0.  1.
         25    2    1    2    0    0  0.11066513129E+03  0.35203687117E+02  0.70536211491E+03  0.72571949862E+03  0.12508799565E+03 0.  0.
          5    1    3    3  502    0  0.92063987728E+02  0.47947531705E+02  0.26315698158E+03  0.28292015303E+03  0.41800000000E+01 0. -1.
         -5    1    3    3    0  502  0.18601143562E+02 -0.12743844588E+02  0.44220513333E+03  0.44279934559E+03  0.41800000000E+01 0. -1.
        -11    1    1    2    0    0 -0.40355090753E+02  0.28807551424E+02  0.25518625471E+03  0.25995852162E+03  0.00000000000E+00 0. -1.
         11    1    1    2    0    0 -0.70310040537E+02 -0.64011238541E+02  0.32183137685E+03  0.33558363426E+03  0.00000000000E+00 0.  1.
</event>
<event>
 7    1  0.3001243E-009  0.1240831E+03  0.7561462E-02  0.1236509E+00
          4   -1    0    0  501    0  0.00000000000E+00  0.00000000000E+00  0.81704615680E+02  0.81704615680E+02  0.00000000000E+00 0. -1.
         -4   -1    0    0    0  501 -0.00000000000E+00 -0.00000000000E+00 -0.23598254856E+03  0.23598254856E+03  0.00000000000E+00 0.  1.
         25    2    1    2    0    0 -0.50760273451E+02 -0.39849315752E+02 -0.19128335459E+02  0.14204994791E+03  0.12509085161E+03 0.  0.
          5    1    3    3  502    0 -0.76660037210E+02  0.12186694862E+02 -0.28953544484E+02  0.82952136650E+02  0.41800000000E+01 0. -1.
         -5    1    3    3    0  502  0.25899763759E+02 -0.52036010614E+02  0.98252090248E+01  0.59097811260E+02  0.41800000000E+01 0. -1.
        -11    1    1    2    0    0 -0.34174587405E+01  0.55623430373E+02 -0.65565091199E+02  0.86048975674E+02  0.00000000000E+00 0.  1.
         11    1    1    2    0    0  0.54177732191E+02 -0.15774114621E+02 -0.69584506225E+02  0.89588240657E+02  0.00000000000E+00 0. -1.
</event>
<event>
 7    1  0.3001243E-009  0.1460882E+03  0.7561462E-02  0.1205364E+00
          1   -1    0    0  501    0  0.00000000000E+00  0.00000000000E+00  0.18084596850E+03  0.18084596850E+03  0.00000000000E+00 0. -1.
         -1   -1    0    0    0  501 -0.00000000000E+00 -0.00000000000E+00 -0.14816435910E+03  0.14816435910E+03  0.00000000000E+00 0.  1.
         25    2    1    2    0    0  0.37208975726E+02  0.10623198533E+03 -0.31143778375E+02  0.17113450713E+03  0.12508933614E+03 0.  0.
          5    1    3    3  502    0  0.63226781253E+02  0.11779135662E+03 -0.42284467895E+02  0.14027786065E+03  0.41800000000E+01 0.  1.
         -5    1    3    3    0  502 -0.26017805527E+02 -0.11559371289E+02  0.11140689520E+02  0.30856646480E+02  0.41800000000E+01 0.  1.
        -11    1    1    2    0    0 -0.33200595508E+02 -0.11957285394E+02  0.51907077331E+02  0.62766240074E+02  0.00000000000E+00 0. -1.
         11    1    1    2    0    0 -0.40083802185E+01 -0.94274699938E+02  0.11918310443E+02  0.95109580402E+02  0.00000000000E+00 0.  1.
</event>
<event>
 7    1  0.3001243E-009  0.2970858E+03  0.7561462E-02  0.1086707E+00
         -3   -1    0    0    0  501 -0.00000000000E+00  0.00000000000E+00  0.66451515213E+03  0.66451515213E+03  0.00000000000E+00 0.  1.
          3   -1    0    0  501    0  0.00000000000E+00 -0.00000000000E+00 -0.14145816929E+03  0.14145816929E+03  0.00000000000E+00 0. -1.
         25    2    1    2    0    0  0.13439277630E+03  0.24118003065E+03  0.17463042094E+03  0.34981993627E+03  0.12509587678E+03 0.  0.
          5    1    3    3  502    0  0.68333117047E+02  0.22436851634E+03  0.12935826682E+03  0.26788370538E+03  0.41800000000E+01 0.  1.
         -5    1    3    3    0  502  0.66059659254E+02  0.16811514302E+02  0.45272154113E+02  0.81936230887E+02  0.41800000000E+01 0.  1.
        -11    1    1    2    0    0 -0.19560837909E+02 -0.12999558900E+03  0.12469603372E+03  0.18119210900E+03  0.00000000000E+00 0. -1.
         11    1    1    2    0    0 -0.11483193839E+03 -0.11118444164E+03  0.22373052819E+03  0.27496127615E+03  0.00000000000E+00 0.  1.
</event>
<event>
 7    1  0.3001243E-009  0.1651051E+03  0.7561462E-02  0.1183051E+00
          2   -1    0    0  501    0  0.00000000000E+00  0.00000000000E+00  0.48832723440E+03  0.48832723440E+03  0.00000000000E+00 0. -1.
         -2   -1    0    0    0  501 -0.00000000000E+00 -0.00000000000E+00 -0.62571544178E+02  0.62571544178E+02  0.00000000000E+00 0.  1.
         25    2    1    2    0    0  0.24231438195E+02  0.13306757264E+03  0.21219768110E+03  0.28101513867E+03  0.12509001084E+03 0.  0.
          5    1    3    3  502    0 -0.45534757484E+02  0.73837450926E+02  0.68564743965E+02  0.11065251833E+03  0.41800000000E+01 0. -1.
         -5    1    3    3    0  502  0.69766195679E+02  0.59230121716E+02  0.14363293714E+03  0.17036262034E+03  0.41800000000E+01 0. -1.
        -11    1    1    2    0    0  0.47191580366E+00 -0.12607134875E+03  0.12444694039E+03  0.17714753358E+03  0.00000000000E+00 0.  1.
         11    1    1    2    0    0 -0.24703353999E+02 -0.69962238935E+01  0.89111068723E+02  0.92736106326E+02  0.00000000000E+00 0. -1.
</event>
<event>
 7    1  0.3001243E-009  0.1279610E+03  0.7561462E-02  0.1230513E+00
          1   -1    0    0  501    0  0.00000000000E+00  0.00000000000E+00  0.44725626502E+02  0.44725626502E+02  0.00000000000E+00 0. -1.
         -1   -1    0    0    0  501 -0.00000000000E+00 -0.00000000000E+00 -0.53754215812E+03  0.53754215812E+03  0.00000000000E+00 0.  1.
         25    2    1    2    0    0  0.69571379780E+02 -0.88276102832E+02 -0.28349654686E+03  0.32961779188E+03  0.12507897277E+03 0.  0.
          5    1    3    3  502    0  0.17777428353E+02 -0.88929704171E+02 -0.25428168648E+03  0.27000218095E+03  0.41800000000E+01 0. -1.
         -5    1    3    3    0  502  0.51793951426E+02  0.65360133910E+00 -0.29214860381E+02  0.59615610926E+02  0.41800000000E+01 0. -1.
        -11    1    1    2    0    0 -0.23719463592E+02  0.40615830241E+02 -0.16847718933E+03  0.17491947274E+03  0.00000000000E+00 0.  1.
         11    1    1    2    0    0 -0.45851916188E+02  0.47660272592E+02 -0.40842795440E+02  0.77730520009E+02  0.00000000000E+00 0. -1.
</event>
<event>
 7    1  0.3001243E-009  0.1253479E+03  0.7561462E-02  0.1234527E+00
          2   -1    0    0  501    0  0.00000000000E+00  0.00000000000E+00  0.44744089840E+03  0.44744089840E+03  0.00000000000E+00 0. -1.
         -2   -1    0    0    0  501 -0.00000000000E+00 -0.00000000000E+00 -0.41050712981E+02  0.41050712981E+02  0.00000000000E+00 0.  1.
         25    2    1    2    0    0  0.31054385763E+02  0.59159633014E+02  0.14318472326E+03  0.20152911635E+03  0.12509149734E+03 0.  0.
          5    1    3    3  502    0  0.77218531024E+02  0.28776961346E+02  0.10787677730E+03  0.13581489800E+03  0.41800000000E+01 0.  1.
         -5    1    3    3    0  502 -0.46164145261E+02  0.30382671669E+02  0.35307945958E+02  0.65714218349E+02  0.41800000000E+01 0.  1.
        -11    1    1    2    0    0 -0.63368863583E+02 -0.43414500586E+02  0.15590573046E+03  0.17380169309E+03  0.00000000000E+00 0. -1.
         11    1    1    2    0    0  0.32314477821E+02 -0.15745132428E+02  0.10729973170E+03  0.11316080194E+03  0.00000000000E+00 0.  1.
</event>
<event>
 7    1  0.3001243E-009  0.1550667E+03  0.7561462E-02  0.1194382E+00
         -1   -1    0    0    0  501 -0.00000000000E+00  0.00000000000E+00  0.61337765742E+02  0.61337765742E+02  0.00000000000E+00 0.  1.
          1   -1    0    0  501    0  0.00000000000E+00 -0.00000000000E+00 -0.63252125732E+03  0.63252125732E+03  0.00000000000E+00 0. -1.
         25    2    1    2    0    0  0.12490037633E+03  0.42630865667E+02 -0.47325336209E+03  0.50698520693E+03  0.12509100931E+03 0.  0.
          5    1    3    3  502    0  0.11763970845E+03 -0.15056183046E+02 -0.25810804799E+03  0.28408278105E+03  0.41800000000E+01 0.  1.
         -5    1    3    3    0  502  0.72606678791E+01  0.57687048713E+02 -0.21514531410E+03  0.22290242589E+03  0.41800000000E+01 0.  1.
        -11    1    1    2    0    0 -0.31588662950E+02 -0.28047212221E+01 -0.77009791598E+02  0.83283960581E+02  0.00000000000E+00 0. -1.
         11    1    1    2    0    0 -0.93311713376E+02 -0.39826144445E+02 -0.20920337891E+02  0.10358985555E+03  0.00000000000E+00 0.  1.
</event>
<event>
 7    1  0.3001243E-009  0.1982362E+03  0.7561462E-02  0.1151236E+00
          1   -1    0    0  501    0  0.00000000000E+00  0.00000000000E+00  0.19246060889E+03  0.19246060889E+03  0.00000000000E+00 0. -1.
         -1   -1    0    0    0  501 -0.00000000000E+00 -0.00000000000E+00 -0.21134126603E+03  0.21134126603E+03  0.00000000000E+00 0.  1.
         25    2    1    2    0    0  0.15856319944E+03  0.58708194106E+02  0.28542408761E+01  0.21034724370E+03  0.12509546741E+03 0.  0.
          5    1    3    3  502    0 -0.38656659038E+01 -0.26265299872E+02 -0.17124463103E+01  0.26929801756E+02  0.41800000000E+01 0. -1.
         -5    1    3    3    0  502  0.16242886535E+03  0.84973493979E+02  0.45666871864E+01  0.18341744194E+03  0.41800000000E+01 0. -1.
        -11    1    1    2    0    0 -0.10526697194E+03  0.22163014509E+01  0.11571141443E+02  0.10592421200E+03  0.00000000000E+00 0. -1.
         11    1    1    2    0    0 -0.53296227501E+02 -0.60924495557E+02 -0.33306039457E+02  0.87530419222E+02  0.00000000000E+00 0.  1.
</event>
<event>
 7    1  0.3001243E-009  0.1472995E+03  0.7561462E-02  0.1203831E+00
         -2   -1    0    0    0  501 -0.00000000000E+00  0.00000000000E+00  0.33327282183E+02  0.33327282183E+02  0.00000000000E+00 0.  1.
          2   -1    0    0  501    0  0.00000000000E+00 -0.00000000000E+00 -0.87083436595E+03  0.87083436595E+03  0.00000000000E+00 0. -1.
         25    2    1    2    0    0  0.11741486372E+03  0.27289532903E+02 -0.54619927656E+03  0.57315994740E+03  0.12509079404E+03 0.  0.
          5    1    3    3  502    0  0.11519464398E+02 -0.29247566017E+02 -0.27152539927E+03  0.27337087085E+03  0.41800000000E+01 0.  1.
         -5    1    3    3    0  502  0.10589539933E+03  0.56537098920E+02 -0.27467387729E+03  0.29978907655E+03  0.41800000000E+01 0.  1.
        -11    1    1    2    0    0  0.11256257418E+02 -0.84007574762E-01  0.13690057006E+00  0.11257403346E+02  0.00000000000E+00 0.  1.
         11    1    1    2    0    0 -0.12867112114E+03 -0.27205525329E+02 -0.29144470778E+03  0.31974429740E+03  0.00000000000E+00 0. -1.
</event>
<event>
 7    1  0.3001243E-009  0.1095992E+03  0.7561462E-02  0.1261314E+00
         -2   -1    0    0    0  501 -0.00000000000E+00  0.00000000000E+00  0.14307621152E+03  0.14307621152E+03  0.00000000000E+00 0.  1.
          2   -1    0    0  501    0  0.00000000000E+00 -0.00000000000E+00 -0.11433167145E+03  0.11433167145E+03  0.00000000000E+00 0. -1.
         25    2    1    2    0    0 -0.97708157067E+01  0.43943918457E+02  0.71735818240E+02  0.15106240565E+03  0.12508911213E+03 0.  0.
          5    1    3    3  502    0  0.96747870853E+01  0.85872982289E+02  0.45496701082E+02  0.97750666503E+02  0.41800000000E+01 0. -1.
         -5    1    3    3    0  502 -0.19445602792E+02 -0.41929063833E+02  0.26239117158E+02  0.53311739149E+02  0.41800000000E+01 0. -1.
        -11    1    1    2    0    0  0.21255950827E+01 -0.64400259971E+02 -0.77683058599E+01  0.64901912258E+02  0.00000000000E+00 0. -1.
         11    1    1    2    0    0  0.76452206240E+01  0.20456341514E+02 -0.35222972313E+02  0.41443565062E+02  0.00000000000E+00 0.  1.
</event>
<event>
 7    1  0.3001243E-009  0.4986636E+02  0.7561462E-02  0.1446064E+00
          2   -1    0    0  501    0  0.00000000000E+00  0.00000000000E+00  0.34011439911E+03  0.34011439911E+03  0.00000000000E+00 0.  1.
         -2   -1    0    0    0  501 -0.00000000000E+00 -0.00000000000E+00 -0.65751465911E+02  0.65751465911E+02  0.00000000000E+00 0. -1.
         25    2    1    2    0    0 -0.68517681235E+01  0.15669874354E+00  0.95535025221E+01  0.12564161722E+03  0.12509026855E+03 0.  0.
          5    1    3    3  502    0 -0.77957213799E+01 -0.84724341951E+01  0.66635681943E+02  0.67752062116E+02  0.41800000000E+01 0. -1.
         -5    1    3    3    0  502  0.94395325644E+00  0.86291329386E+01 -0.57082179420E+02  0.57889555106E+02  0.41800000000E+01 0. -1.
        -11    1    1    2    0    0 -0.13258263076E+02 -0.35106740801E+02  0.20290065585E+03  0.20634180608E+03  0.00000000000E+00 0.  1.
         11    1    1    2    0    0  0.20110031199E+02  0.34950042058E+02  0.61908774825E+02  0.73882441724E+02  0.00000000000E+00 0. -1.
</event>
<event>
 7    1  0.3001243E-009  0.1604997E+03  0.7561462E-02  0.1188134E+00
          2   -1    0    0  501    0  0.00000000000E+00  0.00000000000E+00  0.18877455190E+03  0.18877455190E+03  0.00000000000E+00 0. -1.
         -2   -1    0    0    0  501 -0.00000000000E+00 -0.00000000000E+00 -0.21557954195E+03  0.21557954195E+03  0.00000000000E+00 0.  1.
         25    2    1    2    0    0  0.12341211704E+03 -0.46730604370E+02  0.92652104052E+02  0.20407377376E+03  0.12508953888E+03 0.  0.
          5    1    3    3  502    0  0.53569391123E+02  0.27322403222E+02 -0.80618070578E+01  0.60816597374E+02  0.41800000000E+01 0.  1.
         -5    1    3    3    0  502  0.69842725912E+02 -0.74053007592E+02  0.10071391111E+03  0.14325717639E+03  0.41800000000E+01 0.  1.
        -11    1    1    2    0    0 -0.42291957446E+02  0.63219773032E+02 -0.72658105652E+02  0.10518816323E+03  0.00000000000E+00 0.  1.
         11    1    1    2    0    0 -0.81120159590E+02 -0.16489168662E+02 -0.46798988454E+02  0.95092156855E+02  0.00000000000E+00 0. -1.
</event>
<event>
 7    1  0.3001243E-009  0.1240474E+03  0.7561462E-02  0.1236566E+00
          2   -1    0    0  501    0  0.00000000000E+00  0.00000000000E+00  0.19555030207E+03  0.19555030207E+03  0.00000000000E+00 0.  1.
         -2   -1    0    0    0  501 -0.00000000000E+00 -0.00000000000E+00 -0.10619305837E+03  0.10619305837E+03  0.00000000000E+00 0. -1.
         25    2    1    2    0    0 -0.58198568329E+02  0.47021106633E+02 -0.10234773107E+02  0.14611779071E+03  0.12509036876E+03 0.  0.
          5    1    3    3  502    0 -0.58144966101E+02  0.82527053092E+02 -0.29826839491E+02  0.10535019852E+03  0.41800000000E+01 0. -1.
         -5    1    3    3    0  502 -0.53602227419E-01 -0.35505946458E+02  0.19592066384E+02  0.40767592182E+02  0.41800000000E+01 0. -1.
        -11    1    1    2    0    0 -0.12177126317E+02 -0.38541190602E+02  0.65503350486E+02  0.76970089666E+02  0.00000000000E+00 0.  1.
         11    1    1    2    0    0  0.70375694646E+02 -0.84799160312E+01  0.34088666322E+02  0.78655480066E+02  0.00000000000E+00 0. -1.
</event>
<event>
 7    1  0.3001243E-009  0.1288844E+03  0.7561462E-02  0.1229121E+00
          1   -1    0    0  501    0  0.00000000000E+00  0.00000000000E+00  0.88335845507E+03  0.88335845507E+03  0.00000000000E+00 0. -1.
         -1   -1    0    0    0  501 -0.00000000000E+00 -0.00000000000E+00 -0.27350410469E+02  0.27350410469E+02  0.00000000000E+00 0.  1.
         25    2    1    2    0    0 -0.46497514420E+02 -0.99886476747E+02  0.47728092050E+03  0.50555319156E+03  0.12509046860E+03 0.  0.
          5    1    3    3  502    0 -0.67617359883E+02 -0.99829437156E+02  0.25356482446E+03  0.28080351936E+03  0.41800000000E+01 0.  1.
         -5    1    3    3    0  502  0.21119845463E+02 -0.57039591213E-01  0.22371609604E+03  0.22474967220E+03  0.41800000000E+01 0.  1.
        -11    1    1    2    0    0  0.25378835075E+02  0.18224468163E+02  0.21065485913E+02  0.37682505309E+02  0.00000000000E+00 0.  1.
         11    1    1    2    0    0  0.21118679346E+02  0.81662008584E+02  0.35766163818E+03  0.36747316867E+03  0.00000000000E+00 0. -1.
</event>
<event>
 7    1  0.3001243E-009  0.7875811E+02  0.7561462E-02  0.1332613E+00
          1   -1    0    0  501    0  0.00000000000E+00  0.00000000000E+00  0.46935955826E+03  0.46935955826E+03  0.00000000000E+00 0. -1.
         -1   -1    0    0    0  501 -0.00000000000E+00 -0.00000000000E+00 -0.24930637867E+02  0.24930637867E+02  0.00000000000E+00 0.  1.
         25    2    1    2    0    0  0.14182864146E+02  0.38683458647E+01  0.23909215629E+03  0.27023515815E+03  0.12508342721E+03 0.  0.
          5    1    3    3  502    0 -0.29346211567E+02 -0.11330668498E+02  0.56332380514E+01  0.32230264549E+02  0.41800000000E+01 0.  1.
         -5    1    3    3    0  502  0.43529075713E+02  0.15199014362E+02  0.23345891824E+03  0.23800489360E+03  0.41800000000E+01 0.  1.
        -11    1    1    2    0    0  0.17462072754E+02 -0.32446741895E+02  0.45081615812E+02  0.58224282981E+02  0.00000000000E+00 0.  1.
         11    1    1    2    0    0 -0.31644936901E+02  0.28578396030E+02  0.16025514829E+03  0.16583075500E+03  0.00000000000E+00 0. -1.
</event>
<event>
 7    1  0.3001243E-009  0.1070147E+03  0.7561462E-02  0.1266200E+00
          1   -1    0    0  501    0  0.00000000000E+00  0.00000000000E+00  0.46612293696E+03  0.46612293696E+03  0.00000000000E+00 0. -1.
         -1   -1    0    0    0  501 -0.00000000000E+00 -0.00000000000E+00 -0.27583332177E+02  0.27583332177E+02  0.00000000000E+00 0.  1.
         25    2    1    2    0    0  0.26776577561E+02 -0.72945752238E+01  0.26701630639E+03  0.29616714754E+03  0.12508827071E+03 0.  0.
          5    1    3    3  502    0 -0.90502286250E+01  0.48675948019E+02  0.55855835886E+02  0.74756948548E+02  0.41800000000E+01 0.  1.
         -5    1    3    3    0  502  0.35826806186E+02 -0.55970523243E+02  0.21116047050E+03  0.22141019899E+03  0.41800000000E+01 0.  1.
        -11    1    1    2    0    0  0.32888286372E+02 -0.12062272285E+02  0.55086995142E+02  0.65281810843E+02  0.00000000000E+00 0.  1.
         11    1    1    2    0    0 -0.59664863933E+02  0.19356847508E+02  0.11643630325E+03  0.13225731076E+03  0.00000000000E+00 0. -1.
</event>
<event>
 7    1  0.3001243E-009  0.1391945E+03  0.7561462E-02  0.1214417E+00
          2   -1    0    0  501    0  0.00000000000E+00  0.00000000000E+00  0.15144478704E+04  0.15144478704E+04  0.00000000000E+00 0. -1.
         -2   -1    0    0    0  501 -0.00000000000E+00 -0.00000000000E+00 -0.17599666836E+02  0.17599666836E+02  0.00000000000E+00 0.  1.
         25    2    1    2    0    0  0.89279651534E+02 -0.73535407294E+02  0.96627891247E+03  0.98118327890E+03  0.12508947918E+03 0.  0.
          5    1    3    3  502    0  0.38548118329E+02  0.28827639074E+02  0.43915798819E+03  0.44180787814E+03  0.41800000000E+01 0.  1.
         -5    1    3    3    0  502  0.50731533204E+02 -0.10236304637E+03  0.52712092429E+03  0.53937540076E+03  0.41800000000E+01 0.  1.
        -11    1    1    2    0    0 -0.23702068279E+02  0.22129719786E+02  0.32633935246E+02  0.46005285219E+02  0.00000000000E+00 0.  1.
         11    1    1    2    0    0 -0.65577583255E+02  0.51405687508E+02  0.49793535588E+03  0.50485897315E+03  0.00000000000E+00 0. -1.
</event>
<event>
 7    1  0.3001243E-009  0.3143435E+03  0.7561462E-02  0.1078282E+00
          1   -1    0    0  501    0  0.00000000000E+00  0.00000000000E+00  0.56752020354E+03  0.56752020354E+03  0.00000000000E+00 0. -1.
         -1   -1    0    0    0  501 -0.00000000000E+00 -0.00000000000E+00 -0.20925619838E+03  0.20925619838E+03  0.00000000000E+00 0.  1.
         25    2    1    2    0    0  0.23662044021E+03 -0.20096961467E+03  0.28698318730E+03  0.44088924047E+03  0.12508378722E+03 0.  0.
          5    1    3    3  502    0  0.12143394528E+02 -0.19515005701E+02 -0.11161512638E+02  0.25891103541E+02  0.41800000000E+01 0. -1.
         -5    1    3    3    0  502  0.22447704568E+03 -0.18145460897E+03  0.29814469993E+03  0.41499813693E+03  0.41800000000E+01 0. -1.
        -11    1    1    2    0    0 -0.12711705141E+03  0.67232372879E+02  0.76651416892E+02  0.16295513626E+03  0.00000000000E+00 0.  1.
         11    1    1    2    0    0 -0.10950338880E+03  0.13373724179E+03 -0.53705990266E+01  0.17293202519E+03  0.00000000000E+00 0. -1.
</event>
<event>
 7    1  0.3001243E-009  0.1811164E+03  0.7561462E-02  0.1166727E+00
         -1   -1    0    0    0  501 -0.00000000000E+00  0.00000000000E+00  0.88881947075E+02  0.88881947075E+02  0.00000000000E+00 0.  1.
          1   -1    0    0  501    0  0.00000000000E+00 -0.00000000000E+00 -0.48581841033E+03  0.48581841033E+03  0.00000000000E+00 0. -1.
         25    2    1    2    0    0 -0.12975423513E+03 -0.11225283199E+03 -0.14221759210E+03  0.25555815543E+03  0.12508903821E+03 0.  0.
          5    1    3    3  502    0 -0.11285144191E+03 -0.10631131362E+03 -0.16488301889E+03  0.22636569012E+03  0.41800000000E+01 0. -1.
         -5    1    3    3    0  502 -0.16902793218E+02 -0.59415183683E+01  0.22665426793E+02  0.29192465308E+02  0.41800000000E+01 0. -1.
        -11    1    1    2    0    0  0.42263161821E+02 -0.48723202424E+01 -0.34302639928E+02  0.54649661094E+02  0.00000000000E+00 0.  1.
         11    1    1    2    0    0  0.87491073309E+02  0.11712515223E+03 -0.22041623122E+03  0.26449254088E+03  0.00000000000E+00 0. -1.
</event>
<event>
 7    1  0.3001243E-009  0.1114608E+03  0.7561462E-02  0.1257888E+00
          3   -1    0    0  501    0  0.00000000000E+00  0.00000000000E+00  0.38536997250E+03  0.38536997250E+03  0.00000000000E+00 0. -1.
         -3   -1    0    0    0  501 -0.00000000000E+00 -0.00000000000E+00 -0.35057384819E+02  0.35057384819E+02  0.00000000000E+00 0.  1.
         25    2    1    2    0    0 -0.28333734613E+02 -0.20401140035E+02  0.15853257368E+03  0.20493970135E+03  0.12509475303E+03 0.  0.
          5    1    3    3  502    0 -0.55439303251E+01 -0.69813595716E+02  0.60057094915E+02  0.92352587186E+02  0.41800000000E+01 0.  1.
         -5    1    3    3    0  502 -0.22789804288E+02  0.49412455681E+02  0.98475478769E+02  0.11258711416E+03  0.41800000000E+01 0.  1.
        -11    1    1    2    0    0  0.49695845461E+02 -0.19133179516E+02  0.99854958931E+02  0.11316699359E+03  0.00000000000E+00 0.  1.
         11    1    1    2    0    0 -0.21362110848E+02  0.39534319551E+02  0.91925055063E+02  0.10232066238E+03  0.00000000000E+00 0. -1.
</event>
<event>
 7    1  0.3001243E-009  0.4755741E+02  0.7561462E-02  0.1458980E+00
          3   -1    0    0  501    0  0.00000000000E+00  0.00000000000E+00  0.30182455767E+03  0.30182455767E+03  0.00000000000E+00 0. -1.
         -3   -1    0    0    0  501 -0.00000000000E+00 -0.00000000000E+00 -0.45726019891E+02  0.45726019891E+02  0.00000000000E+00 0.  1.
         25    2    1    2    0    0 -0.61739352125E+01  0.15247882367E+02  0.21126938487E+03  0.24607658027E+03  0.12509322516E+03 0.  0.
          5    1    3    3  502    0  0.94885010935E+01  0.98081922990E+01  0.22419065512E+03  0.22464450701E+03  0.41800000000E+01 0. -1.
         -5    1    3    3    0  502 -0.15662436306E+02  0.54396900677E+01 -0.12921270249E+02  0.21432073253E+02  0.41800000000E+01 0. -1.
        -11    1    1    2    0    0 -0.24514519183E+02  0.73950604890E+01  0.56132169268E+02  0.61696588213E+02  0.00000000000E+00 0. -1.
         11    1    1    2    0    0  0.30688454395E+02 -0.22642942856E+02 -0.11303016358E+02  0.39777409080E+02  0.00000000000E+00 0.  1.
</event>
<event>
 7    1  0.3001243E-009  0.9449781E+02  0.7561462E-02  0.1292311E+00
          1   -1    0    0  501    0  0.00000000000E+00  0.00000000000E+00  0.11227814781E+04  0.11227814781E+04  0.00000000000E+00 0. -1.
         -1   -1    0    0    0  501 -0.00000000000E+00 -0.00000000000E+00 -0.13478113674E+02  0.13478113674E+02  0.00000000000E+00 0.  1.
         25    2    1    2    0    0 -0.82962729977E+01 -0.40691688128E+02  0.82437374256E+03  0.83484432823E+03  0.12509333847E+03 0.  0.
          5    1    3    3  502    0 -0.37487672486E+02 -0.49543314804E+02  0.19462552424E+03  0.20434390795E+03  0.41800000000E+01 0.  1.
         -5    1    3    3    0  502  0.29191399488E+02  0.88516266759E+01  0.62974821832E+03  0.63050042028E+03  0.41800000000E+01 0.  1.
        -11    1    1    2    0    0  0.47440156078E+02  0.26228396070E+02  0.12742251481E+03  0.13847380420E+03  0.00000000000E+00 0. -1.
         11    1    1    2    0    0 -0.39143883080E+02  0.14463292057E+02  0.15750710707E+03  0.16294145936E+03  0.00000000000E+00 0.  1.
</event>
<event>
 7    1  0.3001243E-009  0.1822554E+03  0.7561462E-02  0.1165638E+00
         -4   -1    0    0    0  501 -0.00000000000E+00  0.00000000000E+00  0.14130848531E+03  0.14130848531E+03  0.00000000000E+00 0. -1.
          4   -1    0    0  501    0  0.00000000000E+00 -0.00000000000E+00 -0.30804246894E+03  0.30804246894E+03  0.00000000000E+00 0.  1.
         25    2    1    2    0    0 -0.12994632212E+03 -0.10905513205E+03 -0.14381368609E+03  0.25516423353E+03  0.12508933331E+03 0.  0.
          5    1    3    3  502    0 -0.12043016617E+03 -0.45208055279E+02 -0.43604112463E+02  0.13588960302E+03  0.41800000000E+01 0.  1.
         -5    1    3    3    0  502 -0.95161559432E+01 -0.63847076769E+02 -0.10020957362E+03  0.11927463050E+03  0.41800000000E+01 0.  1.
        -11    1    1    2    0    0  0.11074140218E+03  0.10229973979E+03  0.14633523579E+02  0.15146958417E+03  0.00000000000E+00 0. -1.
         11    1    1    2    0    0  0.19204919937E+02  0.67553922615E+01 -0.37553821126E+02  0.42717136556E+02  0.00000000000E+00 0.  1.
</event>
<event>
 7    1  0.3001243E-009  0.1550947E+03  0.7561462E-02  0.1194349E+00
          3   -1    0    0  501    0  0.00000000000E+00  0.00000000000E+00  0.22862393814E+02  0.22862393814E+02  0.00000000000E+00 0. -1.
         -3   -1    0    0    0  501 -0.00000000000E+00 -0.00000000000E+00 -0.11536433616E+04  0.11536433616E+04  0.00000000000E+00 0.  1.
         25    2    1    2    0    0  0.10627848760E+03 -0.25378681147E+02 -0.77139433423E+03  0.78907221701E+03  0.12508617189E+03 0.  0.
          5    1    3    3  502    0  0.98032241373E+01  0.45169227684E+02 -0.20422885797E+03  0.20943557759E+03  0.41800000000E+01 0. -1.
         -5    1    3    3    0  502  0.96475263465E+02 -0.70547908832E+02 -0.56716547626E+03  0.57963663942E+03  0.41800000000E+01 0. -1.
        -11    1    1    2    0    0 -0.83490761851E+02 -0.26443222630E+02 -0.20169549555E+03  0.21988866334E+03  0.00000000000E+00 0. -1.
         11    1    1    2    0    0 -0.22787725751E+02  0.51821903777E+02 -0.15769113803E+03  0.16754487509E+03  0.00000000000E+00 0.  1.
</event>
<event>
 7    1  0.3001243E-009  0.1253409E+03  0.7561462E-02  0.1234537E+00
         -2   -1    0    0    0  501 -0.00000000000E+00  0.00000000000E+00  0.53310457204E+02  0.53310457204E+02  0.00000000000E+00 0.  1.
          2   -1    0    0  501    0  0.00000000000E+00 -0.00000000000E+00 -0.30149372566E+03  0.30149372566E+03  0.00000000000E+00 0. -1.
         25    2    1    2    0    0  0.26468350175E+02  0.57649804440E+02 -0.14383651595E+03  0.20089802143E+03  0.12508796177E+03 0.  0.
          5    1    3    3  502    0 -0.38754949039E+02 -0.15676933030E+02 -0.44370212467E+02  0.61105649973E+02  0.41800000000E+01 0. -1.
         -5    1    3    3    0  502  0.65223299214E+02  0.73326737470E+02 -0.99466303482E+02  0.13979237145E+03  0.41800000000E+01 0. -1.
        -11    1    1    2    0    0 -0.84951176146E+01 -0.80737306340E+02 -0.60728510842E+02  0.10138358687E+03  0.00000000000E+00 0. -1.
         11    1    1    2    0    0 -0.17973232560E+02  0.23087501901E+02 -0.43618241664E+02  0.52522574562E+02  0.00000000000E+00 0.  1.
</event>
<event>
 7    1  0.3001243E-009  0.6612793E+02  0.7561462E-02  0.1373778E+00
          2   -1    0    0  501    0  0.00000000000E+00  0.00000000000E+00  0.28754023161E+03  0.28754023161E+03  0.00000000000E+00 0. -1.
         -2   -1    0    0    0  501 -0.00000000000E+00 -0.00000000000E+00 -0.51937186221E+02  0.51937186221E+02  0.00000000000E+00 0.  1.
         25    2    1    2    0    0  0.54187935261E+01 -0.35275443768E+02  0.17469056183E+03  0.21780319744E+03  0.12509084766E+03 0.  0.
          5    1    3    3  502    0  0.51810437831E+01  0.16476308652E+02 -0.13668613172E+02  0.22419084449E+02  0.41800000000E+01 0.  1.
         -5    1    3    3    0  502  0.23774974301E+00 -0.51751752420E+02  0.18835917500E+03  0.19538411299E+03  0.41800000000E+01 0.  1.
        -11    1    1    2    0    0 -0.28046194092E+02  0.13365945447E+02 -0.18558632437E+02  0.36189229595E+02  0.00000000000E+00 0.  1.
         11    1    1    2    0    0  0.22627400566E+02  0.21909498321E+02  0.79471115997E+02  0.85484990793E+02  0.00000000000E+00 0. -1.
</event>
<event>
 7    1  0.3001243E-009  0.1140087E+03  0.7561462E-02  0.1253321E+00
          2   -1    0    0  501    0  0.00000000000E+00  0.00000000000E+00  0.27634751570E+02  0.27634751570E+02  0.00000000000E+00 0.  1.
         -2   -1    0    0    0  501 -0.00000000000E+00 -0.00000000000E+00 -0.56814027295E+03  0.56814027295E+03  0.00000000000E+00 0. -1.
         25    2    1    2    0    0 -0.38761384568E+02  0.55794177813E+01 -0.18741479688E+03  0.22870148146E+03  0.12508591726E+03 0.  0.
          5    1    3    3  502    0 -0.76201901539E+02 -0.26341262892E+02 -0.10254645687E+03  0.13051375463E+03  0.41800000000E+01 0. -1.
         -5    1    3    3    0  502  0.37440516971E+02  0.31920680673E+02 -0.84868340006E+02  0.98187726835E+02  0.41800000000E+01 0. -1.
        -11    1    1    2    0    0  0.54768240294E+02  0.27404659942E+02 -0.25776915862E+03  0.26494436145E+03  0.00000000000E+00 0. -1.
         11    1    1    2    0    0 -0.16006855727E+02 -0.32984077724E+02 -0.95321565885E+02  0.10212918161E+03  0.00000000000E+00 0.  1.
</event>
<event>
 7    1  0.3001243E-009  0.7451051E+02  0.7561462E-02  0.1345394E+00
         -1   -1    0    0    0  501 -0.00000000000E+00  0.00000000000E+00  0.33087603589E+02  0.33087603589E+02  0.00000000000E+00 0.  1.
          1   -1    0    0  501    0  0.00000000000E+00 -0.00000000000E+00 -0.38678255012E+03  0.38678255012E+03  0.00000000000E+00 0. -1.
         25    2    1    2    0    0 -0.12665926190E+02 -0.15414809352E+02 -0.15825176953E+03  0.20270386808E+03  0.12508874266E+03 0.  0.
          5    1    3    3  502    0  0.16669575539E+02 -0.21565496394E+02  0.11789740225E+02  0.29990261052E+02  0.41800000000E+01 0.  1.
         -5    1    3    3    0  502 -0.29335501729E+02  0.61506870419E+01 -0.17004150976E+03  0.17271360703E+03  0.41800000000E+01 0.  1.
        -11    1    1    2    0    0  0.13979216842E+02 -0.36585381939E+02 -0.55997358218E+02  0.68334565211E+02  0.00000000000E+00 0.  1.
         11    1    1    2    0    0 -0.13132906519E+01  0.52000191292E+02 -0.13944581878E+03  0.14883172041E+03  0.00000000000E+00 0. -1.
</event>
<event>
 7    1  0.3001243E-009  0.1008985E+03  0.7561462E-02  0.1278418E+00
         -1   -1    0    0    0  501 -0.00000000000E+00  0.00000000000E+00  0.23045188320E+02  0.23045188320E+02  0.00000000000E+00 0.  1.
          1   -1    0    0  501    0  0.00000000000E+00 -0.00000000000E+00 -0.54019352712E+03  0.54019352712E+03  0.00000000000E+00 0. -1.
         25    2    1    2    0    0 -0.31123679333E+02 -0.64586366687E+01 -0.31482269432E+03  0.34025196796E+03  0.12509066886E+03 0.  0.
          5    1    3    3  502    0 -0.30208249192E+02 -0.64237320113E+02 -0.17045267783E+03  0.18469044207E+03  0.41800000000E+01 0. -1.
         -5    1    3    3    0  502 -0.91543014144E+00  0.57778683444E+02 -0.14437001650E+03  0.15556152589E+03  0.41800000000E+01 0. -1.
        -11    1    1    2    0    0  0.39742516790E+02 -0.20308599276E+02 -0.18420204154E+03  0.18953178877E+03  0.00000000000E+00 0. -1.
         11    1    1    2    0    0 -0.86188374569E+01  0.26767235945E+02 -0.18123602935E+02  0.33454958714E+02  0.00000000000E+00 0.  1.
</event>
<event>
 7    1  0.3001243E-009  0.7498891E+02  0.7561462E-02  0.1343905E+00
         -2   -1    0    0    0  501 -0.00000000000E+00  0.00000000000E+00  0.14580832716E+02  0.14580832716E+02  0.00000000000E+00 0.  1.
          2   -1    0    0  501    0  0.00000000000E+00 -0.00000000000E+00 -0.93636396018E+03  0.93636396018E+03  0.00000000000E+00 0. -1.
         25    2    1    2    0    0 -0.20957608366E+01 -0.40699432669E+02 -0.57963135947E+03  0.59437532964E+03  0.12509469840E+03 0.  0.
          5    1    3    3  502    0  0.17059570539E+02 -0.34842882207E+02 -0.45866768697E+02  0.60218670345E+02  0.41800000000E+01 0. -1.
         -5    1    3    3    0  502 -0.19155331375E+02 -0.58565504621E+01 -0.53376459078E+03  0.53415665930E+03  0.41800000000E+01 0. -1.
        -11    1    1    2    0    0  0.39071631509E+02  0.36170793697E+02 -0.27177543081E+03  0.27694187747E+03  0.00000000000E+00 0. -1.
         11    1    1    2    0    0 -0.36975870672E+02  0.45286389716E+01 -0.70376337185E+02  0.79627585789E+02  0.00000000000E+00 0.  1.
</event>
<event>
 7    1  0.3637196E-009  0.2910142E+03  0.7561462E-02  0.1089821E+00
          1   -1    0    0  501    0  0.00000000000E+00  0.00000000000E+00  0.73592342504E+03  0.73592342504E+03  0.00000000000E+00 0. -1.
         -1   -1    0    0    0  501 -0.00000000000E+00 -0.00000000000E+00 -0.12484760036E+03  0.12484760036E+03  0.00000000000E+00 0.  1.
         25    2    1    2    0    0 -0.25748105569E+03  0.11681378903E+03  0.32611607409E+03  0.44937853993E+03  0.12508965993E+03 0.  0.
          5    1    3    3  502    0 -0.38392325494E+02  0.62408743705E+02  0.35962554005E+02  0.81728817673E+02  0.41800000000E+01 0. -1.
         -5    1    3    3    0  502 -0.21908873020E+03  0.54405045327E+02  0.29015352008E+03  0.36764972226E+03  0.41800000000E+01 0. -1.
        -11    1    1    2    0    0  0.86030695354E+02 -0.34861773158E+02  0.39275282457E+02  0.10079271592E+03  0.00000000000E+00 0.  1.
         11    1    1    2    0    0  0.17145036034E+03 -0.81952015874E+02  0.24568446813E+03  0.31059976955E+03  0.00000000000E+00 0. -1.
</event>
<event>
 6    1  0.3001243E-009  0.9873080E+02  0.7561462E-02  0.1282988E+00
          1   -1    0    0  501    0  0.00000000000E+00  0.00000000000E+00  0.53267510899E+02  0.53267510899E+02  0.00000000000E+00 0. -1.
         -1   -1    0    0    0  501 -0.00000000000E+00 -0.00000000000E+00 -0.23092193350E+03  0.23092193350E+03  0.00000000000E+00 0.  1.
          5    1    1    2  502    0 -0.83529374454E+01  0.48958945270E+02 -0.72925879370E+02  0.88331229856E+02  0.41800000000E+01 0. -1.
         -5    1    1    2    0  502  0.33978687072E+02 -0.52583215898E+02 -0.91153360061E+01  0.63404317833E+02  0.41800000000E+01 0. -1.
        -11    1    1    2    0    0  0.24946104217E+02 -0.17074724853E+02 -0.11907046184E+02  0.32490492351E+02  0.00000000000E+00 0. -1.
         11    1    1    2    0    0 -0.50571853844E+02  0.20698995481E+02 -0.83706161041E+02  0.99963404361E+02  0.00000000000E+00 0.  1.
</event>
<event>
 7    1  0.3001243E-009  0.8713648E+02  0.7561462E-02  0.1309938E+00
          2   -1    0    0  501    0  0.00000000000E+00  0.00000000000E+00  0.88338598606E+02  0.88338598606E+02  0.00000000000E+00 0. -1.
         -2   -1    0    0    0  501 -0.00000000000E+00 -0.00000000000E+00 -0.14856773462E+03  0.14856773462E+03  0.00000000000E+00 0.  1.
         25    2    1    2    0    0 -0.33868196283E+02 -0.68757244599E+01 -0.29620059423E+02  0.13311381085E+03  0.12509040096E+03 0.  0.
          5    1    3    3  502    0 -0.67767721065E+02 -0.10160789664E+02 -0.56987319228E+02  0.89222937733E+02  0.41800000000E+01 0. -1.
         -5    1    3    3    0  502  0.33899524782E+02  0.32850652037E+01  0.27367259805E+02  0.43890873118E+02  0.41800000000E+01 0. -1.
        -11    1    1    2    0    0  0.27910864695E+02  0.33740826084E+02 -0.52690271566E+02  0.68510761422E+02  0.00000000000E+00 0.  1.
         11    1    1    2    0    0  0.59573315871E+01 -0.26865101624E+02  0.22081194971E+02  0.35281760958E+02  0.00000000000E+00 0. -1.
</event>
<event>
 7    1  0.3001243E-009  0.7164059E+02  0.7561462E-02  0.1354601E+00
          2   -1    0    0  501    0  0.00000000000E+00  0.00000000000E+00  0.88547373232E+02  0.88547373232E+02  0.00000000000E+00 0. -1.
         -2   -1    0    0    0  501 -0.00000000000E+00 -0.00000000000E+00 -0.20729530923E+03  0.20729530923E+03  0.00000000000E+00 0.  1.
         25    2    1    2    0    0  0.31730987362E+02 -0.12121232747E+01 -0.14628311721E+03  0.19507731013E+03  0.12509229290E+03 0.  0.
          5    1    3    3  502    0 -0.30099164695E+01 -0.35851301669E+02  0.44635821881E+01  0.36493443171E+02  0.41800000000E+01 0.  1.
         -5    1    3    3    0  502  0.34740903831E+02  0.34639178394E+02 -0.15074669940E+03  0.15858386695E+03  0.41800000000E+01 0.  1.
        -11    1    1    2    0    0 -0.28390813122E+02 -0.21031265696E+02 -0.25223720567E+02  0.43411847297E+02  0.00000000000E+00 0.  1.
         11    1    1    2    0    0 -0.33401742399E+01  0.22243388971E+02  0.52758901782E+02  0.57353525036E+02  0.00000000000E+00 0. -1.
</event>
<event>
 7    1  0.3001243E-009  0.1367001E+03  0.7561462E-02  0.1217839E+00
         -2   -1    0    0    0  501 -0.00000000000E+00  0.00000000000E+00  0.34263804701E+02  0.34263804701E+02  0.00000000000E+00 0.  1.
          2   -1    0    0  501    0  0.00000000000E+00 -0.00000000000E+00 -0.62706270413E+03  0.62706270413E+03  0.00000000000E+00 0. -1.
         25    2    1    2    0    0 -0.94507761145E+02  0.21194330844E+02 -0.30172154852E+03  0.34068281951E+03  0.12509186260E+03 0.  0.
          5    1    3    3  502    0  0.18541721737E+02 -0.11662769138E+02 -0.13329530485E+03  0.13514779438E+03  0.41800000000E+01 0.  1.
         -5    1    3    3    0  502 -0.11304948288E+03  0.32857099983E+02 -0.16842624367E+03  0.20553502513E+03  0.41800000000E+01 0.  1.
        -11    1    1    2    0    0  0.20427074208E+02  0.34857671278E+02 -0.10879799974E+03  0.11605743127E+03  0.00000000000E+00 0.  1.
         11    1    1    2    0    0  0.74080686937E+02 -0.56052002122E+02 -0.18227935117E+03  0.20458625805E+03  0.00000000000E+00 0. -1.
</event>
<event>
 7    1  0.3001243E-009  0.1444161E+03  0.7561462E-02  0.1207507E+00
         -2   -1    0    0    0  501 -0.00000000000E+00  0.00000000000E+00  0.96666910004E+02  0.96666910004E+02  0.00000000000E+00 0.  1.
          2   -1    0    0  501    0  0.00000000000E+00 -0.00000000000E+00 -0.23275482753E+03  0.23275482753E+03  0.00000000000E+00 0. -1.
         25    2    1    2    0    0 -0.46711307248E+02  0.85689591619E+02 -0.10938478363E+03  0.19271079244E+03  0.12509103204E+03 0.  0.
          5    1    3    3  502    0 -0.80865278162E+02  0.22472632274E+02 -0.41294438811E+02  0.93631808112E+02  0.41800000000E+01 0.  1.
         -5    1    3    3    0  502  0.34153970914E+02  0.63216959345E+02 -0.68090344820E+02  0.99078984329E+02  0.41800000000E+01 0.  1.
        -11    1    1    2    0    0  0.23645077301E+02  0.16000760432E+02  0.18152787605E+01  0.28607852977E+02  0.00000000000E+00 0. -1.
         11    1    1    2    0    0  0.23066229947E+02 -0.10169035205E+03 -0.28518412653E+02  0.10810309211E+03  0.00000000000E+00 0.  1.
</event>
<event>
 7    1  0.3001243E-009  0.1445664E+03  0.7561462E-02  0.1207313E+00
         -1   -1    0    0    0  501 -0.00000000000E+00  0.00000000000E+00  0.23855525897E+03  0.23855525897E+03  0.00000000000E+00 0.  1.
          1   -1    0    0  501    0  0.00000000000E+00 -0.00000000000E+00 -0.12363015432E+03  0.12363015432E+03  0.00000000000E+00 0. -1.
         25    2    1    2    0    0  0.19767476244E+02  0.94085428029E+02  0.15507873743E+03  0.22122659771E+03  0.12509585064E+03 0.  0.
          5    1    3    3  502    0  0.27918621900E+02 -0.23887127095E+02  0.54867735699E+02  0.66166344243E+02  0.41800000000E+01 0. -1.
         -5    1    3    3    0  502 -0.81511456567E+01  0.11797255512E+03  0.10021100173E+03  0.15506025347E+03  0.41800000000E+01 0. -1.
        -11    1    1    2    0    0  0.27251389600E+02  0.15090221952E+01 -0.16296223487E+02  0.31788083979E+02  0.00000000000E+00 0.  1.
         11    1    1    2    0    0 -0.47018865843E+02 -0.95594450225E+02 -0.23857409298E+02  0.10917073160E+03  0.00000000000E+00 0. -1.
</event>
<event>
 7    1  0.3001243E-009  0.1635325E+03  0.7561462E-02  0.1184765E+00
         -4   -1    0    0    0  501 -0.00000000000E+00  0.00000000000E+00  0.22258742200E+03  0.22258742200E+03  0.00000000000E+00 0.  1.
          4   -1    0    0  501    0  0.00000000000E+00 -0.00000000000E+00 -0.17077366221E+03  0.17077366221E+03  0.00000000000E+00 0. -1.
         25    2    1    2    0    0 -0.81234364700E+02 -0.12523899733E+03  0.91394500838E+02  0.21513840094E+03  0.12509096016E+03 0.  0.
          5    1    3    3  502    0 -0.60333773608E+02 -0.11544562322E+03  0.10316512912E+02  0.13073545424E+03  0.41800000000E+01 0.  1.
         -5    1    3    3    0  502 -0.20900591092E+02 -0.97933741133E+01  0.81077987926E+02  0.84402946694E+02  0.41800000000E+01 0.  1.
        -11    1    1    2    0    0  0.77992760940E+02  0.39398878413E+02 -0.26654399638E+02  0.91354252223E+02  0.00000000000E+00 0.  1.
         11    1    1    2    0    0  0.32416037608E+01  0.85840118916E+02 -0.12926341404E+02  0.86868431047E+02  0.00000000000E+00 0. -1.
</event>
<event>
 7    1  0.3001243E-009  0.1340311E+03  0.7561462E-02  0.1221594E+00
         -4   -1    0    0    0  501 -0.00000000000E+00  0.00000000000E+00  0.11322496300E+03  0.11322496300E+03  0.00000000000E+00 0.  1.
          4   -1    0    0  501    0  0.00000000000E+00 -0.00000000000E+00 -0.18308898290E+03  0.18308898290E+03  0.00000000000E+00 0. -1.
         25    2    1    2    0    0 -0.77159217849E+02 -0.71789220873E+02 -0.55111517188E+02  0.17260891903E+03  0.12509725205E+03 0.  0.
          5    1    3    3  502    0  0.20432242727E+01  0.30505406436E+02  0.24335188557E+01  0.30953981994E+02  0.41800000000E+01 0.  1.
         -5    1    3    3    0  502 -0.79202442121E+02 -0.10229462731E+03 -0.57545036044E+02  0.14165493704E+03  0.41800000000E+01 0.  1.
        -11    1    1    2    0    0  0.22658427950E+02  0.36086383078E+02 -0.35358638561E+02  0.55370251234E+02  0.00000000000E+00 0. -1.
         11    1    1    2    0    0  0.54500789899E+02  0.35702837795E+02  0.20606135845E+02  0.68334775632E+02  0.00000000000E+00 0.  1.
</event>
<event>
 7    1  0.3001243E-009  0.1526726E+03  0.7561462E-02  0.1197227E+00
         -1   -1    0    0    0  501 -0.00000000000E+00  0.00000000000E+00  0.20939863612E+03  0.20939863612E+03  0.00000000000E+00 0.  1.
          1   -1    0    0  501    0  0.00000000000E+00 -0.00000000000E+00 -0.15524334590E+03  0.15524334590E+03  0.00000000000E+00 0. -1.
         25    2    1    2    0    0 -0.56030944498E+02 -0.12707539203E+03 -0.95701429966E+01  0.18715499948E+03  0.12509110358E+03 0.  0.
          5    1    3    3  502    0 -0.62186669431E+01 -0.10043127822E+02  0.46449622589E+02  0.48110041297E+02  0.41800000000E+01 0. -1.
         -5    1    3    3    0  502 -0.49812277555E+02 -0.11703226420E+03 -0.56019765585E+02  0.13904495818E+03  0.41800000000E+01 0. -1.
        -11    1    1    2    0    0  0.17346669425E+02 -0.12069222506E+02  0.10202131728E+02  0.23466072612E+02  0.00000000000E+00 0.  1.
         11    1    1    2    0    0  0.38684275073E+02  0.13914461453E+03  0.53523301494E+02  0.15402090992E+03  0.00000000000E+00 0. -1.
</event>
<event>
 7    1  0.3001243E-009  0.2154255E+03  0.7561462E-02  0.1137340E+00
         -2   -1    0    0    0  501 -0.00000000000E+00  0.00000000000E+00  0.54083831312E+02  0.54083831312E+02  0.00000000000E+00 0.  1.
          2   -1    0    0  501    0  0.00000000000E+00 -0.00000000000E+00 -0.92243088116E+03  0.92243088116E+03  0.00000000000E+00 0. -1.
         25    2    1    2    0    0  0.18294826897E+03 -0.72565123330E+02 -0.48371252026E+03  0.53699117624E+03  0.12508379137E+03 0.  0.
          5    1    3    3  502    0  0.57230687179E+02 -0.82208473947E+02 -0.15186472223E+03  0.18197239076E+03  0.41800000000E+01 0. -1.
         -5    1    3    3    0  502  0.12571758179E+03  0.96433506178E+01 -0.33184779803E+03  0.35501878548E+03  0.41800000000E+01 0. -1.
        -11    1    1    2    0    0 -0.12160203724E+03  0.19155849962E+02 -0.28805059640E+03  0.31325253093E+03  0.00000000000E+00 0.  1.
         11    1    1    2    0    0 -0.61346231731E+02  0.53409273367E+02 -0.96583933182E+02  0.12627100529E+03  0.00000000000E+00 0. -1.
</event>
<event>
 7    1  0.3001243E-009  0.8145701E+02  0.7561462E-02  0.1324967E+00
         -2   -1    0    0    0  501 -0.00000000000E+00  0.00000000000E+00  0.19305046488E+02  0.19305046488E+02  0.00000000000E+00 0.  1.
          2   -1    0    0  501    0  0.00000000000E+00 -0.00000000000E+00 -0.64627433137E+03  0.64627433137E+03  0.00000000000E+00 0. -1.
         25    2    1    2    0    0  0.24351930963E+02  0.94088510848E+01 -0.34816640029E+03  0.37087611247E+03  0.12509078900E+03 0.  0.
          5    1    3    3  502    0 -0.67917210849E+00  0.32709694352E+02 -0.15522401613E+02  0.36452746552E+02  0.41800000000E+01 0. -1.
         -5    1    3    3    0  502  0.25031103071E+02 -0.23300843267E+02 -0.33264399867E+03  0.33442336592E+03  0.41800000000E+01 0. -1.
        -11    1    1    2    0    0  0.18324764357E+01 -0.48442111457E+02 -0.13901331064E+03  0.14722328847E+03  0.00000000000E+00 0.  1.
         11    1    1    2    0    0 -0.26184407399E+02  0.39033260372E+02 -0.13978957396E+03  0.14747997692E+03  0.00000000000E+00 0. -1.
</event>
<event>
 7    1  0.3001243E-009  0.1223655E+03  0.7561462E-02  0.1239245E+00
         -2   -1    0    0    0  501 -0.00000000000E+00  0.00000000000E+00  0.29076225895E+02  0.29076225895E+02  0.00000000000E+00 0.  1.
          2   -1    0    0  501    0  0.00000000000E+00 -0.00000000000E+00 -0.15621760255E+04  0.15621760255E+04  0.00000000000E+00 0. -1.
         25    2    1    2    0    0 -0.58117036118E+02 -0.70837883082E+02 -0.13870296382E+04  0.13956697421E+04  0.12508883328E+03 0.  0.
          5    1    3    3  502    0  0.15003287257E+02 -0.20778001902E+01 -0.22478837390E+02  0.27426017074E+02  0.41800000000E+01 0. -1.
         -5    1    3    3    0  502 -0.73120323375E+02 -0.68760082892E+02 -0.13645508008E+04  0.13682437251E+04  0.41800000000E+01 0. -1.
        -11    1    1    2    0    0  0.65607917104E+02  0.88039813410E+02 -0.13414943346E+03  0.17335362134E+03  0.00000000000E+00 0.  1.
         11    1    1    2    0    0 -0.74908809863E+01 -0.17201930328E+02 -0.11920727936E+02  0.22228887949E+02  0.00000000000E+00 0. -1.
</event>
<event>
 7    1  0.3001243E-009  0.2094192E+03  0.7561462E-02  0.1142027E+00
         -2   -1    0    0    0  501 -0.00000000000E+00  0.00000000000E+00  0.10957358711E+03  0.10957358711E+03  0.00000000000E+00 0.  1.
          2   -1    0    0  501    0  0.00000000000E+00 -0.00000000000E+00 -0.46265620344E+03  0.46265620344E+03  0.00000000000E+00 0. -1.
         25    2    1    2    0    0 -0.17869802354E+03 -0.21554356524E+02 -0.82280100923E+02  0.23412574442E+03  0.12508906943E+03 0.  0.
          5    1    3    3  502    0 -0.16106520721E+03  0.28325775656E+02 -0.46325721185E+02  0.17002322013E+03  0.41800000000E+01 0. -1.
         -5    1    3    3    0  502 -0.17632816330E+02 -0.49880132180E+02 -0.35954379739E+02  0.64102524290E+02  0.41800000000E+01 0. -1.
        -11    1    1    2    0    0  0.10869609759E+03  0.58058298274E+02 -0.15665626548E+03  0.19931581258E+03  0.00000000000E+00 0.  1.
         11    1    1    2    0    0  0.70001925955E+02 -0.36503941751E+02 -0.11414624993E+03  0.13878823355E+03  0.00000000000E+00 0. -1.
</event>
<event>
 7    1  0.3001243E-009  0.8707650E+02  0.7561462E-02  0.1310090E+00
          3   -1    0    0  501    0  0.00000000000E+00  0.00000000000E+00  0.51730314064E+03  0.51730314064E+03  0.00000000000E+00 0. -1.
         -3   -1    0    0    0  501 -0.00000000000E+00 -0.00000000000E+00 -0.23304593603E+02  0.23304593603E+02  0.00000000000E+00 0.  1.
         25    2    1    2    0    0  0.19532381965E+02 -0.65154299602E+01  0.26973269094E+03  0.29803871473E+03  0.12508951253E+03 0.  0.
          5    1    3    3  502    0  0.52374741705E+02 -0.81356183224E-01  0.40501640906E+02  0.66339848535E+02  0.41800000000E+01 0. -1.
         -5    1    3    3    0  502 -0.32842359741E+02 -0.64340737770E+01  0.22923105003E+03  0.23169886620E+03  0.41800000000E+01 0. -1.
        -11    1    1    2    0    0 -0.14758129166E+02  0.45898893278E+02  0.84554585654E+02  0.97334417015E+02  0.00000000000E+00 0.  1.
         11    1    1    2    0    0 -0.47742527990E+01 -0.39383463318E+02  0.13971127044E+03  0.14523460250E+03  0.00000000000E+00 0. -1.
</event>
<event>
 7    1  0.3001243E-009  0.2514659E+03  0.7561462E-02  0.1112382E+00
          1   -1    0    0  501    0  0.00000000000E+00  0.00000000000E+00  0.11252823252E+03  0.11252823252E+03  0.00000000000E+00 0. -1.
         -1   -1    0    0    0  501 -0.00000000000E+00 -0.00000000000E+00 -0.64585844193E+03  0.64585844193E+03  0.00000000000E+00 0.  1.
         25    2    1    2    0    0  0.22938043826E+03  0.56635614019E+02 -0.18388811009E+03  0.32447671161E+03  0.12508925259E+03 0.  0.
          5    1    3    3  502    0  0.14528767363E+03 -0.27129552556E+02 -0.11370126016E+03  0.18652069508E+03  0.41800000000E+01 0.  1.
         -5    1    3    3    0  502  0.84092764623E+02  0.83765166574E+02 -0.70186849925E+02  0.13795601653E+03  0.41800000000E+01 0.  1.
        -11    1    1    2    0    0 -0.79528794586E+02 -0.21705253238E+02 -0.47808594785E+02  0.95297475947E+02  0.00000000000E+00 0. -1.
         11    1    1    2    0    0 -0.14985164367E+03 -0.34930360780E+02 -0.30163350454E+03  0.33861248689E+03  0.00000000000E+00 0.  1.
</event>
<event>
 7    1  0.3001243E-009  0.1258887E+03  0.7561462E-02  0.1233687E+00
         -2   -1    0    0    0  501 -0.00000000000E+00  0.00000000000E+00  0.18872018658E+02  0.18872018658E+02  0.00000000000E+00 0.  1.
          2   -1    0    0  501    0  0.00000000000E+00 -0.00000000000E+00 -0.86908119977E+03  0.86908119977E+03  0.00000000000E+00 0. -1.
         25    2    1    2    0    0  0.58286062069E+02 -0.29743056371E+02 -0.39967761343E+03  0.42387968525E+03  0.12509947424E+03 0.  0.
          5    1    3    3  502    0  0.93552988253E+02 -0.42540096244E+02 -0.30857997634E+03  0.32527049605E+03  0.41800000000E+01 0. -1.
         -5    1    3    3    0  502 -0.35266926184E+02  0.12797039872E+02 -0.91097637087E+02  0.98609189201E+02  0.41800000000E+01 0. -1.
        -11    1    1    2    0    0 -0.78805152104E+02  0.49084836591E+01 -0.32946533449E+03  0.33879455698E+03  0.00000000000E+00 0. -1.
         11    1    1    2    0    0  0.20519090035E+02  0.24834572712E+02 -0.12106623320E+03  0.12527897620E+03  0.00000000000E+00 0.  1.
</event>
<event>
 7    1  0.3001243E-009  0.8008369E+02  0.7561462E-02  0.1328814E+00
          2   -1    0    0  501    0  0.00000000000E+00  0.00000000000E+00  0.24463392917E+03  0.24463392917E+03  0.00000000000E+00 0. -1.
         -2   -1    0    0    0  501 -0.00000000000E+00 -0.00000000000E+00 -0.52684398438E+02  0.52684398438E+02  0.00000000000E+00 0.  1.
         25    2    1    2    0    0 -0.92263055053E+01 -0.22852854844E+02  0.13986813887E+03  0.18924848745E+03  0.12507803981E+03 0.  0.
          5    1    3    3  502    0 -0.63033367557E+02 -0.34665486822E+02  0.74188901623E+02  0.10342324171E+03  0.41800000000E+01 0.  1.
         -5    1    3    3    0  502  0.53807062052E+02  0.11812631978E+02  0.65679237245E+02  0.85825245738E+02  0.41800000000E+01 0.  1.
        -11    1    1    2    0    0  0.14440221718E+02  0.67565555048E+01  0.76621336258E+02  0.78262380590E+02  0.00000000000E+00 0. -1.
         11    1    1    2    0    0 -0.52139162127E+01  0.16096299339E+02 -0.24539944397E+02  0.29807459565E+02  0.00000000000E+00 0.  1.
</event>
<event>
 7    1  0.3001243E-009  0.1091268E+03  0.7561462E-02  0.1262196E+00
          1   -1    0    0  501    0  0.00000000000E+00  0.00000000000E+00  0.60981890613E+02  0.60981890613E+02  0.00000000000E+00 0. -1.
         -1   -1    0    0    0  501 -0.00000000000E+00 -0.00000000000E+00 -0.48835826762E+03  0.48835826762E+03  0.00000000000E+00 0.  1.
         25    2    1    2    0    0 -0.11174649180E+02 -0.83293465665E+02 -0.62272809883E+02  0.16305853419E+03  0.12509000166E+03 0.  0.
          5    1    3    3  502    0  0.13850589220E+02 -0.50704628651E+02 -0.96138106907E+02  0.10964855762E+03  0.41800000000E+01 0. -1.
         -5    1    3    3    0  502 -0.25025238399E+02 -0.32588837014E+02  0.33865297024E+02  0.53409976572E+02  0.41800000000E+01 0. -1.
        -11    1    1    2    0    0 -0.37659127934E+02  0.58197940582E+02 -0.16972805805E+03  0.18333800450E+03  0.00000000000E+00 0. -1.
         11    1    1    2    0    0  0.48833777114E+02  0.25095525083E+02 -0.19537550907E+03  0.20294361954E+03  0.00000000000E+00 0.  1.
</event>
<event>
 7    1  0.3001243E-009  0.1118009E+03  0.7561462E-02  0.1257271E+00
         -3   -1    0    0    0  501 -0.00000000000E+00  0.00000000000E+00  0.31752047551E+02  0.31752047551E+02  0.00000000000E+00 0. -1.
          3   -1    0    0  501    0  0.00000000000E+00 -0.00000000000E+00 -0.47433580771E+03  0.47433580771E+03  0.00000000000E+00 0.  1.
         25    2    1    2    0    0  0.41717757362E+02  0.30794660900E+02 -0.29957993563E+03  0.32876127726E+03  0.12508859728E+03 0.  0.
          5    1    3    3  502    0 -0.98054052759E+01 -0.43455309108E+02 -0.90988799778E+02  0.10139498975E+03  0.41800000000E+01 0.  1.
         -5    1    3    3    0  502  0.51523162638E+02  0.74249970008E+02 -0.20859113586E+03  0.22736628750E+03  0.41800000000E+01 0.  1.
        -11    1    1    2    0    0 -0.54968829043E+02 -0.11675078805E+00 -0.37206449777E+02  0.66376996785E+02  0.00000000000E+00 0. -1.
         11    1    1    2    0    0  0.13251071681E+02 -0.30677910112E+02 -0.10579737475E+03  0.11094958122E+03  0.00000000000E+00 0.  1.
</event>
<event>
 7    1  0.3001243E-009  0.1042187E+03  0.7561462E-02  0.1271667E+00
          1   -1    0    0  501    0  0.00000000000E+00  0.00000000000E+00  0.85414007850E+02  0.85414007850E+02  0.00000000000E+00 0. -1.
         -1   -1    0    0    0  501 -0.00000000000E+00 -0.00000000000E+00 -0.27883628928E+03  0.27883628928E+03  0.00000000000E+00 0.  1.
         25    2    1    2    0    0  0.23238576868E+02 -0.37567533738E+02  0.14087548928E+02  0.13340559564E+03  0.12508893983E+03 0.  0.
          5    1    3    3  502    0 -0.38994587679E+02 -0.89707027391E+01 -0.31440130233E+02  0.51058844140E+02  0.41800000000E+01 0.  1.
         -5    1    3    3    0  502  0.62233164547E+02 -0.28596830999E+02  0.45527679161E+02  0.82346751500E+02  0.41800000000E+01 0.  1.
        -11    1    1    2    0    0 -0.29156715456E+02 -0.23984525365E+02 -0.59888220647E+02  0.70795271632E+02  0.00000000000E+00 0. -1.
         11    1    1    2    0    0  0.59181385882E+01  0.61552059103E+02 -0.14762160971E+03  0.16004942985E+03  0.00000000000E+00 0.  1.
</event>
<event>
 7    1  0.3001243E-009  0.1926411E+03  0.7561462E-02  0.1156101E+00
          1   -1    0    0  501    0  0.00000000000E+00  0.00000000000E+00  0.14409362626E+03  0.14409362626E+03  0.00000000000E+00 0. -1.
         -1   -1    0    0    0  501 -0.00000000000E+00 -0.00000000000E+00 -0.37439456333E+03  0.37439456333E+03  0.00000000000E+00 0.  1.
         25    2    1    2    0    0 -0.16590427155E+03  0.79620203746E+02 -0.21846443533E+03  0.31183020732E+03  0.12509102498E+03 0.  0.
          5    1    3    3  502    0 -0.11208446635E+03  0.44643633156E+02 -0.48495196089E+02  0.13009703310E+03  0.41800000000E+01 0.  1.
         -5    1    3    3    0  502 -0.53819805195E+02  0.34976570590E+02 -0.16996923924E+03  0.18173317421E+03  0.41800000000E+01 0.  1.
        -11    1    1    2    0    0  0.38683351270E+02  0.15207237171E+02 -0.23157399346E+02  0.47580740561E+02  0.00000000000E+00 0.  1.
         11    1    1    2    0    0  0.12722092028E+03 -0.94827440917E+02  0.11320897608E+02  0.15907724171E+03  0.00000000000E+00 0. -1.
</event>
<event>
 7    1  0.3001243E-009  0.9293244E+02  0.7561462E-02  0.1295902E+00
          2   -1    0    0  501    0  0.00000000000E+00  0.00000000000E+00  0.29689338309E+03  0.29689338309E+03  0.00000000000E+00 0. -1.
         -2   -1    0    0    0  501 -0.00000000000E+00 -0.00000000000E+00 -0.39023483893E+02  0.39023483893E+02  0.00000000000E+00 0.  1.
         25    2    1    2    0    0 -0.24264551261E+02 -0.20519640771E+02  0.15846839967E+03  0.20437616684E+03  0.12509020655E+03 0.  0.
          5    1    3    3  502    0  0.48030650217E+02 -0.28809825960E+02  0.67686070025E+02  0.87953544031E+02  0.41800000000E+01 0.  1.
         -5    1    3    3    0  502 -0.72295201478E+02  0.82901851896E+01  0.90782329643E+02  0.11642262281E+03  0.41800000000E+01 0.  1.
        -11    1    1    2    0    0  0.26567745162E+02 -0.83510303869E+01  0.98717096211E+02  0.10257021924E+03  0.00000000000E+00 0. -1.
         11    1    1    2    0    0 -0.23031939008E+01  0.28870671157E+02  0.68440331504E+00  0.28970480892E+02  0.00000000000E+00 0.  1.
</event>
<event>
 7    1  0.3001243E-009  0.1017984E+03  0.7561462E-02  0.1276559E+00
          1   -1    0    0  501    0  0.00000000000E+00  0.00000000000E+00  0.37459491442E+03  0.37459491442E+03  0.00000000000E+00 0. -1.
         -1   -1    0    0    0  501 -0.00000000000E+00 -0.00000000000E+00 -0.43500129631E+02  0.43500129631E+02  0.00000000000E+00 0.  1.
         25    2    1    2    0    0  0.48144288818E+02 -0.45061925327E+02  0.16329370291E+03  0.21601328293E+03  0.12509378614E+03 0.  0.
          5    1    3    3  502    0 -0.17923604783E+02 -0.72198537708E+01  0.13219126895E+03  0.13366145998E+03  0.41800000000E+01 0.  1.
         -5    1    3    3    0  502  0.66067893601E+02 -0.37842071556E+02  0.31102433957E+02  0.82351822946E+02  0.41800000000E+01 0.  1.
        -11    1    1    2    0    0  0.32371016154E+01 -0.22478884503E+02  0.14758002065E+02  0.27084639564E+02  0.00000000000E+00 0.  1.
         11    1    1    2    0    0 -0.51381390433E+02  0.67540809830E+02  0.15304307981E+03  0.17499712156E+03  0.00000000000E+00 0. -1.
</event>
<event>
 7    1  0.3001243E-009  0.1606632E+03  0.7561462E-02  0.1187950E+00
          2   -1    0    0  501    0  0.00000000000E+00  0.00000000000E+00  0.67962989451E+03  0.67962989451E+03  0.00000000000E+00 0.  1.
         -2   -1    0    0    0  501 -0.00000000000E+00 -0.00000000000E+00 -0.49371410458E+02  0.49371410458E+02  0.00000000000E+00 0. -1.
         25    2    1    2    0    0 -0.14142299940E+03  0.10143971828E+02  0.49188875011E+03  0.52697657100E+03  0.12508556659E+03 0.  0.
          5    1    3    3  502    0 -0.90045404224E+02 -0.43605257318E+02  0.17661888974E+03  0.20303028813E+03  0.41800000000E+01 0. -1.
         -5    1    3    3    0  502 -0.51377595176E+02  0.53749229146E+02  0.31526986038E+03  0.32394628286E+03  0.41800000000E+01 0. -1.
        -11    1    1    2    0    0  0.54519122231E+02  0.14450697263E+02  0.45356485283E+02  0.72376571468E+02  0.00000000000E+00 0. -1.
         11    1    1    2    0    0  0.86903877169E+02 -0.24594669090E+02  0.93013248651E+02  0.12964816250E+03  0.00000000000E+00 0.  1.
</event>
<event>
 7    1  0.3001243E-009  0.7816144E+02  0.7561462E-02  0.1334351E+00
          1   -1    0    0  501    0  0.00000000000E+00  0.00000000000E+00  0.96385584954E+02  0.96385584954E+02  0.00000000000E+00 0. -1.
         -1   -1    0    0    0  501 -0.00000000000E+00 -0.00000000000E+00 -0.14957613516E+03  0.14957613516E+03  0.00000000000E+00 0.  1.
         25    2    1    2    0    0  0.78998017585E+01 -0.50397864826E+01  0.21036180461E+02  0.12719794257E+03  0.12509592076E+03 0.  0.
          5    1    3    3  502    0  0.16394304965E+02 -0.31579309560E+02  0.65441949581E+02  0.74606616279E+02  0.41800000000E+01 0.  1.
         -5    1    3    3    0  502 -0.84945032062E+01  0.26539523077E+02 -0.44405769120E+02  0.52591326291E+02  0.41800000000E+01 0.  1.
        -11    1    1    2    0    0  0.39747094237E+02 -0.12313510251E+02 -0.38909012219E+02  0.56968107453E+02  0.00000000000E+00 0. -1.
         11    1    1    2    0    0 -0.47646895995E+02  0.17353296733E+02 -0.35317718445E+02  0.61795670088E+02  0.00000000000E+00 0.  1.
</event>
<event>
 7    1  0.3001243E-009  0.6687036E+02  0.7561462E-02  0.1371071E+00
         -2   -1    0    0    0  501 -0.00000000000E+00  0.00000000000E+00  0.53005538523E+02  0.53005538523E+02  0.00000000000E+00 0.  1.
          2   -1    0    0  501    0  0.00000000000E+00 -0.00000000000E+00 -0.29848604830E+03  0.29848604830E+03  0.00000000000E+00 0. -1.
         25    2    1    2    0    0 -0.43735776448E+02  0.10450503228E+02 -0.20114480806E+03  0.24110308761E+03  0.12509769737E+03 0.  0.
          5    1    3    3  502    0  0.29673106489E+00 -0.91469060253E+01 -0.19151159825E+03  0.19177569868E+03  0.41800000000E+01 0.  1.
         -5    1    3    3    0  502 -0.44032507513E+02  0.19597409253E+02 -0.96332098026E+01  0.49327388928E+02  0.41800000000E+01 0.  1.
        -11    1    1    2    0    0  0.42407057176E+02 -0.32365443267E+02 -0.62300805866E+02  0.82019941647E+02  0.00000000000E+00 0. -1.
         11    1    1    2    0    0  0.13287192727E+01  0.21914940039E+02  0.17965104141E+02  0.28368557570E+02  0.00000000000E+00 0.  1.
</event>
<event>
 7    1  0.3001243E-009  0.1434473E+03  0.7561462E-02  0.1208764E+00
          2   -1    0    0  501    0  0.00000000000E+00  0.00000000000E+00  0.45172720145E+03  0.45172720145E+03  0.00000000000E+00 0. -1.
         -2   -1    0    0    0  501 -0.00000000000E+00 -0.00000000000E+00 -0.51619980304E+02  0.51619980304E+02  0.00000000000E+00 0.  1.
         25    2    1    2    0    0  0.10075159967E+03 -0.19555631335E+02  0.25305488608E+03  0.30036197268E+03  0.12508889523E+03 0.  0.
          5    1    3    3  502    0  0.37062651206E+02 -0.70158733033E+02  0.14075182716E+03  0.16163055771E+03  0.41800000000E+01 0. -1.
         -5    1    3    3    0  502  0.63688948461E+02  0.50603101698E+02  0.11230305892E+03  0.13873141497E+03  0.41800000000E+01 0. -1.
        -11    1    1    2    0    0 -0.79689427205E+02  0.46129223180E+02  0.60887210339E+02  0.11038823498E+03  0.00000000000E+00 0.  1.
         11    1    1    2    0    0 -0.21062172462E+02 -0.26573591846E+02  0.86165124723E+02  0.92596974091E+02  0.00000000000E+00 0. -1.
</event>
<event>
 7    1  0.3001243E-009  0.1617211E+03  0.7561462E-02  0.1186767E+00
         -2   -1    0    0    0  501 -0.00000000000E+00  0.00000000000E+00  0.12472687704E+03  0.12472687704E+03  0.00000000000E+00 0.  1.
          2   -1    0    0  501    0  0.00000000000E+00 -0.00000000000E+00 -0.29459359472E+03  0.29459359472E+03  0.00000000000E+00 0. -1.
         25    2    1    2    0    0 -0.49395607296E+01 -0.14724143359E+03 -0.14660481437E+03  0.24258089419E+03  0.12509228436E+03 0.  0.
          5    1    3    3  502    0  0.21243898788E+02 -0.66005514292E+02  0.38279656488E+01  0.69571235965E+02  0.41800000000E+01 0. -1.
         -5    1    3    3    0  502 -0.26183459518E+02 -0.81235919298E+02 -0.15043278002E+03  0.17300965823E+03  0.41800000000E+01 0. -1.
        -11    1    1    2    0    0  0.43431946887E+02  0.81001288297E+02  0.11467752354E+02  0.92623172372E+02  0.00000000000E+00 0.  1.
         11    1    1    2    0    0 -0.38492386158E+02  0.66240145292E+02 -0.34729655659E+02  0.84116405193E+02  0.00000000000E+00 0. -1.
</event>
<event>
 7    1  0.3001243E-009  0.9015029E+02  0.7561462E-02  0.1302488E+00
          2   -1    0    0  501    0  0.00000000000E+00  0.00000000000E+00  0.62333369406E+03  0.62333369406E+03  0.00000000000E+00 0. -1.
         -2   -1    0    0    0  501 -0.00000000000E+00 -0.00000000000E+00 -0.19655803488E+02  0.19655803488E+02  0.00000000000E+00 0.  1.
         25    2    1    2    0    0  0.46748576959E+01 -0.23157758276E+02  0.31700123987E+03  0.34161763922E+03  0.12511870077E+03 0.  0.
          5    1    3    3  502    0  0.25011726014E+01  0.37001239285E+02  0.24430842555E+03  0.24714252319E+03  0.41800000000E+01 0.  1.
         -5    1    3    3    0  502  0.21736850946E+01 -0.60158997561E+02  0.72692814316E+02  0.94475116023E+02  0.41800000000E+01 0.  1.
        -11    1    1    2    0    0 -0.24644411825E+02 -0.22142328490E+02  0.52957384421E+02  0.62466905717E+02  0.00000000000E+00 0.  1.
         11    1    1    2    0    0  0.19969554130E+02  0.45300086767E+02  0.23371926629E+03  0.23890495262E+03  0.00000000000E+00 0. -1.
</event>
<event>
 7    1  0.3001243E-009  0.1018066E+03  0.7561462E-02  0.1276542E+00
          2   -1    0    0  501    0  0.00000000000E+00  0.00000000000E+00  0.12322388534E+03  0.12322388534E+03  0.00000000000E+00 0. -1.
         -2   -1    0    0    0  501 -0.00000000000E+00 -0.00000000000E+00 -0.11587208045E+03  0.11587208045E+03  0.00000000000E+00 0.  1.
         25    2    1    2    0    0 -0.45035866115E+02 -0.16333109824E+02  0.51944295692E+01  0.13405090310E+03  0.12509061840E+03 0.  0.
          5    1    3    3  502    0 -0.59400546753E+02  0.37265328618E+02 -0.19894312363E+02  0.73009490726E+02  0.41800000000E+01 0.  1.
         -5    1    3    3    0  502  0.14364680638E+02 -0.53598438443E+02  0.25088741932E+02  0.61041412378E+02  0.41800000000E+01 0.  1.
        -11    1    1    2    0    0  0.59892746115E+02  0.18546088319E+02 -0.30034688734E+02  0.69521082820E+02  0.00000000000E+00 0.  1.
         11    1    1    2    0    0 -0.14856880000E+02 -0.22129784948E+01  0.32192064059E+02  0.35523979866E+02  0.00000000000E+00 0. -1.
</event>
<event>
 7    1  0.3001243E-009  0.1258403E+03  0.7561462E-02  0.1233762E+00
         -2   -1    0    0    0  501 -0.00000000000E+00  0.00000000000E+00  0.14074766467E+03  0.14074766467E+03  0.00000000000E+00 0.  1.
          2   -1    0    0  501    0  0.00000000000E+00 -0.00000000000E+00 -0.17544737719E+03  0.17544737719E+03  0.00000000000E+00 0. -1.
         25    2    1    2    0    0  0.96906887678E+02  0.54192657426E+02  0.66798190414E+00  0.16725856366E+03  0.12508873618E+03 0.  0.
          5    1    3    3  502    0  0.48714539655E+01  0.13318676988E+02 -0.51631900854E+02  0.53707018221E+02  0.41800000000E+01 0.  1.
         -5    1    3    3    0  502  0.92035433713E+02  0.40873980438E+02  0.52299882758E+02  0.11355154544E+03  0.41800000000E+01 0.  1.
        -11    1    1    2    0    0  0.54045085445E+00 -0.37180425792E+02  0.12251103283E+02  0.39150551476E+02  0.00000000000E+00 0.  1.
         11    1    1    2    0    0 -0.97447338533E+02 -0.17012231634E+02 -0.47618797709E+02  0.10978592673E+03  0.00000000000E+00 0. -1.
</event>
<event>
 7    1  0.3001243E-009  0.1634122E+03  0.7561462E-02  0.1184897E+00
          1   -1    0    0  501    0  0.00000000000E+00  0.00000000000E+00  0.11126187261E+04  0.11126187261E+04  0.00000000000E+00 0. -1.
         -1   -1    0    0    0  501 -0.00000000000E+00 -0.00000000000E+00 -0.30693521093E+02  0.30693521093E+02  0.00000000000E+00 0.  1.
         25    2    1    2    0    0 -0.12749882527E+03  0.53825632021E+02  0.37478202963E+03  0.41864361236E+03  0.12509098823E+03 0.  0.
          5    1    3    3  502    0  0.73801062222E+01  0.50864828004E+02  0.10202105740E+03  0.11431301434E+03  0.41800000000E+01 0. -1.
         -5    1    3    3    0  502 -0.13487893149E+03  0.29608040172E+01  0.27276097223E+03  0.30433059802E+03  0.41800000000E+01 0. -1.
        -11    1    1    2    0    0  0.10151750889E+03 -0.52442414693E+02  0.66777151623E+03  0.67747679617E+03  0.00000000000E+00 0. -1.
         11    1    1    2    0    0  0.25981316385E+02 -0.13832173285E+01  0.39371659165E+02  0.47191838666E+02  0.00000000000E+00 0.  1.
</event>
<event>
 7    1  0.3001243E-009  0.1184509E+03  0.7561462E-02  0.1245675E+00
          1   -1    0    0  501    0  0.00000000000E+00  0.00000000000E+00  0.20743789031E+03  0.20743789031E+03  0.00000000000E+00 0. -1.
         -1   -1    0    0    0  501 -0.00000000000E+00 -0.00000000000E+00 -0.92415593798E+02  0.92415593798E+02  0.00000000000E+00 0.  1.
         25    2    1    2    0    0 -0.22029461786E+02  0.80230876727E+02  0.37955439480E+02  0.15496452569E+03  0.12510434873E+03 0.  0.
          5    1    3    3  502    0 -0.28220519881E+02 -0.16042311343E+02 -0.23689000015E+02  0.40402903575E+02  0.41800000000E+01 0.  1.
         -5    1    3    3    0  502  0.61910580950E+01  0.96273188070E+02  0.61644439495E+02  0.11456162212E+03  0.41800000000E+01 0.  1.
        -11    1    1    2    0    0  0.16707004874E+02  0.84822789696E+01  0.47767937470E+02  0.51311294259E+02  0.00000000000E+00 0. -1.
         11    1    1    2    0    0  0.53224569125E+01 -0.88713155696E+02  0.29298919558E+02  0.93577664154E+02  0.00000000000E+00 0.  1.
</event>
<event>
 7    1  0.3001243E-009  0.7990161E+02  0.7561462E-02  0.1329331E+00
         -2   -1    0    0    0  501 -0.00000000000E+00  0.00000000000E+00  0.51859710876E+02  0.51859710876E+02  0.00000000000E+00 0.  1.
          2   -1    0    0  501    0  0.00000000000E+00 -0.00000000000E+00 -0.26328603129E+03  0.26328603129E+03  0.00000000000E+00 0. -1.
         25    2    1    2    0    0  0.52658895452E+01  0.57904110078E+01 -0.18203058226E+03  0.22100637935E+03  0.12508968137E+03 0.  0.
          5    1    3    3  502    0 -0.37258496281E+02  0.33896214284E+02 -0.15525934935E+03  0.16327916845E+03  0.41800000000E+01 0. -1.
         -5    1    3    3    0  502  0.42524385826E+02 -0.28105803276E+02 -0.26771232908E+02  0.57727210907E+02  0.41800000000E+01 0. -1.
        -11    1    1    2    0    0  0.23165944482E+02  0.10404335336E+02 -0.49571991677E+02  0.55698236385E+02  0.00000000000E+00 0. -1.
         11    1    1    2    0    0 -0.28431834027E+02 -0.16194746344E+02  0.20176253518E+02  0.38441126431E+02  0.00000000000E+00 0.  1.
</event>
<event>
 7    1  0.3001243E-009  0.6996618E+02  0.7561462E-02  0.1360208E+00
         -1   -1    0    0    0  501 -0.00000000000E+00  0.00000000000E+00  0.66100823748E+02  0.66100823748E+02  0.00000000000E+00 0.  1.
          1   -1    0    0  501    0  0.00000000000E+00 -0.00000000000E+00 -0.26199162361E+03  0.26199162361E+03  0.00000000000E+00 0. -1.
         25    2    1    2    0    0  0.20791060571E+02 -0.49691379493E+02 -0.46407884821E+02  0.14388523310E+03  0.12509103540E+03 0.  0.
          5    1    3    3  502    0  0.34314572645E+01 -0.98651373869E+01 -0.84929386372E+02  0.85671284011E+02  0.41800000000E+01 0.  1.
         -5    1    3    3    0  502  0.17359603307E+02 -0.39826242106E+02  0.38521501551E+02  0.58213949093E+02  0.41800000000E+01 0.  1.
        -11    1    1    2    0    0  0.23601969440E+02  0.24386805087E+02 -0.95789439382E+01  0.35263655380E+02  0.00000000000E+00 0.  1.
         11    1    1    2    0    0 -0.44393030012E+02  0.25304574406E+02 -0.13990397110E+03  0.14894355887E+03  0.00000000000E+00 0. -1.
</event>
<event>
 7    1  0.3001243E-009  0.9133099E+02  0.7561462E-02  0.1299660E+00
          3   -1    0    0  501    0  0.00000000000E+00  0.00000000000E+00  0.13264118025E+03  0.13264118025E+03  0.00000000000E+00 0. -1.
         -3   -1    0    0    0  501 -0.00000000000E+00 -0.00000000000E+00 -0.16808926554E+03  0.16808926554E+03  0.00000000000E+00 0.  1.
         25    2    1    2    0    0  0.12869886275E+02 -0.16014335539E+02 -0.12275270887E+03  0.17645920386E+03  0.12509008824E+03 0.  0.
          5    1    3    3  502    0  0.67497507026E+02 -0.20271445558E+02 -0.56792232844E+02  0.90607257276E+02  0.41800000000E+01 0. -1.
         -5    1    3    3    0  502 -0.54627620751E+02  0.42571100194E+01 -0.65960476029E+02  0.85851946586E+02  0.41800000000E+01 0. -1.
        -11    1    1    2    0    0  0.15513662640E+02 -0.10123610837E+02  0.83464381696E+02  0.85495404770E+02  0.00000000000E+00 0. -1.
         11    1    1    2    0    0 -0.28383548915E+02  0.26137946376E+02  0.38402418871E+01  0.38775837160E+02  0.00000000000E+00 0.  1.
</event>
<event>
 7    1  0.3001243E-009  0.1000137E+03  0.7561462E-02  0.1280267E+00
         -1   -1    0    0    0  501 -0.00000000000E+00  0.00000000000E+00  0.50102167485E+02  0.50102167485E+02  0.00000000000E+00 0.  1.
          1   -1    0    0  501    0  0.00000000000E+00 -0.00000000000E+00 -0.27845264630E+03  0.27845264630E+03  0.00000000000E+00 0. -1.
         25    2    1    2    0    0  0.26744228309E+02  0.28169762087E+02 -0.15393501536E+03  0.20211485959E+03  0.12508252583E+03 0.  0.
          5    1    3    3  502    0 -0.21419300788E+02 -0.38168207486E+02 -0.29150198052E+02  0.52752298105E+02  0.41800000000E+01 0. -1.
         -5    1    3    3    0  502  0.48163529097E+02  0.66337969573E+02 -0.12478481731E+03  0.14936256149E+03  0.41800000000E+01 0. -1.
        -11    1    1    2    0    0  0.82831548697E+01 -0.36948079168E+02 -0.81294129500E+02  0.89680023974E+02  0.00000000000E+00 0. -1.
         11    1    1    2    0    0 -0.35027383178E+02  0.87783170805E+01  0.68786660496E+01  0.36759930219E+02  0.00000000000E+00 0.  1.
</event>
<event>
 7    1  0.3001243E-009  0.2058181E+03  0.7561462E-02  0.1144921E+00
         -2   -1    0    0    0  501 -0.00000000000E+00  0.00000000000E+00  0.32110438920E+02  0.32110438920E+02  0.00000000000E+00 0.  1.
          2   -1    0    0  501    0  0.00000000000E+00 -0.00000000000E+00 -0.16315312711E+04  0.16315312711E+04  0.00000000000E+00 0. -1.
         25    2    1    2    0    0 -0.18081253158E+03  0.50487968210E+02 -0.87707706681E+03  0.90562359712E+03  0.12509081513E+03 0.  0.
          5    1    3    3  502    0 -0.47917920982E+02  0.58558577503E+02 -0.17024158072E+03  0.18634618954E+03  0.41800000000E+01 0.  1.
         -5    1    3    3    0  502 -0.13289461060E+03 -0.80706092922E+01 -0.70683548609E+03  0.71927740758E+03  0.41800000000E+01 0.  1.
        -11    1    1    2    0    0  0.60857001028E+00 -0.19851463142E+02 -0.93228465591E+01  0.21940064136E+02  0.00000000000E+00 0.  1.
         11    1    1    2    0    0  0.18020396157E+03 -0.30636505068E+02 -0.71302091883E+03  0.73607804878E+03  0.00000000000E+00 0. -1.
</event>
<event>
 7    1  0.3001243E-009  0.1123365E+03  0.7561462E-02  0.1256303E+00
         -1   -1    0    0    0  501 -0.00000000000E+00  0.00000000000E+00  0.11413648455E+03  0.11413648455E+03  0.00000000000E+00 0.  1.
          1   -1    0    0  501    0  0.00000000000E+00 -0.00000000000E+00 -0.15153689072E+03  0.15153689072E+03  0.00000000000E+00 0. -1.
         25    2    1    2    0    0  0.72546114361E+02  0.13796994010E+02 -0.71919054031E+01  0.14543756392E+03  0.12508823183E+03 0.  0.
          5    1    3    3  502    0 -0.29635700625E+02  0.12096807790E+02  0.22008154132E+02  0.39069665452E+02  0.41800000000E+01 0.  1.
         -5    1    3    3    0  502  0.10218181499E+03  0.17001862194E+01 -0.29200059536E+02  0.10636789847E+03  0.41800000000E+01 0.  1.
        -11    1    1    2    0    0 -0.63408904407E+02  0.10390474612E+02 -0.54877409605E+02  0.84499592932E+02  0.00000000000E+00 0. -1.
         11    1    1    2    0    0 -0.91372099547E+01 -0.24187468621E+02  0.24668908831E+02  0.35736218420E+02  0.00000000000E+00 0.  1.
</event>
<event>
 7    1  0.3001243E-009  0.1756853E+03  0.7561462E-02  0.1172045E+00
         -2   -1    0    0    0  501 -0.00000000000E+00  0.00000000000E+00  0.26952340673E+02  0.26952340673E+02  0.00000000000E+00 0.  1.
          2   -1    0    0  501    0  0.00000000000E+00 -0.00000000000E+00 -0.11940406251E+04  0.11940406251E+04  0.00000000000E+00 0. -1.
         25    2    1    2    0    0  0.10618920914E+03 -0.90581538544E+02 -0.69977495399E+03  0.72443996815E+03  0.12508844052E+03 0.  0.
          5    1    3    3  502    0 -0.13604886228E+02  0.19032551451E+02 -0.64850798848E+02  0.69068295586E+02  0.41800000000E+01 0. -1.
         -5    1    3    3    0  502  0.11979409536E+03 -0.10961408999E+03 -0.63492415515E+03  0.65537167256E+03  0.41800000000E+01 0. -1.
        -11    1    1    2    0    0 -0.45205937340E+02 -0.11154549444E+02 -0.17506580656E+03  0.18115197313E+03  0.00000000000E+00 0. -1.
         11    1    1    2    0    0 -0.60983271796E+02  0.10173608799E+03 -0.29224752385E+03  0.31540102446E+03  0.00000000000E+00 0.  1.
</event>
<event>
 7    1  0.3001243E-009  0.2092996E+03  0.7561462E-02  0.1142122E+00
         -1   -1    0    0    0  501 -0.00000000000E+00  0.00000000000E+00  0.60957441213E+02  0.60957441213E+02  0.00000000000E+00 0.  1.
          1   -1    0    0  501    0  0.00000000000E+00 -0.00000000000E+00 -0.86817855878E+03  0.86817855878E+03  0.00000000000E+00 0. -1.
         25    2    1    2    0    0 -0.21490897485E+01 -0.19178622970E+03 -0.28667666270E+03  0.36690383779E+03  0.12509332817E+03 0.  0.
          5    1    3    3  502    0 -0.51976949067E+02 -0.14505721317E+03 -0.23543469604E+03  0.28140747472E+03  0.41800000000E+01 0.  1.
         -5    1    3    3    0  502  0.49827859318E+02 -0.46729016528E+02 -0.51241966660E+02  0.85496363064E+02  0.41800000000E+01 0.  1.
        -11    1    1    2    0    0  0.21061007443E+02  0.11661248125E+03 -0.41299473362E+03  0.42965880279E+03  0.00000000000E+00 0.  1.
         11    1    1    2    0    0 -0.18911917694E+02  0.75173748452E+02 -0.10754972124E+03  0.13257335941E+03  0.00000000000E+00 0. -1.
</event>
<event>
 7    1  0.3001243E-009  0.1085673E+03  0.7561462E-02  0.1263246E+00
         -1   -1    0    0    0  501 -0.00000000000E+00  0.00000000000E+00  0.14752394546E+02  0.14752394546E+02  0.00000000000E+00 0.  1.
          1   -1    0    0  501    0  0.00000000000E+00 -0.00000000000E+00 -0.95167720028E+03  0.95167720028E+03  0.00000000000E+00 0. -1.
         25    2    1    2    0    0 -0.24529051361E+02  0.45600181053E+01 -0.68644393270E+03  0.69819502179E+03  0.12509415489E+03 0.  0.
          5    1    3    3  502    0 -0.69461173514E+02  0.29915168449E+02 -0.41749830503E+03  0.42431365643E+03  0.41800000000E+01 0. -1.
         -5    1    3    3    0  502  0.44932122153E+02 -0.25355150344E+02 -0.26894562767E+03  0.27388136536E+03  0.41800000000E+01 0. -1.
        -11    1    1    2    0    0  0.56970761383E+02 -0.86699450511E+00 -0.10853366637E+03  0.12258048812E+03  0.00000000000E+00 0.  1.
         11    1    1    2    0    0 -0.32441710022E+02 -0.36930236002E+01 -0.14194720666E+03  0.14565408491E+03  0.00000000000E+00 0. -1.
</event>
<event>
 7    1  0.3001243E-009  0.5673915E+03  0.7561462E-02  0.9975467E-01
         -2   -1    0    0    0  501 -0.00000000000E+00  0.00000000000E+00  0.68447486916E+03  0.68447486916E+03  0.00000000000E+00 0. -1.
          2   -1    0    0  501    0  0.00000000000E+00 -0.00000000000E+00 -0.85840648131E+03  0.85840648131E+03  0.00000000000E+00 0.  1.
         25    2    1    2    0    0 -0.47332243306E+03 -0.30729708399E+03 -0.59735776551E+03  0.83123331335E+03  0.12508756026E+03 0.  0.
          5    1    3    3  502    0 -0.37070880101E+03 -0.27503233838E+03 -0.42180249766E+03  0.62530202441E+03  0.41800000000E+01 0. -1.
         -5    1    3    3    0  502 -0.10261363206E+03 -0.32264745607E+02 -0.17555526785E+03  0.20593128894E+03  0.41800000000E+01 0. -1.
        -11    1    1    2    0    0  0.44782581290E+02  0.16931400032E+02  0.70187432957E+02  0.84961330257E+02  0.00000000000E+00 0. -1.
         11    1    1    2    0    0  0.42853985177E+03  0.29036568396E+03  0.35323872040E+03  0.62668670687E+03  0.00000000000E+00 0.  1.
</event>
<event>
 7    1  0.3001243E-009  0.1676458E+03  0.7561462E-02  0.1180325E+00
          2   -1    0    0  501    0  0.00000000000E+00  0.00000000000E+00  0.19380295484E+03  0.19380295484E+03  0.00000000000E+00 0. -1.
         -2   -1    0    0    0  501 -0.00000000000E+00 -0.00000000000E+00 -0.19374748907E+03  0.19374748907E+03  0.00000000000E+00 0.  1.
         25    2    1    2    0    0  0.90166682661E+02  0.12661399482E+03 -0.26330853090E+02  0.20125287596E+03  0.12509305301E+03 0.  0.
          5    1    3    3  502    0  0.59541410842E+02  0.11909912315E+03 -0.67405729879E+02  0.14930098982E+03  0.41800000000E+01 0. -1.
         -5    1    3    3    0  502  0.30625271819E+02  0.75148716636E+01  0.41074876790E+02  0.51951886139E+02  0.41800000000E+01 0. -1.
        -11    1    1    2    0    0 -0.33294242118E+02 -0.20821847289E+01 -0.23262358952E+02  0.40669145497E+02  0.00000000000E+00 0.  1.
         11    1    1    2    0    0 -0.56872440543E+02 -0.12453181009E+03  0.49648677815E+02  0.14562842245E+03  0.00000000000E+00 0. -1.
</event>
<event>
 7    1  0.3001243E-009  0.8743309E+02  0.7561462E-02  0.1309190E+00
         -2   -1    0    0    0  501 -0.00000000000E+00  0.00000000000E+00  0.35348647978E+03  0.35348647978E+03  0.00000000000E+00 0. -1.
          2   -1    0    0  501    0  0.00000000000E+00 -0.00000000000E+00 -0.44492227884E+02  0.44492227884E+02  0.00000000000E+00 0.  1.
         25    2    1    2    0    0  0.48474239951E+02 -0.18822321452E+02  0.11638609232E+03  0.17859799546E+03  0.12508992674E+03 0.  0.
          5    1    3    3  502    0  0.20981071572E+02  0.22269959645E+02  0.12454283839E+03  0.12831425276E+03  0.41800000000E+01 0.  1.
         -5    1    3    3    0  502  0.27493168379E+02 -0.41092281097E+02 -0.81567460652E+01  0.50283742697E+02  0.41800000000E+01 0.  1.
        -11    1    1    2    0    0 -0.36261397671E+01  0.43179861662E+02  0.13797022622E+03  0.14461477333E+03  0.00000000000E+00 0. -1.
         11    1    1    2    0    0 -0.44848100184E+02 -0.24357540209E+02  0.54637933352E+02  0.74765938877E+02  0.00000000000E+00 0.  1.
</event>
<event>
 7    1  0.3001243E-009  0.1351847E+03  0.7561462E-02  0.1219959E+00
          2   -1    0    0  501    0  0.00000000000E+00  0.00000000000E+00  0.13976681855E+04  0.13976681855E+04  0.00000000000E+00 0. -1.
         -2   -1    0    0    0  501 -0.00000000000E+00 -0.00000000000E+00 -0.15084431898E+02  0.15084431898E+02  0.00000000000E+00 0.  1.
         25    2    1    2    0    0 -0.64222007892E+02  0.50384626569E+02  0.99410003421E+03  0.10052531537E+04  0.12504378459E+03 0.  0.
          5    1    3    3  502    0 -0.33822243632E+02  0.91668329190E+02  0.63455079597E+03  0.64204299841E+03  0.41800000000E+01 0.  1.
         -5    1    3    3    0  502 -0.30399764260E+02 -0.41283702621E+02  0.35954923824E+03  0.36321015527E+03  0.41800000000E+01 0.  1.
        -11    1    1    2    0    0  0.64574750956E+02 -0.73600905335E+02  0.28202995489E+03  0.29854294027E+03  0.00000000000E+00 0.  1.
         11    1    1    2    0    0 -0.35274306414E+00  0.23216278766E+02  0.10645376451E+03  0.10895652347E+03  0.00000000000E+00 0. -1.
</event>
<event>
 7    1  0.3001243E-009  0.1062984E+03  0.7561462E-02  0.1267582E+00
          1   -1    0    0  501    0  0.00000000000E+00  0.00000000000E+00  0.15145939362E+03  0.15145939362E+03  0.00000000000E+00 0.  1.
         -1   -1    0    0    0  501 -0.00000000000E+00 -0.00000000000E+00 -0.14812055528E+03  0.14812055528E+03  0.00000000000E+00 0. -1.
         25    2    1    2    0    0  0.68119949865E+02 -0.76211740676E+02  0.13195546336E+02  0.16208060621E+03  0.12508974171E+03 0.  0.
          5    1    3    3  502    0  0.30008905644E+02 -0.13447786689E+02  0.64422789858E+02  0.72450987832E+02  0.41800000000E+01 0.  1.
         -5    1    3    3    0  502  0.38111044221E+02 -0.62763953987E+02 -0.51227243522E+02  0.89629618378E+02  0.41800000000E+01 0.  1.
        -11    1    1    2    0    0 -0.53206417306E+02  0.73508611550E+02  0.29424758377E+02  0.95395257849E+02  0.00000000000E+00 0.  1.
         11    1    1    2    0    0 -0.14913532560E+02  0.27031291256E+01 -0.39281466364E+02  0.42104084840E+02  0.00000000000E+00 0. -1.
</event>
<event>
 7    1  0.3001243E-009  0.1163162E+03  0.7561462E-02  0.1249301E+00
          2   -1    0    0  501    0  0.00000000000E+00  0.00000000000E+00  0.52536414387E+03  0.52536414387E+03  0.00000000000E+00 0.  1.
         -2   -1    0    0    0  501 -0.00000000000E+00 -0.00000000000E+00 -0.31047317444E+02  0.31047317444E+02  0.00000000000E+00 0. -1.
         25    2    1    2    0    0  0.26231614701E+02 -0.58675461043E+02  0.32124343732E+03  0.35068058386E+03  0.12509443845E+03 0.  0.
          5    1    3    3  502    0 -0.20286935050E+02 -0.78254318900E+02  0.13258832889E+03  0.15534617961E+03  0.41800000000E+01 0. -1.
         -5    1    3    3    0  502  0.46518549751E+02  0.19578857857E+02  0.18865510843E+03  0.19533440425E+03  0.41800000000E+01 0. -1.
        -11    1    1    2    0    0 -0.15613914814E+02 -0.17887712714E+02  0.86374653788E+02  0.89578710746E+02  0.00000000000E+00 0.  1.
         11    1    1    2    0    0 -0.10617699887E+02  0.76563173757E+02  0.86698735308E+02  0.11615216671E+03  0.00000000000E+00 0. -1.
</event>
<event>
 7    1  0.3001243E-009  0.1225624E+03  0.7561462E-02  0.1238929E+00
         -2   -1    0    0    0  501 -0.00000000000E+00  0.00000000000E+00  0.43696892684E+03  0.43696892684E+03  0.00000000000E+00 0.  1.
          2   -1    0    0  501    0  0.00000000000E+00 -0.00000000000E+00 -0.61363851240E+02  0.61363851240E+02  0.00000000000E+00 0. -1.
         25    2    1    2    0    0 -0.10929846217E+02  0.91255683545E+02  0.32347639260E+03  0.35879338757E+03  0.12509459250E+03 0.  0.
          5    1    3    3  502    0  0.13583680757E+01 -0.29587406801E+02  0.36839627902E+02  0.47454087169E+02  0.41800000000E+01 0.  1.
         -5    1    3    3    0  502 -0.12288214293E+02  0.12084309035E+03  0.28663676470E+03  0.31133930040E+03  0.41800000000E+01 0.  1.
        -11    1    1    2    0    0 -0.21715249065E+01 -0.56339115310E+02 -0.18776016828E+02  0.59425165059E+02  0.00000000000E+00 0. -1.
         11    1    1    2    0    0  0.13101371124E+02 -0.34916568235E+02  0.70904699822E+02  0.80114225450E+02  0.00000000000E+00 0.  1.
</event>
<event>
 7    1  0.3001243E-009  0.1048424E+03  0.7561462E-02  0.1270431E+00
          1   -1    0    0  501    0  0.00000000000E+00  0.00000000000E+00  0.23271323610E+03  0.23271323610E+03  0.00000000000E+00 0. -1.
         -1   -1    0    0    0  501 -0.00000000000E+00 -0.00000000000E+00 -0.55751401591E+02  0.55751401591E+02  0.00000000000E+00 0.  1.
         25    2    1    2    0    0  0.33184349620E+00 -0.24681878256E+02  0.13972810664E+03  0.18916211649E+03  0.12509619216E+03 0.  0.
          5    1    3    3  502    0 -0.30240960906E+02  0.43206788230E+02  0.60085075326E+02  0.80056423494E+02  0.41800000000E+01 0.  1.
         -5    1    3    3    0  502  0.30572804402E+02 -0.67888666485E+02  0.79643031316E+02  0.10910569299E+03  0.41800000000E+01 0.  1.
        -11    1    1    2    0    0 -0.38340309996E+02  0.21767238143E+02  0.41992636259E+02  0.60886562778E+02  0.00000000000E+00 0. -1.
         11    1    1    2    0    0  0.38008466500E+02  0.29146401129E+01 -0.47589083932E+01  0.38415958426E+02  0.00000000000E+00 0.  1.
</event>
<event>
 7    1  0.3001243E-009  0.1382407E+03  0.7561462E-02  0.1215716E+00
         -2   -1    0    0    0  501 -0.00000000000E+00  0.00000000000E+00  0.21385114470E+02  0.21385114470E+02  0.00000000000E+00 0.  1.
          2   -1    0    0  501    0  0.00000000000E+00 -0.00000000000E+00 -0.99526198096E+03  0.99526198096E+03  0.00000000000E+00 0. -1.
         25    2    1    2    0    0 -0.64563295347E+02  0.62893195469E+02 -0.64896217865E+03  0.66702558098E+03  0.12508894122E+03 0.  0.
          5    1    3    3  502    0  0.36579180105E+02  0.99159276409E+01 -0.21028378000E+03  0.21371266357E+03  0.41800000000E+01 0.  1.
         -5    1    3    3    0  502 -0.10114247545E+03  0.52977267828E+02 -0.43867839865E+03  0.45331291741E+03  0.41800000000E+01 0.  1.
        -11    1    1    2    0    0  0.56963557763E+02  0.36903194443E+01 -0.10241975884E+03  0.11725302713E+03  0.00000000000E+00 0. -1.
         11    1    1    2    0    0  0.75997375844E+01 -0.66583514913E+02 -0.22249492899E+03  0.23236848732E+03  0.00000000000E+00 0.  1.
</event>
<event>
 7    1  0.3001243E-009  0.1312369E+03  0.7561462E-02  0.1225632E+00
          2   -1    0    0  501    0  0.00000000000E+00  0.00000000000E+00  0.18566926731E+03  0.18566926731E+03  0.00000000000E+00 0. -1.
         -2   -1    0    0    0  501 -0.00000000000E+00 -0.00000000000E+00 -0.11942149747E+03  0.11942149747E+03  0.00000000000E+00 0.  1.
         25    2    1    2    0    0  0.35013682159E+01  0.93905309791E+02 -0.38882123223E+01  0.15650432138E+03  0.12509203664E+03 0.  0.
          5    1    3    3  502    0  0.61169517028E+01  0.12028456340E+03  0.18031339684E+02  0.12185399010E+03  0.41800000000E+01 0. -1.
         -5    1    3    3    0  502 -0.26155834869E+01 -0.26379253613E+02 -0.21919552007E+02  0.34650331288E+02  0.41800000000E+01 0. -1.
        -11    1    1    2    0    0 -0.18475388532E+02  0.15146623013E+01 -0.11759661820E+02  0.21952763594E+02  0.00000000000E+00 0.  1.
         11    1    1    2    0    0  0.14974020316E+02 -0.95419972092E+02  0.81895643979E+02  0.12663367981E+03  0.00000000000E+00 0. -1.
</event>
<event>
 7    1  0.3001243E-009  0.1456865E+03  0.7561462E-02  0.1205876E+00
         -2   -1    0    0    0  501 -0.00000000000E+00  0.00000000000E+00  0.12517146269E+03  0.12517146269E+03  0.00000000000E+00 0.  1.
          2   -1    0    0  501    0  0.00000000000E+00 -0.00000000000E+00 -0.38597951946E+03  0.38597951946E+03  0.00000000000E+00 0. -1.
         25    2    1    2    0    0 -0.11197253967E+03 -0.21173944829E+02  0.42045563953E+02  0.17435897353E+03  0.12508811544E+03 0.  0.
          5    1    3    3  502    0 -0.48932525421E+00 -0.46707327726E+02 -0.11073522772E+02  0.48186193137E+02  0.41800000000E+01 0. -1.
         -5    1    3    3    0  502 -0.11148321441E+03  0.25533382897E+02  0.53119086725E+02  0.12617278040E+03  0.41800000000E+01 0. -1.
        -11    1    1    2    0    0  0.11006507331E+03  0.35445514041E+02 -0.30078493213E+03  0.32224568302E+03  0.00000000000E+00 0. -1.
         11    1    1    2    0    0  0.19074663606E+01 -0.14271569212E+02 -0.20686885923E+01  0.14546325591E+02  0.00000000000E+00 0.  1.
</event>
<event>
 7    1  0.3001243E-009  0.1316162E+03  0.7561462E-02  0.1225077E+00
          2   -1    0    0  501    0  0.00000000000E+00  0.00000000000E+00  0.43560773600E+03  0.43560773600E+03  0.00000000000E+00 0.  1.
         -2   -1    0    0    0  501 -0.00000000000E+00 -0.00000000000E+00 -0.60220393908E+02  0.60220393908E+02  0.00000000000E+00 0. -1.
         25    2    1    2    0    0 -0.95398845489E+02  0.44291616708E+02  0.11466918986E+03  0.19964654922E+03  0.12508810687E+03 0.  0.
          5    1    3    3  502    0  0.19371222359E+02  0.36705073204E+02  0.57765094086E+02  0.71251562435E+02  0.41800000000E+01 0.  1.
         -5    1    3    3    0  502 -0.11477006785E+03  0.75865435041E+01  0.56904095775E+02  0.12839498679E+03  0.41800000000E+01 0.  1.
        -11    1    1    2    0    0  0.88060016161E+02 -0.35438520777E+02  0.26679276133E+03  0.28317632793E+03  0.00000000000E+00 0.  1.
         11    1    1    2    0    0  0.73388293281E+01 -0.88530959310E+01 -0.60746091020E+01  0.13005252755E+02  0.00000000000E+00 0. -1.
</event>
<event>
 7    1  0.3001243E-009  0.1347701E+03  0.7561462E-02  0.1220545E+00
          2   -1    0    0  501    0  0.00000000000E+00  0.00000000000E+00  0.11713282766E+04  0.11713282766E+04  0.00000000000E+00 0.  1.
         -2   -1    0    0    0  501 -0.00000000000E+00 -0.00000000000E+00 -0.31537040402E+02  0.31537040402E+02  0.00000000000E+00 0. -1.
         25    2    1    2    0    0 -0.97440972699E+02 -0.19111546963E+01  0.99200756526E+03  0.10046016900E+04  0.12508856974E+03 0.  0.
          5    1    3    3  502    0 -0.94314569110E+02  0.40675252318E+02  0.48458072952E+03  0.49536417908E+03  0.41800000000E+01 0. -1.
         -5    1    3    3    0  502 -0.31264035896E+01 -0.42586407014E+02  0.50742683575E+03  0.50923751089E+03  0.41800000000E+01 0. -1.
        -11    1    1    2    0    0  0.13618195906E+02  0.32001158317E+02  0.77037756290E+02  0.84524228997E+02  0.00000000000E+00 0.  1.
         11    1    1    2    0    0  0.83822776793E+02 -0.30090003620E+02  0.70745914657E+02  0.11373939805E+03  0.00000000000E+00 0. -1.
</event>
<event>
 7    1  0.3001243E-009  0.1989078E+03  0.7561462E-02  0.1150664E+00
          2   -1    0    0  501    0  0.00000000000E+00  0.00000000000E+00  0.30469865491E+03  0.30469865491E+03  0.00000000000E+00 0.  1.
         -2   -1    0    0    0  501 -0.00000000000E+00 -0.00000000000E+00 -0.17720086856E+03  0.17720086856E+03  0.00000000000E+00 0. -1.
         25    2    1    2    0    0 -0.14608641609E+03  0.10236494528E+03 -0.39186891221E+02  0.22136187123E+03  0.12508254316E+03 0.  0.
          5    1    3    3  502    0 -0.10694863377E+03  0.34477411563E+01 -0.41578470356E+02  0.11487444790E+03  0.41800000000E+01 0.  1.
         -5    1    3    3    0  502 -0.39137782318E+02  0.98917204120E+02  0.23915791355E+01  0.10648742333E+03  0.41800000000E+01 0.  1.
        -11    1    1    2    0    0  0.81910947009E+02 -0.29231299325E+02  0.13029961808E+03  0.15665842643E+03  0.00000000000E+00 0.  1.
         11    1    1    2    0    0  0.64175469078E+02 -0.73133645951E+02  0.36385059490E+02  0.10387922581E+03  0.00000000000E+00 0. -1.
</event>
<event>
 7    1  0.3001243E-009  0.1040251E+03  0.7561462E-02  0.1272052E+00
          2   -1    0    0  501    0  0.00000000000E+00  0.00000000000E+00  0.31984365798E+03  0.31984365798E+03  0.00000000000E+00 0. -1.
         -2   -1    0    0    0  501 -0.00000000000E+00 -0.00000000000E+00 -0.54153124465E+02  0.54153124465E+02  0.00000000000E+00 0.  1.
         25    2    1    2    0    0 -0.17003299540E+02 -0.73390001075E+02  0.18151287741E+03  0.23295912867E+03  0.12509127273E+03 0.  0.
          5    1    3    3  502    0 -0.56952276736E+02 -0.43081092157E+02  0.38253127134E+02  0.81119149788E+02  0.41800000000E+01 0.  1.
         -5    1    3    3    0  502  0.39948977196E+02 -0.30308908918E+02  0.14325975028E+03  0.15183997889E+03  0.41800000000E+01 0.  1.
        -11    1    1    2    0    0 -0.54255823924E+01  0.59646705281E+02  0.79736727286E+01  0.60421402267E+02  0.00000000000E+00 0.  1.
         11    1    1    2    0    0  0.22428881933E+02  0.13743295794E+02  0.76203983378E+02  0.80616251505E+02  0.00000000000E+00 0. -1.
</event>
<event>
 7    1  0.3001243E-009  0.1398849E+03  0.7561462E-02  0.1213484E+00
          1   -1    0    0  501    0  0.00000000000E+00  0.00000000000E+00  0.12963499586E+03  0.12963499586E+03  0.00000000000E+00 0. -1.
         -1   -1    0    0    0  501 -0.00000000000E+00 -0.00000000000E+00 -0.17392656617E+03  0.17392656617E+03  0.00000000000E+00 0.  1.
         25    2    1    2    0    0 -0.70117076926E+02 -0.69288533442E+02  0.31148687297E+01  0.15929560341E+03  0.12509229200E+03 0.  0.
          5    1    3    3  502    0  0.23011369882E+02 -0.57476818219E+02 -0.14418861356E+02  0.63706229988E+02  0.41800000000E+01 0. -1.
         -5    1    3    3    0  502 -0.93128446808E+02 -0.11811715223E+02  0.17533730086E+02  0.95589373427E+02  0.41800000000E+01 0. -1.
        -11    1    1    2    0    0 -0.14403281829E+02  0.23659318104E+02 -0.39017682949E+02  0.47849738174E+02  0.00000000000E+00 0.  1.
         11    1    1    2    0    0  0.84520358755E+02  0.45629215338E+02 -0.83887560900E+01  0.96416220446E+02  0.00000000000E+00 0. -1.
</event>
<event>
 7    1  0.3001243E-009  0.2318229E+03  0.7561462E-02  0.1125363E+00
         -2   -1    0    0    0  501 -0.00000000000E+00  0.00000000000E+00  0.51646977360E+02  0.51646977360E+02  0.00000000000E+00 0.  1.
          2   -1    0    0  501    0  0.00000000000E+00 -0.00000000000E+00 -0.12606667493E+04  0.12606667493E+04  0.00000000000E+00 0. -1.
         25    2    1    2    0    0  0.30226209203E+02 -0.21185350937E+03 -0.40063782235E+03  0.47111913610E+03  0.12508813911E+03 0.  0.
          5    1    3    3  502    0  0.72173391051E+02 -0.16168645811E+03 -0.33159737599E+03  0.37593324045E+03  0.41800000000E+01 0. -1.
         -5    1    3    3    0  502 -0.41947181848E+02 -0.50167051263E+02 -0.69040446366E+02  0.95185895656E+02  0.41800000000E+01 0. -1.
        -11    1    1    2    0    0  0.42788415644E+01  0.15092398723E+03 -0.66100006458E+03  0.67802466311E+03  0.00000000000E+00 0. -1.
         11    1    1    2    0    0 -0.34505050767E+02  0.60929522136E+02 -0.14738188502E+03  0.16316992746E+03  0.00000000000E+00 0.  1.
</event>
<event>
 7    1  0.3001243E-009  0.2221913E+03  0.7561462E-02  0.1132260E+00
          2   -1    0    0  501    0  0.00000000000E+00  0.00000000000E+00  0.48167517418E+02  0.48167517418E+02  0.00000000000E+00 0. -1.
         -2   -1    0    0    0  501 -0.00000000000E+00 -0.00000000000E+00 -0.12362485709E+04  0.12362485709E+04  0.00000000000E+00 0.  1.
         25    2    1    2    0    0  0.10664388562E+03 -0.18045424135E+03 -0.45919758104E+03  0.52004508442E+03  0.12509124607E+03 0.  0.
          5    1    3    3  502    0  0.33527945123E+02 -0.10761616320E+03 -0.35836952869E+03  0.37570141492E+03  0.41800000000E+01 0.  1.
         -5    1    3    3    0  502  0.73115940501E+02 -0.72838078150E+02 -0.10082805235E+03  0.14434366950E+03  0.41800000000E+01 0.  1.
        -11    1    1    2    0    0 -0.40162062799E+02  0.14979644181E+03 -0.44716526629E+03  0.47329561655E+03  0.00000000000E+00 0.  1.
         11    1    1    2    0    0 -0.66481822825E+02  0.30657799538E+02 -0.28171820613E+03  0.29107538732E+03  0.00000000000E+00 0. -1.
</event>
<event>
 7    1  0.3001243E-009  0.9293173E+02  0.7561462E-02  0.1295903E+00
         -1   -1    0    0    0  501 -0.00000000000E+00  0.00000000000E+00  0.47646589193E+02  0.47646589193E+02  0.00000000000E+00 0.  1.
          1   -1    0    0  501    0  0.00000000000E+00 -0.00000000000E+00 -0.38228855248E+03  0.38228855248E+03  0.00000000000E+00 0. -1.
         25    2    1    2    0    0 -0.40186061446E+02  0.35624529116E+02 -0.87209172818E+02  0.16166973802E+03  0.12509051826E+03 0.  0.
          5    1    3    3  502    0 -0.21768757228E+02  0.52666494180E+02 -0.11226104695E+03  0.12596687447E+03  0.41800000000E+01 0.  1.
         -5    1    3    3    0  502 -0.18417304218E+02 -0.17041965065E+02  0.25051874137E+02  0.35702863550E+02  0.41800000000E+01 0.  1.
        -11    1    1    2    0    0 -0.13413862027E+02 -0.46668755274E+02 -0.10513989320E+03  0.11581149146E+03  0.00000000000E+00 0. -1.
         11    1    1    2    0    0  0.53599923473E+02  0.11044226158E+02 -0.14229289728E+03  0.15245391219E+03  0.00000000000E+00 0.  1.
</event>
<event>
 7    1  0.3001243E-009  0.1708259E+03  0.7561462E-02  0.1176989E+00
          1   -1    0    0  501    0  0.00000000000E+00  0.00000000000E+00  0.76505306156E+02  0.76505306156E+02  0.00000000000E+00 0. -1.
         -1   -1    0    0    0  501 -0.00000000000E+00 -0.00000000000E+00 -0.46860018829E+03  0.46860018829E+03  0.00000000000E+00 0.  1.
         25    2    1    2    0    0 -0.13870252810E+03  0.64091579232E+02 -0.17148212143E+03  0.26153357813E+03  0.12509025817E+03 0.  0.
          5    1    3    3  502    0 -0.30620385135E+02 -0.30332326252E+02 -0.80923449377E+02  0.91780907932E+02  0.41800000000E+01 0.  1.
         -5    1    3    3    0  502 -0.10808214296E+03  0.94423905484E+02 -0.90558672052E+02  0.16975267019E+03  0.41800000000E+01 0.  1.
        -11    1    1    2    0    0  0.93184174619E+02 -0.55461407203E+02 -0.77880447778E+02  0.13350888448E+03  0.00000000000E+00 0. -1.
         11    1    1    2    0    0  0.45518353478E+02 -0.86301720288E+01 -0.14273231292E+03  0.15006303184E+03  0.00000000000E+00 0.  1.
</event>
<event>
 7    1  0.3001243E-009  0.1182377E+03  0.7561462E-02  0.1246033E+00
         -3   -1    0    0    0  501 -0.00000000000E+00  0.00000000000E+00  0.58271096384E+03  0.58271096384E+03  0.00000000000E+00 0.  1.
          3   -1    0    0  501    0  0.00000000000E+00 -0.00000000000E+00 -0.27199844558E+02  0.27199844558E+02  0.00000000000E+00 0. -1.
         25    2    1    2    0    0  0.59022659825E+02  0.11820664183E+02  0.36333805233E+03  0.38895398382E+03  0.12508900346E+03 0.  0.
          5    1    3    3  502    0 -0.34902274708E+02  0.12473472176E+01  0.46581212848E+02  0.58369567801E+02  0.41800000000E+01 0. -1.
         -5    1    3    3    0  502  0.93924934533E+02  0.10573316965E+02  0.31675683948E+03  0.33058441602E+03  0.41800000000E+01 0. -1.
        -11    1    1    2    0    0 -0.76144818536E+02 -0.29886900820E+02  0.16463491522E+03  0.18383665450E+03  0.00000000000E+00 0.  1.
         11    1    1    2    0    0  0.17122158711E+02  0.18066236638E+02  0.27538151741E+02  0.37120170076E+02  0.00000000000E+00 0. -1.
</event>
<event>
 7    1  0.3001243E-009  0.1207177E+03  0.7561462E-02  0.1241918E+00
         -1   -1    0    0    0  501 -0.00000000000E+00  0.00000000000E+00  0.67644813414E+02  0.67644813414E+02  0.00000000000E+00 0.  1.
          1   -1    0    0  501    0  0.00000000000E+00 -0.00000000000E+00 -0.21907538664E+03  0.21907538664E+03  0.00000000000E+00 0. -1.
         25    2    1    2    0    0  0.48323254856E+02 -0.24658066707E+02 -0.87568336128E+02  0.16204433244E+03  0.12508794894E+03 0.  0.
          5    1    3    3  502    0  0.42483166327E+02  0.46878516513E+02 -0.31075758813E+02  0.70608709926E+02  0.41800000000E+01 0.  1.
         -5    1    3    3    0  502  0.58400885285E+01 -0.71536583220E+02 -0.56492577315E+02  0.91435622514E+02  0.41800000000E+01 0.  1.
        -11    1    1    2    0    0 -0.45436465923E+02 -0.28018683940E+02 -0.23868620158E+02  0.58474183309E+02  0.00000000000E+00 0. -1.
         11    1    1    2    0    0 -0.28867889325E+01  0.52676750647E+02 -0.39993616939E+02  0.66201684306E+02  0.00000000000E+00 0.  1.
</event>
<event>
 7    1  0.3001243E-009  0.1017632E+03  0.7561462E-02  0.1276631E+00
          1   -1    0    0  501    0  0.00000000000E+00  0.00000000000E+00  0.46572022070E+02  0.46572022070E+02  0.00000000000E+00 0. -1.
         -1   -1    0    0    0  501 -0.00000000000E+00 -0.00000000000E+00 -0.32933406082E+03  0.32933406082E+03  0.00000000000E+00 0.  1.
         25    2    1    2    0    0  0.22187663659E+02 -0.51457640896E+02 -0.19025759852E+03  0.23448969716E+03  0.12508910046E+03 0.  0.
          5    1    3    3  502    0  0.73413922546E+02 -0.41970037745E+02 -0.12265262214E+03  0.14903766708E+03  0.41800000000E+01 0.  1.
         -5    1    3    3    0  502 -0.51226258887E+02 -0.94876031504E+01 -0.67604976385E+02  0.85452030081E+02  0.41800000000E+01 0.  1.
        -11    1    1    2    0    0  0.92356432524E+01  0.20493261629E+02 -0.94616457501E+02  0.97249909555E+02  0.00000000000E+00 0.  1.
         11    1    1    2    0    0 -0.31423306911E+02  0.30964379267E+02  0.21120172711E+01  0.44166476174E+02  0.00000000000E+00 0. -1.
</event>
<event>
 7    1  0.3001243E-009  0.8375021E+02  0.7561462E-02  0.1318734E+00
         -1   -1    0    0    0  501 -0.00000000000E+00  0.00000000000E+00  0.23026673836E+02  0.23026673836E+02  0.00000000000E+00 0.  1.
          1   -1    0    0  501    0  0.00000000000E+00 -0.00000000000E+00 -0.89904308217E+03  0.89904308217E+03  0.00000000000E+00 0. -1.
         25    2    1    2    0    0  0.35064624634E+02 -0.52712743247E+02 -0.68014558517E+03  0.69444498381E+03  0.12509059645E+03 0.  0.
          5    1    3    3  502    0  0.52146145898E+02 -0.39515944703E+02 -0.66384628536E+03  0.66707577785E+03  0.41800000000E+01 0.  1.
         -5    1    3    3    0  502 -0.17081521264E+02 -0.13196798544E+02 -0.16299299808E+02  0.27369205958E+02  0.41800000000E+01 0.  1.
        -11    1    1    2    0    0 -0.47470915315E+02  0.38779689988E+02 -0.19942530854E+03  0.20863318491E+03  0.00000000000E+00 0. -1.
         11    1    1    2    0    0  0.12406290682E+02  0.13933053259E+02  0.35544853712E+01  0.18991587292E+02  0.00000000000E+00 0.  1.
</event>
<event>
 7    1  0.3001243E-009  0.1243855E+03  0.7561462E-02  0.1236033E+00
         -2   -1    0    0    0  501 -0.00000000000E+00  0.00000000000E+00  0.74808860449E+02  0.74808860449E+02  0.00000000000E+00 0.  1.
          2   -1    0    0  501    0  0.00000000000E+00 -0.00000000000E+00 -0.22603209594E+03  0.22603209594E+03  0.00000000000E+00 0. -1.
         25    2    1    2    0    0  0.32329935326E+02  0.66697545515E+02 -0.93070021572E+02  0.17263495662E+03  0.12508801715E+03 0.  0.
          5    1    3    3  502    0  0.38273663835E+02  0.10016402688E+03 -0.86346638453E+02  0.13773496287E+03  0.41800000000E+01 0.  1.
         -5    1    3    3    0  502 -0.59437285091E+01 -0.33466481361E+02 -0.67233831193E+01  0.34899993752E+02  0.41800000000E+01 0.  1.
        -11    1    1    2    0    0  0.16105907805E+02 -0.55107396998E+02 -0.87858558939E+01  0.58081122009E+02  0.00000000000E+00 0.  1.
         11    1    1    2    0    0 -0.48435843131E+02 -0.11590148517E+02 -0.49367358021E+02  0.70124877757E+02  0.00000000000E+00 0. -1.
</event>
<event>
 7    1  0.3001243E-009  0.1242569E+03  0.7561462E-02  0.1236235E+00
          2   -1    0    0  501    0  0.00000000000E+00  0.00000000000E+00  0.16454258471E+03  0.16454258471E+03  0.00000000000E+00 0. -1.
         -2   -1    0    0    0  501 -0.00000000000E+00 -0.00000000000E+00 -0.19406028035E+03  0.19406028035E+03  0.00000000000E+00 0.  1.
         25    2    1    2    0    0 -0.86372724862E+02  0.65349202694E+02 -0.10586043580E+03  0.19643246895E+03  0.12509403302E+03 0.  0.
          5    1    3    3  502    0 -0.74675488260E+02  0.40226605801E+02  0.20433261033E+01  0.84948548797E+02  0.41800000000E+01 0.  1.
         -5    1    3    3    0  502 -0.11697236601E+02  0.25122596893E+02 -0.10790376191E+03  0.11148392015E+03  0.41800000000E+01 0.  1.
        -11    1    1    2    0    0  0.91707665372E+01 -0.57203111214E+02  0.75095675927E+01  0.58418254826E+02  0.00000000000E+00 0. -1.
         11    1    1    2    0    0  0.77201958324E+02 -0.81460914802E+01  0.68833172565E+02  0.10375214128E+03  0.00000000000E+00 0.  1.
</event>
<event>
 6    1  0.3001243E-009  0.1403248E+03  0.7561462E-02  0.1212893E+00
          2   -1    0    0  501    0  0.00000000000E+00  0.00000000000E+00  0.11992622823E+04  0.11992622823E+04  0.00000000000E+00 0. -1.
         -2   -1    0    0    0  501 -0.00000000000E+00 -0.00000000000E+00 -0.22766722752E+02  0.22766722752E+02  0.00000000000E+00 0.  1.
          5    1    1    2  502    0 -0.52259071928E+02  0.86705167273E+01  0.35172741702E+03  0.35571876074E+03  0.41800000000E+01 0. -1.
         -5    1    1    2    0  502 -0.49721141688E+02 -0.65930115941E+02  0.11702498433E+03  0.14328744354E+03  0.41800000000E+01 0. -1.
        -11    1    1    2    0    0  0.65056456240E+02 -0.12175885209E+02  0.39719930718E+03  0.40267590479E+03  0.00000000000E+00 0. -1.
         11    1    1    2    0    0  0.36923757376E+02  0.69435484423E+02  0.31054385098E+03  0.32034689594E+03  0.00000000000E+00 0.  1.
</event>
<event>
 7    1  0.3001243E-009  0.6566507E+02  0.7561462E-02  0.1375487E+00
         -2   -1    0    0    0  501 -0.00000000000E+00  0.00000000000E+00  0.14997353965E+03  0.14997353965E+03  0.00000000000E+00 0.  1.
          2   -1    0    0  501    0  0.00000000000E+00 -0.00000000000E+00 -0.83597842846E+02  0.83597842846E+02  0.00000000000E+00 0. -1.
         25    2    1    2    0    0  0.21385365642E+02 -0.18445725228E+02  0.31459303845E+02  0.13202117024E+03  0.12506927261E+03 0.  0.
          5    1    3    3  502    0  0.44919988569E+02  0.21120022592E+02  0.59777012907E+02  0.77811467017E+02  0.41800000000E+01 0.  1.
         -5    1    3    3    0  502 -0.23534622926E+02 -0.39565747820E+02 -0.28317709062E+02  0.54209703222E+02  0.41800000000E+01 0.  1.
        -11    1    1    2    0    0 -0.19135982663E+02  0.26289586227E+01  0.64825348331E+02  0.67641873437E+02  0.00000000000E+00 0.  1.
         11    1    1    2    0    0 -0.22493829788E+01  0.15816766606E+02 -0.29908955375E+02  0.33908338816E+02  0.00000000000E+00 0. -1.
</event>
<event>
 7    1  0.3001243E-009  0.1076267E+03  0.7561462E-02  0.1265029E+00
          2   -1    0    0  501    0  0.00000000000E+00  0.00000000000E+00  0.73147783307E+03  0.73147783307E+03  0.00000000000E+00 0. -1.
         -2   -1    0    0    0  501 -0.00000000000E+00 -0.00000000000E+00 -0.29329113383E+02  0.29329113383E+02  0.00000000000E+00 0.  1.
         25    2    1    2    0    0 -0.73043568848E+02  0.44935652482E+02  0.48459902933E+03  0.50777408202E+03  0.12507487090E+03 0.  0.
          5    1    3    3  502    0 -0.45815880160E+02  0.47252042324E+01  0.43769059297E+03  0.44012719753E+03  0.41800000000E+01 0.  1.
         -5    1    3    3    0  502 -0.27227688688E+02  0.40210448250E+02  0.46908436356E+02  0.67646884490E+02  0.41800000000E+01 0.  1.
        -11    1    1    2    0    0  0.78212999954E+02 -0.32725598331E+01  0.92796488877E+02  0.12140498901E+03  0.00000000000E+00 0.  1.
         11    1    1    2    0    0 -0.51694311067E+01 -0.41663092649E+02  0.12475320148E+03  0.13162787542E+03  0.00000000000E+00 0. -1.
</event>
<event>
 7    1  0.3001243E-009  0.1288788E+03  0.7561462E-02  0.1229129E+00
         -2   -1    0    0    0  501 -0.00000000000E+00  0.00000000000E+00  0.28665558203E+02  0.28665558203E+02  0.00000000000E+00 0.  1.
          2   -1    0    0  501    0  0.00000000000E+00 -0.00000000000E+00 -0.87916060153E+03  0.87916060153E+03  0.00000000000E+00 0. -1.
         25    2    1    2    0    0 -0.55444375164E+02  0.60217960590E+02 -0.68942886341E+03  0.70545026477E+03  0.12509051463E+03 0.  0.
          5    1    3    3  502    0 -0.93583456536E+02  0.43743972604E+02 -0.40573471594E+03  0.41869980965E+03  0.41800000000E+01 0.  1.
         -5    1    3    3    0  502  0.38139081373E+02  0.16473987985E+02 -0.28369414747E+03  0.28675045513E+03  0.41800000000E+01 0.  1.
        -11    1    1    2    0    0  0.52378073416E+02 -0.58260184713E-01 -0.11557706977E+03  0.12689178471E+03  0.00000000000E+00 0.  1.
         11    1    1    2    0    0  0.30663017480E+01 -0.60159700405E+02 -0.45489110149E+02  0.75484110258E+02  0.00000000000E+00 0. -1.
</event>
<event>
 7    1  0.3001243E-009  0.1024721E+03  0.7561462E-02  0.1275182E+00
          2   -1    0    0  501    0  0.00000000000E+00  0.00000000000E+00  0.54946649532E+03  0.54946649532E+03  0.00000000000E+00 0.  1.
         -2   -1    0    0    0  501 -0.00000000000E+00 -0.00000000000E+00 -0.26500531553E+02  0.26500531553E+02  0.00000000000E+00 0. -1.
         25    2    1    2    0    0 -0.25870955739E+02 -0.41204318116E+02  0.24365577172E+03  0.27816652166E+03  0.12506548883E+03 0.  0.
          5    1    3    3  502    0 -0.14454666090E+02 -0.75344052198E+02  0.22427358874E+03  0.23706914303E+03  0.41800000000E+01 0. -1.
         -5    1    3    3    0  502 -0.11416289649E+02  0.34139734082E+02  0.19382182980E+02  0.41097378622E+02  0.41800000000E+01 0. -1.
        -11    1    1    2    0    0 -0.21794862942E+02  0.38363322940E+02  0.20332509558E+03  0.20805733606E+03  0.00000000000E+00 0.  1.
         11    1    1    2    0    0  0.47665818681E+02  0.28409951757E+01  0.75985096477E+02  0.89743169159E+02  0.00000000000E+00 0. -1.
</event>
<event>
 7    1  0.3001243E-009  0.1253173E+03  0.7561462E-02  0.1234574E+00
         -1   -1    0    0    0  501 -0.00000000000E+00  0.00000000000E+00  0.57329563744E+02  0.57329563744E+02  0.00000000000E+00 0.  1.
          1   -1    0    0  501    0  0.00000000000E+00 -0.00000000000E+00 -0.37940264188E+03  0.37940264188E+03  0.00000000000E+00 0. -1.
         25    2    1    2    0    0 -0.53991590986E+02  0.36014656560E+02 -0.28744302776E+03  0.32012997624E+03  0.12509020782E+03 0.  0.
          5    1    3    3  502    0 -0.28472685644E+02 -0.46249709728E+02 -0.12008219558E+03  0.13185952970E+03  0.41800000000E+01 0. -1.
         -5    1    3    3    0  502 -0.25518905342E+02  0.82264366288E+02 -0.16736083218E+03  0.18827044654E+03  0.41800000000E+01 0. -1.
        -11    1    1    2    0    0  0.71897425666E+02 -0.49691157937E+02 -0.34795811082E+02  0.94070183711E+02  0.00000000000E+00 0. -1.
         11    1    1    2    0    0 -0.17905834680E+02  0.13676501378E+02  0.16576071108E+00  0.22532045672E+02  0.00000000000E+00 0.  1.
</event>
<event>
 7    1  0.3001243E-009  0.1459235E+03  0.7561462E-02  0.1205574E+00
          2   -1    0    0  501    0  0.00000000000E+00  0.00000000000E+00  0.12053339063E+04  0.12053339063E+04  0.00000000000E+00 0. -1.
         -2   -1    0    0    0  501 -0.00000000000E+00 -0.00000000000E+00 -0.23501483377E+02  0.23501483377E+02  0.00000000000E+00 0.  1.
         25    2    1    2    0    0  0.41847353205E+02 -0.94113101118E+02  0.87488642792E+03  0.88976565297E+03  0.12509268034E+03 0.  0.
          5    1    3    3  502    0 -0.45013818168E+01  0.25400610415E+02  0.27966251632E+03  0.28088084463E+03  0.41800000000E+01 0. -1.
         -5    1    3    3    0  502  0.46348735021E+02 -0.11951371153E+03  0.59522391160E+03  0.60888480834E+03  0.41800000000E+01 0. -1.
        -11    1    1    2    0    0  0.25934783679E+02  0.65905789408E+01  0.26922240597E+02  0.37958606060E+02  0.00000000000E+00 0.  1.
         11    1    1    2    0    0 -0.67782136884E+02  0.87522522177E+02  0.28002375442E+03  0.30111113066E+03  0.00000000000E+00 0. -1.
</event>
<event>
 7    1  0.3001243E-009  0.1155226E+03  0.7561462E-02  0.1250672E+00
         -1   -1    0    0    0  501 -0.00000000000E+00  0.00000000000E+00  0.18634099870E+02  0.18634099870E+02  0.00000000000E+00 0.  1.
          1   -1    0    0  501    0  0.00000000000E+00 -0.00000000000E+00 -0.12327368416E+04  0.12327368416E+04  0.00000000000E+00 0. -1.
         25    2    1    2    0    0 -0.56571046985E+02  0.30088267438E+02 -0.99559717372E+03  0.10054685101E+04  0.12509038809E+03 0.  0.
          5    1    3    3  502    0  0.17913888318E+01 -0.44566402529E+02 -0.37459816008E+03  0.37726731536E+03  0.41800000000E+01 0. -1.
         -5    1    3    3    0  502 -0.58362435817E+02  0.74654669967E+02 -0.62099901365E+03  0.62820119469E+03  0.41800000000E+01 0. -1.
        -11    1    1    2    0    0 -0.23077347070E+01 -0.32389166023E+02 -0.18443813387E+02  0.37343780840E+02  0.00000000000E+00 0. -1.
         11    1    1    2    0    0  0.58878781692E+02  0.23008985844E+01 -0.20006175459E+03  0.20855865055E+03  0.00000000000E+00 0.  1.
</event>
<event>
 7    1  0.3001243E-009  0.8282654E+02  0.7561462E-02  0.1321216E+00
          2   -1    0    0  501    0  0.00000000000E+00  0.00000000000E+00  0.21008399426E+02  0.21008399426E+02  0.00000000000E+00 0. -1.
         -2   -1    0    0    0  501 -0.00000000000E+00 -0.00000000000E+00 -0.52082023315E+03  0.52082023315E+03  0.00000000000E+00 0.  1.
         25    2    1    2    0    0 -0.21177449628E+02  0.88406900414E+01 -0.33764355386E+03  0.36079806732E+03  0.12508170828E+03 0.  0.
          5    1    3    3  502    0 -0.36769837757E+02  0.37304759577E+02 -0.54266847685E+02  0.75538263241E+02  0.41800000000E+01 0. -1.
         -5    1    3    3    0  502  0.15592388130E+02 -0.28464069536E+02 -0.28337670617E+03  0.28525980408E+03  0.41800000000E+01 0. -1.
        -11    1    1    2    0    0 -0.27033834276E+02 -0.16346083052E+02 -0.59957486262E+02  0.67771105832E+02  0.00000000000E+00 0.  1.
         11    1    1    2    0    0  0.48211283903E+02  0.75053930103E+01 -0.10221079360E+03  0.11325945942E+03  0.00000000000E+00 0. -1.
</event>
<event>
 7    1  0.3001243E-009  0.3517744E+03  0.7561462E-02  0.1061889E+00
          2   -1    0    0  501    0  0.00000000000E+00  0.00000000000E+00  0.58406174789E+03  0.58406174789E+03  0.00000000000E+00 0. -1.
         -2   -1    0    0    0  501 -0.00000000000E+00 -0.00000000000E+00 -0.23109957323E+03  0.23109957323E+03  0.00000000000E+00 0.  1.
         25    2    1    2    0    0  0.14111972492E+03 -0.31603766827E+03  0.25090148854E+03  0.44541564222E+03  0.12509577473E+03 0.  0.
          5    1    3    3  502    0 -0.21522615078E+01 -0.65890788807E+02  0.45808656136E+01  0.66216954090E+02  0.41800000000E+01 0.  1.
         -5    1    3    3    0  502  0.14327198642E+03 -0.25014687946E+03  0.24632062293E+03  0.37919868813E+03  0.41800000000E+01 0.  1.
        -11    1    1    2    0    0 -0.12454017127E+03  0.22985491644E+03  0.45554974191E+02  0.26536539440E+03  0.00000000000E+00 0.  1.
         11    1    1    2    0    0 -0.16579553648E+02  0.86182751835E+02  0.56505711930E+02  0.10438028451E+03  0.00000000000E+00 0. -1.
</event>
<event>
 7    1  0.3001243E-009  0.2528129E+03  0.7561462E-02  0.1111540E+00
         -2   -1    0    0    0  501 -0.00000000000E+00  0.00000000000E+00  0.63997018991E+02  0.63997018991E+02  0.00000000000E+00 0.  1.
          2   -1    0    0  501    0  0.00000000000E+00 -0.00000000000E+00 -0.12758803992E+04  0.12758803992E+04  0.00000000000E+00 0. -1.
         25    2    1    2    0    0  0.39840815447E+02 -0.24222245356E+03 -0.84766556124E+03  0.89131525423E+03  0.12508785364E+03 0.  0.
          5    1    3    3  502    0  0.12043664594E+01 -0.17893006596E+03 -0.40959398204E+03  0.44699230589E+03  0.41800000000E+01 0. -1.
         -5    1    3    3    0  502  0.38636448987E+02 -0.63292387604E+02 -0.43807157920E+03  0.44432294834E+03  0.41800000000E+01 0. -1.
        -11    1    1    2    0    0 -0.54620234332E+02  0.16680531180E+03 -0.30358214136E+03  0.35067007086E+03  0.00000000000E+00 0.  1.
         11    1    1    2    0    0  0.14779418886E+02  0.75417141757E+02 -0.60635677624E+02  0.97892093115E+02  0.00000000000E+00 0. -1.
</event>
<event>
 7    1  0.3001243E-009  0.1055616E+03  0.7561462E-02  0.1269017E+00
          1   -1    0    0  501    0  0.00000000000E+00  0.00000000000E+00  0.83859085571E+03  0.83859085571E+03  0.00000000000E+00 0. -1.
         -1   -1    0    0    0  501 -0.00000000000E+00 -0.00000000000E+00 -0.17728352927E+02  0.17728352927E+02  0.00000000000E+00 0.  1.
         25    2    1    2    0    0  0.53365720976E+02 -0.17205722384E+02  0.44330710262E+03  0.46401788165E+03  0.12508984852E+03 0.  0.
          5    1    3    3  502    0 -0.16388804630E+02 -0.45318609640E+02  0.84282248696E+02  0.97176844681E+02  0.41800000000E+01 0.  1.
         -5    1    3    3    0  502  0.69754525606E+02  0.28112887255E+02  0.35902485392E+03  0.36684103697E+03  0.41800000000E+01 0.  1.
        -11    1    1    2    0    0  0.15700294625E+02 -0.17791746851E+01  0.12123950314E+02  0.19916196552E+02  0.00000000000E+00 0.  1.
         11    1    1    2    0    0 -0.69066015601E+02  0.18984897070E+02  0.36543144986E+03  0.37238513044E+03  0.00000000000E+00 0. -1.
</event>
<event>
 6    1  0.3001243E-009  0.1197428E+03  0.7561462E-02  0.1243522E+00
          1   -1    0    0  501    0  0.00000000000E+00  0.00000000000E+00  0.43648982351E+03  0.43648982351E+03  0.00000000000E+00 0. -1.
         -1   -1    0    0    0  501 -0.00000000000E+00 -0.00000000000E+00 -0.11539516027E+03  0.11539516027E+03  0.00000000000E+00 0.  1.
          5    1    1    2  502    0  0.28659583090E+02 -0.10563340559E+03  0.16641578084E+02  0.11078900035E+03  0.41800000000E+01 0. -1.
         -5    1    1    2    0  502  0.18554746722E+02  0.98084416247E+01 -0.52864796586E+02  0.57031949565E+02  0.41800000000E+01 0. -1.
        -11    1    1    2    0    0 -0.33239809892E+02  0.83676715371E+02  0.35397698024E+03  0.36524838151E+03  0.00000000000E+00 0. -1.
         11    1    1    2    0    0 -0.13974519919E+02  0.12148248589E+02  0.33409015029E+01  0.18815652357E+02  0.00000000000E+00 0.  1.
</event>
<event>
 7    1  0.3001243E-009  0.1032438E+03  0.7561462E-02  0.1273619E+00
         -2   -1    0    0    0  501 -0.00000000000E+00  0.00000000000E+00  0.18687175993E+03  0.18687175993E+03  0.00000000000E+00 0.  1.
          2   -1    0    0  501    0  0.00000000000E+00 -0.00000000000E+00 -0.79130372847E+02  0.79130372847E+02  0.00000000000E+00 0. -1.
         25    2    1    2    0    0 -0.15370144114E+02 -0.10477897418E+02  0.11697486540E+03  0.17226936768E+03  0.12509032034E+03 0.  0.
          5    1    3    3  502    0 -0.24375453423E+01 -0.64966126255E+02  0.38178341201E+02  0.75508922153E+02  0.41800000000E+01 0.  1.
         -5    1    3    3    0  502 -0.12932598772E+02  0.54488228837E+02  0.78796524204E+02  0.96760445531E+02  0.41800000000E+01 0.  1.
        -11    1    1    2    0    0  0.40711990410E+02 -0.20154557776E+02  0.14186305510E+02  0.47591213751E+02  0.00000000000E+00 0.  1.
         11    1    1    2    0    0 -0.25341846296E+02  0.30632455194E+02 -0.23419783836E+02  0.46141551337E+02  0.00000000000E+00 0. -1.
</event>
<event>
 7    1  0.3001243E-009  0.1400692E+03  0.7561462E-02  0.1213236E+00
          1   -1    0    0  501    0  0.00000000000E+00  0.00000000000E+00  0.12929644155E+04  0.12929644155E+04  0.00000000000E+00 0. -1.
         -1   -1    0    0    0  501 -0.00000000000E+00 -0.00000000000E+00 -0.18064317151E+02  0.18064317151E+02  0.00000000000E+00 0.  1.
         25    2    1    2    0    0 -0.99097636715E+02 -0.35608501464E+01  0.87545968242E+03  0.88989360888E+03  0.12509179961E+03 0.  0.
          5    1    3    3  502    0 -0.21517140367E+02 -0.59802026233E+02  0.34211781319E+03  0.34799617839E+03  0.41800000000E+01 0.  1.
         -5    1    3    3    0  502 -0.77580496348E+02  0.56241176087E+02  0.53334186923E+03  0.54189743049E+03  0.41800000000E+01 0.  1.
        -11    1    1    2    0    0  0.59700548313E+02 -0.31758178100E+02  0.12986291536E+03  0.14641418691E+03  0.00000000000E+00 0.  1.
         11    1    1    2    0    0  0.39397088402E+02  0.35319028246E+02  0.26957750057E+03  0.27472093686E+03  0.00000000000E+00 0. -1.
</event>
<event>
 7    1  0.3001243E-009  0.1117358E+03  0.7561462E-02  0.1257389E+00
         -2   -1    0    0    0  501 -0.00000000000E+00  0.00000000000E+00  0.47826019875E+03  0.47826019875E+03  0.00000000000E+00 0.  1.
          2   -1    0    0  501    0  0.00000000000E+00 -0.00000000000E+00 -0.37314717018E+02  0.37314717018E+02  0.00000000000E+00 0. -1.
         25    2    1    2    0    0 -0.66854014802E+02 -0.21758196709E+02  0.30059546126E+03  0.33308763281E+03  0.12508741495E+03 0.  0.
          5    1    3    3  502    0 -0.63538907406E+02  0.25111381549E+02  0.26579651550E+03  0.27446863990E+03  0.41800000000E+01 0. -1.
         -5    1    3    3    0  502 -0.33151073967E+01 -0.46869578258E+02  0.34798945765E+02  0.58618992908E+02  0.41800000000E+01 0. -1.
        -11    1    1    2    0    0  0.43886748376E+02 -0.28681646131E+02  0.33782515567E+02  0.62369398473E+02  0.00000000000E+00 0. -1.
         11    1    1    2    0    0  0.22967266426E+02  0.50439842840E+02  0.10656750491E+03  0.12011788449E+03  0.00000000000E+00 0.  1.
</event>
<event>
 7    1  0.3001243E-009  0.1060479E+03  0.7561462E-02  0.1268069E+00
         -1   -1    0    0    0  501 -0.00000000000E+00  0.00000000000E+00  0.17719063532E+03  0.17719063532E+03  0.00000000000E+00 0.  1.
          1   -1    0    0  501    0  0.00000000000E+00 -0.00000000000E+00 -0.87472879391E+02  0.87472879391E+02  0.00000000000E+00 0. -1.
         25    2    1    2    0    0  0.45230306712E+02  0.14837241611E+02  0.93158487427E+02  0.16307088330E+03  0.12509070636E+03 0.  0.
          5    1    3    3  502    0  0.61133169538E+02  0.57544947562E+02  0.78505313286E+02  0.11501844209E+03  0.41800000000E+01 0.  1.
         -5    1    3    3    0  502 -0.15902862827E+02 -0.42707705951E+02  0.14653174142E+02  0.48052441208E+02  0.41800000000E+01 0.  1.
        -11    1    1    2    0    0 -0.44445071317E+02 -0.38375616563E+02  0.25722630710E+02  0.64106989023E+02  0.00000000000E+00 0.  1.
         11    1    1    2    0    0 -0.78523539420E+00  0.23538374952E+02 -0.29163362206E+02  0.37485642387E+02  0.00000000000E+00 0. -1.
</event>
<event>
 7    1  0.3001243E-009  0.1093436E+03  0.7561462E-02  0.1261790E+00
          1   -1    0    0  501    0  0.00000000000E+00  0.00000000000E+00  0.20496986150E+03  0.20496986150E+03  0.00000000000E+00 0. -1.
         -1   -1    0    0    0  501 -0.00000000000E+00 -0.00000000000E+00 -0.82710884480E+02  0.82710884480E+02  0.00000000000E+00 0.  1.
         25    2    1    2    0    0  0.52761569210E+02  0.48675885566E+01  0.11709389550E+03  0.17935282786E+03  0.12509588280E+03 0.  0.
          5    1    3    3  502    0  0.67080516344E+02  0.44314068984E+02  0.11042627109E+03  0.13665637976E+03  0.41800000000E+01 0. -1.
         -5    1    3    3    0  502 -0.14318947134E+02 -0.39446480427E+02  0.66676244158E+01  0.42696448101E+02  0.41800000000E+01 0. -1.
        -11    1    1    2    0    0  0.46941160552E+01  0.28958388523E+02  0.25237778570E+02  0.38698429665E+02  0.00000000000E+00 0. -1.
         11    1    1    2    0    0 -0.57455685266E+02 -0.33825977079E+02 -0.20072697058E+02  0.69629488451E+02  0.00000000000E+00 0.  1.
</event>
<event>
 7    1  0.3001243E-009  0.8533007E+02  0.7561462E-02  0.1314572E+00
          1   -1    0    0  501    0  0.00000000000E+00  0.00000000000E+00  0.18106983979E+03  0.18106983979E+03  0.00000000000E+00 0. -1.
         -1   -1    0    0    0  501 -0.00000000000E+00 -0.00000000000E+00 -0.80250683448E+02  0.80250683448E+02  0.00000000000E+00 0.  1.
         25    2    1    2    0    0  0.21504955745E+02 -0.37160882964E+02  0.87831711524E+02  0.15876151841E+03  0.12508963120E+03 0.  0.
          5    1    3    3  502    0  0.67793496737E+01  0.25605912412E+02  0.90210051315E+02  0.94111360052E+02  0.41800000000E+01 0.  1.
         -5    1    3    3    0  502  0.14725606071E+02 -0.62766795375E+02 -0.23783397911E+01  0.64650158360E+02  0.41800000000E+01 0.  1.
        -11    1    1    2    0    0 -0.58524032763E+01 -0.19549628464E+02  0.34362516886E+02  0.39965249454E+02  0.00000000000E+00 0. -1.
         11    1    1    2    0    0 -0.15652552469E+02  0.56710511427E+02 -0.21375072071E+02  0.62593755369E+02  0.00000000000E+00 0.  1.
</event>
<event>
 7    1  0.3001243E-009  0.1132538E+03  0.7561462E-02  0.1254660E+00
         -1   -1    0    0    0  501 -0.00000000000E+00  0.00000000000E+00  0.24375785521E+03  0.24375785521E+03  0.00000000000E+00 0.  1.
          1   -1    0    0  501    0  0.00000000000E+00 -0.00000000000E+00 -0.63634754288E+02  0.63634754288E+02  0.00000000000E+00 0. -1.
         25    2    1    2    0    0  0.53627134773E+02 -0.17301480687E+02  0.13296542087E+03  0.19105675403E+03  0.12509064431E+03 0.  0.
          5    1    3    3  502    0  0.89138289620E+02 -0.48667798338E+00  0.11985162498E+03  0.14942475010E+03  0.41800000000E+01 0.  1.
         -5    1    3    3    0  502 -0.35511154847E+02 -0.16814802703E+02  0.13113795890E+02  0.41632003930E+02  0.41800000000E+01 0.  1.
        -11    1    1    2    0    0 -0.71478155120E+02 -0.19479856117E+01  0.53528944649E+02  0.89321157755E+02  0.00000000000E+00 0.  1.
         11    1    1    2    0    0  0.17851020348E+02  0.19249466299E+02 -0.63712645945E+01  0.27014697718E+02  0.00000000000E+00 0. -1.
</event>
<event>
 7    1  0.3001243E-009  0.9592490E+02  0.7561462E-02  0.1289106E+00
          1   -1    0    0  501    0  0.00000000000E+00  0.00000000000E+00  0.34652539938E+03  0.34652539938E+03  0.00000000000E+00 0. -1.
         -1   -1    0    0    0  501 -0.00000000000E+00 -0.00000000000E+00 -0.52627270040E+02  0.52627270040E+02  0.00000000000E+00 0.  1.
         25    2    1    2    0    0 -0.13983106750E+02  0.54675694138E+02  0.24882025918E+03  0.28415447528E+03  0.12508911081E+03 0.  0.
          5    1    3    3  502    0  0.54492268674E+02  0.20328008854E+02  0.13309159684E+03  0.14530478602E+03  0.41800000000E+01 0. -1.
         -5    1    3    3    0  502 -0.68475375424E+02  0.34347685284E+02  0.11572866234E+03  0.13884968927E+03  0.41800000000E+01 0. -1.
        -11    1    1    2    0    0  0.43149416199E+01 -0.30126871646E+02 -0.25465064600E+02  0.39682699397E+02  0.00000000000E+00 0.  1.
         11    1    1    2    0    0  0.96681651300E+01 -0.24548822492E+02  0.70542934763E+02  0.75315494738E+02  0.00000000000E+00 0. -1.
</event>
<event>
 7    1  0.3001243E-009  0.2579949E+03  0.7561462E-02  0.1108354E+00
         -1   -1    0    0    0  501 -0.00000000000E+00  0.00000000000E+00  0.27814102638E+03  0.27814102638E+03  0.00000000000E+00 0.  1.
          1   -1    0    0  501    0  0.00000000000E+00 -0.00000000000E+00 -0.28789423942E+03  0.28789423942E+03  0.00000000000E+00 0. -1.
         25    2    1    2    0    0 -0.23128260795E+03  0.95916830596E+02 -0.78857154715E+02  0.29078084367E+03  0.12507343870E+03 0.  0.
          5    1    3    3  502    0 -0.12498594174E+03  0.15791624010E+02 -0.93298948966E+02  0.15682164168E+03  0.41800000000E+01 0. -1.
         -5    1    3    3    0  502 -0.10629666621E+03  0.80125206587E+02  0.14441794251E+02  0.13395920199E+03  0.41800000000E+01 0. -1.
        -11    1    1    2    0    0  0.95296194648E+02 -0.97935797825E+01  0.62045199042E+02  0.11413538296E+03  0.00000000000E+00 0. -1.
         11    1    1    2    0    0  0.13598641330E+03 -0.86123250814E+02  0.70587426327E+01  0.16111903916E+03  0.00000000000E+00 0.  1.
</event>
<event>
 7    1  0.3001243E-009  0.1168102E+03  0.7561462E-02  0.1248454E+00
         -2   -1    0    0    0  501 -0.00000000000E+00  0.00000000000E+00  0.26593440736E+03  0.26593440736E+03  0.00000000000E+00 0.  1.
          2   -1    0    0  501    0  0.00000000000E+00 -0.00000000000E+00 -0.87701218871E+02  0.87701218871E+02  0.00000000000E+00 0. -1.
         25    2    1    2    0    0 -0.56678656781E+02  0.24443665979E+02  0.18810421365E+03  0.23417572324E+03  0.12508041900E+03 0.  0.
          5    1    3    3  502    0  0.18066708785E+02  0.38147472764E+02  0.13465104148E+03  0.14117369095E+03  0.41800000000E+01 0. -1.
         -5    1    3    3    0  502 -0.74745365566E+02 -0.13703806785E+02  0.53453172177E+02  0.93002032289E+02  0.41800000000E+01 0. -1.
        -11    1    1    2    0    0  0.37167826281E+02  0.35902642758E+02 -0.19654291811E+02  0.55287776715E+02  0.00000000000E+00 0. -1.
         11    1    1    2    0    0  0.19510830500E+02 -0.60346308737E+02  0.97832666454E+01  0.64172126280E+02  0.00000000000E+00 0.  1.
</event>
<event>
 7    1  0.3001243E-009  0.1671271E+03  0.7561462E-02  0.1180877E+00
         -4   -1    0    0    0  501 -0.00000000000E+00  0.00000000000E+00  0.13269796640E+03  0.13269796640E+03  0.00000000000E+00 0.  1.
          4   -1    0    0  501    0  0.00000000000E+00 -0.00000000000E+00 -0.28954298158E+03  0.28954298158E+03  0.00000000000E+00 0. -1.
         25    2    1    2    0    0  0.91151667139E+02 -0.11131579117E+03  0.13600756577E-01  0.19065083684E+03  0.12509160490E+03 0.  0.
          5    1    3    3  502    0 -0.81670522891E+01 -0.87523762509E+02 -0.63993131272E+01  0.88235669405E+02  0.41800000000E+01 0.  1.
         -5    1    3    3    0  502  0.99318719428E+02 -0.23792028665E+02  0.64129138838E+01  0.10241516744E+03  0.41800000000E+01 0.  1.
        -11    1    1    2    0    0 -0.23670541877E+02  0.33783390815E+02  0.31949356699E+01  0.41374142428E+02  0.00000000000E+00 0.  1.
         11    1    1    2    0    0 -0.67481125262E+02  0.77532400359E+02 -0.16005355161E+03  0.19021596872E+03  0.00000000000E+00 0. -1.
</event>
<event>
 7    1  0.3001243E-009  0.1164762E+03  0.7561462E-02  0.1249026E+00
         -3   -1    0    0    0  501 -0.00000000000E+00  0.00000000000E+00  0.72371851718E+02  0.72371851718E+02  0.00000000000E+00 0.  1.
          3   -1    0    0  501    0  0.00000000000E+00 -0.00000000000E+00 -0.23662855433E+03  0.23662855433E+03  0.00000000000E+00 0. -1.
         25    2    1    2    0    0 -0.64248501639E+02  0.32328974538E+02 -0.89701938256E+02  0.16990553884E+03  0.12509365230E+03 0.  0.
          5    1    3    3  502    0  0.23522347794E+02  0.32570422163E+01 -0.71661283876E+02  0.75609001954E+02  0.41800000000E+01 0. -1.
         -5    1    3    3    0  502 -0.87770849433E+02  0.29071932321E+02 -0.18040654379E+02  0.94296536890E+02  0.41800000000E+01 0. -1.
        -11    1    1    2    0    0  0.92466565365E+01 -0.55745225321E+02 -0.45914803514E+02  0.72809339957E+02  0.00000000000E+00 0. -1.
         11    1    1    2    0    0  0.55001845102E+02  0.23416250783E+02 -0.28639960844E+02  0.66285527248E+02  0.00000000000E+00 0.  1.
</event>
<event>
 7    1  0.3001243E-009  0.1034359E+03  0.7561462E-02  0.1273232E+00
          3   -1    0    0  501    0  0.00000000000E+00  0.00000000000E+00  0.38623224121E+02  0.38623224121E+02  0.00000000000E+00 0. -1.
         -3   -1    0    0    0  501 -0.00000000000E+00 -0.00000000000E+00 -0.34901124490E+03  0.34901124490E+03  0.00000000000E+00 0.  1.
         25    2    1    2    0    0 -0.28237201791E+02  0.26806435340E+02 -0.20457007289E+03  0.24292438381E+03  0.12508963582E+03 0.  0.
          5    1    3    3  502    0 -0.92073054345E+01  0.74785206344E+02 -0.91831574465E+02  0.11886173493E+03  0.41800000000E+01 0. -1.
         -5    1    3    3    0  502 -0.19029896356E+02 -0.47978771003E+02 -0.11273849842E+03  0.12406264889E+03  0.41800000000E+01 0. -1.
        -11    1    1    2    0    0 -0.18050709693E+02  0.98630253413E+01 -0.75652226457E+02  0.78398767575E+02  0.00000000000E+00 0.  1.
         11    1    1    2    0    0  0.46287911483E+02 -0.36669460682E+02 -0.30165721432E+02  0.66311317629E+02  0.00000000000E+00 0. -1.
</event>
<event>
 7    1  0.3001243E-009  0.1409704E+03  0.7561462E-02  0.1212029E+00
         -2   -1    0    0    0  501 -0.00000000000E+00  0.00000000000E+00  0.84791838825E+02  0.84791838825E+02  0.00000000000E+00 0.  1.
          2   -1    0    0  501    0  0.00000000000E+00 -0.00000000000E+00 -0.44454568235E+03  0.44454568235E+03  0.00000000000E+00 0. -1.
         25    2    1    2    0    0 -0.42498859456E+00  0.13512465553E+03 -0.28569979695E+03  0.33990035773E+03  0.12509606731E+03 0.  0.
          5    1    3    3  502    0  0.17393048335E+02  0.95247153542E+02 -0.27920437798E+03  0.29554542032E+03  0.41800000000E+01 0. -1.
         -5    1    3    3    0  502 -0.17818036929E+02  0.39877501988E+02 -0.64954189718E+01  0.44354937408E+02  0.41800000000E+01 0. -1.
        -11    1    1    2    0    0 -0.19442244790E+02 -0.85819217279E+02 -0.97502101075E+02  0.13133772745E+03  0.00000000000E+00 0. -1.
         11    1    1    2    0    0  0.19867233384E+02 -0.49305438252E+02  0.23448054503E+02  0.58099436000E+02  0.00000000000E+00 0.  1.
</event>
<event>
 7    1  0.3001243E-009  0.1097324E+03  0.7561462E-02  0.1261066E+00
         -2   -1    0    0    0  501 -0.00000000000E+00  0.00000000000E+00  0.36309172084E+02  0.36309172084E+02  0.00000000000E+00 0. -1.
          2   -1    0    0  501    0  0.00000000000E+00 -0.00000000000E+00 -0.33525547876E+03  0.33525547876E+03  0.00000000000E+00 0.  1.
         25    2    1    2    0    0 -0.11349898918E+02 -0.61762027947E+01 -0.15523756323E+03  0.19978276890E+03  0.12508991976E+03 0.  0.
          5    1    3    3  502    0  0.55802148023E+02  0.85786474079E+01 -0.63643070769E+02  0.85178552302E+02  0.41800000000E+01 0. -1.
         -5    1    3    3    0  502 -0.67152046941E+02 -0.14754850203E+02 -0.91594492459E+02  0.11460421660E+03  0.41800000000E+01 0. -1.
        -11    1    1    2    0    0 -0.41206846419E+02  0.22362755377E+01 -0.58504349428E+02  0.71594441279E+02  0.00000000000E+00 0.  1.
         11    1    1    2    0    0  0.52556745337E+02  0.39399272570E+01 -0.85204394019E+02  0.10018744067E+03  0.00000000000E+00 0. -1.
</event>
<event>
 7    1  0.3001243E-009  0.1974852E+03  0.7561462E-02  0.1151878E+00
         -1   -1    0    0    0  501 -0.00000000000E+00  0.00000000000E+00  0.74115489908E+02  0.74115489908E+02  0.00000000000E+00 0.  1.
          1   -1    0    0  501    0  0.00000000000E+00 -0.00000000000E+00 -0.67977582987E+03  0.67977582987E+03  0.00000000000E+00 0. -1.
         25    2    1    2    0    0 -0.17744083426E+03  0.82547375973E+02 -0.33741347001E+03  0.40962805758E+03  0.12509187371E+03 0.  0.
          5    1    3    3  502    0 -0.12709010235E+03  0.64033940893E+02 -0.12167990061E+03  0.18728510436E+03  0.41800000000E+01 0.  1.
         -5    1    3    3    0  502 -0.50350731916E+02  0.18513435080E+02 -0.21573356939E+03  0.22234295322E+03  0.41800000000E+01 0.  1.
        -11    1    1    2    0    0  0.12723342597E+03 -0.75877719683E+02 -0.13022489511E+03  0.19724172058E+03  0.00000000000E+00 0.  1.
         11    1    1    2    0    0  0.50207408289E+02 -0.66696562900E+01 -0.13802197484E+03  0.14702154162E+03  0.00000000000E+00 0. -1.
</event>
<event>
 7    1  0.3342401E-009  0.1181012E+03  0.7561462E-02  0.1246263E+00
         -2   -1    0    0    0  501 -0.00000000000E+00  0.00000000000E+00  0.14331858211E+03  0.14331858211E+03  0.00000000000E+00 0.  1.
          2   -1    0    0  501    0  0.00000000000E+00 -0.00000000000E+00 -0.14974859763E+03  0.14974859763E+03  0.00000000000E+00 0. -1.
         25    2    1    2    0    0 -0.59348650703E+02 -0.13264880933E+02  0.73602866723E+02  0.15736380061E+03  0.12509102424E+03 0.  0.
          5    1    3    3  502    0 -0.29839505929E+01 -0.63044868395E+02  0.26849242236E+02  0.68716181506E+02  0.41800000000E+01 0. -1.
         -5    1    3    3    0  502 -0.56364700110E+02  0.49779987462E+02  0.46753624487E+02  0.88647619104E+02  0.41800000000E+01 0. -1.
        -11    1    1    2    0    0 -0.11510338191E+02 -0.17041623410E+02  0.47722318904E+01  0.21111111078E+02  0.00000000000E+00 0.  1.
         11    1    1    2    0    0  0.70858988893E+02  0.30306504343E+02 -0.84805114141E+02  0.11459226805E+03  0.00000000000E+00 0. -1.
</event>
<event>
 7    1  0.3001243E-009  0.1062769E+03  0.7561462E-02  0.1267624E+00
          2   -1    0    0  501    0  0.00000000000E+00  0.00000000000E+00  0.25260050284E+03  0.25260050284E+03  0.00000000000E+00 0. -1.
         -2   -1    0    0    0  501 -0.00000000000E+00 -0.00000000000E+00 -0.70625765527E+02  0.70625765527E+02  0.00000000000E+00 0.  1.
         25    2    1    2    0    0 -0.51398414306E+02 -0.59453858972E+02  0.85716106453E+02  0.17079238990E+03  0.12508489598E+03 0.  0.
          5    1    3    3  502    0  0.15645581326E+02 -0.37065662146E+01 -0.24867546290E+02  0.29906355622E+02  0.41800000000E+01 0. -1.
         -5    1    3    3    0  502 -0.67043995632E+02 -0.55747292757E+02  0.11058365274E+03  0.14088603428E+03  0.41800000000E+01 0. -1.
        -11    1    1    2    0    0  0.65691892410E+02  0.23184458686E+02  0.88595431461E+02  0.11270356839E+03  0.00000000000E+00 0. -1.
         11    1    1    2    0    0 -0.14293478104E+02  0.36269400286E+02  0.76631993959E+01  0.39730310072E+02  0.00000000000E+00 0.  1.
</event>
<event>
 7    1  0.3001243E-009  0.1070656E+03  0.7561462E-02  0.1266103E+00
         -2   -1    0    0    0  501 -0.00000000000E+00  0.00000000000E+00  0.20128185786E+02  0.20128185786E+02  0.00000000000E+00 0.  1.
          2   -1    0    0  501    0  0.00000000000E+00 -0.00000000000E+00 -0.95516559002E+03  0.95516559002E+03  0.00000000000E+00 0. -1.
         25    2    1    2    0    0  0.56569574596E+02 -0.56913062314E+02 -0.60432756466E+03  0.62233386768E+03  0.12509366100E+03 0.  0.
          5    1    3    3  502    0  0.69919031804E+02 -0.55336907043E+02 -0.21556463475E+03  0.23331615556E+03  0.41800000000E+01 0. -1.
         -5    1    3    3    0  502 -0.13349457208E+02 -0.15761552718E+01 -0.38876292990E+03  0.38901771212E+03  0.41800000000E+01 0. -1.
        -11    1    1    2    0    0 -0.17214253566E+02  0.67803229854E+02 -0.12506323759E+03  0.14329836671E+03  0.00000000000E+00 0.  1.
         11    1    1    2    0    0 -0.39355321030E+02 -0.10890167540E+02 -0.20564660198E+03  0.20966154142E+03  0.00000000000E+00 0. -1.
</event>
<event>
 7    1  0.3001243E-009  0.1295556E+03  0.7561462E-02  0.1228117E+00
         -1   -1    0    0    0  501 -0.00000000000E+00  0.00000000000E+00  0.70639477413E+02  0.70639477413E+02  0.00000000000E+00 0. -1.
          1   -1    0    0  501    0  0.00000000000E+00 -0.00000000000E+00 -0.40681578253E+03  0.40681578253E+03  0.00000000000E+00 0.  1.
         25    2    1    2    0    0 -0.45032846686E+02 -0.83750975177E+02 -0.29932185748E+03  0.33805660970E+03  0.12508602587E+03 0.  0.
          5    1    3    3  502    0  0.24900625023E+02 -0.59571670746E+02 -0.22078932798E+03  0.23007438978E+03  0.41800000000E+01 0.  1.
         -5    1    3    3    0  502 -0.69933471709E+02 -0.24179304431E+02 -0.78532529500E+02  0.10798221991E+03  0.41800000000E+01 0.  1.
        -11    1    1    2    0    0  0.39680919673E+02  0.34648072459E+01 -0.43106222939E+02  0.58691794413E+02  0.00000000000E+00 0.  1.
         11    1    1    2    0    0  0.53519270127E+01  0.80286167931E+02  0.62517753074E+01  0.80706855832E+02  0.00000000000E+00 0. -1.
</event>
<event>
 7    1  0.3001243E-009  0.1034317E+03  0.7561462E-02  0.1273241E+00
          1   -1    0    0  501    0  0.00000000000E+00  0.00000000000E+00  0.11019439717E+03  0.11019439717E+03  0.00000000000E+00 0. -1.
         -1   -1    0    0    0  501 -0.00000000000E+00 -0.00000000000E+00 -0.14302379417E+03  0.14302379417E+03  0.00000000000E+00 0.  1.
         25    2    1    2    0    0 -0.47870021199E+02 -0.14924906820E+02  0.19311020920E+02  0.13613521464E+03  0.12508233034E+03 0.  0.
          5    1    3    3  502    0 -0.87922012942E+02  0.76476722496E+01  0.88065597093E+01  0.88790737943E+02  0.41800000000E+01 0. -1.
         -5    1    3    3    0  502  0.40051991742E+02 -0.22572579070E+02  0.10504461210E+02  0.47344476697E+02  0.41800000000E+01 0. -1.
        -11    1    1    2    0    0  0.40583601108E+02 -0.13680326248E+02  0.13669585161E+02  0.44955951370E+02  0.00000000000E+00 0. -1.
         11    1    1    2    0    0  0.72864200914E+01  0.28605233068E+02 -0.65810003084E+02  0.72127025327E+02  0.00000000000E+00 0.  1.
</event>
<event>
 7    1  0.3001243E-009  0.9947535E+02  0.7561462E-02  0.1281403E+00
          1   -1    0    0  501    0  0.00000000000E+00  0.00000000000E+00  0.65073103291E+02  0.65073103291E+02  0.00000000000E+00 0. -1.
         -1   -1    0    0    0  501 -0.00000000000E+00 -0.00000000000E+00 -0.29370258068E+03  0.29370258068E+03  0.00000000000E+00 0.  1.
         25    2    1    2    0    0  0.75244860363E+02  0.50534711922E+01 -0.72730212798E+02  0.16316573333E+03  0.12508415606E+03 0.  0.
          5    1    3    3  502    0  0.28371674898E+02  0.26872480833E+02 -0.97911971989E+02  0.10550501799E+03  0.41800000000E+01 0.  1.
         -5    1    3    3    0  502  0.46873185465E+02 -0.21819009641E+02  0.25181759191E+02  0.57660715338E+02  0.41800000000E+01 0.  1.
        -11    1    1    2    0    0  0.15612376996E+02  0.49352971854E+01 -0.18416016247E+01  0.16477104428E+02  0.00000000000E+00 0. -1.
         11    1    1    2    0    0 -0.90857237359E+02 -0.99887683776E+01 -0.15405766297E+03  0.17913284621E+03  0.00000000000E+00 0.  1.
</event>
<event>
 7    1  0.3001243E-009  0.1506505E+03  0.7561462E-02  0.1199676E+00
         -2   -1    0    0    0  501 -0.00000000000E+00  0.00000000000E+00  0.17219242660E+02  0.17219242660E+02  0.00000000000E+00 0.  1.
          2   -1    0    0  501    0  0.00000000000E+00 -0.00000000000E+00 -0.14236444679E+04  0.14236444679E+04  0.00000000000E+00 0. -1.
         25    2    1    2    0    0 -0.76128328852E+02  0.76877158643E+02 -0.66307151340E+03  0.68338582973E+03  0.12508693145E+03 0.  0.
          5    1    3    3  502    0 -0.55045850960E+01  0.87977118523E+02 -0.45090242460E+03  0.45945700860E+03  0.41800000000E+01 0. -1.
         -5    1    3    3    0  502 -0.70623743756E+02 -0.11099959880E+02 -0.21216908880E+03  0.22392882113E+03  0.41800000000E+01 0. -1.
        -11    1    1    2    0    0  0.11297702888E+02  0.21112571894E+02 -0.70839420676E+02  0.74777017220E+02  0.00000000000E+00 0.  1.
         11    1    1    2    0    0  0.64830625964E+02 -0.97989730537E+02 -0.67251429119E+03  0.68270086363E+03  0.00000000000E+00 0. -1.
</event>
<event>
 7    1  0.3001243E-009  0.1070754E+03  0.7561462E-02  0.1266084E+00
         -1   -1    0    0    0  501 -0.00000000000E+00  0.00000000000E+00  0.74647358207E+02  0.74647358207E+02  0.00000000000E+00 0.  1.
          1   -1    0    0  501    0  0.00000000000E+00 -0.00000000000E+00 -0.25369388455E+03  0.25369388455E+03  0.00000000000E+00 0. -1.
         25    2    1    2    0    0  0.68373845581E+02  0.19068758346E+02 -0.42317277619E+02  0.14993068063E+03  0.12509938731E+03 0.  0.
          5    1    3    3  502    0 -0.22628014863E+02  0.40550733882E+02 -0.30205485402E+02  0.55553873163E+02  0.41800000000E+01 0. -1.
         -5    1    3    3    0  502  0.91001860444E+02 -0.21481975536E+02 -0.12111792217E+02  0.94376807468E+02  0.41800000000E+01 0. -1.
        -11    1    1    2    0    0 -0.52134349318E+02 -0.48752906217E+01 -0.14587174174E+03  0.15498491499E+03  0.00000000000E+00 0. -1.
         11    1    1    2    0    0 -0.16239496263E+02 -0.14193467725E+02  0.91424930158E+01  0.23425647130E+02  0.00000000000E+00 0.  1.
</event>
<event>
 7    1  0.3001243E-009  0.2780373E+03  0.7561462E-02  0.1096766E+00
         -2   -1    0    0    0  501 -0.00000000000E+00  0.00000000000E+00  0.21001011374E+04  0.21001011374E+04  0.00000000000E+00 0.  1.
          2   -1    0    0  501    0  0.00000000000E+00 -0.00000000000E+00 -0.39108780875E+02  0.39108780875E+02  0.00000000000E+00 0. -1.
         25    2    1    2    0    0 -0.25015200279E+03 -0.84676286858E+02  0.97108157027E+03  0.10140974093E+04  0.12509213172E+03 0.  0.
          5    1    3    3  502    0 -0.10541399514E+03  0.74893336838E+01  0.53693977524E+03  0.54725679085E+03  0.41800000000E+01 0.  1.
         -5    1    3    3    0  502 -0.14473800765E+03 -0.92165620542E+02  0.43414179503E+03  0.46684061848E+03  0.41800000000E+01 0.  1.
        -11    1    1    2    0    0  0.12471461063E+03  0.88907882495E+02  0.63443278760E+03  0.65265864558E+03  0.00000000000E+00 0.  1.
         11    1    1    2    0    0  0.12543739216E+03 -0.42315956364E+01  0.45547799864E+03  0.47245386336E+03  0.00000000000E+00 0. -1.
</event>
<event>
 7    1  0.3001243E-009  0.1320484E+03  0.7561462E-02  0.1224448E+00
          2   -1    0    0  501    0  0.00000000000E+00  0.00000000000E+00  0.90782316413E+03  0.90782316413E+03  0.00000000000E+00 0. -1.
         -2   -1    0    0    0  501 -0.00000000000E+00 -0.00000000000E+00 -0.58779146262E+02  0.58779146262E+02  0.00000000000E+00 0.  1.
         25    2    1    2    0    0 -0.22351291982E+02 -0.10636424497E+03  0.78663068236E+03  0.80389584342E+03  0.12509102198E+03 0.  0.
          5    1    3    3  502    0 -0.47283125252E+02 -0.63074200779E+02  0.19832311816E+03  0.21345627265E+03  0.41800000000E+01 0.  1.
         -5    1    3    3    0  502  0.24931833271E+02 -0.43290044189E+02  0.58830756420E+03  0.59043957077E+03  0.41800000000E+01 0.  1.
        -11    1    1    2    0    0  0.52684228208E+02  0.63396619736E+02  0.71756375849E+02  0.10928740445E+03  0.00000000000E+00 0. -1.
         11    1    1    2    0    0 -0.30332936227E+02  0.42967625233E+02 -0.93430403387E+01  0.53419062525E+02  0.00000000000E+00 0.  1.
</event>
<event>
 7    1  0.3773853E-009  0.1050941E+03  0.7561462E-02  0.1269934E+00
         -1   -1    0    0    0  501 -0.00000000000E+00  0.00000000000E+00  0.45052233872E+02  0.45052233872E+02  0.00000000000E+00 0.  1.
          1   -1    0    0  501    0  0.00000000000E+00 -0.00000000000E+00 -0.48282644388E+03  0.48282644388E+03  0.00000000000E+00 0. -1.
         25    2    1    2    0    0  0.68194103085E+02 -0.68814634092E+02 -0.19319270282E+03  0.24971296574E+03  0.12508898943E+03 0.  0.
          5    1    3    3  502    0  0.97702408279E+01  0.91543692388E+01  0.14556298650E+02  0.20214309594E+02  0.41800000000E+01 0. -1.
         -5    1    3    3    0  502  0.58423862257E+02 -0.77969003331E+02 -0.20774900147E+03  0.22949865615E+03  0.41800000000E+01 0. -1.
        -11    1    1    2    0    0 -0.36554178740E+02  0.23793560898E+02 -0.21936805681E+02  0.48821767349E+02  0.00000000000E+00 0.  1.
         11    1    1    2    0    0 -0.31639924345E+02  0.45021073194E+02 -0.22264470150E+03  0.22934394466E+03  0.00000000000E+00 0. -1.
</event>
<event>
 7    1  0.3001243E-009  0.9398983E+02  0.7561462E-02  0.1293468E+00
         -1   -1    0    0    0  501 -0.00000000000E+00  0.00000000000E+00  0.58589510485E+03  0.58589510485E+03  0.00000000000E+00 0.  1.
          1   -1    0    0  501    0  0.00000000000E+00 -0.00000000000E+00 -0.27694758935E+02  0.27694758935E+02  0.00000000000E+00 0. -1.
         25    2    1    2    0    0 -0.65758267668E+02 -0.80942723949E+01  0.30224740095E+03  0.33375278655E+03  0.12509102339E+03 0.  0.
          5    1    3    3  502    0 -0.75780514957E+02 -0.57867922986E+01  0.31064415723E+03  0.31983345390E+03  0.41800000000E+01 0.  1.
         -5    1    3    3    0  502  0.10022247289E+02 -0.23074800963E+01 -0.83967562825E+01  0.13919332642E+02  0.41800000000E+01 0.  1.
        -11    1    1    2    0    0  0.34558025586E+02 -0.33924432592E+02  0.18759707720E+03  0.19374670999E+03  0.00000000000E+00 0.  1.
         11    1    1    2    0    0  0.31200242082E+02  0.42018704987E+02  0.68355867759E+02  0.86090367242E+02  0.00000000000E+00 0. -1.
</event>
<event>
 7    1  0.3001243E-009  0.5444936E+02  0.7561462E-02  0.1422721E+00
         -1   -1    0    0    0  501 -0.00000000000E+00  0.00000000000E+00  0.14990605105E+03  0.14990605105E+03  0.00000000000E+00 0.  1.
          1   -1    0    0  501    0  0.00000000000E+00 -0.00000000000E+00 -0.88824941960E+02  0.88824941960E+02  0.00000000000E+00 0. -1.
         25    2    1    2    0    0  0.26811739778E+02  0.16656563063E+02  0.60162415754E+02  0.14234807649E+03  0.12508856114E+03 0.  0.
          5    1    3    3  502    0  0.11380942860E+02  0.11836513301E+02 -0.38615174989E+02  0.42169100619E+02  0.41800000000E+01 0.  1.
         -5    1    3    3    0  502  0.15430796918E+02  0.48200497620E+01  0.98777590744E+02  0.10017897587E+03  0.41800000000E+01 0.  1.
        -11    1    1    2    0    0 -0.33666213009E+00  0.25485983570E+02 -0.28766229971E+02  0.38433640040E+02  0.00000000000E+00 0. -1.
         11    1    1    2    0    0 -0.26475077648E+02 -0.42142546634E+02  0.29684923311E+02  0.57949276486E+02  0.00000000000E+00 0.  1.
</event>
<event>
 6    1  0.3001243E-009  0.1055521E+03  0.7561462E-02  0.1269036E+00
          1   -1    0    0  501    0  0.00000000000E+00  0.00000000000E+00  0.74775034257E+02  0.74775034257E+02  0.00000000000E+00 0. -1.
         -1   -1    0    0    0  501 -0.00000000000E+00 -0.00000000000E+00 -0.19274848449E+03  0.19274848449E+03  0.00000000000E+00 0.  1.
          5    1    1    2  502    0 -0.43921021204E+02  0.49837182567E+02 -0.44897705760E+02  0.80287466346E+02  0.41800000000E+01 0. -1.
         -5    1    1    2    0  502  0.10908045818E+02 -0.61310146745E+02 -0.61988917382E+02  0.87966003864E+02  0.41800000000E+01 0. -1.
        -11    1    1    2    0    0  0.33373579704E+02 -0.27446244999E+02  0.21724856701E+02  0.48363845851E+02  0.00000000000E+00 0. -1.
         11    1    1    2    0    0 -0.36060431836E+00  0.38919209177E+02 -0.32811683788E+02  0.50906202681E+02  0.00000000000E+00 0.  1.
</event>
<event>
 7    1  0.3001243E-009  0.1251545E+03  0.7561462E-02  0.1234828E+00
         -1   -1    0    0    0  501 -0.00000000000E+00  0.00000000000E+00  0.36443713286E+04  0.36443713286E+04  0.00000000000E+00 0.  1.
          1   -1    0    0  501    0  0.00000000000E+00 -0.00000000000E+00 -0.97735790312E+01  0.97735790312E+01  0.00000000000E+00 0. -1.
         25    2    1    2    0    0  0.64481537105E+02  0.41540151073E+01  0.31064406660E+04  0.31096294974E+04  0.12508747071E+03 0.  0.
          5    1    3    3  502    0  0.53569467778E+02 -0.46208694172E+02  0.24952075993E+04  0.24962138065E+04  0.41800000000E+01 0.  1.
         -5    1    3    3    0  502  0.10912069327E+02  0.50362709279E+02  0.61123306667E+03  0.61341569097E+03  0.41800000000E+01 0.  1.
        -11    1    1    2    0    0  0.14396726457E+02  0.36330180758E+02  0.10192495473E+03  0.10915971860E+03  0.00000000000E+00 0.  1.
         11    1    1    2    0    0 -0.78878263563E+02 -0.40484195865E+02  0.42623212887E+03  0.43535569166E+03  0.00000000000E+00 0. -1.
</event>
<event>
 7    1  0.3001243E-009  0.2331341E+03  0.7561462E-02  0.1124453E+00
          2   -1    0    0  501    0  0.00000000000E+00  0.00000000000E+00  0.41166085405E+03  0.41166085405E+03  0.00000000000E+00 0. -1.
         -2   -1    0    0    0  501 -0.00000000000E+00 -0.00000000000E+00 -0.15522145952E+03  0.15522145952E+03  0.00000000000E+00 0.  1.
         25    2    1    2    0    0 -0.21664245534E+03  0.19984294202E+02  0.18541908779E+03  0.31202723471E+03  0.12508969428E+03 0.  0.
          5    1    3    3  502    0 -0.11018385616E+03 -0.16597496314E+02  0.22173649192E+02  0.11368861931E+03  0.41800000000E+01 0. -1.
         -5    1    3    3    0  502 -0.10645859918E+03  0.36581790516E+02  0.16324543860E+03  0.19833861540E+03  0.41800000000E+01 0. -1.
        -11    1    1    2    0    0  0.12117851828E+03  0.42050724339E+02  0.18936732386E+02  0.12965761274E+03  0.00000000000E+00 0.  1.
         11    1    1    2    0    0  0.95463937067E+02 -0.62035018541E+02  0.52083574355E+02  0.12519746612E+03  0.00000000000E+00 0. -1.
</event>
<event>
 7    1  0.3001243E-009  0.1732713E+03  0.7561462E-02  0.1174479E+00
          2   -1    0    0  501    0  0.00000000000E+00  0.00000000000E+00  0.72135111417E+02  0.72135111417E+02  0.00000000000E+00 0. -1.
         -2   -1    0    0    0  501 -0.00000000000E+00 -0.00000000000E+00 -0.50256944008E+03  0.50256944008E+03  0.00000000000E+00 0.  1.
         25    2    1    2    0    0  0.13144503253E+03  0.55302650832E+02 -0.12893895804E+03  0.22936870311E+03  0.12509423367E+03 0.  0.
          5    1    3    3  502    0  0.12452551394E+03 -0.81332633427E+01 -0.74584890949E+02  0.14544116320E+03  0.41800000000E+01 0.  1.
         -5    1    3    3    0  502  0.69195185861E+01  0.63435914175E+02 -0.54354067094E+02  0.83927539904E+02  0.41800000000E+01 0.  1.
        -11    1    1    2    0    0 -0.22559879340E+02 -0.42475352758E+02 -0.15542840223E+03  0.16269939142E+03  0.00000000000E+00 0.  1.
         11    1    1    2    0    0 -0.10888515319E+03 -0.12827298075E+02 -0.14606696839E+03  0.18263645697E+03  0.00000000000E+00 0. -1.
</event>
<event>
 7    1  0.3001243E-009  0.1574062E+03  0.7561462E-02  0.1191657E+00
         -2   -1    0    0    0  501 -0.00000000000E+00  0.00000000000E+00  0.99344933763E+02  0.99344933763E+02  0.00000000000E+00 0.  1.
          2   -1    0    0  501    0  0.00000000000E+00 -0.00000000000E+00 -0.47763144834E+03  0.47763144834E+03  0.00000000000E+00 0. -1.
         25    2    1    2    0    0 -0.74323841703E+01  0.13273536715E+03 -0.19040957679E+02  0.18353217752E+03  0.12509030373E+03 0.  0.
          5    1    3    3  502    0  0.57594222007E+02  0.68767429745E+02 -0.20917288742E+02  0.92201188553E+02  0.41800000000E+01 0. -1.
         -5    1    3    3    0  502 -0.65026606177E+02  0.63967937409E+02  0.18763310633E+01  0.91330988966E+02  0.41800000000E+01 0. -1.
        -11    1    1    2    0    0 -0.39416136204E+01 -0.54921268197E+02 -0.50069172858E+02  0.74423142160E+02  0.00000000000E+00 0.  1.
         11    1    1    2    0    0  0.11373997791E+02 -0.77814098956E+02 -0.30917638404E+03  0.31902106243E+03  0.00000000000E+00 0. -1.
</event>
<event>
 7    1  0.3001243E-009  0.9974420E+02  0.7561462E-02  0.1280835E+00
         -2   -1    0    0    0  501 -0.00000000000E+00  0.00000000000E+00  0.20098013176E+02  0.20098013176E+02  0.00000000000E+00 0. -1.
          2   -1    0    0  501    0  0.00000000000E+00 -0.00000000000E+00 -0.99556286161E+03  0.99556286161E+03  0.00000000000E+00 0.  1.
         25    2    1    2    0    0  0.25058300243E+02 -0.60034841370E+02 -0.74916868734E+03  0.76232143905E+03  0.12509258073E+03 0.  0.
          5    1    3    3  502    0 -0.31384575854E+02 -0.58851437387E+02 -0.58207616364E+03  0.58589983441E+03  0.41800000000E+01 0. -1.
         -5    1    3    3    0  502  0.56442876097E+02 -0.11834039833E+01 -0.16709252369E+03  0.17642160463E+03  0.41800000000E+01 0. -1.
        -11    1    1    2    0    0 -0.32654810837E+02  0.27654955487E+02 -0.25512680215E+02  0.49819976772E+02  0.00000000000E+00 0. -1.
         11    1    1    2    0    0  0.75965105938E+01  0.32379885883E+02 -0.20078348089E+03  0.20351945897E+03  0.00000000000E+00 0.  1.
</event>
<event>
 7    1  0.3001243E-009  0.1080377E+03  0.7561462E-02  0.1264247E+00
          2   -1    0    0  501    0  0.00000000000E+00  0.00000000000E+00  0.12459911918E+03  0.12459911918E+03  0.00000000000E+00 0. -1.
         -2   -1    0    0    0  501 -0.00000000000E+00 -0.00000000000E+00 -0.95437676686E+02  0.95437676686E+02  0.00000000000E+00 0.  1.
         25    2    1    2    0    0 -0.11885244622E+02 -0.91097890748E+01  0.18277318733E+02  0.12730168337E+03  0.12508961152E+03 0.  0.
          5    1    3    3  502    0 -0.53997539470E+02  0.34474705255E+02  0.17516284250E+02  0.66547217711E+02  0.41800000000E+01 0. -1.
         -5    1    3    3    0  502  0.42112294848E+02 -0.43584494330E+02  0.76103448366E+00  0.60754465654E+02  0.41800000000E+01 0. -1.
        -11    1    1    2    0    0  0.50430463420E+02 -0.35471373837E+01 -0.64324306123E+00  0.50559149380E+02  0.00000000000E+00 0.  1.
         11    1    1    2    0    0 -0.38545218799E+02  0.12656926458E+02  0.11527366827E+02  0.42175963126E+02  0.00000000000E+00 0. -1.
</event>
<event>
 7    1  0.3001243E-009  0.8870026E+02  0.7561462E-02  0.1306030E+00
         -1   -1    0    0    0  501 -0.00000000000E+00  0.00000000000E+00  0.34192143149E+02  0.34192143149E+02  0.00000000000E+00 0.  1.
          1   -1    0    0  501    0  0.00000000000E+00 -0.00000000000E+00 -0.38247966827E+03  0.38247966827E+03  0.00000000000E+00 0. -1.
         25    2    1    2    0    0  0.19779760623E+02 -0.14977438366E+02 -0.15498243818E+03  0.20070381287E+03  0.12508757638E+03 0.  0.
          5    1    3    3  502    0  0.36489506631E+02 -0.46214433912E+02 -0.21963725291E+02  0.62985201632E+02  0.41800000000E+01 0. -1.
         -5    1    3    3    0  502 -0.16709746008E+02  0.31236995545E+02 -0.13301871289E+03  0.13771861124E+03  0.41800000000E+01 0. -1.
        -11    1    1    2    0    0 -0.43934207875E+02  0.30948715007E+02 -0.64529137553E+02  0.83976467986E+02  0.00000000000E+00 0.  1.
         11    1    1    2    0    0  0.24154447252E+02 -0.15971276640E+02 -0.12877594939E+03  0.13199153056E+03  0.00000000000E+00 0. -1.
</event>
<event>
 7    1  0.3001243E-009  0.7667007E+02  0.7561462E-02  0.1338776E+00
         -1   -1    0    0    0  501 -0.00000000000E+00  0.00000000000E+00  0.16235149496E+03  0.16235149496E+03  0.00000000000E+00 0.  1.
          1   -1    0    0  501    0  0.00000000000E+00 -0.00000000000E+00 -0.96666975024E+02  0.96666975024E+02  0.00000000000E+00 0. -1.
         25    2    1    2    0    0  0.46153269657E+00  0.61141065051E+02  0.52743478529E+02  0.14889088713E+03  0.12509268122E+03 0.  0.
          5    1    3    3  502    0  0.16603075906E+02  0.34808087799E+02 -0.37172300706E+02  0.53726319859E+02  0.41800000000E+01 0. -1.
         -5    1    3    3    0  502 -0.16141543209E+02  0.26332977252E+02  0.89915779235E+02  0.95164567270E+02  0.41800000000E+01 0. -1.
        -11    1    1    2    0    0  0.27965521160E+02 -0.34614747061E+02  0.42308090816E+02  0.61402163125E+02  0.00000000000E+00 0. -1.
         11    1    1    2    0    0 -0.28427053857E+02 -0.26526317990E+02 -0.29367049409E+02  0.48725419732E+02  0.00000000000E+00 0.  1.
</event>
<event>
 7    1  0.3001243E-009  0.2198515E+03  0.7561462E-02  0.1133994E+00
          3   -1    0    0  501    0  0.00000000000E+00  0.00000000000E+00  0.22479836118E+03  0.22479836118E+03  0.00000000000E+00 0. -1.
         -3   -1    0    0    0  501 -0.00000000000E+00 -0.00000000000E+00 -0.21840085311E+03  0.21840085311E+03  0.00000000000E+00 0.  1.
         25    2    1    2    0    0 -0.12535208799E+03 -0.14183621173E+03 -0.19913547838E+02  0.22776014253E+03  0.12508987254E+03 0.  0.
          5    1    3    3  502    0 -0.15001855655E+03 -0.11242214718E+03 -0.94491546139E+01  0.18775267085E+03  0.41800000000E+01 0. -1.
         -5    1    3    3    0  502  0.24666468559E+02 -0.29414064553E+02 -0.10464393224E+02  0.40007471680E+02  0.41800000000E+01 0. -1.
        -11    1    1    2    0    0  0.59996285835E+02  0.29388331679E+01  0.12124766413E+02  0.61279694965E+02  0.00000000000E+00 0.  1.
         11    1    1    2    0    0  0.65355802160E+02  0.13889737856E+03  0.14186289495E+02  0.15415937681E+03  0.00000000000E+00 0. -1.
</event>
<event>
 7    1  0.3001243E-009  0.1206383E+03  0.7561462E-02  0.1242048E+00
         -2   -1    0    0    0  501 -0.00000000000E+00  0.00000000000E+00  0.67961678488E+02  0.67961678488E+02  0.00000000000E+00 0.  1.
          2   -1    0    0  501    0  0.00000000000E+00 -0.00000000000E+00 -0.26369603711E+03  0.26369603711E+03  0.00000000000E+00 0. -1.
         25    2    1    2    0    0 -0.74079664253E+02 -0.12492015418E+02 -0.13709595160E+03  0.20021669080E+03  0.12509027230E+03 0.  0.
          5    1    3    3  502    0 -0.94302157132E+02  0.79336472258E+01 -0.14206378292E+03  0.17074961322E+03  0.41800000000E+01 0. -1.
         -5    1    3    3    0  502  0.20222492880E+02 -0.20425662644E+02  0.49678313184E+01  0.29467077574E+02  0.41800000000E+01 0. -1.
        -11    1    1    2    0    0 -0.16268290145E+01  0.37681448537E+02 -0.15932552927E+02  0.40943673251E+02  0.00000000000E+00 0.  1.
         11    1    1    2    0    0  0.75706493267E+02 -0.25189433119E+02 -0.42705854089E+02  0.90497351548E+02  0.00000000000E+00 0. -1.
</event>
<event>
 7    1  0.3001243E-009  0.1088892E+03  0.7561462E-02  0.1262641E+00
         -3   -1    0    0    0  501 -0.00000000000E+00  0.00000000000E+00  0.38461139831E+02  0.38461139831E+02  0.00000000000E+00 0.  1.
          3   -1    0    0  501    0  0.00000000000E+00 -0.00000000000E+00 -0.36276467786E+03  0.36276467786E+03  0.00000000000E+00 0. -1.
         25    2    1    2    0    0  0.16460240360E+02  0.44734229562E+02 -0.17957719417E+03  0.22398088054E+03  0.12508946947E+03 0.  0.
          5    1    3    3  502    0  0.14451758862E+01 -0.39125092765E+02 -0.99415046061E+02  0.10692841157E+03  0.41800000000E+01 0.  1.
         -5    1    3    3    0  502  0.15015064474E+02  0.83859322326E+02 -0.80162148108E+02  0.11705246897E+03  0.41800000000E+01 0.  1.
        -11    1    1    2    0    0  0.31824621317E+02 -0.26782985626E+02 -0.29399286839E+02  0.50935772377E+02  0.00000000000E+00 0.  1.
         11    1    1    2    0    0 -0.48284861677E+02 -0.17951243936E+02 -0.11532705702E+03  0.12630916478E+03  0.00000000000E+00 0. -1.
</event>
<event>
 7    1  0.3001243E-009  0.8426906E+02  0.7561462E-02  0.1317355E+00
          2   -1    0    0  501    0  0.00000000000E+00  0.00000000000E+00  0.21235748504E+03  0.21235748504E+03  0.00000000000E+00 0. -1.
         -2   -1    0    0    0  501 -0.00000000000E+00 -0.00000000000E+00 -0.65752071390E+02  0.65752071390E+02  0.00000000000E+00 0.  1.
         25    2    1    2    0    0  0.78743067474E+01  0.53765640084E+02  0.11127280361E+03  0.17601904074E+03  0.12509323370E+03 0.  0.
          5    1    3    3  502    0  0.32311426840E+02  0.62482450471E+02  0.12711015650E+03  0.14533598730E+03  0.41800000000E+01 0.  1.
         -5    1    3    3    0  502 -0.24437120092E+02 -0.87168103865E+01 -0.15837352881E+02  0.30683053434E+02  0.41800000000E+01 0.  1.
        -11    1    1    2    0    0  0.11305299304E+02 -0.51209321061E+02 -0.94678344747E+01  0.53290189017E+02  0.00000000000E+00 0.  1.
         11    1    1    2    0    0 -0.19179606052E+02 -0.25563190235E+01  0.44800444508E+02  0.48800326673E+02  0.00000000000E+00 0. -1.
</event>
<event>
 7    1  0.3001243E-009  0.1175208E+03  0.7561462E-02  0.1247244E+00
          2   -1    0    0  501    0  0.00000000000E+00  0.00000000000E+00  0.10690705261E+04  0.10690705261E+04  0.00000000000E+00 0. -1.
         -2   -1    0    0    0  501 -0.00000000000E+00 -0.00000000000E+00 -0.17510932196E+02  0.17510932196E+02  0.00000000000E+00 0.  1.
         25    2    1    2    0    0  0.25556105588E+02  0.75416303014E+02  0.65350266485E+03  0.67011572828E+03  0.12509445643E+03 0.  0.
          5    1    3    3  502    0  0.58812467286E+02  0.32996293903E+02  0.16028377091E+03  0.17394258057E+03  0.41800000000E+01 0.  1.
         -5    1    3    3    0  502 -0.33256361698E+02  0.42420009111E+02  0.49321889394E+03  0.49617314771E+03  0.41800000000E+01 0.  1.
        -11    1    1    2    0    0 -0.10177786222E+02  0.16951693546E+02  0.25204224768E+02  0.32034359562E+02  0.00000000000E+00 0.  1.
         11    1    1    2    0    0 -0.15378319366E+02 -0.92367996559E+02  0.37285270430E+03  0.38443137047E+03  0.00000000000E+00 0. -1.
</event>
<event>
 7    1  0.3001243E-009  0.1155898E+03  0.7561462E-02  0.1250555E+00
         -1   -1    0    0    0  501 -0.00000000000E+00  0.00000000000E+00  0.54221805284E+02  0.54221805284E+02  0.00000000000E+00 0.  1.
          1   -1    0    0  501    0  0.00000000000E+00 -0.00000000000E+00 -0.29557620172E+03  0.29557620172E+03  0.00000000000E+00 0. -1.
         25    2    1    2    0    0 -0.22071087403E+02  0.59111586067E+02 -0.17222830705E+03  0.22201637874E+03  0.12508944868E+03 0.  0.
          5    1    3    3  502    0 -0.38509378167E+02  0.92991917315E+02 -0.13870263225E+03  0.17142450667E+03  0.41800000000E+01 0.  1.
         -5    1    3    3    0  502  0.16438290763E+02 -0.33880331247E+02 -0.33525674802E+02  0.50591872070E+02  0.41800000000E+01 0.  1.
        -11    1    1    2    0    0 -0.24560760854E+02 -0.19225374633E+02  0.49605881536E+01  0.31582486260E+02  0.00000000000E+00 0.  1.
         11    1    1    2    0    0  0.46631848258E+02 -0.39886211434E+02 -0.74086677536E+02  0.96199142007E+02  0.00000000000E+00 0. -1.
</event>
<event>
 7    1  0.3001243E-009  0.1774098E+03  0.7561462E-02  0.1170334E+00
          1   -1    0    0  501    0  0.00000000000E+00  0.00000000000E+00  0.32956235667E+03  0.32956235667E+03  0.00000000000E+00 0. -1.
         -1   -1    0    0    0  501 -0.00000000000E+00 -0.00000000000E+00 -0.11561328778E+03  0.11561328778E+03  0.00000000000E+00 0.  1.
         25    2    1    2    0    0  0.77661112044E+02 -0.14058523431E+03  0.11935703835E+03  0.23598784477E+03  0.12509477944E+03 0.  0.
          5    1    3    3  502    0  0.37116267272E+01 -0.76465376766E+02  0.11463146079E+03  0.13790784684E+03  0.41800000000E+01 0.  1.
         -5    1    3    3    0  502  0.73949485317E+02 -0.64119857544E+02  0.47255775571E+01  0.98079997927E+02  0.41800000000E+01 0.  1.
        -11    1    1    2    0    0 -0.94510306068E+02  0.10809845198E+03  0.95730135499E+02  0.17257384540E+03  0.00000000000E+00 0. -1.
         11    1    1    2    0    0  0.16849194024E+02  0.32486782328E+02 -0.11381049636E+01  0.36613954283E+02  0.00000000000E+00 0.  1.
</event>
<event>
 7    1  0.4308313E-009  0.1141462E+03  0.7561462E-02  0.1253079E+00
         -3   -1    0    0    0  501 -0.00000000000E+00  0.00000000000E+00  0.17288795295E+02  0.17288795295E+02  0.00000000000E+00 0.  1.
          3   -1    0    0  501    0  0.00000000000E+00 -0.00000000000E+00 -0.93792152491E+03  0.93792152491E+03  0.00000000000E+00 0. -1.
         25    2    1    2    0    0 -0.37630297902E+02 -0.55023521922E+02 -0.51583723939E+03  0.53495659657E+03  0.12508747096E+03 0.  0.
          5    1    3    3  502    0 -0.71111099584E+02 -0.32216977834E+02 -0.45550420212E+03  0.46216476790E+03  0.41800000000E+01 0.  1.
         -5    1    3    3    0  502  0.33480801682E+02 -0.22806544088E+02 -0.60333037273E+02  0.72791828670E+02  0.41800000000E+01 0.  1.
        -11    1    1    2    0    0 -0.90164524991E+01  0.61619296055E+02 -0.17694987101E+03  0.18758862149E+03  0.00000000000E+00 0.  1.
         11    1    1    2    0    0  0.46646750401E+02 -0.65957741328E+01 -0.22784561922E+03  0.23266510214E+03  0.00000000000E+00 0. -1.
</event>
<event>
 7    1  0.3001243E-009  0.1237280E+03  0.7561462E-02  0.1237071E+00
          1   -1    0    0  501    0  0.00000000000E+00  0.00000000000E+00  0.42973901405E+03  0.42973901405E+03  0.00000000000E+00 0. -1.
         -1   -1    0    0    0  501 -0.00000000000E+00 -0.00000000000E+00 -0.38248238284E+02  0.38248238284E+02  0.00000000000E+00 0.  1.
         25    2    1    2    0    0  0.46938174493E+02 -0.45663795293E+02  0.16241155776E+03  0.21520471771E+03  0.12508869656E+03 0.  0.
          5    1    3    3  502    0  0.88412283086E+02 -0.17351749014E+02  0.94434229531E+02  0.13058756105E+03  0.41800000000E+01 0. -1.
         -5    1    3    3    0  502 -0.41474108594E+02 -0.28312046279E+02  0.67977328229E+02  0.84617156661E+02  0.41800000000E+01 0. -1.
        -11    1    1    2    0    0 -0.39917451626E+01  0.61102754660E+02  0.13044853720E+03  0.14410517518E+03  0.00000000000E+00 0.  1.
         11    1    1    2    0    0 -0.42946429330E+02 -0.15438959368E+02  0.98630680813E+02  0.10867735945E+03  0.00000000000E+00 0. -1.
</event>
<event>
 7    1  0.3001243E-009  0.1069065E+03  0.7561462E-02  0.1266408E+00
          2   -1    0    0  501    0  0.00000000000E+00  0.00000000000E+00  0.31180073623E+03  0.31180073623E+03  0.00000000000E+00 0. -1.
         -2   -1    0    0    0  501 -0.00000000000E+00 -0.00000000000E+00 -0.52912859200E+02  0.52912859200E+02  0.00000000000E+00 0.  1.
         25    2    1    2    0    0 -0.73357651276E+01 -0.66668646844E+02  0.15920428551E+03  0.21329072372E+03  0.12509359048E+03 0.  0.
          5    1    3    3  502    0 -0.59369009528E+02 -0.60047539046E+01  0.50384200622E+02  0.78209823131E+02  0.41800000000E+01 0. -1.
         -5    1    3    3    0  502  0.52033244401E+02 -0.60663892939E+02  0.10882008488E+03  0.13508090059E+03  0.41800000000E+01 0. -1.
        -11    1    1    2    0    0  0.11206308002E+02  0.51671607607E+01 -0.16085955962E+02  0.20274093533E+02  0.00000000000E+00 0.  1.
         11    1    1    2    0    0 -0.38705428741E+01  0.61501486083E+02  0.11576954749E+03  0.13114877818E+03  0.00000000000E+00 0. -1.
</event>
<event>
 7    1  0.3001243E-009  0.1076257E+03  0.7561462E-02  0.1265031E+00
         -1   -1    0    0    0  501 -0.00000000000E+00  0.00000000000E+00  0.43029824103E+03  0.43029824103E+03  0.00000000000E+00 0.  1.
          1   -1    0    0  501    0  0.00000000000E+00 -0.00000000000E+00 -0.31387221174E+02  0.31387221174E+02  0.00000000000E+00 0. -1.
         25    2    1    2    0    0  0.29578499065E+02  0.29253625351E+02  0.24846849506E+03  0.28127670813E+03  0.12509728732E+03 0.  0.
          5    1    3    3  502    0  0.70835359972E+02 -0.25712099161E+01  0.19007437258E+03  0.20290391532E+03  0.41800000000E+01 0. -1.
         -5    1    3    3    0  502 -0.41256860907E+02  0.31824835267E+02  0.58394122481E+02  0.78372792804E+02  0.41800000000E+01 0. -1.
        -11    1    1    2    0    0 -0.21999405164E+02  0.27217243402E+02  0.26176640357E+02  0.43703188286E+02  0.00000000000E+00 0. -1.
         11    1    1    2    0    0 -0.75790939010E+01 -0.56470868753E+02  0.12426588444E+03  0.13670556578E+03  0.00000000000E+00 0.  1.
</event>
<event>
 6    1  0.3001243E-009  0.1920535E+03  0.7561462E-02  0.1156622E+00
         -2   -1    0    0    0  501 -0.00000000000E+00  0.00000000000E+00  0.16205598653E+03  0.16205598653E+03  0.00000000000E+00 0.  1.
          2   -1    0    0  501    0  0.00000000000E+00 -0.00000000000E+00 -0.24453143727E+03  0.24453143727E+03  0.00000000000E+00 0. -1.
          5    1    1    2  502    0 -0.79180578822E+02  0.62549757432E+02 -0.58795167114E+02  0.11686051640E+03  0.41800000000E+01 0.  1.
         -5    1    1    2    0  502  0.38807393775E+02  0.92962398054E+02 -0.28930858051E+02  0.10489274623E+03  0.41800000000E+01 0.  1.
        -11    1    1    2    0    0  0.67133896181E+02 -0.12348691028E+03 -0.87131909790E+01  0.14082576726E+03  0.00000000000E+00 0.  1.
         11    1    1    2    0    0 -0.26760711133E+02 -0.32025245202E+02  0.13963765399E+02  0.44008393912E+02  0.00000000000E+00 0. -1.
</event>
<event>
 7    1  0.3001243E-009  0.4673661E+02  0.7561462E-02  0.1463783E+00
         -2   -1    0    0    0  501 -0.00000000000E+00  0.00000000000E+00  0.31573515834E+02  0.31573515834E+02  0.00000000000E+00 0.  1.
          2   -1    0    0  501    0  0.00000000000E+00 -0.00000000000E+00 -0.34769182168E+03  0.34769182168E+03  0.00000000000E+00 0. -1.
         25    2    1    2    0    0 -0.28351401452E+01 -0.24944675976E+02 -0.19060711480E+03  0.22935302106E+03  0.12506582737E+03 0.  0.
          5    1    3    3  502    0 -0.24110416762E+01  0.11761011524E+02 -0.19196233823E+03  0.19238281163E+03  0.41800000000E+01 0.  1.
         -5    1    3    3    0  502 -0.42409846891E+00 -0.36705687500E+02  0.13552234282E+01  0.36970209424E+02  0.41800000000E+01 0.  1.
        -11    1    1    2    0    0 -0.16314026843E+02  0.76754806131E+01  0.34858026694E+01  0.18363313827E+02  0.00000000000E+00 0.  1.
         11    1    1    2    0    0  0.19149166988E+02  0.17269195363E+02 -0.12899699371E+03  0.13154900263E+03  0.00000000000E+00 0. -1.
</event>
<event>
 7    1  0.3001243E-009  0.1317125E+03  0.7561462E-02  0.1224937E+00
          1   -1    0    0  501    0  0.00000000000E+00  0.00000000000E+00  0.34441779627E+03  0.34441779627E+03  0.00000000000E+00 0. -1.
         -1   -1    0    0    0  501 -0.00000000000E+00 -0.00000000000E+00 -0.55271830215E+02  0.55271830215E+02  0.00000000000E+00 0.  1.
         25    2    1    2    0    0  0.79243492544E+02 -0.42873230451E+01  0.17873960191E+03  0.23214937922E+03  0.12509027432E+03 0.  0.
          5    1    3    3  502    0  0.65301108984E+02  0.54349627852E+02  0.82373100114E+02  0.11840995273E+03  0.41800000000E+01 0. -1.
         -5    1    3    3    0  502  0.13942383561E+02 -0.58636950897E+02  0.96366501796E+02  0.11373942649E+03  0.41800000000E+01 0. -1.
        -11    1    1    2    0    0 -0.98773077618E+01  0.39104286511E+02  0.68093663342E+02  0.79141982660E+02  0.00000000000E+00 0. -1.
         11    1    1    2    0    0 -0.69366184782E+02 -0.34816963465E+02  0.42312700800E+02  0.88398264605E+02  0.00000000000E+00 0.  1.
</event>
<event>
 7    1  0.3001243E-009  0.1012517E+03  0.7561462E-02  0.1277686E+00
          2   -1    0    0  501    0  0.00000000000E+00  0.00000000000E+00  0.11970865437E+03  0.11970865437E+03  0.00000000000E+00 0. -1.
         -2   -1    0    0    0  501 -0.00000000000E+00 -0.00000000000E+00 -0.12189985664E+03  0.12189985664E+03  0.00000000000E+00 0.  1.
         25    2    1    2    0    0  0.35423617862E+01 -0.23951571721E+02  0.43621179688E+02  0.13467211468E+03  0.12509014765E+03 0.  0.
          5    1    3    3  502    0  0.60609606001E+02 -0.12100234606E+01  0.40487980321E+02  0.73018747228E+02  0.41800000000E+01 0.  1.
         -5    1    3    3    0  502 -0.57067244214E+02 -0.22741548260E+02  0.31331993671E+01  0.61653367449E+02  0.41800000000E+01 0.  1.
        -11    1    1    2    0    0 -0.37313849281E+02 -0.23073236027E+01 -0.51650720380E+02  0.63760834422E+02  0.00000000000E+00 0.  1.
         11    1    1    2    0    0  0.33771487495E+02  0.26258895323E+02  0.58383384210E+01  0.43175561916E+02  0.00000000000E+00 0. -1.
</event>
<event>
 7    1  0.3001243E-009  0.3665250E+03  0.7561462E-02  0.1056030E+00
         -1   -1    0    0    0  501 -0.00000000000E+00  0.00000000000E+00  0.15703629337E+03  0.15703629337E+03  0.00000000000E+00 0.  1.
          1   -1    0    0  501    0  0.00000000000E+00 -0.00000000000E+00 -0.14470017925E+04  0.14470017925E+04  0.00000000000E+00 0. -1.
         25    2    1    2    0    0  0.12795648779E+03  0.34124051113E+03 -0.11330879267E+04  0.11968099439E+04  0.12509133908E+03 0.  0.
          5    1    3    3  502    0  0.43214132089E+02  0.19017358402E+03 -0.77261080394E+03  0.79685530684E+03  0.41800000000E+01 0.  1.
         -5    1    3    3    0  502  0.84742355705E+02  0.15106692711E+03 -0.36047712273E+03  0.39995463709E+03  0.41800000000E+01 0.  1.
        -11    1    1    2    0    0 -0.26969113706E+02 -0.56606112791E+02  0.78755825832E+01  0.63195014838E+02  0.00000000000E+00 0.  1.
         11    1    1    2    0    0 -0.10098737409E+03 -0.28463439834E+03 -0.16475315505E+03  0.34403312710E+03  0.00000000000E+00 0. -1.
</event>
<event>
 7    1  0.3001243E-009  0.9297565E+02  0.7561462E-02  0.1295802E+00
          1   -1    0    0  501    0  0.00000000000E+00  0.00000000000E+00  0.19481346136E+03  0.19481346136E+03  0.00000000000E+00 0. -1.
         -1   -1    0    0    0  501 -0.00000000000E+00 -0.00000000000E+00 -0.68257233123E+02  0.68257233123E+02  0.00000000000E+00 0.  1.
         25    2    1    2    0    0 -0.42065216316E+02 -0.25657932991E+02  0.74288944816E+02  0.15360658219E+03  0.12509325650E+03 0.  0.
          5    1    3    3  502    0 -0.49819483809E+02  0.36602528671E+02  0.84002074819E+01  0.62528089351E+02  0.41800000000E+01 0.  1.
         -5    1    3    3    0  502  0.77542674930E+01 -0.62260461662E+02  0.65888737335E+02  0.91078492841E+02  0.41800000000E+01 0.  1.
        -11    1    1    2    0    0  0.56757646169E+00  0.19086253378E+02 -0.18870274529E+02  0.26845753330E+02  0.00000000000E+00 0.  1.
         11    1    1    2    0    0  0.41497639855E+02  0.65716796132E+01  0.71137557954E+02  0.82618358965E+02  0.00000000000E+00 0. -1.
</event>
<event>
 7    1  0.3001243E-009  0.1119118E+03  0.7561462E-02  0.1257070E+00
         -3   -1    0    0    0  501 -0.00000000000E+00  0.00000000000E+00  0.87277440695E+02  0.87277440695E+02  0.00000000000E+00 0.  1.
          3   -1    0    0  501    0  0.00000000000E+00 -0.00000000000E+00 -0.27176667066E+03  0.27176667066E+03  0.00000000000E+00 0. -1.
         25    2    1    2    0    0  0.48597639741E+02 -0.11860075135E+02  0.13711243730E+02  0.13541885412E+03  0.12509147004E+03 0.  0.
          5    1    3    3  502    0  0.31898456062E+02 -0.63790707184E+02  0.31232081339E+02  0.77972310001E+02  0.41800000000E+01 0. -1.
         -5    1    3    3    0  502  0.16699183679E+02  0.51930632048E+02 -0.17520837609E+02  0.57446544117E+02  0.41800000000E+01 0. -1.
        -11    1    1    2    0    0 -0.39757505607E+02  0.46928011474E+02 -0.15801199330E+03  0.16956027701E+03  0.00000000000E+00 0. -1.
         11    1    1    2    0    0 -0.88401341343E+01 -0.35067936338E+02 -0.40188480402E+02  0.54064980233E+02  0.00000000000E+00 0.  1.
</event>
<event>
 7    1  0.3001243E-009  0.1603419E+03  0.7561462E-02  0.1188311E+00
         -1   -1    0    0    0  501 -0.00000000000E+00  0.00000000000E+00  0.25005323914E+03  0.25005323914E+03  0.00000000000E+00 0.  1.
          1   -1    0    0  501    0  0.00000000000E+00 -0.00000000000E+00 -0.15389763291E+03  0.15389763291E+03  0.00000000000E+00 0. -1.
         25    2    1    2    0    0  0.12035759986E+03  0.52531412317E+02 -0.49439438930E+02  0.18798138086E+03  0.12508892958E+03 0.  0.
          5    1    3    3  502    0  0.18277073078E+02  0.73315627243E+02 -0.92227891208E+01  0.76234931872E+02  0.41800000000E+01 0.  1.
         -5    1    3    3    0  502  0.10208052679E+03 -0.20784214927E+02 -0.40216649809E+02  0.11174644899E+03  0.41800000000E+01 0.  1.
        -11    1    1    2    0    0 -0.45773887307E+02 -0.47547358982E+02  0.12001145867E+03  0.13696258729E+03  0.00000000000E+00 0. -1.
         11    1    1    2    0    0 -0.74583712556E+02 -0.49840533352E+01  0.25583586491E+02  0.79006903901E+02  0.00000000000E+00 0.  1.
</event>
<event>
 7    1  0.3001243E-009  0.9056521E+02  0.7561462E-02  0.1301489E+00
         -2   -1    0    0    0  501 -0.00000000000E+00  0.00000000000E+00  0.22317087170E+02  0.22317087170E+02  0.00000000000E+00 0.  1.
          2   -1    0    0  501    0  0.00000000000E+00 -0.00000000000E+00 -0.54875171302E+03  0.54875171302E+03  0.00000000000E+00 0. -1.
         25    2    1    2    0    0 -0.22983314041E+02 -0.15685739077E+02 -0.30338850801E+03  0.32935482444E+03  0.12512289340E+03 0.  0.
          5    1    3    3  502    0 -0.31965280886E+02 -0.58021159474E+02 -0.91430888686E+02  0.11298368880E+03  0.41800000000E+01 0. -1.
         -5    1    3    3    0  502  0.89819668456E+01  0.42335420397E+02 -0.21195761932E+03  0.21637113564E+03  0.41800000000E+01 0. -1.
        -11    1    1    2    0    0 -0.12633783704E+02 -0.18173133733E+02 -0.12314736740E+02  0.25328403450E+02  0.00000000000E+00 0.  1.
         11    1    1    2    0    0  0.35617097745E+02  0.33858872810E+02 -0.21073138110E+03  0.21638557231E+03  0.00000000000E+00 0. -1.
</event>
<event>
 7    1  0.3001243E-009  0.1009748E+03  0.7561462E-02  0.1278259E+00
          2   -1    0    0  501    0  0.00000000000E+00  0.00000000000E+00  0.32697231805E+03  0.32697231805E+03  0.00000000000E+00 0. -1.
         -2   -1    0    0    0  501 -0.00000000000E+00 -0.00000000000E+00 -0.48239733998E+02  0.48239733998E+02  0.00000000000E+00 0.  1.
         25    2    1    2    0    0  0.57005182616E+02 -0.11928731882E+02  0.18878820121E+03  0.23383847642E+03  0.12509021803E+03 0.  0.
          5    1    3    3  502    0  0.75154326618E+02 -0.45721243910E+02  0.82154428558E+02  0.12043848009E+03  0.41800000000E+01 0. -1.
         -5    1    3    3    0  502 -0.18149144002E+02  0.33792512027E+02  0.10663377266E+03  0.11339999633E+03  0.41800000000E+01 0. -1.
        -11    1    1    2    0    0 -0.40078137702E+02 -0.15577255518E+02  0.98912473448E+02  0.10785446405E+03  0.00000000000E+00 0. -1.
         11    1    1    2    0    0 -0.16927044914E+02  0.27505987401E+02 -0.89680906062E+01  0.33519111586E+02  0.00000000000E+00 0.  1.
</event>
<event>
 7    1  0.3001243E-009  0.1173451E+03  0.7561462E-02  0.1247542E+00
         -1   -1    0    0    0  501 -0.00000000000E+00  0.00000000000E+00  0.36445087542E+02  0.36445087542E+02  0.00000000000E+00 0.  1.
          1   -1    0    0  501    0  0.00000000000E+00 -0.00000000000E+00 -0.71998165798E+03  0.71998165798E+03  0.00000000000E+00 0. -1.
         25    2    1    2    0    0  0.51922249597E+01  0.94594832493E+02 -0.19517076332E+03  0.25043608255E+03  0.12510580743E+03 0.  0.
          5    1    3    3  502    0  0.25198890705E+02  0.76262253425E+02 -0.34630838740E+02  0.87565305813E+02  0.41800000000E+01 0.  1.
         -5    1    3    3    0  502 -0.20006665746E+02  0.18332579068E+02 -0.16053992458E+03  0.16287077673E+03  0.41800000000E+01 0.  1.
        -11    1    1    2    0    0  0.37926317596E+02 -0.62300076634E+02 -0.20597494070E+03  0.21850716535E+03  0.00000000000E+00 0. -1.
         11    1    1    2    0    0 -0.43118542556E+02 -0.32294755858E+02 -0.28239086642E+03  0.28748349762E+03  0.00000000000E+00 0.  1.
</event>
<event>
 7    1  0.3001243E-009  0.1320012E+03  0.7561462E-02  0.1224516E+00
         -1   -1    0    0    0  501 -0.00000000000E+00  0.00000000000E+00  0.33277927448E+03  0.33277927448E+03  0.00000000000E+00 0.  1.
          1   -1    0    0  501    0  0.00000000000E+00 -0.00000000000E+00 -0.64876090899E+02  0.64876090899E+02  0.00000000000E+00 0. -1.
         25    2    1    2    0    0  0.69981220668E+02  0.46215292780E+02  0.20319677950E+03  0.25292062178E+03  0.12508671068E+03 0.  0.
          5    1    3    3  502    0 -0.28777410566E+02  0.20404032810E+02  0.10644320510E+03  0.11221449205E+03  0.41800000000E+01 0.  1.
         -5    1    3    3    0  502  0.98758631234E+02  0.25811259970E+02  0.96753574396E+02  0.14070612973E+03  0.41800000000E+01 0.  1.
        -11    1    1    2    0    0 -0.54855020528E+02  0.20006724053E+02  0.14209297464E+02  0.60093647076E+02  0.00000000000E+00 0.  1.
         11    1    1    2    0    0 -0.15126200140E+02 -0.66222016834E+02  0.50497106619E+02  0.84641096526E+02  0.00000000000E+00 0. -1.
</event>
<event>
 7    1  0.3001243E-009  0.9626312E+02  0.7561462E-02  0.1288356E+00
          2   -1    0    0  501    0  0.00000000000E+00  0.00000000000E+00  0.48997325432E+02  0.48997325432E+02  0.00000000000E+00 0. -1.
         -2   -1    0    0    0  501 -0.00000000000E+00 -0.00000000000E+00 -0.27312761985E+03  0.27312761985E+03  0.00000000000E+00 0.  1.
         25    2    1    2    0    0  0.39562483347E+02 -0.15489866948E+02 -0.11802518769E+03  0.17714965909E+03  0.12508769212E+03 0.  0.
          5    1    3    3  502    0 -0.28118746800E+02 -0.26742648196E+02 -0.98105435224E+02  0.10558400435E+03  0.41800000000E+01 0. -1.
         -5    1    3    3    0  502  0.67681230147E+02  0.11252781248E+02 -0.19919752468E+02  0.71565654741E+02  0.41800000000E+01 0. -1.
        -11    1    1    2    0    0  0.21532432944E+02  0.89385306438E+01 -0.69834984606E+02  0.73623828163E+02  0.00000000000E+00 0.  1.
         11    1    1    2    0    0 -0.61094916291E+02  0.65513363047E+01 -0.36270122119E+02  0.71351458027E+02  0.00000000000E+00 0. -1.
</event>
<event>
 7    1  0.3001243E-009  0.1144544E+03  0.7561462E-02  0.1252536E+00
          1   -1    0    0  501    0  0.00000000000E+00  0.00000000000E+00  0.16976159822E+03  0.16976159822E+03  0.00000000000E+00 0. -1.
         -1   -1    0    0    0  501 -0.00000000000E+00 -0.00000000000E+00 -0.96832041949E+02  0.96832041949E+02  0.00000000000E+00 0.  1.
         25    2    1    2    0    0 -0.39927394352E+02 -0.37927780898E+02  0.82690262367E+02  0.15974261026E+03  0.12508920281E+03 0.  0.
          5    1    3    3  502    0 -0.75740742483E+02 -0.57839809210E+02  0.55013106688E+02  0.11011819972E+03  0.41800000000E+01 0. -1.
         -5    1    3    3    0  502  0.35813348131E+02  0.19912028312E+02  0.27677155679E+02  0.49624410549E+02  0.41800000000E+01 0. -1.
        -11    1    1    2    0    0  0.47853713522E+02 -0.55126450685E+01  0.21497528510E+02  0.52749510761E+02  0.00000000000E+00 0. -1.
         11    1    1    2    0    0 -0.79263191700E+01  0.43440425966E+02 -0.31258234601E+02  0.54101519148E+02  0.00000000000E+00 0.  1.
</event>
<event>
 7    1  0.3001243E-009  0.1363618E+03  0.7561462E-02  0.1218310E+00
         -1   -1    0    0    0  501 -0.00000000000E+00  0.00000000000E+00  0.81585745427E+03  0.81585745427E+03  0.00000000000E+00 0.  1.
          1   -1    0    0  501    0  0.00000000000E+00 -0.00000000000E+00 -0.25138275745E+02  0.25138275745E+02  0.00000000000E+00 0. -1.
         25    2    1    2    0    0 -0.41382411249E+01 -0.90349287436E+02  0.37650491528E+03  0.40691719552E+03  0.12508210902E+03 0.  0.
          5    1    3    3  502    0  0.46773260103E+02 -0.80336282514E+02  0.30212884572E+03  0.31613441439E+03  0.41800000000E+01 0.  1.
         -5    1    3    3    0  502 -0.50911501228E+02 -0.10013004922E+02  0.74376069564E+02  0.90782781124E+02  0.41800000000E+01 0.  1.
        -11    1    1    2    0    0 -0.40113247780E+02  0.20812214185E+02  0.18679290027E+03  0.19218170698E+03  0.00000000000E+00 0.  1.
         11    1    1    2    0    0  0.44251488905E+02  0.69537073251E+02  0.22742136297E+03  0.24189682752E+03  0.00000000000E+00 0. -1.
</event>
<event>
 7    1  0.3001243E-009  0.1768127E+03  0.7561462E-02  0.1170924E+00
          3   -1    0    0  501    0  0.00000000000E+00  0.00000000000E+00  0.50438260661E+02  0.50438260661E+02  0.00000000000E+00 0. -1.
         -3   -1    0    0    0  501 -0.00000000000E+00 -0.00000000000E+00 -0.91753672910E+03  0.91753672910E+03  0.00000000000E+00 0.  1.
         25    2    1    2    0    0  0.17022574902E+03  0.30221800673E+02 -0.59675958439E+03  0.63376417368E+03  0.12507942840E+03 0.  0.
          5    1    3    3  502    0  0.98318446489E+02  0.27491237784E+02 -0.51381727205E+03  0.52387779732E+03  0.41800000000E+01 0.  1.
         -5    1    3    3    0  502  0.71907302536E+02  0.27305628886E+01 -0.82942312348E+02  0.10988637636E+03  0.41800000000E+01 0.  1.
        -11    1    1    2    0    0 -0.85095473913E+01  0.95942543725E+01  0.38625254722E+01  0.13393327323E+02  0.00000000000E+00 0. -1.
         11    1    1    2    0    0 -0.16171620163E+03 -0.39816055045E+02 -0.27420140952E+03  0.32081748875E+03  0.00000000000E+00 0.  1.
</event>
<event>
 7    1  0.3001243E-009  0.1283993E+03  0.7561462E-02  0.1229850E+00
         -2   -1    0    0    0  501 -0.00000000000E+00  0.00000000000E+00  0.24328000468E+03  0.24328000468E+03  0.00000000000E+00 0.  1.
          2   -1    0    0  501    0  0.00000000000E+00 -0.00000000000E+00 -0.14594594378E+03  0.14594594378E+03  0.00000000000E+00 0. -1.
         25    2    1    2    0    0  0.51030317307E+01 -0.76937524002E+02  0.18908703629E+03  0.23947548057E+03  0.12509666250E+03 0.  0.
          5    1    3    3  502    0  0.59540291109E+02 -0.30522677915E+02  0.52196317113E+02  0.84962391989E+02  0.41800000000E+01 0. -1.
         -5    1    3    3    0  502 -0.54437259378E+02 -0.46414846088E+02  0.13689071917E+03  0.15451308858E+03  0.41800000000E+01 0. -1.
        -11    1    1    2    0    0  0.39932450508E+02  0.55100950422E+02 -0.48032994248E+02  0.83293960629E+02  0.00000000000E+00 0.  1.
         11    1    1    2    0    0 -0.45035482239E+02  0.21836573581E+02 -0.43719981147E+02  0.66456507264E+02  0.00000000000E+00 0. -1.
</event>
<event>
 7    1  0.3001243E-009  0.1426173E+03  0.7561462E-02  0.1209850E+00
         -2   -1    0    0    0  501 -0.00000000000E+00  0.00000000000E+00  0.80548014430E+02  0.80548014430E+02  0.00000000000E+00 0. -1.
          2   -1    0    0  501    0  0.00000000000E+00 -0.00000000000E+00 -0.32433452030E+03  0.32433452030E+03  0.00000000000E+00 0.  1.
         25    2    1    2    0    0  0.11471144517E+03  0.14303671761E+02 -0.98122595116E+02  0.19656577321E+03  0.12508696514E+03 0.  0.
          5    1    3    3  502    0  0.71237560249E+02 -0.52851216032E+02 -0.38916856476E+02  0.96953778391E+02  0.41800000000E+01 0. -1.
         -5    1    3    3    0  502  0.43473884917E+02  0.67154887793E+02 -0.59205738639E+02  0.99611994820E+02  0.41800000000E+01 0. -1.
        -11    1    1    2    0    0 -0.75250106160E+02 -0.15573993739E+02 -0.24151032998E+02  0.80550606162E+02  0.00000000000E+00 0. -1.
         11    1    1    2    0    0 -0.39461339005E+02  0.12703219776E+01 -0.12151287775E+03  0.12776615535E+03  0.00000000000E+00 0.  1.
</event>
<event>
 7    1  0.3001243E-009  0.1155058E+03  0.7561462E-02  0.1250701E+00
         -2   -1    0    0    0  501 -0.00000000000E+00  0.00000000000E+00  0.10158162184E+03  0.10158162184E+03  0.00000000000E+00 0. -1.
          2   -1    0    0  501    0  0.00000000000E+00 -0.00000000000E+00 -0.19733347897E+03  0.19733347897E+03  0.00000000000E+00 0.  1.
         25    2    1    2    0    0 -0.20512564286E+02 -0.58026166159E+02  0.20667216373E+02  0.14093732437E+03  0.12509354226E+03 0.  0.
          5    1    3    3  502    0 -0.48886847966E+01  0.36106597838E+02  0.26500206172E+02  0.45247309020E+02  0.41800000000E+01 0. -1.
         -5    1    3    3    0  502 -0.15623879490E+02 -0.94132763997E+02 -0.58329897981E+01  0.95690015351E+02  0.41800000000E+01 0. -1.
        -11    1    1    2    0    0 -0.11866211283E+02  0.64688099682E+02 -0.46218795756E+02  0.80383669310E+02  0.00000000000E+00 0.  1.
         11    1    1    2    0    0  0.32378775569E+02 -0.66619335229E+01 -0.70200277741E+02  0.77594107125E+02  0.00000000000E+00 0. -1.
</event>
<event>
 7    1  0.3001243E-009  0.2920066E+03  0.7561462E-02  0.1089306E+00
         -2   -1    0    0    0  501 -0.00000000000E+00  0.00000000000E+00  0.93705949055E+03  0.93705949055E+03  0.00000000000E+00 0.  1.
          2   -1    0    0  501    0  0.00000000000E+00 -0.00000000000E+00 -0.10477261159E+03  0.10477261159E+03  0.00000000000E+00 0. -1.
         25    2    1    2    0    0 -0.26463021129E+03 -0.11313601153E+03  0.52556407526E+03  0.61212282711E+03  0.12509137633E+03 0.  0.
          5    1    3    3  502    0 -0.21185540902E+03 -0.85618307301E+02  0.49471937640E+03  0.54495682641E+03  0.41800000000E+01 0. -1.
         -5    1    3    3    0  502 -0.52774802276E+02 -0.27517704230E+02  0.30844698862E+02  0.67166000694E+02  0.41800000000E+01 0. -1.
        -11    1    1    2    0    0  0.12312680044E+03  0.89796419581E+02  0.11832774762E+03  0.19293797400E+03  0.00000000000E+00 0. -1.
         11    1    1    2    0    0  0.14150341086E+03  0.23339591949E+02  0.18839505608E+03  0.23677130103E+03  0.00000000000E+00 0.  1.
</event>
<event>
 7    1  0.3001243E-009  0.5409615E+02  0.7561462E-02  0.1424422E+00
         -1   -1    0    0    0  501 -0.00000000000E+00  0.00000000000E+00  0.11728892202E+03  0.11728892202E+03  0.00000000000E+00 0.  1.
          1   -1    0    0  501    0  0.00000000000E+00 -0.00000000000E+00 -0.11100162443E+03  0.11100162443E+03  0.00000000000E+00 0. -1.
         25    2    1    2    0    0  0.36181028544E+02  0.11087036542E+02  0.85483844788E+01  0.13096903961E+03  0.12509126769E+03 0.  0.
          5    1    3    3  502    0  0.76219704029E+01 -0.25357966407E+01 -0.57184627463E+02  0.57897139096E+02  0.41800000000E+01 0. -1.
         -5    1    3    3    0  502  0.28559058142E+02  0.13622833183E+02  0.65733011942E+02  0.73071900514E+02  0.41800000000E+01 0. -1.
        -11    1    1    2    0    0 -0.26211846271E+02  0.21021352421E+02  0.34049347811E+02  0.47836348407E+02  0.00000000000E+00 0.  1.
         11    1    1    2    0    0 -0.99691822734E+01 -0.32108388964E+02 -0.36310434698E+02  0.49485158432E+02  0.00000000000E+00 0. -1.
</event>
<event>
 7    1  0.3001243E-009  0.1778055E+03  0.7561462E-02  0.1169944E+00
         -1   -1    0    0    0  501 -0.00000000000E+00  0.00000000000E+00  0.24208190966E+02  0.24208190966E+02  0.00000000000E+00 0.  1.
          1   -1    0    0  501    0  0.00000000000E+00 -0.00000000000E+00 -0.15193077176E+04  0.15193077176E+04  0.00000000000E+00 0. -1.
         25    2    1    2    0    0  0.14468062035E+03  0.63040459984E+02 -0.75937832662E+03  0.78562981741E+03  0.12510869496E+03 0.  0.
          5    1    3    3  502    0  0.54690816072E+02  0.66312912805E+02 -0.56312588655E+03  0.56966369401E+03  0.41800000000E+01 0. -1.
         -5    1    3    3    0  502  0.89989804282E+02 -0.32724528208E+01 -0.19625244007E+03  0.21596612340E+03  0.41800000000E+01 0. -1.
        -11    1    1    2    0    0 -0.10620969705E+03 -0.77176656904E+00 -0.49576623545E+03  0.50701603090E+03  0.00000000000E+00 0.  1.
         11    1    1    2    0    0 -0.38470923305E+02 -0.62268693415E+02 -0.23995496457E+03  0.25087006028E+03  0.00000000000E+00 0. -1.
</event>
<event>
 7    1  0.3001243E-009  0.1033738E+03  0.7561462E-02  0.1273357E+00
         -2   -1    0    0    0  501 -0.00000000000E+00  0.00000000000E+00  0.20318588708E+03  0.20318588708E+03  0.00000000000E+00 0.  1.
          2   -1    0    0  501    0  0.00000000000E+00 -0.00000000000E+00 -0.75534060659E+02  0.75534060659E+02  0.00000000000E+00 0. -1.
         25    2    1    2    0    0  0.41320495354E+02 -0.11442884869E+01  0.26637115821E+02  0.13441328969E+03  0.12509477916E+03 0.  0.
          5    1    3    3  502    0 -0.55597384801E+01  0.52326172052E+02 -0.10890883235E+02  0.53898262599E+02  0.41800000000E+01 0. -1.
         -5    1    3    3    0  502  0.46880233834E+02 -0.53470460539E+02  0.37527999055E+02  0.80515027092E+02  0.41800000000E+01 0. -1.
        -11    1    1    2    0    0 -0.36590054481E+02  0.33750830916E+02  0.99578388122E+02  0.11132747215E+03  0.00000000000E+00 0.  1.
         11    1    1    2    0    0 -0.47304408720E+01 -0.32606542430E+02  0.14363224776E+01  0.32979185895E+02  0.00000000000E+00 0. -1.
</event>
<event>
 7    1  0.3001243E-009  0.1321041E+03  0.7561462E-02  0.1224367E+00
         -4   -1    0    0    0  501 -0.00000000000E+00  0.00000000000E+00  0.10390951093E+03  0.10390951093E+03  0.00000000000E+00 0.  1.
          4   -1    0    0  501    0  0.00000000000E+00 -0.00000000000E+00 -0.26443099558E+03  0.26443099558E+03  0.00000000000E+00 0. -1.
         25    2    1    2    0    0 -0.35440669880E+02  0.97685320523E+02 -0.12640510681E+02  0.16311328437E+03  0.12509075945E+03 0.  0.
          5    1    3    3  502    0 -0.28928281658E+02  0.10996244262E+03  0.30333691863E+02  0.11775478559E+03  0.41800000000E+01 0.  1.
         -5    1    3    3    0  502 -0.65123882224E+01 -0.12277122097E+02 -0.42974202544E+02  0.45358498781E+02  0.41800000000E+01 0.  1.
        -11    1    1    2    0    0  0.45778931094E+01 -0.10425942780E+03 -0.83958323770E+02  0.13394023115E+03  0.00000000000E+00 0.  1.
         11    1    1    2    0    0  0.30862776771E+02  0.65741072765E+01 -0.63922650196E+02  0.71286990991E+02  0.00000000000E+00 0. -1.
</event>
<event>
 7    1  0.3001243E-009  0.2240040E+03  0.7561462E-02  0.1130933E+00
          2   -1    0    0  501    0  0.00000000000E+00  0.00000000000E+00  0.73834821996E+03  0.73834821996E+03  0.00000000000E+00 0.  1.
         -2   -1    0    0    0  501 -0.00000000000E+00 -0.00000000000E+00 -0.87080473065E+02  0.87080473065E+02  0.00000000000E+00 0. -1.
         25    2    1    2    0    0 -0.14478070895E+03 -0.16774963324E+03  0.42813912911E+03  0.49805018652E+03  0.12509788677E+03 0.  0.
          5    1    3    3  502    0 -0.14631303580E+03 -0.16213351803E+03  0.43585084188E+03  0.48752252346E+03  0.41800000000E+01 0.  1.
         -5    1    3    3    0  502  0.15323268482E+01 -0.56161152062E+01 -0.77117127673E+01  0.10527663054E+02  0.41800000000E+01 0.  1.
        -11    1    1    2    0    0  0.29299664782E+02  0.46544150456E+02  0.92499991998E+01  0.55770877555E+02  0.00000000000E+00 0. -1.
         11    1    1    2    0    0  0.11548104417E+03  0.12120548278E+03  0.21387861858E+03  0.27160762895E+03  0.00000000000E+00 0.  1.
</event>
<event>
 7    1  0.3001243E-009  0.1026554E+03  0.7561462E-02  0.1274809E+00
         -2   -1    0    0    0  501 -0.00000000000E+00  0.00000000000E+00  0.68039366765E+02  0.68039366765E+02  0.00000000000E+00 0.  1.
          2   -1    0    0  501    0  0.00000000000E+00 -0.00000000000E+00 -0.20786685686E+03  0.20786685686E+03  0.00000000000E+00 0. -1.
         25    2    1    2    0    0 -0.44212839098E+01 -0.40009362997E+02 -0.12257962642E+03  0.17970376615E+03  0.12508949547E+03 0.  0.
          5    1    3    3  502    0  0.39334121287E+02 -0.61523655380E+02 -0.10445614182E+03  0.12751819961E+03  0.41800000000E+01 0.  1.
         -5    1    3    3    0  502 -0.43755405197E+02  0.21514292383E+02 -0.18123484602E+02  0.52185566537E+02  0.41800000000E+01 0.  1.
        -11    1    1    2    0    0  0.36340352230E+02  0.64357490824E+01  0.14916172388E+02  0.39806183755E+02  0.00000000000E+00 0.  1.
         11    1    1    2    0    0 -0.31919068320E+02  0.33573613914E+02 -0.32164036064E+02  0.56396273721E+02  0.00000000000E+00 0. -1.
</event>
<event>
 7    1  0.3001243E-009  0.2657730E+03  0.7561462E-02  0.1103723E+00
          2   -1    0    0  501    0  0.00000000000E+00  0.00000000000E+00  0.37289787667E+03  0.37289787667E+03  0.00000000000E+00 0. -1.
         -2   -1    0    0    0  501 -0.00000000000E+00 -0.00000000000E+00 -0.25544275609E+03  0.25544275609E+03  0.00000000000E+00 0.  1.
         25    2    1    2    0    0  0.21230545988E+03  0.15354923495E+03 -0.62599417676E+02  0.29701441172E+03  0.12509155778E+03 0.  0.
          5    1    3    3  502    0  0.15760070097E+03  0.79827681033E+02  0.14155496592E+02  0.17728025860E+03  0.41800000000E+01 0.  1.
         -5    1    3    3    0  502  0.54704758912E+02  0.73721553914E+02 -0.76754914268E+02  0.11973415312E+03  0.41800000000E+01 0.  1.
        -11    1    1    2    0    0 -0.52301969915E+02 -0.49941218316E+02  0.49459765968E+01  0.72485060726E+02  0.00000000000E+00 0.  1.
         11    1    1    2    0    0 -0.16000348996E+03 -0.10360801663E+03  0.17510856166E+03  0.25884116032E+03  0.00000000000E+00 0. -1.
</event>
<event>
 7    1  0.3001243E-009  0.1375812E+03  0.7561462E-02  0.1216621E+00
          2   -1    0    0  501    0  0.00000000000E+00  0.00000000000E+00  0.42002296344E+02  0.42002296344E+02  0.00000000000E+00 0. -1.
         -2   -1    0    0    0  501 -0.00000000000E+00 -0.00000000000E+00 -0.51770378012E+03  0.51770378012E+03  0.00000000000E+00 0.  1.
         25    2    1    2    0    0  0.16194917878E+02 -0.84941417781E+02 -0.35547865313E+03  0.38663743229E+03  0.12508441709E+03 0.  0.
          5    1    3    3  502    0 -0.52282909578E+02 -0.54427252791E+02 -0.20441932079E+03  0.21794623097E+03  0.41800000000E+01 0. -1.
         -5    1    3    3    0  502  0.68477827456E+02 -0.30514164990E+02 -0.15105933234E+03  0.16869120133E+03  0.41800000000E+01 0. -1.
        -11    1    1    2    0    0 -0.48849388117E+02  0.21983521293E+02 -0.50945400827E+02  0.73925447535E+02  0.00000000000E+00 0. -1.
         11    1    1    2    0    0  0.32654470239E+02  0.62957896488E+02 -0.69277429821E+02  0.99143196637E+02  0.00000000000E+00 0.  1.
</event>
<event>
 7    1  0.3001243E-009  0.5941253E+02  0.7561462E-02  0.1400314E+00
          2   -1    0    0  501    0  0.00000000000E+00  0.00000000000E+00  0.75591781770E+02  0.75591781770E+02  0.00000000000E+00 0. -1.
         -2   -1    0    0    0  501 -0.00000000000E+00 -0.00000000000E+00 -0.18791768711E+03  0.18791768711E+03  0.00000000000E+00 0.  1.
         25    2    1    2    0    0 -0.24789517132E+02 -0.67998432147E-01 -0.19580707100E+02  0.12901895863E+03  0.12509181753E+03 0.  0.
          5    1    3    3  502    0 -0.30039293726E+02  0.15838987760E+02 -0.68811483311E+02  0.76848717206E+02  0.41800000000E+01 0. -1.
         -5    1    3    3    0  502  0.52497765934E+01 -0.15906986192E+02  0.49230776212E+02  0.52170241425E+02  0.41800000000E+01 0. -1.
        -11    1    1    2    0    0 -0.20531739314E+02 -0.65317323059E+01  0.86611658676E+01  0.23221361725E+02  0.00000000000E+00 0. -1.
         11    1    1    2    0    0  0.45321256446E+02  0.65997307380E+01 -0.10140636411E+03  0.11126914853E+03  0.00000000000E+00 0.  1.
</event>
<event>
 7    1  0.3001243E-009  0.6268858E+02  0.7561462E-02  0.1386883E+00
          2   -1    0    0  501    0  0.00000000000E+00  0.00000000000E+00  0.44295382613E+03  0.44295382613E+03  0.00000000000E+00 0. -1.
         -2   -1    0    0    0  501 -0.00000000000E+00 -0.00000000000E+00 -0.41863891881E+02  0.41863891881E+02  0.00000000000E+00 0.  1.
         25    2    1    2    0    0 -0.30813625334E+02 -0.17676866754E+01  0.35312802099E+03  0.37589975013E+03  0.12509443918E+03 0.  0.
          5    1    3    3  502    0  0.17375675799E+02 -0.34863321774E+01 -0.12316777034E+01  0.18249878122E+02  0.41800000000E+01 0. -1.
         -5    1    3    3    0  502 -0.48189301133E+02  0.17186455020E+01  0.35435969869E+03  0.35764987200E+03  0.41800000000E+01 0. -1.
        -11    1    1    2    0    0  0.10506714151E+02  0.25472629520E+02 -0.20055537462E+02  0.34080353281E+02  0.00000000000E+00 0.  1.
         11    1    1    2    0    0  0.20306911183E+02 -0.23704942845E+02  0.68017450725E+02  0.74837614608E+02  0.00000000000E+00 0. -1.
</event>
<event>
 7    1  0.3001243E-009  0.1360761E+03  0.7561462E-02  0.1218709E+00
          3   -1    0    0  501    0  0.00000000000E+00  0.00000000000E+00  0.24573663159E+03  0.24573663159E+03  0.00000000000E+00 0. -1.
         -3   -1    0    0    0  501 -0.00000000000E+00 -0.00000000000E+00 -0.84581803265E+02  0.84581803265E+02  0.00000000000E+00 0.  1.
         25    2    1    2    0    0  0.55000935303E+02  0.73393817714E+02  0.79463965693E+02  0.17428261374E+03  0.12509257470E+03 0.  0.
          5    1    3    3  502    0  0.81109822761E+02  0.80115832961E+02  0.89719972692E+02  0.14513612899E+03  0.41800000000E+01 0. -1.
         -5    1    3    3    0  502 -0.26108887458E+02 -0.67220152472E+01 -0.10256006999E+02  0.29146484742E+02  0.41800000000E+01 0. -1.
        -11    1    1    2    0    0 -0.53499020444E+02  0.37485546476E+01  0.47505809412E+02  0.71644949427E+02  0.00000000000E+00 0. -1.
         11    1    1    2    0    0 -0.15019148590E+01 -0.77142372361E+02  0.34185053223E+02  0.84390871696E+02  0.00000000000E+00 0.  1.
</event>
<event>
 7    1  0.3001243E-009  0.2293982E+03  0.7561462E-02  0.1127064E+00
         -2   -1    0    0    0  501 -0.00000000000E+00  0.00000000000E+00  0.72739154326E+02  0.72739154326E+02  0.00000000000E+00 0.  1.
          2   -1    0    0  501    0  0.00000000000E+00 -0.00000000000E+00 -0.10504166748E+04  0.10504166748E+04  0.00000000000E+00 0. -1.
         25    2    1    2    0    0  0.11887907584E+03 -0.17503930041E+03 -0.78693858688E+03  0.82443119067E+03  0.12507380729E+03 0.  0.
          5    1    3    3  502    0  0.27860270327E+02 -0.11855286780E+03 -0.26608648318E+03  0.29266100878E+03  0.41800000000E+01 0. -1.
         -5    1    3    3    0  502  0.91018805510E+02 -0.56486432614E+02 -0.52085210370E+03  0.53177018190E+03  0.41800000000E+01 0. -1.
        -11    1    1    2    0    0 -0.25523334855E+02  0.11713422104E+03 -0.10515782815E+03  0.15946797541E+03  0.00000000000E+00 0.  1.
         11    1    1    2    0    0 -0.93355740981E+02  0.57905079374E+02 -0.85581105429E+02  0.13925666303E+03  0.00000000000E+00 0. -1.
</event>
<event>
 7    1  0.3001243E-009  0.6563526E+02  0.7561462E-02  0.1375598E+00
          3   -1    0    0  501    0  0.00000000000E+00  0.00000000000E+00  0.22212760097E+03  0.22212760097E+03  0.00000000000E+00 0. -1.
         -3   -1    0    0    0  501 -0.00000000000E+00 -0.00000000000E+00 -0.67857896204E+02  0.67857896204E+02  0.00000000000E+00 0.  1.
         25    2    1    2    0    0 -0.51795572823E+02  0.17255606122E+02  0.61364614194E+02  0.14964327582E+03  0.12508779643E+03 0.  0.
          5    1    3    3  502    0 -0.25876482608E+02  0.44907357923E+01 -0.37829997308E+02  0.46242190221E+02  0.41800000000E+01 0. -1.
         -5    1    3    3    0  502 -0.25919090215E+02  0.12764870330E+02  0.99194611502E+02  0.10340108560E+03  0.41800000000E+01 0. -1.
        -11    1    1    2    0    0  0.60015189481E+02 -0.43364042917E+01  0.10487219192E+03  0.12090824624E+03  0.00000000000E+00 0. -1.
         11    1    1    2    0    0 -0.82196166576E+01 -0.12919201830E+02 -0.11967101350E+02  0.19433975112E+02  0.00000000000E+00 0.  1.
</event>
<event>
 7    1  0.3001243E-009  0.8218324E+02  0.7561462E-02  0.1322967E+00
         -4   -1    0    0    0  501 -0.00000000000E+00  0.00000000000E+00  0.24196264015E+03  0.24196264015E+03  0.00000000000E+00 0. -1.
          4   -1    0    0  501    0  0.00000000000E+00 -0.00000000000E+00 -0.64669909559E+02  0.64669909559E+02  0.00000000000E+00 0.  1.
         25    2    1    2    0    0  0.44239349369E+02  0.45668693822E+02  0.94043748513E+02  0.16892052207E+03  0.12508863463E+03 0.  0.
          5    1    3    3  502    0  0.39805093222E+02  0.21251090357E+01 -0.21365681184E+02  0.45419448118E+02  0.41800000000E+01 0. -1.
         -5    1    3    3    0  502  0.44342561469E+01  0.43543584786E+02  0.11540942970E+03  0.12350107395E+03  0.41800000000E+01 0. -1.
        -11    1    1    2    0    0 -0.50562141698E+02 -0.20825454246E+02  0.94920315479E+02  0.10954494972E+03  0.00000000000E+00 0. -1.
         11    1    1    2    0    0  0.63227923286E+01 -0.24843239576E+02 -0.11671333402E+02  0.28167077925E+02  0.00000000000E+00 0.  1.
</event>
<event>
 7    1  0.3001243E-009  0.1092927E+03  0.7561462E-02  0.1261885E+00
          3   -1    0    0  501    0  0.00000000000E+00  0.00000000000E+00  0.55102632176E+02  0.55102632176E+02  0.00000000000E+00 0. -1.
         -3   -1    0    0    0  501 -0.00000000000E+00 -0.00000000000E+00 -0.30884970832E+03  0.30884970832E+03  0.00000000000E+00 0.  1.
         25    2    1    2    0    0 -0.32697950518E+02 -0.34364327273E+02 -0.64302917473E+02  0.14842922009E+03  0.12508519186E+03 0.  0.
          5    1    3    3  502    0 -0.44836106545E+02  0.29720864909E+02 -0.63150587746E+02  0.83060672967E+02  0.41800000000E+01 0.  1.
         -5    1    3    3    0  502  0.12138156027E+02 -0.64085192182E+02 -0.11523297264E+01  0.65368547120E+02  0.41800000000E+01 0.  1.
        -11    1    1    2    0    0 -0.27568219664E+02 -0.39625934742E+01 -0.81164548650E+02  0.85810214078E+02  0.00000000000E+00 0.  1.
         11    1    1    2    0    0  0.60266170182E+02  0.38326920747E+02 -0.10827961002E+03  0.12971290633E+03  0.00000000000E+00 0. -1.
</event>
<event>
 7    1  0.3001243E-009  0.1814864E+03  0.7561462E-02  0.1166372E+00
         -4   -1    0    0    0  501 -0.00000000000E+00  0.00000000000E+00  0.18480237515E+03  0.18480237515E+03  0.00000000000E+00 0.  1.
          4   -1    0    0  501    0  0.00000000000E+00 -0.00000000000E+00 -0.23643409901E+03  0.23643409901E+03  0.00000000000E+00 0. -1.
         25    2    1    2    0    0 -0.14185780274E+03 -0.58305336472E+02 -0.11878118952E+03  0.23082268315E+03  0.12508793552E+03 0.  0.
          5    1    3    3  502    0 -0.13114503369E+03  0.22915796523E+01 -0.55590178001E+02  0.14252021432E+03  0.41800000000E+01 0.  1.
         -5    1    3    3    0  502 -0.10712769051E+02 -0.60596916124E+02 -0.63191011516E+02  0.88302468827E+02  0.41800000000E+01 0.  1.
        -11    1    1    2    0    0  0.45390572793E+02  0.57930149571E+02  0.12862356935E+01  0.73606118836E+02  0.00000000000E+00 0. -1.
         11    1    1    2    0    0  0.96467229952E+02  0.37518690040E+00  0.65863229964E+02  0.11680767218E+03  0.00000000000E+00 0.  1.
</event>
<event>
 7    1  0.3001243E-009  0.9124525E+02  0.7561462E-02  0.1299864E+00
          1   -1    0    0  501    0  0.00000000000E+00  0.00000000000E+00  0.20816782889E+03  0.20816782889E+03  0.00000000000E+00 0. -1.
         -1   -1    0    0    0  501 -0.00000000000E+00 -0.00000000000E+00 -0.69271448400E+02  0.69271448400E+02  0.00000000000E+00 0.  1.
         25    2    1    2    0    0  0.13757481565E+02  0.39439732583E+02  0.12463036596E+03  0.18145195816E+03  0.12508926491E+03 0.  0.
          5    1    3    3  502    0  0.47871268319E+02  0.70074813378E+02  0.90529593402E+02  0.12415803430E+03  0.41800000000E+01 0.  1.
         -5    1    3    3    0  502 -0.34113786755E+02 -0.30635080795E+02  0.34100772559E+02  0.57293923859E+02  0.41800000000E+01 0.  1.
        -11    1    1    2    0    0 -0.20208561177E+02 -0.12459195158E+02  0.47255769607E+02  0.52884073689E+02  0.00000000000E+00 0. -1.
         11    1    1    2    0    0  0.64510796123E+01 -0.26980537425E+02 -0.32989755073E+02  0.43103245442E+02  0.00000000000E+00 0.  1.
</event>
<event>
 7    1  0.3001243E-009  0.1594723E+03  0.7561462E-02  0.1189294E+00
          2   -1    0    0  501    0  0.00000000000E+00  0.00000000000E+00  0.86650877336E+03  0.86650877336E+03  0.00000000000E+00 0. -1.
         -2   -1    0    0    0  501 -0.00000000000E+00 -0.00000000000E+00 -0.32693873102E+02  0.32693873102E+02  0.00000000000E+00 0.  1.
         25    2    1    2    0    0  0.88961427657E+02 -0.83322137380E+02  0.54569816028E+03  0.57296700651E+03  0.12509194309E+03 0.  0.
          5    1    3    3  502    0  0.75488676464E+01  0.29105315103E+02  0.16411570878E+03  0.16689979939E+03  0.41800000000E+01 0. -1.
         -5    1    3    3    0  502  0.81412560011E+02 -0.11242745248E+03  0.38158245150E+03  0.40606720712E+03  0.41800000000E+01 0. -1.
        -11    1    1    2    0    0 -0.35315538699E+02  0.89018399551E+02  0.21505919296E+03  0.23541860421E+03  0.00000000000E+00 0.  1.
         11    1    1    2    0    0 -0.53645888958E+02 -0.56962621711E+01  0.73057547025E+02  0.90817035749E+02  0.00000000000E+00 0. -1.
</event>
<event>
 7    1  0.3001243E-009  0.2314860E+03  0.7561462E-02  0.1125598E+00
          3   -1    0    0  501    0  0.00000000000E+00  0.00000000000E+00  0.79962664345E+02  0.79962664345E+02  0.00000000000E+00 0. -1.
         -3   -1    0    0    0  501 -0.00000000000E+00 -0.00000000000E+00 -0.69789329060E+03  0.69789329060E+03  0.00000000000E+00 0.  1.
         25    2    1    2    0    0  0.19034612419E+03 -0.86651817755E+02 -0.29727039138E+03  0.38439249466E+03  0.12509084636E+03 0.  0.
          5    1    3    3  502    0  0.13960136317E+01 -0.50611488174E+02 -0.52517058039E+02  0.73068360966E+02  0.41800000000E+01 0.  1.
         -5    1    3    3    0  502  0.18895011056E+03 -0.36040329581E+02 -0.24475333334E+03  0.31132413369E+03  0.41800000000E+01 0.  1.
        -11    1    1    2    0    0 -0.24106614185E+02  0.40683099294E+02 -0.11930899033E+03  0.12833892079E+03  0.00000000000E+00 0.  1.
         11    1    1    2    0    0 -0.16623951001E+03  0.45968718460E+02 -0.20135124455E+03  0.26512453950E+03  0.00000000000E+00 0. -1.
</event>
<event>
 7    1  0.3001243E-009  0.8988802E+02  0.7561462E-02  0.1303123E+00
          1   -1    0    0  501    0  0.00000000000E+00  0.00000000000E+00  0.18379866556E+03  0.18379866556E+03  0.00000000000E+00 0. -1.
         -1   -1    0    0    0  501 -0.00000000000E+00 -0.00000000000E+00 -0.81417172093E+02  0.81417172093E+02  0.00000000000E+00 0.  1.
         25    2    1    2    0    0  0.37995177888E+02 -0.39978554812E+02  0.46280165768E+02  0.14432274747E+03  0.12508110691E+03 0.  0.
          5    1    3    3  502    0  0.95774681888E+00  0.21124108371E+02 -0.31790221595E+02  0.38408798764E+02  0.41800000000E+01 0.  1.
         -5    1    3    3    0  502  0.37037431069E+02 -0.61102663182E+02  0.78070387362E+02  0.10591394871E+03  0.41800000000E+01 0.  1.
        -11    1    1    2    0    0  0.15097627258E+02  0.28612871107E+02 -0.11366978834E+02  0.34290566481E+02  0.00000000000E+00 0.  1.
         11    1    1    2    0    0 -0.53092805146E+02  0.11365683705E+02  0.67468306530E+02  0.86602523695E+02  0.00000000000E+00 0. -1.
</event>
<event>
 7    1  0.3001243E-009  0.1389995E+03  0.7561462E-02  0.1214682E+00
          1   -1    0    0  501    0  0.00000000000E+00  0.00000000000E+00  0.86749979710E+02  0.86749979710E+02  0.00000000000E+00 0. -1.
         -1   -1    0    0    0  501 -0.00000000000E+00 -0.00000000000E+00 -0.23699638087E+03  0.23699638087E+03  0.00000000000E+00 0.  1.
         25    2    1    2    0    0 -0.58848793986E+02  0.66045562192E+02 -0.45931827227E+02  0.15993965022E+03  0.12508302091E+03 0.  0.
          5    1    3    3  502    0 -0.63267889855E+02  0.99387846258E+02 -0.26359969172E+02  0.12080186358E+03  0.41800000000E+01 0. -1.
         -5    1    3    3    0  502  0.44190958690E+01 -0.33342284066E+02 -0.19571858055E+02  0.39137786636E+02  0.41800000000E+01 0. -1.
        -11    1    1    2    0    0  0.13114674052E+02 -0.77878803586E+02 -0.68113790653E+02  0.10429089702E+03  0.00000000000E+00 0.  1.
         11    1    1    2    0    0  0.45734119934E+02  0.11833241393E+02 -0.36200783278E+02  0.59515813344E+02  0.00000000000E+00 0. -1.
</event>
<event>
 7    1  0.3001243E-009  0.8649060E+02  0.7561462E-02  0.1311580E+00
         -1   -1    0    0    0  501 -0.00000000000E+00  0.00000000000E+00  0.26820113762E+03  0.26820113762E+03  0.00000000000E+00 0.  1.
          1   -1    0    0  501    0  0.00000000000E+00 -0.00000000000E+00 -0.31896996301E+02  0.31896996301E+02  0.00000000000E+00 0. -1.
         25    2    1    2    0    0 -0.22860551493E+02 -0.72371512041E+01  0.18053824170E+03  0.22094619366E+03  0.12509269605E+03 0.  0.
          5    1    3    3  502    0 -0.39281056080E+02  0.48866572234E+02  0.12641702689E+03  0.14117251977E+03  0.41800000000E+01 0.  1.
         -5    1    3    3    0  502  0.16420504586E+02 -0.56103723438E+02  0.54121214810E+02  0.79773673897E+02  0.41800000000E+01 0.  1.
        -11    1    1    2    0    0  0.32264837311E+02 -0.83554190678E+01  0.19611508098E+02  0.38670971081E+02  0.00000000000E+00 0. -1.
         11    1    1    2    0    0 -0.94042858179E+01  0.15592570272E+02  0.36154391522E+02  0.40480969180E+02  0.00000000000E+00 0.  1.
</event>
<event>
 7    1  0.4488164E-009  0.8770483E+02  0.7561462E-02  0.1308507E+00
         -2   -1    0    0    0  501 -0.00000000000E+00  0.00000000000E+00  0.51796984259E+02  0.51796984259E+02  0.00000000000E+00 0.  1.
          2   -1    0    0  501    0  0.00000000000E+00 -0.00000000000E+00 -0.35615578025E+03  0.35615578025E+03  0.00000000000E+00 0. -1.
         25    2    1    2    0    0  0.12078795290E+02  0.41717321610E+02 -0.27039158046E+03  0.30107420965E+03  0.12509132951E+03 0.  0.
          5    1    3    3  502    0 -0.32514658671E+02  0.12175143126E+01 -0.10777135609E+02  0.34529761389E+02  0.41800000000E+01 0. -1.
         -5    1    3    3    0  502  0.44593453961E+02  0.40499807298E+02 -0.25961444485E+03  0.26654444827E+03  0.41800000000E+01 0. -1.
        -11    1    1    2    0    0 -0.58937790221E+01  0.19663971285E+02  0.17158744778E+02  0.26755016730E+02  0.00000000000E+00 0.  1.
         11    1    1    2    0    0 -0.61850162679E+01 -0.61381292896E+02 -0.51125960310E+02  0.80123538123E+02  0.00000000000E+00 0. -1.
</event>
<event>
 7    1  0.3001243E-009  0.1442018E+03  0.7561462E-02  0.1207784E+00
          2   -1    0    0  501    0  0.00000000000E+00  0.00000000000E+00  0.19141121377E+03  0.19141121377E+03  0.00000000000E+00 0. -1.
         -2   -1    0    0    0  501 -0.00000000000E+00 -0.00000000000E+00 -0.12060553166E+03  0.12060553166E+03  0.00000000000E+00 0.  1.
         25    2    1    2    0    0 -0.69790514705E+02 -0.76192735312E+02  0.10349142761E+02  0.16257464453E+03  0.12508941375E+03 0.  0.
          5    1    3    3  502    0  0.30616023755E+02  0.70893756432E+01  0.31412394412E+01  0.31858122085E+02  0.41800000000E+01 0. -1.
         -5    1    3    3    0  502 -0.10040653846E+03 -0.83282110955E+02  0.72079033198E+01  0.13071652245E+03  0.41800000000E+01 0. -1.
        -11    1    1    2    0    0 -0.15385847037E+02  0.12582554911E+02 -0.96548265854E+01  0.22096620862E+02  0.00000000000E+00 0. -1.
         11    1    1    2    0    0  0.85176361742E+02  0.63610180400E+02  0.70111365935E+02  0.12734548003E+03  0.00000000000E+00 0.  1.
</event>
<event>
 7    1  0.3001243E-009  0.2910761E+03  0.7561462E-02  0.1089789E+00
          2   -1    0    0  501    0  0.00000000000E+00  0.00000000000E+00  0.36913876131E+03  0.36913876131E+03  0.00000000000E+00 0. -1.
         -2   -1    0    0    0  501 -0.00000000000E+00 -0.00000000000E+00 -0.25045074455E+03  0.25045074455E+03  0.00000000000E+00 0.  1.
         25    2    1    2    0    0 -0.19048343911E+03 -0.20740732443E+03  0.26547817384E+02  0.30927818318E+03  0.12508584725E+03 0.  0.
          5    1    3    3  502    0 -0.67041473853E+02 -0.11332579867E+03 -0.43790860911E+02  0.13882509773E+03  0.41800000000E+01 0.  1.
         -5    1    3    3    0  502 -0.12344196525E+03 -0.94081525761E+02  0.70338678295E+02  0.17045308545E+03  0.41800000000E+01 0.  1.
        -11    1    1    2    0    0  0.12736854381E+03  0.19162489580E+03  0.83043169413E+02  0.24462014355E+03  0.00000000000E+00 0. -1.
         11    1    1    2    0    0  0.63114895292E+02  0.15782428627E+02  0.90970299638E+01  0.65691179129E+02  0.00000000000E+00 0.  1.
</event>
<event>
 7    1  0.3001243E-009  0.1126658E+03  0.7561462E-02  0.1255711E+00
          2   -1    0    0  501    0  0.00000000000E+00  0.00000000000E+00  0.32260556503E+03  0.32260556503E+03  0.00000000000E+00 0. -1.
         -2   -1    0    0    0  501 -0.00000000000E+00 -0.00000000000E+00 -0.50083539461E+02  0.50083539461E+02  0.00000000000E+00 0.  1.
         25    2    1    2    0    0  0.38968486836E+02 -0.55363049943E+02  0.14676526784E+03  0.20438014491E+03  0.12509032547E+03 0.  0.
          5    1    3    3  502    0 -0.28365894714E+02 -0.32111129825E+02  0.12113708890E+03  0.12855899560E+03  0.41800000000E+01 0.  1.
         -5    1    3    3    0  502  0.67334381550E+02 -0.23251920118E+02  0.25628178939E+02  0.75821149316E+02  0.41800000000E+01 0.  1.
        -11    1    1    2    0    0  0.40991496653E+01  0.66350352485E+02  0.85821214473E+02  0.10855622118E+03  0.00000000000E+00 0. -1.
         11    1    1    2    0    0 -0.43067636501E+02 -0.10987302541E+02  0.39935543254E+02  0.59752738397E+02  0.00000000000E+00 0.  1.
</event>
<event>
 7    1  0.3001243E-009  0.8794616E+02  0.7561462E-02  0.1307903E+00
         -1   -1    0    0    0  501 -0.00000000000E+00  0.00000000000E+00  0.26062750280E+02  0.26062750280E+02  0.00000000000E+00 0.  1.
          1   -1    0    0  501    0  0.00000000000E+00 -0.00000000000E+00 -0.52119358589E+03  0.52119358589E+03  0.00000000000E+00 0. -1.
         25    2    1    2    0    0  0.23754799088E+02  0.28681530453E+02 -0.33680065153E+03  0.36120500259E+03  0.12508978518E+03 0.  0.
          5    1    3    3  502    0 -0.32681903331E+02 -0.83272985472E+01 -0.25084674179E+02  0.42239365349E+02  0.41800000000E+01 0.  1.
         -5    1    3    3    0  502  0.56436702419E+02  0.37008829000E+02 -0.31171597735E+03  0.31896563724E+03  0.41800000000E+01 0.  1.
        -11    1    1    2    0    0 -0.28818781333E+02  0.13486891206E+02 -0.12539462516E+02  0.34200241404E+02  0.00000000000E+00 0.  1.
         11    1    1    2    0    0  0.50639822455E+01 -0.42168421659E+02 -0.14579072157E+03  0.15185109218E+03  0.00000000000E+00 0. -1.
</event>
<event>
 7    1  0.3001243E-009  0.8989332E+02  0.7561462E-02  0.1303110E+00
          2   -1    0    0  501    0  0.00000000000E+00  0.00000000000E+00  0.32334241680E+03  0.32334241680E+03  0.00000000000E+00 0. -1.
         -2   -1    0    0    0  501 -0.00000000000E+00 -0.00000000000E+00 -0.62827913933E+02  0.62827913933E+02  0.00000000000E+00 0.  1.
         25    2    1    2    0    0 -0.34958867534E+02 -0.77856992293E+02  0.19341873251E+03  0.24564340072E+03  0.12508413393E+03 0.  0.
          5    1    3    3  502    0  0.32299338097E+01 -0.24535190223E+02 -0.13528614473E+02  0.28511468592E+02  0.41800000000E+01 0.  1.
         -5    1    3    3    0  502 -0.38188801344E+02 -0.53321802071E+02  0.20694734698E+03  0.21713193212E+03  0.41800000000E+01 0.  1.
        -11    1    1    2    0    0  0.31918093199E+02  0.40864955525E+02  0.84805495196E+02  0.99401616078E+02  0.00000000000E+00 0. -1.
         11    1    1    2    0    0  0.30407743357E+01  0.36992036768E+02 -0.17709724839E+02  0.41125313940E+02  0.00000000000E+00 0.  1.
</event>
<event>
 7    1  0.3001243E-009  0.2625861E+03  0.7561462E-02  0.1105599E+00
         -2   -1    0    0    0  501 -0.00000000000E+00  0.00000000000E+00  0.24977608039E+03  0.24977608039E+03  0.00000000000E+00 0.  1.
          2   -1    0    0  501    0  0.00000000000E+00 -0.00000000000E+00 -0.46261564086E+03  0.46261564086E+03  0.00000000000E+00 0. -1.
         25    2    1    2    0    0  0.24663415639E+03  0.29770105568E+02  0.10033938070E+03  0.29567514179E+03  0.12506451083E+03 0.  0.
          5    1    3    3  502    0  0.25753043225E+03  0.33747942380E+02  0.79849236368E+02  0.27176132929E+03  0.41800000000E+01 0. -1.
         -5    1    3    3    0  502 -0.10896275861E+02 -0.39778368119E+01  0.20490144334E+02  0.23913812498E+02  0.41800000000E+01 0. -1.
        -11    1    1    2    0    0 -0.14512703628E+03  0.65299906593E+01 -0.95634453483E+02  0.17392655384E+03  0.00000000000E+00 0.  1.
         11    1    1    2    0    0 -0.10150712011E+03 -0.36300096227E+02 -0.21754448769E+03  0.24279002562E+03  0.00000000000E+00 0. -1.
</event>
<event>
 7    1  0.3001243E-009  0.1543281E+03  0.7561462E-02  0.1195253E+00
         -2   -1    0    0    0  501 -0.00000000000E+00  0.00000000000E+00  0.51490676796E+02  0.51490676796E+02  0.00000000000E+00 0.  1.
          2   -1    0    0  501    0  0.00000000000E+00 -0.00000000000E+00 -0.73794648596E+03  0.73794648596E+03  0.00000000000E+00 0. -1.
         25    2    1    2    0    0 -0.21719674194E+02  0.14816512668E+03 -0.48237987465E+03  0.52034916851E+03  0.12509302415E+03 0.  0.
          5    1    3    3  502    0  0.46469341631E+01  0.11319289063E+03 -0.16655964548E+03  0.20147906191E+03  0.41800000000E+01 0. -1.
         -5    1    3    3    0  502 -0.26366608357E+02  0.34972236056E+02 -0.31582022917E+03  0.31887010660E+03  0.41800000000E+01 0. -1.
        -11    1    1    2    0    0  0.25856025321E+02 -0.11493241943E+03 -0.84673072534E+02  0.14507764919E+03  0.00000000000E+00 0.  1.
         11    1    1    2    0    0 -0.41363511271E+01 -0.33232707254E+02 -0.11940286197E+03  0.12401034505E+03  0.00000000000E+00 0. -1.
</event>
<event>
 7    1  0.3001243E-009  0.2884031E+03  0.7561462E-02  0.1091186E+00
          2   -1    0    0  501    0  0.00000000000E+00  0.00000000000E+00  0.78991299350E+02  0.78991299350E+02  0.00000000000E+00 0. -1.
         -2   -1    0    0    0  501 -0.00000000000E+00 -0.00000000000E+00 -0.12234035876E+04  0.12234035876E+04  0.00000000000E+00 0.  1.
         25    2    1    2    0    0 -0.17596597262E+03 -0.20571465828E+03 -0.35980815574E+03  0.46732414265E+03  0.12508957276E+03 0.  0.
          5    1    3    3  502    0 -0.78328093173E+01 -0.88831513279E+02 -0.14687311811E+03  0.17187662982E+03  0.41800000000E+01 0.  1.
         -5    1    3    3    0  502 -0.16813316331E+03 -0.11688314500E+03 -0.21293503763E+03  0.29544751283E+03  0.41800000000E+01 0.  1.
        -11    1    1    2    0    0  0.14193263550E+03  0.10539558638E+03 -0.54861206499E+03  0.57639248824E+03  0.00000000000E+00 0. -1.
         11    1    1    2    0    0  0.34033337121E+02  0.10031907190E+03 -0.23599206748E+03  0.25867825601E+03  0.00000000000E+00 0.  1.
</event>
<event>
 7    1  0.3001243E-009  0.1287480E+03  0.7561462E-02  0.1229325E+00
         -2   -1    0    0    0  501 -0.00000000000E+00  0.00000000000E+00  0.18012619445E+03  0.18012619445E+03  0.00000000000E+00 0.  1.
          2   -1    0    0  501    0  0.00000000000E+00 -0.00000000000E+00 -0.13712648160E+03  0.13712648160E+03  0.00000000000E+00 0. -1.
         25    2    1    2    0    0 -0.13899748849E+02 -0.89066995280E+02 -0.45487978683E+02  0.16075892984E+03  0.12509254435E+03 0.  0.
          5    1    3    3  502    0 -0.43628394474E+02 -0.98289310394E+02 -0.26614085031E+01  0.10765119989E+03  0.41800000000E+01 0. -1.
         -5    1    3    3    0  502  0.29728645625E+02  0.92223151147E+01 -0.42826570180E+02  0.53107729947E+02  0.41800000000E+01 0. -1.
        -11    1    1    2    0    0  0.40111415575E+02  0.82061877717E+02  0.37503794359E+02  0.98740123684E+02  0.00000000000E+00 0. -1.
         11    1    1    2    0    0 -0.26211666725E+02  0.70051175628E+01  0.50983897171E+02  0.57753622530E+02  0.00000000000E+00 0.  1.
</event>
<event>
 7    1  0.3001243E-009  0.2376227E+03  0.7561462E-02  0.1121387E+00
          2   -1    0    0  501    0  0.00000000000E+00  0.00000000000E+00  0.14987301457E+04  0.14987301457E+04  0.00000000000E+00 0.  1.
         -2   -1    0    0    0  501 -0.00000000000E+00 -0.00000000000E+00 -0.45402230906E+02  0.45402230906E+02  0.00000000000E+00 0. -1.
         25    2    1    2    0    0  0.18058992975E+03  0.13149954690E+03  0.51551653351E+03  0.57559513226E+03  0.12509039289E+03 0.  0.
          5    1    3    3  502    0  0.19567279045E+03  0.10987355193E+03  0.48859114430E+03  0.53767910228E+03  0.41800000000E+01 0.  1.
         -5    1    3    3    0  502 -0.15082860701E+02  0.21625994966E+02  0.26925389206E+02  0.37916029975E+02  0.41800000000E+01 0.  1.
        -11    1    1    2    0    0 -0.91042284318E+02 -0.55308586629E+02  0.63176938577E+03  0.64068736064E+03  0.00000000000E+00 0.  1.
         11    1    1    2    0    0 -0.89547645435E+02 -0.76190960271E+02  0.30604199554E+03  0.32784988374E+03  0.00000000000E+00 0. -1.
</event>
<event>
 7    1  0.3001243E-009  0.1069004E+03  0.7561462E-02  0.1266420E+00
         -1   -1    0    0    0  501 -0.00000000000E+00  0.00000000000E+00  0.60310353947E+03  0.60310353947E+03  0.00000000000E+00 0.  1.
          1   -1    0    0  501    0  0.00000000000E+00 -0.00000000000E+00 -0.30270202349E+02  0.30270202349E+02  0.00000000000E+00 0. -1.
         25    2    1    2    0    0  0.29629173419E+02 -0.62944914487E+02  0.21671630975E+03  0.25972374917E+03  0.12510202554E+03 0.  0.
          5    1    3    3  502    0  0.25854336673E+02 -0.83458646104E+02  0.71550942854E+02  0.11300797387E+03  0.41800000000E+01 0. -1.
         -5    1    3    3    0  502  0.37748367461E+01  0.20513731617E+02  0.14516536689E+03  0.14671577530E+03  0.41800000000E+01 0. -1.
        -11    1    1    2    0    0  0.16587619605E+02  0.55895720819E+02  0.12605870167E+03  0.13888944164E+03  0.00000000000E+00 0. -1.
         11    1    1    2    0    0 -0.46216793023E+02  0.70491936681E+01  0.23005832571E+03  0.23476055102E+03  0.00000000000E+00 0.  1.
</event>
<event>
 7    1  0.3001243E-009  0.4778766E+02  0.7561462E-02  0.1457653E+00
          1   -1    0    0  501    0  0.00000000000E+00  0.00000000000E+00  0.12245342934E+04  0.12245342934E+04  0.00000000000E+00 0. -1.
         -1   -1    0    0    0  501 -0.00000000000E+00 -0.00000000000E+00 -0.12057860812E+02  0.12057860812E+02  0.00000000000E+00 0.  1.
         25    2    1    2    0    0  0.76703523100E+01  0.12733107552E+02  0.96008206405E+03  0.96831069848E+03  0.12508825984E+03 0.  0.
          5    1    3    3  502    0  0.17239471033E+01  0.83489795383E+01  0.14074166860E+01  0.95984725178E+01  0.41800000000E+01 0. -1.
         -5    1    3    3    0  502  0.59464052067E+01  0.43841280140E+01  0.95867464737E+03  0.95871222597E+03  0.41800000000E+01 0. -1.
        -11    1    1    2    0    0 -0.42064100477E+02 -0.87951428270E+01  0.20577402313E+03  0.21021344315E+03  0.00000000000E+00 0. -1.
         11    1    1    2    0    0  0.34393748167E+02 -0.39379647254E+01  0.46620345411E+02  0.58068012584E+02  0.00000000000E+00 0.  1.
</event>
<event>
 7    1  0.3001243E-009  0.1543356E+03  0.7561462E-02  0.1195244E+00
         -2   -1    0    0    0  501 -0.00000000000E+00  0.00000000000E+00  0.50975741376E+02  0.50975741376E+02  0.00000000000E+00 0.  1.
          2   -1    0    0  501    0  0.00000000000E+00 -0.00000000000E+00 -0.50089999929E+03  0.50089999929E+03  0.00000000000E+00 0. -1.
         25    2    1    2    0    0  0.50406614322E+02  0.10610536732E+03 -0.26212606129E+03  0.31329988732E+03  0.12509025401E+03 0.  0.
          5    1    3    3  502    0  0.72398559206E+02  0.10384439496E+02 -0.10867742529E+03  0.13106350799E+03  0.41800000000E+01 0.  1.
         -5    1    3    3    0  502 -0.21991944884E+02  0.95720927819E+02 -0.15344863600E+03  0.18223637933E+03  0.41800000000E+01 0.  1.
        -11    1    1    2    0    0 -0.67608345230E+02 -0.71144161457E+02 -0.89455603075E+02  0.13279565119E+03  0.00000000000E+00 0.  1.
         11    1    1    2    0    0  0.17201730907E+02 -0.34961205858E+02 -0.98342593548E+02  0.10578020215E+03  0.00000000000E+00 0. -1.
</event>
<event>
 7    1  0.3001243E-009  0.1592805E+03  0.7561462E-02  0.1189512E+00
         -2   -1    0    0    0  501 -0.00000000000E+00  0.00000000000E+00  0.37672992020E+02  0.37672992020E+02  0.00000000000E+00 0.  1.
          2   -1    0    0  501    0  0.00000000000E+00 -0.00000000000E+00 -0.86466920653E+03  0.86466920653E+03  0.00000000000E+00 0. -1.
         25    2    1    2    0    0  0.12154326677E+03 -0.21457740856E+02 -0.24968826811E+03  0.30532799352E+03  0.12509097512E+03 0.  0.
          5    1    3    3  502    0  0.10842951272E+03 -0.61524657917E+02 -0.22222373274E+03  0.25483936618E+03  0.41800000000E+01 0. -1.
         -5    1    3    3    0  502  0.13113754048E+02  0.40066917061E+02 -0.27464535367E+02  0.50488627343E+02  0.41800000000E+01 0. -1.
        -11    1    1    2    0    0  0.13794106367E+02  0.66463591973E+01 -0.43424878158E+02  0.46045320111E+02  0.00000000000E+00 0.  1.
         11    1    1    2    0    0 -0.13533737313E+03  0.14811381658E+02 -0.53388306824E+03  0.55096888492E+03  0.00000000000E+00 0. -1.
</event>
<event>
 7    1  0.3001243E-009  0.9770594E+02  0.7561462E-02  0.1285195E+00
          2   -1    0    0  501    0  0.00000000000E+00  0.00000000000E+00  0.59290109145E+03  0.59290109145E+03  0.00000000000E+00 0.  1.
         -2   -1    0    0    0  501 -0.00000000000E+00 -0.00000000000E+00 -0.20198944618E+02  0.20198944618E+02  0.00000000000E+00 0. -1.
         25    2    1    2    0    0 -0.71336953059E+01  0.16171952083E+02  0.32709968747E+03  0.35064666186E+03  0.12508578773E+03 0.  0.
          5    1    3    3  502    0 -0.53781080398E+02  0.41244833555E+02  0.23179069513E+03  0.24153248157E+03  0.41800000000E+01 0. -1.
         -5    1    3    3    0  502  0.46647385092E+02 -0.25072881472E+02  0.95308992339E+02  0.10911418030E+03  0.41800000000E+01 0. -1.
        -11    1    1    2    0    0  0.34729040711E+02  0.10218091744E+02  0.19871440780E+03  0.20198497848E+03  0.00000000000E+00 0.  1.
         11    1    1    2    0    0 -0.27595345405E+02 -0.26390043826E+02  0.46888051572E+02  0.60468395724E+02  0.00000000000E+00 0. -1.
</event>
<event>
 7    1  0.3001243E-009  0.1576346E+03  0.7561462E-02  0.1191393E+00
          3   -1    0    0  501    0  0.00000000000E+00  0.00000000000E+00  0.17542617258E+03  0.17542617258E+03  0.00000000000E+00 0. -1.
         -3   -1    0    0    0  501 -0.00000000000E+00 -0.00000000000E+00 -0.16627760452E+03  0.16627760452E+03  0.00000000000E+00 0.  1.
         25    2    1    2    0    0  0.11779486090E+03  0.44702500945E+02 -0.23385001398E+02  0.17907531952E+03  0.12508864428E+03 0.  0.
          5    1    3    3  502    0  0.12597249265E+03  0.60185788707E+02  0.11161815152E+02  0.14011943685E+03  0.41800000000E+01 0. -1.
         -5    1    3    3    0  502 -0.81776317477E+01 -0.15483287762E+02 -0.34546816550E+02  0.38955882671E+02  0.41800000000E+01 0. -1.
        -11    1    1    2    0    0 -0.28903272863E+02 -0.60739894310E+02  0.20526249710E+01  0.67297453238E+02  0.00000000000E+00 0.  1.
         11    1    1    2    0    0 -0.88891588039E+02  0.16037393365E+02  0.30480944486E+02  0.95331004331E+02  0.00000000000E+00 0. -1.
</event>
<event>
 7    1  0.3001243E-009  0.1018719E+03  0.7561462E-02  0.1276408E+00
          1   -1    0    0  501    0  0.00000000000E+00  0.00000000000E+00  0.32283124750E+03  0.32283124750E+03  0.00000000000E+00 0. -1.
         -1   -1    0    0    0  501 -0.00000000000E+00 -0.00000000000E+00 -0.53409806088E+02  0.53409806088E+02  0.00000000000E+00 0.  1.
         25    2    1    2    0    0 -0.67539341888E+02 -0.41377101369E+01  0.19556121797E+03  0.24180436563E+03  0.12508588216E+03 0.  0.
          5    1    3    3  502    0 -0.56290290360E+02  0.23617106773E+02  0.20184930160E+03  0.21091936250E+03  0.41800000000E+01 0.  1.
         -5    1    3    3    0  502 -0.11249051527E+02 -0.27754816910E+02 -0.62880836383E+01  0.30885003122E+02  0.41800000000E+01 0.  1.
        -11    1    1    2    0    0  0.41230525785E+02 -0.42222182277E+02  0.37888279260E+02  0.70129812762E+02  0.00000000000E+00 0. -1.
         11    1    1    2    0    0  0.26308816102E+02  0.46359892414E+02  0.35971944183E+02  0.64306875197E+02  0.00000000000E+00 0.  1.
</event>
<event>
 7    1  0.3001243E-009  0.1030010E+03  0.7561462E-02  0.1274109E+00
         -2   -1    0    0    0  501 -0.00000000000E+00  0.00000000000E+00  0.30581264369E+03  0.30581264369E+03  0.00000000000E+00 0.  1.
          2   -1    0    0  501    0  0.00000000000E+00 -0.00000000000E+00 -0.60624763701E+02  0.60624763701E+02  0.00000000000E+00 0. -1.
         25    2    1    2    0    0 -0.40151765185E+02 -0.16954419329E+02  0.22749206893E+03  0.26324658782E+03  0.12508600237E+03 0.  0.
          5    1    3    3  502    0 -0.25137416587E+02  0.53884402134E+02  0.93535654427E+02  0.11091352287E+03  0.41800000000E+01 0. -1.
         -5    1    3    3    0  502 -0.15014348598E+02 -0.70838821463E+02  0.13395641450E+03  0.15233306495E+03  0.41800000000E+01 0. -1.
        -11    1    1    2    0    0  0.45533146513E+02 -0.97973049989E+01 -0.24740381664E+02  0.52738421492E+02  0.00000000000E+00 0. -1.
         11    1    1    2    0    0 -0.53813813281E+01  0.26751724328E+02  0.42436192726E+02  0.50452398085E+02  0.00000000000E+00 0.  1.
</event>
<event>
 7    1  0.4218461E-009  0.1225922E+03  0.7561462E-02  0.1238881E+00
          1   -1    0    0  501    0  0.00000000000E+00  0.00000000000E+00  0.72776074051E+02  0.72776074051E+02  0.00000000000E+00 0. -1.
         -1   -1    0    0    0  501 -0.00000000000E+00 -0.00000000000E+00 -0.29774635491E+03  0.29774635491E+03  0.00000000000E+00 0.  1.
         25    2    1    2    0    0 -0.97157212543E+02 -0.19185519372E+02 -0.12470265130E+03  0.20250054286E+03  0.12509240791E+03 0.  0.
          5    1    3    3  502    0 -0.11925960897E+03 -0.25510422241E+02 -0.13025168939E+03  0.17848420368E+03  0.41800000000E+01 0. -1.
         -5    1    3    3    0  502  0.22102396424E+02  0.63249028691E+01  0.55490380918E+01  0.24016339183E+02  0.41800000000E+01 0. -1.
        -11    1    1    2    0    0  0.25241958893E+02  0.10545734340E+02 -0.90971140448E+02  0.94995354602E+02  0.00000000000E+00 0.  1.
         11    1    1    2    0    0  0.71915253649E+02  0.86397850324E+01 -0.92964891131E+01  0.73026531498E+02  0.00000000000E+00 0. -1.
</event>
<event>
 7    1  0.3001243E-009  0.1243756E+03  0.7561462E-02  0.1236048E+00
          2   -1    0    0  501    0  0.00000000000E+00  0.00000000000E+00  0.12413213768E+03  0.12413213768E+03  0.00000000000E+00 0. -1.
         -2   -1    0    0    0  501 -0.00000000000E+00 -0.00000000000E+00 -0.14636106448E+03  0.14636106448E+03  0.00000000000E+00 0.  1.
         25    2    1    2    0    0 -0.77337187853E+02  0.44638967158E+01 -0.24646572433E+02  0.14918130826E+03  0.12508653886E+03 0.  0.
          5    1    3    3  502    0 -0.19170304076E+02  0.61324918092E+02 -0.20712691692E+02  0.67636780930E+02  0.41800000000E+01 0.  1.
         -5    1    3    3    0  502 -0.58166883777E+02 -0.56861021377E+02 -0.39338807406E+01  0.81544527334E+02  0.41800000000E+01 0.  1.
        -11    1    1    2    0    0  0.23579168155E+02  0.30675407961E+02 -0.30385338428E+02  0.49195798762E+02  0.00000000000E+00 0.  1.
         11    1    1    2    0    0  0.53758019698E+02 -0.35139304676E+02  0.32802984064E+02  0.72116095142E+02  0.00000000000E+00 0. -1.
</event>
<event>
 7    1  0.3001243E-009  0.2252487E+03  0.7561462E-02  0.1130029E+00
          4   -1    0    0  501    0  0.00000000000E+00  0.00000000000E+00  0.75533851986E+02  0.75533851986E+02  0.00000000000E+00 0. -1.
         -4   -1    0    0    0  501 -0.00000000000E+00 -0.00000000000E+00 -0.77687240761E+03  0.77687240761E+03  0.00000000000E+00 0.  1.
         25    2    1    2    0    0 -0.21422773632E+03 -0.26472548873E+02 -0.34148850887E+03  0.42291532115E+03  0.12509455752E+03 0.  0.
          5    1    3    3  502    0 -0.10887332105E+03 -0.41139768982E+02 -0.81982084485E+02  0.14242336608E+03  0.41800000000E+01 0. -1.
         -5    1    3    3    0  502 -0.10535441527E+03  0.14667220109E+02 -0.25950642439E+03  0.28049195507E+03  0.41800000000E+01 0. -1.
        -11    1    1    2    0    0  0.11279114659E+03  0.50121465448E+02 -0.14283238085E+03  0.18877259618E+03  0.00000000000E+00 0.  1.
         11    1    1    2    0    0  0.10143658973E+03 -0.23648916575E+02 -0.21701766590E+03  0.24071834226E+03  0.00000000000E+00 0. -1.
</event>
<event>
 7    1  0.3001243E-009  0.1062093E+03  0.7561462E-02  0.1267755E+00
         -2   -1    0    0    0  501 -0.00000000000E+00  0.00000000000E+00  0.25527670621E+02  0.25527670621E+02  0.00000000000E+00 0. -1.
          2   -1    0    0  501    0  0.00000000000E+00 -0.00000000000E+00 -0.67405554019E+03  0.67405554019E+03  0.00000000000E+00 0.  1.
         25    2    1    2    0    0 -0.35705986044E+02  0.23135118508E+02 -0.51821821655E+03  0.53479612597E+03  0.12508647106E+03 0.  0.
          5    1    3    3  502    0 -0.65901532535E+02  0.47628386614E+02 -0.23100723964E+03  0.24493528199E+03  0.41800000000E+01 0.  1.
         -5    1    3    3    0  502  0.30195546491E+02 -0.24493268106E+02 -0.28721097692E+03  0.28986084398E+03  0.41800000000E+01 0.  1.
        -11    1    1    2    0    0 -0.16997497844E+02 -0.34065498883E+02 -0.22331002760E+02  0.44136683511E+02  0.00000000000E+00 0. -1.
         11    1    1    2    0    0  0.52703483888E+02  0.10930380375E+02 -0.10797865025E+03  0.12065040132E+03  0.00000000000E+00 0.  1.
</event>
<event>
 7    1  0.3001243E-009  0.1143831E+03  0.7561462E-02  0.1252662E+00
          2   -1    0    0  501    0  0.00000000000E+00  0.00000000000E+00  0.60692035731E+03  0.60692035731E+03  0.00000000000E+00 0.  1.
         -2   -1    0    0    0  501 -0.00000000000E+00 -0.00000000000E+00 -0.26076891390E+02  0.26076891390E+02  0.00000000000E+00 0. -1.
         25    2    1    2    0    0 -0.49605265667E+02  0.37157876884E+02  0.27545006534E+03  0.30880525050E+03  0.12508618648E+03 0.  0.
          5    1    3    3  502    0  0.35406490695E+02  0.15288731173E+02  0.15453091130E+03  0.15932557808E+03  0.41800000000E+01 0.  1.
         -5    1    3    3    0  502 -0.85011756362E+02  0.21869145711E+02  0.12091915404E+03  0.14947967242E+03  0.41800000000E+01 0.  1.
        -11    1    1    2    0    0 -0.10592907947E+02  0.17714867822E+02  0.11901497923E+03  0.12079152090E+03  0.00000000000E+00 0.  1.
         11    1    1    2    0    0  0.60198173614E+02 -0.54872744706E+02  0.18637842135E+03  0.20340047729E+03  0.00000000000E+00 0. -1.
</event>
<event>
 7    1  0.3001243E-009  0.1260483E+03  0.7561462E-02  0.1233440E+00
         -2   -1    0    0    0  501 -0.00000000000E+00  0.00000000000E+00  0.19767359675E+03  0.19767359675E+03  0.00000000000E+00 0.  1.
          2   -1    0    0  501    0  0.00000000000E+00 -0.00000000000E+00 -0.99344710238E+02  0.99344710238E+02  0.00000000000E+00 0. -1.
         25    2    1    2    0    0 -0.52242358906E+02 -0.67497714690E+02  0.75471757188E+02  0.16920006447E+03  0.12508984824E+03 0.  0.
          5    1    3    3  502    0 -0.79937770783E+02 -0.63416722995E+02  0.91113542333E+02  0.13686079771E+03  0.41800000000E+01 0.  1.
         -5    1    3    3    0  502  0.27695411877E+02 -0.40809916954E+01 -0.15641785145E+02  0.32339266763E+02  0.41800000000E+01 0.  1.
        -11    1    1    2    0    0  0.29265199228E+02  0.86836913173E+02  0.27515343162E+01  0.91676999931E+02  0.00000000000E+00 0. -1.
         11    1    1    2    0    0  0.22977159679E+02 -0.19339198483E+02  0.20105595004E+02  0.36141242581E+02  0.00000000000E+00 0.  1.
</event>
<event>
 7    1  0.3001243E-009  0.1008476E+03  0.7561462E-02  0.1278524E+00
          2   -1    0    0  501    0  0.00000000000E+00  0.00000000000E+00  0.55783139977E+03  0.55783139977E+03  0.00000000000E+00 0. -1.
         -2   -1    0    0    0  501 -0.00000000000E+00 -0.00000000000E+00 -0.42925192185E+02  0.42925192185E+02  0.00000000000E+00 0.  1.
         25    2    1    2    0    0 -0.78845383280E+02  0.54963218620E+01  0.41938408518E+03  0.44472123728E+03  0.12508862446E+03 0.  0.
          5    1    3    3  502    0 -0.38538994366E+02  0.48388236508E+02  0.34110277707E+03  0.34669186960E+03  0.41800000000E+01 0. -1.
         -5    1    3    3    0  502 -0.40306388914E+02 -0.42891914646E+02  0.78281308103E+02  0.98029367680E+02  0.41800000000E+01 0. -1.
        -11    1    1    2    0    0  0.42773860787E+02  0.51368211653E+01  0.10811059464E+03  0.11637822293E+03  0.00000000000E+00 0. -1.
         11    1    1    2    0    0  0.36071522493E+02 -0.10633143027E+02 -0.12588472230E+02  0.39657131751E+02  0.00000000000E+00 0.  1.
</event>
<event>
 7    1  0.3001243E-009  0.9895134E+02  0.7561462E-02  0.1282517E+00
          4   -1    0    0  501    0  0.00000000000E+00  0.00000000000E+00  0.85552555021E+02  0.85552555021E+02  0.00000000000E+00 0. -1.
         -4   -1    0    0    0  501 -0.00000000000E+00 -0.00000000000E+00 -0.22481754069E+03  0.22481754069E+03  0.00000000000E+00 0.  1.
         25    2    1    2    0    0  0.30861862398E+01  0.84646135720E+02 -0.51893325075E+02  0.15973619449E+03  0.12509293268E+03 0.  0.
          5    1    3    3  502    0 -0.32518539529E+02  0.26313273602E+02 -0.76244742504E+02  0.87066508718E+02  0.41800000000E+01 0. -1.
         -5    1    3    3    0  502  0.35604725769E+02  0.58332862118E+02  0.24351417429E+02  0.72669685776E+02  0.41800000000E+01 0. -1.
        -11    1    1    2    0    0 -0.12365928470E+02 -0.52467944759E+02  0.32687880466E+01  0.54004503418E+02  0.00000000000E+00 0. -1.
         11    1    1    2    0    0  0.92797422297E+01 -0.32178190960E+02 -0.90640448637E+02  0.96629397796E+02  0.00000000000E+00 0.  1.
</event>
<event>
 7    1  0.3001243E-009  0.9364944E+02  0.7561462E-02  0.1294247E+00
          1   -1    0    0  501    0  0.00000000000E+00  0.00000000000E+00  0.14976395794E+02  0.14976395794E+02  0.00000000000E+00 0. -1.
         -1   -1    0    0    0  501 -0.00000000000E+00 -0.00000000000E+00 -0.94623019762E+03  0.94623019762E+03  0.00000000000E+00 0.  1.
         25    2    1    2    0    0 -0.89095182991E+01  0.41812210252E+02 -0.40860349661E+03  0.42945547886E+03  0.12509016921E+03 0.  0.
          5    1    3    3  502    0 -0.38386410981E+02  0.45241303100E+02 -0.38927863336E+03  0.39379641802E+03  0.41800000000E+01 0.  1.
         -5    1    3    3    0  502  0.29476892682E+02 -0.34290928481E+01 -0.19324863249E+02  0.35659060833E+02  0.41800000000E+01 0.  1.
        -11    1    1    2    0    0 -0.30483649741E+02  0.10610115989E+02 -0.16088346339E+03  0.16408935448E+03  0.00000000000E+00 0. -1.
         11    1    1    2    0    0  0.39393168040E+02 -0.52422326241E+02 -0.36176684182E+03  0.36766176007E+03  0.00000000000E+00 0.  1.
</event>
<event>
 7    1  0.3001243E-009  0.1047678E+03  0.7561462E-02  0.1270578E+00
          1   -1    0    0  501    0  0.00000000000E+00  0.00000000000E+00  0.29439998642E+03  0.29439998642E+03  0.00000000000E+00 0. -1.
         -1   -1    0    0    0  501 -0.00000000000E+00 -0.00000000000E+00 -0.38819811169E+02  0.38819811169E+02  0.00000000000E+00 0.  1.
         25    2    1    2    0    0 -0.72063250828E+01 -0.16479367537E+02  0.17907706844E+03  0.21918163760E+03  0.12509393728E+03 0.  0.
          5    1    3    3  502    0  0.57751279272E+02 -0.19681998498E+02  0.83505686713E+02  0.10350489571E+03  0.41800000000E+01 0.  1.
         -5    1    3    3    0  502 -0.64957604355E+02  0.32026309611E+01  0.95571381730E+02  0.11567674189E+03  0.41800000000E+01 0.  1.
        -11    1    1    2    0    0 -0.72036791410E+01 -0.31913366979E+02  0.20381798748E+02  0.38545735241E+02  0.00000000000E+00 0.  1.
         11    1    1    2    0    0  0.14410004224E+02  0.48392734516E+02  0.56121308058E+02  0.75492424744E+02  0.00000000000E+00 0. -1.
</event>
<event>
 7    1  0.3001243E-009  0.1399937E+03  0.7561462E-02  0.1213337E+00
          1   -1    0    0  501    0  0.00000000000E+00  0.00000000000E+00  0.10376090112E+04  0.10376090112E+04  0.00000000000E+00 0. -1.
         -1   -1    0    0    0  501 -0.00000000000E+00 -0.00000000000E+00 -0.22026472779E+02  0.22026472779E+02  0.00000000000E+00 0.  1.
         25    2    1    2    0    0  0.45725553430E+02  0.87948249954E+02  0.43020564734E+03  0.45886072140E+03  0.12510212523E+03 0.  0.
          5    1    3    3  502    0  0.67041218266E+02  0.10305077228E+03  0.40105117607E+03  0.41949196040E+03  0.41800000000E+01 0.  1.
         -5    1    3    3    0  502 -0.21315664836E+02 -0.15102522321E+02  0.29154471268E+02  0.39368761002E+02  0.41800000000E+01 0.  1.
        -11    1    1    2    0    0 -0.48933094320E+01 -0.89525254984E+02  0.46739766902E+03  0.47591942255E+03  0.00000000000E+00 0.  1.
         11    1    1    2    0    0 -0.40832243998E+02  0.15770050303E+01  0.11797922211E+03  0.12485534007E+03  0.00000000000E+00 0. -1.
</event>
<event>
 7    1  0.3001243E-009  0.1256152E+03  0.7561462E-02  0.1234111E+00
         -2   -1    0    0    0  501 -0.00000000000E+00  0.00000000000E+00  0.22392835340E+03  0.22392835340E+03  0.00000000000E+00 0.  1.
          2   -1    0    0  501    0  0.00000000000E+00 -0.00000000000E+00 -0.11775208668E+03  0.11775208668E+03  0.00000000000E+00 0. -1.
         25    2    1    2    0    0  0.11352343250E+03 -0.27346958630E+01  0.10761508342E+03  0.20030821573E+03  0.12508927541E+03 0.  0.
          5    1    3    3  502    0  0.92782907266E+02 -0.34639386601E+02  0.15209328891E+02  0.10028634538E+03  0.41800000000E+01 0.  1.
         -5    1    3    3    0  502  0.20740525230E+02  0.31904690738E+02  0.92405754525E+02  0.10002187035E+03  0.41800000000E+01 0.  1.
        -11    1    1    2    0    0 -0.42385967664E+02  0.47806037264E+01 -0.41661852493E+02  0.59624947630E+02  0.00000000000E+00 0. -1.
         11    1    1    2    0    0 -0.71137464832E+02 -0.20459078634E+01  0.40223035800E+02  0.81747276717E+02  0.00000000000E+00 0.  1.
</event>
<event>
 7    1  0.3001243E-009  0.1473453E+03  0.7561462E-02  0.1203774E+00
         -2   -1    0    0    0  501 -0.00000000000E+00  0.00000000000E+00  0.24489311041E+02  0.24489311041E+02  0.00000000000E+00 0.  1.
          2   -1    0    0  501    0  0.00000000000E+00 -0.00000000000E+00 -0.11638707133E+04  0.11638707133E+04  0.00000000000E+00 0. -1.
         25    2    1    2    0    0  0.11053962306E+03  0.62708796274E+02 -0.52385767809E+03  0.55337558988E+03  0.12508507178E+03 0.  0.
          5    1    3    3  502    0  0.41025093505E+02  0.62220113821E+02 -0.43039377916E+03  0.43681881645E+03  0.41800000000E+01 0.  1.
         -5    1    3    3    0  502  0.69514529552E+02  0.48868245257E+00 -0.93463898929E+02  0.11655677343E+03  0.41800000000E+01 0.  1.
        -11    1    1    2    0    0 -0.40465849081E+02  0.17333427539E+02 -0.11190372998E+03  0.12025130950E+03  0.00000000000E+00 0.  1.
         11    1    1    2    0    0 -0.70073773976E+02 -0.80042223813E+02 -0.50361999415E+03  0.51473312493E+03  0.00000000000E+00 0. -1.
</event>
<event>
 7    1  0.3240888E-009  0.7984563E+02  0.7561462E-02  0.1329490E+00
         -2   -1    0    0    0  501 -0.00000000000E+00  0.00000000000E+00  0.91998759447E+02  0.91998759447E+02  0.00000000000E+00 0.  1.
          2   -1    0    0  501    0  0.00000000000E+00 -0.00000000000E+00 -0.20961786583E+03  0.20961786583E+03  0.00000000000E+00 0. -1.
         25    2    1    2    0    0 -0.13907596161E+02  0.45049308676E+02  0.14483331385E+02  0.13446347646E+03  0.12509115944E+03 0.  0.
          5    1    3    3  502    0 -0.47477998138E+02  0.40706567039E+02 -0.36942005803E+02  0.72755543432E+02  0.41800000000E+01 0.  1.
         -5    1    3    3    0  502  0.33570401977E+02  0.43427416363E+01  0.51425337188E+02  0.61707933029E+02  0.41800000000E+01 0.  1.
        -11    1    1    2    0    0  0.27878600958E+02 -0.20305902420E+02 -0.26196546772E+01  0.34589140711E+02  0.00000000000E+00 0.  1.
         11    1    1    2    0    0 -0.13971004797E+02 -0.24743406255E+02 -0.12948278309E+03  0.13256400810E+03  0.00000000000E+00 0. -1.
</event>
<event>
 7    1  0.3001243E-009  0.1177030E+03  0.7561462E-02  0.1246935E+00
          1   -1    0    0  501    0  0.00000000000E+00  0.00000000000E+00  0.23325792854E+03  0.23325792854E+03  0.00000000000E+00 0. -1.
         -1   -1    0    0    0  501 -0.00000000000E+00 -0.00000000000E+00 -0.82932510104E+02  0.82932510104E+02  0.00000000000E+00 0.  1.
         25    2    1    2    0    0  0.60732726477E+02 -0.60016454946E+02  0.66033844089E+02  0.16522217340E+03  0.12508980410E+03 0.  0.
          5    1    3    3  502    0  0.83083243405E+02 -0.58210790544E+02  0.68130907101E+01  0.10176056248E+03  0.41800000000E+01 0.  1.
         -5    1    3    3    0  502 -0.22350516928E+02 -0.18056644016E+01  0.59220753378E+02  0.63461610928E+02  0.41800000000E+01 0.  1.
        -11    1    1    2    0    0 -0.92840562929E+01 -0.16456869791E+02 -0.80146167367E+01  0.20524530348E+02  0.00000000000E+00 0.  1.
         11    1    1    2    0    0 -0.51448670184E+02  0.76473324737E+02  0.92306191084E+02  0.13044373489E+03  0.00000000000E+00 0. -1.
</event>
<event>
 7    1  0.3001243E-009  0.1368358E+03  0.7561462E-02  0.1217651E+00
          2   -1    0    0  501    0  0.00000000000E+00  0.00000000000E+00  0.67997735094E+02  0.67997735094E+02  0.00000000000E+00 0. -1.
         -2   -1    0    0    0  501 -0.00000000000E+00 -0.00000000000E+00 -0.35542752728E+03  0.35542752728E+03  0.00000000000E+00 0.  1.
         25    2    1    2    0    0  0.54330506416E+02  0.55048155379E+02 -0.25109755860E+03  0.29099575080E+03  0.12508572943E+03 0.  0.
          5    1    3    3  502    0  0.54453969492E+02  0.93447677089E+02 -0.19162768255E+03  0.22008258511E+03  0.41800000000E+01 0.  1.
         -5    1    3    3    0  502 -0.12346307546E+00 -0.38399521710E+02 -0.59469876048E+02  0.70913165687E+02  0.41800000000E+01 0.  1.
        -11    1    1    2    0    0 -0.51189004566E+02  0.17571444647E+02 -0.21553485268E+02  0.58254807378E+02  0.00000000000E+00 0.  1.
         11    1    1    2    0    0 -0.31415018500E+01 -0.72619600027E+02 -0.14778748321E+02  0.74174704205E+02  0.00000000000E+00 0. -1.
</event>
<event>
 7    1  0.3001243E-009  0.6166008E+02  0.7561462E-02  0.1390994E+00
         -2   -1    0    0    0  501 -0.00000000000E+00  0.00000000000E+00  0.94775768675E+01  0.94775768675E+01  0.00000000000E+00 0.  1.
          2   -1    0    0  501    0  0.00000000000E+00 -0.00000000000E+00 -0.15093962145E+04  0.15093962145E+04  0.00000000000E+00 0. -1.
         25    2    1    2    0    0 -0.74902392218E+01 -0.55607693335E+01 -0.11619541768E+04  0.11687051621E+04  0.12508885288E+03 0.  0.
          5    1    3    3  502    0 -0.81610977589E+00 -0.21566336836E+02 -0.33248876506E+02  0.39858915046E+02  0.41800000000E+01 0.  1.
         -5    1    3    3    0  502 -0.66741294459E+01  0.16005567503E+02 -0.11287053003E+04  0.11288462471E+04  0.41800000000E+01 0.  1.
        -11    1    1    2    0    0  0.45128066450E+02  0.77901862844E+01 -0.11071353955E+03  0.11981117320E+03  0.00000000000E+00 0.  1.
         11    1    1    2    0    0 -0.37637827228E+02 -0.22294169509E+01 -0.22725092125E+03  0.23035745602E+03  0.00000000000E+00 0. -1.
</event>
<event>
 7    1  0.3001243E-009  0.1285673E+03  0.7561462E-02  0.1229597E+00
         -2   -1    0    0    0  501 -0.00000000000E+00  0.00000000000E+00  0.20435405383E+02  0.20435405383E+02  0.00000000000E+00 0.  1.
          2   -1    0    0  501    0  0.00000000000E+00 -0.00000000000E+00 -0.13501872721E+04  0.13501872721E+04  0.00000000000E+00 0. -1.
         25    2    1    2    0    0  0.69151731309E+02  0.54323624719E+02 -0.10857806475E+04  0.10964948575E+04  0.12509332471E+03 0.  0.
          5    1    3    3  502    0 -0.33864629819E+02  0.31964299330E+02 -0.28834749911E+03  0.29211347491E+03  0.41800000000E+01 0. -1.
         -5    1    3    3    0  502  0.10301636113E+03  0.22359325389E+02 -0.79743314839E+03  0.80438138258E+03  0.41800000000E+01 0. -1.
        -11    1    1    2    0    0 -0.36210778486E+02 -0.61313279512E+02 -0.22384336842E+03  0.23489655662E+03  0.00000000000E+00 0. -1.
         11    1    1    2    0    0 -0.32940952823E+02  0.69896547926E+01 -0.20127850767E+02  0.39231263343E+02  0.00000000000E+00 0.  1.
</event>
<event>
 7    1  0.3001243E-009  0.3861704E+03  0.7561462E-02  0.1048676E+00
          2   -1    0    0  501    0  0.00000000000E+00  0.00000000000E+00  0.93461160618E+03  0.93461160618E+03  0.00000000000E+00 0. -1.
         -2   -1    0    0    0  501 -0.00000000000E+00 -0.00000000000E+00 -0.20020448920E+03  0.20020448920E+03  0.00000000000E+00 0.  1.
         25    2    1    2    0    0 -0.40542893749E+02 -0.38224321791E+03  0.58536572060E+03  0.71137484721E+03  0.12509013754E+03 0.  0.
          5    1    3    3  502    0 -0.52475258222E+02 -0.30466704889E+03  0.37035463987E+03  0.48244760863E+03  0.41800000000E+01 0.  1.
         -5    1    3    3    0  502  0.11932364473E+02 -0.77576169022E+02  0.21501108074E+03  0.22892723857E+03  0.41800000000E+01 0.  1.
        -11    1    1    2    0    0  0.22177032384E+02  0.26005343544E+03  0.14765879682E+03  0.29987118956E+03  0.00000000000E+00 0.  1.
         11    1    1    2    0    0  0.18365861365E+02  0.12218978247E+03  0.13825995560E+01  0.12357005861E+03  0.00000000000E+00 0. -1.
</event>
<event>
 7    1  0.3001243E-009  0.1293571E+03  0.7561462E-02  0.1228413E+00
          2   -1    0    0  501    0  0.00000000000E+00  0.00000000000E+00  0.12701585801E+03  0.12701585801E+03  0.00000000000E+00 0. -1.
         -2   -1    0    0    0  501 -0.00000000000E+00 -0.00000000000E+00 -0.24330372822E+03  0.24330372822E+03  0.00000000000E+00 0.  1.
         25    2    1    2    0    0 -0.20607299132E+02  0.10349330271E+03  0.31612019139E+02  0.16668644318E+03  0.12509806594E+03 0.  0.
          5    1    3    3  502    0  0.38915590554E+02  0.73025949251E+01 -0.17255874923E+02  0.43393417705E+02  0.41800000000E+01 0. -1.
         -5    1    3    3    0  502 -0.59522889686E+02  0.96190707787E+02  0.48867894062E+02  0.12329302548E+03  0.41800000000E+01 0. -1.
        -11    1    1    2    0    0  0.33369120923E+01 -0.31145974594E+02  0.67345463571E+01  0.32039987990E+02  0.00000000000E+00 0. -1.
         11    1    1    2    0    0  0.17270387039E+02 -0.72347328118E+02 -0.15463443571E+03  0.17159315506E+03  0.00000000000E+00 0.  1.
</event>
<event>
 7    1  0.3001243E-009  0.1783160E+03  0.7561462E-02  0.1169443E+00
          4   -1    0    0  501    0  0.00000000000E+00  0.00000000000E+00  0.91814862923E+03  0.91814862923E+03  0.00000000000E+00 0.  1.
         -4   -1    0    0    0  501 -0.00000000000E+00 -0.00000000000E+00 -0.62101576714E+02  0.62101576714E+02  0.00000000000E+00 0. -1.
         25    2    1    2    0    0  0.15943314810E+02  0.17070044537E+03  0.69548154486E+03  0.72714169349E+03  0.12509049462E+03 0.  0.
          5    1    3    3  502    0  0.39876333853E+02  0.71183550703E+02  0.49814956428E+03  0.50480459654E+03  0.41800000000E+01 0.  1.
         -5    1    3    3    0  502 -0.23933019042E+02  0.99516894668E+02  0.19733198058E+03  0.22233709696E+03  0.41800000000E+01 0.  1.
        -11    1    1    2    0    0  0.12125527139E+01 -0.89146269309E+02  0.14209301554E+03  0.16774669201E+03  0.00000000000E+00 0. -1.
         11    1    1    2    0    0 -0.17155867524E+02 -0.81554176062E+02  0.18472492122E+02  0.85361820440E+02  0.00000000000E+00 0.  1.
</event>
<event>
 7    1  0.3001243E-009  0.1835050E+03  0.7561462E-02  0.1164453E+00
          3   -1    0    0  501    0  0.00000000000E+00  0.00000000000E+00  0.12406954486E+03  0.12406954486E+03  0.00000000000E+00 0. -1.
         -3   -1    0    0    0  501 -0.00000000000E+00 -0.00000000000E+00 -0.36593732576E+03  0.36593732576E+03  0.00000000000E+00 0.  1.
         25    2    1    2    0    0  0.17766800105E+03 -0.22483212598E+02 -0.82982040613E+02  0.23367481143E+03  0.12508591043E+03 0.  0.
          5    1    3    3  502    0  0.47871475000E+01  0.52217437588E+01 -0.55845930516E+02  0.56448416668E+02  0.41800000000E+01 0.  1.
         -5    1    3    3    0  502  0.17288085355E+03 -0.27704956357E+02 -0.27136110097E+02  0.17722639477E+03  0.41800000000E+01 0.  1.
        -11    1    1    2    0    0 -0.67743234502E+02 -0.11234230117E+02 -0.11859139651E+02  0.69684954906E+02  0.00000000000E+00 0.  1.
         11    1    1    2    0    0 -0.10992476655E+03  0.33717442715E+02 -0.14702660063E+03  0.18664710428E+03  0.00000000000E+00 0. -1.
</event>
<event>
 7    1  0.3001243E-009  0.1187360E+03  0.7561462E-02  0.1245197E+00
         -1   -1    0    0    0  501 -0.00000000000E+00  0.00000000000E+00  0.76030639361E+02  0.76030639361E+02  0.00000000000E+00 0.  1.
          1   -1    0    0  501    0  0.00000000000E+00 -0.00000000000E+00 -0.28555444183E+03  0.28555444183E+03  0.00000000000E+00 0. -1.
         25    2    1    2    0    0 -0.62921001782E+02  0.54714251609E+02 -0.18010431375E+03  0.23460145222E+03  0.12509027044E+03 0.  0.
          5    1    3    3  502    0 -0.79769848948E+02  0.33575361289E+02 -0.46720730708E+02  0.98442027431E+02  0.41800000000E+01 0. -1.
         -5    1    3    3    0  502  0.16848847166E+02  0.21138890320E+02 -0.13338358304E+03  0.13615942479E+03  0.41800000000E+01 0. -1.
        -11    1    1    2    0    0  0.83999370849E+02 -0.26160598194E+02 -0.19182244805E+02  0.90045709041E+02  0.00000000000E+00 0.  1.
         11    1    1    2    0    0 -0.21078369067E+02 -0.28553653414E+02 -0.10237243921E+02  0.36937919932E+02  0.00000000000E+00 0. -1.
</event>
<event>
 7    1  0.3001243E-009  0.1211795E+03  0.7561462E-02  0.1241164E+00
          2   -1    0    0  501    0  0.00000000000E+00  0.00000000000E+00  0.24896541836E+03  0.24896541836E+03  0.00000000000E+00 0. -1.
         -2   -1    0    0    0  501 -0.00000000000E+00 -0.00000000000E+00 -0.88021493426E+02  0.88021493426E+02  0.00000000000E+00 0.  1.
         25    2    1    2    0    0 -0.47449179751E+02 -0.81839937029E+02  0.12767796094E+03  0.20223358317E+03  0.12509020946E+03 0.  0.
          5    1    3    3  502    0 -0.61396740822E+02 -0.67462579332E+02  0.14767243198E+03  0.17362424647E+03  0.41800000000E+01 0.  1.
         -5    1    3    3    0  502  0.13947561071E+02 -0.14377357697E+02 -0.19994471047E+02  0.28609336704E+02  0.41800000000E+01 0.  1.
        -11    1    1    2    0    0  0.16908567186E+02  0.95601063025E+02  0.24650246617E+02  0.10016535107E+03  0.00000000000E+00 0.  1.
         11    1    1    2    0    0  0.30540612566E+02 -0.13761125996E+02  0.86157173756E+01  0.34587977543E+02  0.00000000000E+00 0. -1.
</event>
<event>
 7    1  0.3001243E-009  0.1116357E+03  0.7561462E-02  0.1257570E+00
         -1   -1    0    0    0  501 -0.00000000000E+00  0.00000000000E+00  0.15587626748E+03  0.15587626748E+03  0.00000000000E+00 0.  1.
          1   -1    0    0  501    0  0.00000000000E+00 -0.00000000000E+00 -0.11207646316E+03  0.11207646316E+03  0.00000000000E+00 0. -1.
         25    2    1    2    0    0  0.34522895926E+02  0.38663570889E+02 -0.37883655307E+02  0.14060167007E+03  0.12508779409E+03 0.  0.
          5    1    3    3  502    0  0.32887077623E+02  0.81434301805E+02 -0.81133974787E+01  0.88297253659E+02  0.41800000000E+01 0.  1.
         -5    1    3    3    0  502  0.16358183033E+01 -0.42770730916E+02 -0.29770257828E+02  0.52304416408E+02  0.41800000000E+01 0.  1.
        -11    1    1    2    0    0 -0.44173618926E+02  0.78259495592E+01  0.60603818690E+02  0.75401438550E+02  0.00000000000E+00 0.  1.
         11    1    1    2    0    0  0.96507230001E+01 -0.46489520448E+02  0.21079640942E+02  0.51949622022E+02  0.00000000000E+00 0. -1.
</event>
<event>
 7    1  0.3001243E-009  0.1793996E+03  0.7561462E-02  0.1168385E+00
         -2   -1    0    0    0  501 -0.00000000000E+00  0.00000000000E+00  0.35150280511E+02  0.35150280511E+02  0.00000000000E+00 0.  1.
          2   -1    0    0  501    0  0.00000000000E+00 -0.00000000000E+00 -0.92363847657E+03  0.92363847657E+03  0.00000000000E+00 0. -1.
         25    2    1    2    0    0  0.13581067348E+03 -0.41237827937E+02 -0.45814301996E+03  0.49566563463E+03  0.12507716470E+03 0.  0.
          5    1    3    3  502    0  0.15018868624E+03 -0.62236087432E+02 -0.37872671793E+03  0.41216667906E+03  0.41800000000E+01 0.  1.
         -5    1    3    3    0  502 -0.14378012760E+02  0.20998259496E+02 -0.79416302030E+02  0.83498955567E+02  0.41800000000E+01 0.  1.
        -11    1    1    2    0    0 -0.44717703678E+02 -0.30756924611E+02 -0.15794830190E+03  0.16701295610E+03  0.00000000000E+00 0.  1.
         11    1    1    2    0    0 -0.91092969801E+02  0.71994752548E+02 -0.27239687421E+03  0.29611016635E+03  0.00000000000E+00 0. -1.
</event>
<event>
 7    1  0.3001243E-009  0.1738705E+03  0.7561462E-02  0.1173871E+00
          2   -1    0    0  501    0  0.00000000000E+00  0.00000000000E+00  0.17590835628E+03  0.17590835628E+03  0.00000000000E+00 0.  1.
         -2   -1    0    0    0  501 -0.00000000000E+00 -0.00000000000E+00 -0.22221725704E+03  0.22221725704E+03  0.00000000000E+00 0. -1.
         25    2    1    2    0    0 -0.11740865873E+03 -0.95556375473E+02  0.40303658561E+02  0.20046300458E+03  0.12508084294E+03 0.  0.
          5    1    3    3  502    0 -0.10131657733E+03 -0.90398980123E+01  0.46957293840E+02  0.11211257040E+03  0.41800000000E+01 0.  1.
         -5    1    3    3    0  502 -0.16092081406E+02 -0.86516477461E+02 -0.66536352790E+01  0.88350434174E+02  0.41800000000E+01 0.  1.
        -11    1    1    2    0    0  0.13059834249E+02  0.34612445802E+02  0.14859515592E+02  0.39867102712E+02  0.00000000000E+00 0.  1.
         11    1    1    2    0    0  0.10434882449E+03  0.60943929671E+02 -0.10147207492E+03  0.15779550603E+03  0.00000000000E+00 0. -1.
</event>
<event>
 7    1  0.3001243E-009  0.1149601E+03  0.7561462E-02  0.1251651E+00
         -1   -1    0    0    0  501 -0.00000000000E+00  0.00000000000E+00  0.47451597976E+02  0.47451597976E+02  0.00000000000E+00 0.  1.
          1   -1    0    0  501    0  0.00000000000E+00 -0.00000000000E+00 -0.30883474941E+03  0.30883474941E+03  0.00000000000E+00 0. -1.
         25    2    1    2    0    0 -0.29030878547E+02  0.36413653815E+02 -0.18993907258E+03  0.23215072293E+03  0.12509340818E+03 0.  0.
          5    1    3    3  502    0 -0.21511553167E+02  0.80751210072E+02 -0.15047602698E+03  0.17217436494E+03  0.41800000000E+01 0. -1.
         -5    1    3    3    0  502 -0.75193253801E+01 -0.44337556258E+02 -0.39463045604E+02  0.59976357988E+02  0.41800000000E+01 0. -1.
        -11    1    1    2    0    0  0.61087914205E+02 -0.31238819214E+02 -0.43042743753E+02  0.80995523812E+02  0.00000000000E+00 0.  1.
         11    1    1    2    0    0 -0.32057035658E+02 -0.51748346008E+01 -0.28401335097E+02  0.43140100644E+02  0.00000000000E+00 0. -1.
</event>
<event>
 7    1  0.3001243E-009  0.1490707E+03  0.7561462E-02  0.1201620E+00
         -1   -1    0    0    0  501 -0.00000000000E+00  0.00000000000E+00  0.63516066033E+02  0.63516066033E+02  0.00000000000E+00 0.  1.
          1   -1    0    0  501    0  0.00000000000E+00 -0.00000000000E+00 -0.49808843544E+03  0.49808843544E+03  0.00000000000E+00 0. -1.
         25    2    1    2    0    0 -0.13000563000E+03  0.15283274973E+02 -0.30900523893E+03  0.35814308935E+03  0.12508873827E+03 0.  0.
          5    1    3    3  502    0  0.70763567112E+01  0.13074310772E+02 -0.13829677798E+03  0.13915632801E+03  0.41800000000E+01 0. -1.
         -5    1    3    3    0  502 -0.13708198671E+03  0.22089642013E+01 -0.17070846095E+03  0.21898676134E+03  0.41800000000E+01 0. -1.
        -11    1    1    2    0    0  0.10626572042E+03 -0.37825941369E+02 -0.54620982045E+02  0.12532620180E+03  0.00000000000E+00 0.  1.
         11    1    1    2    0    0  0.23739909577E+02  0.22542666396E+02 -0.70946148439E+02  0.78135210330E+02  0.00000000000E+00 0. -1.
</event>
<event>
 7    1  0.3001243E-009  0.2173006E+03  0.7561462E-02  0.1135912E+00
         -1   -1    0    0    0  501 -0.00000000000E+00  0.00000000000E+00  0.55109959085E+02  0.55109959085E+02  0.00000000000E+00 0.  1.
          1   -1    0    0  501    0  0.00000000000E+00 -0.00000000000E+00 -0.13396621760E+04  0.13396621760E+04  0.00000000000E+00 0. -1.
         25    2    1    2    0    0  0.14363048280E+03 -0.13945130113E+03 -0.10383839969E+04  0.10648784973E+04  0.12509399649E+03 0.  0.
          5    1    3    3  502    0  0.57198733313E+02  0.69300490575E+01 -0.40359762712E+03  0.40771097322E+03  0.41800000000E+01 0.  1.
         -5    1    3    3    0  502  0.86431749483E+02 -0.14638135019E+03 -0.63478636983E+03  0.65716752409E+03  0.41800000000E+01 0.  1.
        -11    1    1    2    0    0 -0.12960980266E+03  0.14230174760E+03 -0.18463217494E+03  0.26671619437E+03  0.00000000000E+00 0.  1.
         11    1    1    2    0    0 -0.14020680132E+02 -0.28504464718E+01 -0.61536044976E+02  0.63177443346E+02  0.00000000000E+00 0. -1.
</event>
<event>
 7    1  0.3001243E-009  0.1253222E+03  0.7561462E-02  0.1234567E+00
          2   -1    0    0  501    0  0.00000000000E+00  0.00000000000E+00  0.57119071941E+02  0.57119071941E+02  0.00000000000E+00 0. -1.
         -2   -1    0    0    0  501 -0.00000000000E+00 -0.00000000000E+00 -0.39201994333E+03  0.39201994333E+03  0.00000000000E+00 0.  1.
         25    2    1    2    0    0 -0.33544835736E+02 -0.83505391627E+02 -0.96030646561E+02  0.18156973879E+03  0.12508908237E+03 0.  0.
          5    1    3    3  502    0 -0.53670633784E+02  0.82255946090E+01 -0.12636593465E+02  0.55904858750E+02  0.41800000000E+01 0. -1.
         -5    1    3    3    0  502  0.20125798048E+02 -0.91730986236E+02 -0.83394053096E+02  0.12566488004E+03  0.41800000000E+01 0. -1.
        -11    1    1    2    0    0  0.46212950864E+02  0.64922489383E+02 -0.22996316255E+03  0.24337958539E+03  0.00000000000E+00 0.  1.
         11    1    1    2    0    0 -0.12668115128E+02  0.18582902244E+02 -0.89070622752E+01  0.24189691091E+02  0.00000000000E+00 0. -1.
</event>
<event>
 7    1  0.3001243E-009  0.1052967E+03  0.7561462E-02  0.1269536E+00
         -1   -1    0    0    0  501 -0.00000000000E+00  0.00000000000E+00  0.10742434742E+03  0.10742434742E+03  0.00000000000E+00 0.  1.
          1   -1    0    0  501    0  0.00000000000E+00 -0.00000000000E+00 -0.12583405192E+03  0.12583405192E+03  0.00000000000E+00 0. -1.
         25    2    1    2    0    0 -0.22657043021E+02  0.34660462286E+02  0.32310793133E+01  0.13181197732E+03  0.12509703532E+03 0.  0.
          5    1    3    3  502    0  0.49491103574E+02  0.65550734080E+01 -0.14727065247E+02  0.52217785966E+02  0.41800000000E+01 0.  1.
         -5    1    3    3    0  502 -0.72148146595E+02  0.28105388878E+02  0.17958144560E+02  0.79594191353E+02  0.41800000000E+01 0.  1.
        -11    1    1    2    0    0 -0.18860472601E+02 -0.36831111807E+02  0.16955309660E+02  0.44718349135E+02  0.00000000000E+00 0.  1.
         11    1    1    2    0    0  0.41517515622E+02  0.21706495211E+01 -0.38596093468E+02  0.56728072889E+02  0.00000000000E+00 0. -1.
</event>
<event>
 7    1  0.3001243E-009  0.1468662E+03  0.7561462E-02  0.1204378E+00
         -3   -1    0    0    0  501 -0.00000000000E+00  0.00000000000E+00  0.75600912371E+02  0.75600912371E+02  0.00000000000E+00 0.  1.
          3   -1    0    0  501    0  0.00000000000E+00 -0.00000000000E+00 -0.37553342339E+03  0.37553342339E+03  0.00000000000E+00 0. -1.
         25    2    1    2    0    0 -0.11484306001E+00 -0.12479033681E+03 -0.19046360279E+03  0.25979830184E+03  0.12508450065E+03 0.  0.
          5    1    3    3  502    0  0.45628960093E+01 -0.13374200957E+03 -0.20299389412E+03  0.24317018442E+03  0.41800000000E+01 0. -1.
         -5    1    3    3    0  502 -0.46777390693E+01  0.89516727621E+01  0.12530291329E+02  0.16628117417E+02  0.41800000000E+01 0. -1.
        -11    1    1    2    0    0 -0.31768099155E+02  0.10861389278E+03 -0.54108826053E+02  0.12543506242E+03  0.00000000000E+00 0.  1.
         11    1    1    2    0    0  0.31882942215E+02  0.16176444032E+02 -0.55360082182E+02  0.65900971502E+02  0.00000000000E+00 0. -1.
</event>
<event>
 7    1  0.3001243E-009  0.1039859E+03  0.7561462E-02  0.1272131E+00
          2   -1    0    0  501    0  0.00000000000E+00  0.00000000000E+00  0.27648047943E+03  0.27648047943E+03  0.00000000000E+00 0.  1.
         -2   -1    0    0    0  501 -0.00000000000E+00 -0.00000000000E+00 -0.47335698159E+02  0.47335698159E+02  0.00000000000E+00 0. -1.
         25    2    1    2    0    0  0.30129701303E+02  0.17049879442E+02  0.11383941501E+03  0.17264308265E+03  0.12509086412E+03 0.  0.
          5    1    3    3  502    0  0.82196293224E+00 -0.44803453257E+02  0.88959720154E+02  0.99696184765E+02  0.41800000000E+01 0.  1.
         -5    1    3    3    0  502  0.29307738370E+02  0.61853332700E+02  0.24879694855E+02  0.72946897881E+02  0.41800000000E+01 0.  1.
        -11    1    1    2    0    0 -0.37819477845E+00  0.34699319271E+02  0.24398427561E+02  0.42420149182E+02  0.00000000000E+00 0. -1.
         11    1    1    2    0    0 -0.29751506524E+02 -0.51749198713E+02  0.90906938706E+02  0.10875294577E+03  0.00000000000E+00 0.  1.
</event>
<event>
 7    1  0.3001243E-009  0.1291607E+03  0.7561462E-02  0.1228706E+00
         -4   -1    0    0    0  501 -0.00000000000E+00  0.00000000000E+00  0.20501840532E+03  0.20501840532E+03  0.00000000000E+00 0.  1.
          4   -1    0    0  501    0  0.00000000000E+00 -0.00000000000E+00 -0.94276175539E+02  0.94276175539E+02  0.00000000000E+00 0. -1.
         25    2    1    2    0    0 -0.86672727725E+02  0.20124541263E+01  0.54354617404E+02  0.16163139897E+03  0.12511623795E+03 0.  0.
          5    1    3    3  502    0 -0.15208339607E+02 -0.55576364571E+02  0.35606634987E+02  0.67862587245E+02  0.41800000000E+01 0.  1.
         -5    1    3    3    0  502 -0.71464388118E+02  0.57588818697E+02  0.18747982417E+02  0.93768811727E+02  0.41800000000E+01 0.  1.
        -11    1    1    2    0    0  0.81657361325E+02 -0.24801249993E+02  0.10241524417E+02  0.85952984138E+02  0.00000000000E+00 0.  1.
         11    1    1    2    0    0  0.50153663999E+01  0.22788795867E+02  0.46146087959E+02  0.51710197748E+02  0.00000000000E+00 0. -1.
</event>
<event>
 7    1  0.3001243E-009  0.2129648E+03  0.7561462E-02  0.1139239E+00
          1   -1    0    0  501    0  0.00000000000E+00  0.00000000000E+00  0.19058435411E+04  0.19058435411E+04  0.00000000000E+00 0. -1.
         -1   -1    0    0    0  501 -0.00000000000E+00 -0.00000000000E+00 -0.27653096824E+02  0.27653096824E+02  0.00000000000E+00 0.  1.
         25    2    1    2    0    0 -0.66654574538E+02 -0.19080959007E+03  0.94572378668E+03  0.97513674852E+03  0.12508823145E+03 0.  0.
          5    1    3    3  502    0 -0.67271435256E+02 -0.14319169827E+03  0.87853920675E+03  0.89268018834E+03  0.41800000000E+01 0. -1.
         -5    1    3    3    0  502  0.61686071792E+00 -0.47617891794E+02  0.67184579932E+02  0.82456560180E+02  0.41800000000E+01 0. -1.
        -11    1    1    2    0    0  0.87825829488E+02  0.15919412437E+03  0.72624674355E+03  0.74865912007E+03  0.00000000000E+00 0.  1.
         11    1    1    2    0    0 -0.21171254951E+02  0.31615465699E+02  0.20621991402E+03  0.20970076930E+03  0.00000000000E+00 0. -1.
</event>
<event>
 7    1  0.3001243E-009  0.1578710E+03  0.7561462E-02  0.1191122E+00
          1   -1    0    0  501    0  0.00000000000E+00  0.00000000000E+00  0.33838909375E+03  0.33838909375E+03  0.00000000000E+00 0. -1.
         -1   -1    0    0    0  501 -0.00000000000E+00 -0.00000000000E+00 -0.90336500159E+02  0.90336500159E+02  0.00000000000E+00 0.  1.
         25    2    1    2    0    0  0.10985443282E+02  0.12640744201E+03  0.68685809538E+02  0.19095681693E+03  0.12508894491E+03 0.  0.
          5    1    3    3  502    0  0.50375810725E+02  0.11288361433E+03  0.17627193492E+02  0.12493447499E+03  0.41800000000E+01 0. -1.
         -5    1    3    3    0  502 -0.39390367443E+02  0.13523827679E+02  0.51058616046E+02  0.66022341938E+02  0.41800000000E+01 0. -1.
        -11    1    1    2    0    0  0.29645393234E+02 -0.92964193503E+02  0.83582610546E+02  0.12848051759E+03  0.00000000000E+00 0.  1.
         11    1    1    2    0    0 -0.40630836516E+02 -0.33443248509E+02  0.95784173511E+02  0.10928825940E+03  0.00000000000E+00 0. -1.
</event>
<event>
 7    1  0.3001243E-009  0.1912771E+03  0.7561462E-02  0.1157314E+00
         -3   -1    0    0    0  501 -0.00000000000E+00  0.00000000000E+00  0.36206398804E+02  0.36206398804E+02  0.00000000000E+00 0.  1.
          3   -1    0    0  501    0  0.00000000000E+00 -0.00000000000E+00 -0.11622020303E+04  0.11622020303E+04  0.00000000000E+00 0. -1.
         25    2    1    2    0    0  0.16711359634E+03  0.42407704933E+02 -0.67505431996E+03  0.70786429478E+03  0.12509259530E+03 0.  0.
          5    1    3    3  502    0 -0.15609996244E+02 -0.86672464023E+01 -0.11691999693E+03  0.11834927640E+03  0.41800000000E+01 0. -1.
         -5    1    3    3    0  502  0.18272359259E+03  0.51074951336E+02 -0.55813432304E+03  0.58951501838E+03  0.41800000000E+01 0. -1.
        -11    1    1    2    0    0 -0.94215012599E+02 -0.37419641787E+02 -0.35936136174E+03  0.37338624306E+03  0.00000000000E+00 0.  1.
         11    1    1    2    0    0 -0.72898583744E+02 -0.49880631461E+01 -0.91579949839E+02  0.11715789132E+03  0.00000000000E+00 0. -1.
</event>
<event>
 7    1  0.3001243E-009  0.8046228E+02  0.7561462E-02  0.1327745E+00
          4   -1    0    0  501    0  0.00000000000E+00  0.00000000000E+00  0.28086697848E+02  0.28086697848E+02  0.00000000000E+00 0. -1.
         -4   -1    0    0    0  501 -0.00000000000E+00 -0.00000000000E+00 -0.43301604691E+03  0.43301604691E+03  0.00000000000E+00 0.  1.
         25    2    1    2    0    0  0.78287600441E+01 -0.13022116131E+02 -0.25643672263E+03  0.28572599144E+03  0.12509470204E+03 0.  0.
          5    1    3    3  502    0  0.34194571767E+01  0.54180477093E+02 -0.79490773812E+02  0.96350777405E+02  0.41800000000E+01 0. -1.
         -5    1    3    3    0  502  0.44093028674E+01 -0.67202593225E+02 -0.17694594882E+03  0.18937521403E+03  0.41800000000E+01 0. -1.
        -11    1    1    2    0    0 -0.11484595570E+02  0.24443320712E+02 -0.15786389690E+03  0.16015736576E+03  0.00000000000E+00 0.  1.
         11    1    1    2    0    0  0.36558355257E+01 -0.11421204580E+02  0.93712704665E+01  0.15219387557E+02  0.00000000000E+00 0. -1.
</event>
<event>
 7    1  0.3001243E-009  0.2920856E+03  0.7561462E-02  0.1089265E+00
          2   -1    0    0  501    0  0.00000000000E+00  0.00000000000E+00  0.94035082756E+02  0.94035082756E+02  0.00000000000E+00 0. -1.
         -2   -1    0    0    0  501 -0.00000000000E+00 -0.00000000000E+00 -0.98796251042E+03  0.98796251042E+03  0.00000000000E+00 0.  1.
         25    2    1    2    0    0  0.24445027206E+03 -0.12002800716E+03 -0.30912015311E+03  0.43054100453E+03  0.12509048529E+03 0.  0.
          5    1    3    3  502    0 -0.98608911698E+01 -0.25800389849E+02 -0.21963545765E+02  0.35535433494E+02  0.41800000000E+01 0.  1.
         -5    1    3    3    0  502  0.25431116323E+03 -0.94227617310E+02 -0.28715660735E+03  0.39500557104E+03  0.41800000000E+01 0.  1.
        -11    1    1    2    0    0 -0.14841823316E+03  0.26154416860E+02 -0.34779852621E+03  0.37904596066E+03  0.00000000000E+00 0.  1.
         11    1    1    2    0    0 -0.96032038899E+02  0.93873590299E+02 -0.23700874833E+03  0.27241062798E+03  0.00000000000E+00 0. -1.
</event>
<event>
 7    1  0.3001243E-009  0.1266952E+03  0.7561462E-02  0.1232444E+00
         -1   -1    0    0    0  501 -0.00000000000E+00  0.00000000000E+00  0.20266900354E+02  0.20266900354E+02  0.00000000000E+00 0.  1.
          1   -1    0    0  501    0  0.00000000000E+00 -0.00000000000E+00 -0.96902601895E+03  0.96902601895E+03  0.00000000000E+00 0. -1.
         25    2    1    2    0    0 -0.80970040279E+02  0.22938928615E+02 -0.61942487007E+03  0.63750325928E+03  0.12506356008E+03 0.  0.
          5    1    3    3  502    0  0.15812100672E+02 -0.18841352286E+02 -0.31479200729E+02  0.40167543641E+02  0.41800000000E+01 0. -1.
         -5    1    3    3    0  502 -0.96782140951E+02  0.41780280902E+02 -0.58794566935E+03  0.59733571564E+03  0.41800000000E+01 0. -1.
        -11    1    1    2    0    0  0.34990329554E+02  0.34654041257E+02 -0.11359713604E+03  0.12381249959E+03  0.00000000000E+00 0. -1.
         11    1    1    2    0    0  0.45979710725E+02 -0.57592969873E+02 -0.21573711249E+03  0.22797716044E+03  0.00000000000E+00 0.  1.
</event>
<event>
 7    1  0.3001243E-009  0.1231373E+03  0.7561462E-02  0.1238009E+00
          1   -1    0    0  501    0  0.00000000000E+00  0.00000000000E+00  0.27842055993E+02  0.27842055993E+02  0.00000000000E+00 0. -1.
         -1   -1    0    0    0  501 -0.00000000000E+00 -0.00000000000E+00 -0.66908361309E+03  0.66908361309E+03  0.00000000000E+00 0.  1.
         25    2    1    2    0    0  0.75008974501E+01  0.83506863239E+02 -0.36442197750E+03  0.39431057709E+03  0.12509114219E+03 0.  0.
          5    1    3    3  502    0  0.49122469293E+02  0.36080269788E+02 -0.68838926903E+02  0.92038432813E+02  0.41800000000E+01 0. -1.
         -5    1    3    3    0  502 -0.41621571843E+02  0.47426593451E+02 -0.29558305059E+03  0.30227214428E+03  0.41800000000E+01 0. -1.
        -11    1    1    2    0    0 -0.93783196559E+01  0.18065162838E+02 -0.54768524575E+02  0.58428539876E+02  0.00000000000E+00 0. -1.
         11    1    1    2    0    0  0.18774222058E+01 -0.10157202608E+03 -0.22205105502E+03  0.24418655211E+03  0.00000000000E+00 0.  1.
</event>
<event>
 7    1  0.3001243E-009  0.1789630E+03  0.7561462E-02  0.1168810E+00
         -3   -1    0    0    0  501 -0.00000000000E+00  0.00000000000E+00  0.17193355706E+03  0.17193355706E+03  0.00000000000E+00 0.  1.
          3   -1    0    0  501    0  0.00000000000E+00 -0.00000000000E+00 -0.27460807301E+03  0.27460807301E+03  0.00000000000E+00 0. -1.
         25    2    1    2    0    0  0.11459878855E+03  0.11530044384E+03 -0.14994513210E+03  0.25408022085E+03  0.12508453661E+03 0.  0.
          5    1    3    3  502    0 -0.18457727407E+02  0.33564686703E+02 -0.14640868863E+01  0.38560236577E+02  0.41800000000E+01 0. -1.
         -5    1    3    3    0  502  0.13305651596E+03  0.81735757137E+02 -0.14848104522E+03  0.21551998428E+03  0.41800000000E+01 0. -1.
        -11    1    1    2    0    0 -0.24734730965E+02 -0.17106661037E+02 -0.26669755749E+02  0.40196027658E+02  0.00000000000E+00 0. -1.
         11    1    1    2    0    0 -0.89864057584E+02 -0.98193782802E+02  0.73940371902E+02  0.15226538157E+03  0.00000000000E+00 0.  1.
</event>
<event>
 7    1  0.3001243E-009  0.1249026E+03  0.7561462E-02  0.1235222E+00
         -1   -1    0    0    0  501 -0.00000000000E+00  0.00000000000E+00  0.27448718971E+03  0.27448718971E+03  0.00000000000E+00 0.  1.
          1   -1    0    0  501    0  0.00000000000E+00 -0.00000000000E+00 -0.71264105260E+02  0.71264105260E+02  0.00000000000E+00 0. -1.
         25    2    1    2    0    0 -0.66109355408E+02  0.30547905118E+02  0.17497599855E+03  0.22708789927E+03  0.12509473428E+03 0.  0.
          5    1    3    3  502    0  0.22450710729E+02  0.40068072564E+02  0.10172011904E+03  0.11168679362E+03  0.41800000000E+01 0.  1.
         -5    1    3    3    0  502 -0.88560066137E+02 -0.95201674462E+01  0.73255879512E+02  0.11540110565E+03  0.41800000000E+01 0.  1.
        -11    1    1    2    0    0  0.31357660041E+02  0.30836230490E+02  0.17397297633E+02  0.47295263177E+02  0.00000000000E+00 0.  1.
         11    1    1    2    0    0  0.34751695366E+02 -0.61384135608E+02  0.10849788272E+02  0.71368132529E+02  0.00000000000E+00 0. -1.
</event>
<event>
 7    1  0.3001243E-009  0.1189996E+03  0.7561462E-02  0.1244757E+00
          2   -1    0    0  501    0  0.00000000000E+00  0.00000000000E+00  0.21083210345E+03  0.21083210345E+03  0.00000000000E+00 0.  1.
         -2   -1    0    0    0  501 -0.00000000000E+00 -0.00000000000E+00 -0.10376573922E+03  0.10376573922E+03  0.00000000000E+00 0. -1.
         25    2    1    2    0    0 -0.20024594111E+02 -0.73651757346E+02  0.12694199861E+03  0.19387760589E+03  0.12509472142E+03 0.  0.
          5    1    3    3  502    0  0.34862776068E+02  0.17972516802E+02  0.38882735453E+02  0.55387399575E+02  0.41800000000E+01 0.  1.
         -5    1    3    3    0  502 -0.54887370178E+02 -0.91624274148E+02  0.88059263159E+02  0.13849020632E+03  0.41800000000E+01 0.  1.
        -11    1    1    2    0    0  0.24753996735E+02  0.82485734147E+01  0.28944110003E+02  0.38968715935E+02  0.00000000000E+00 0.  1.
         11    1    1    2    0    0 -0.47294026244E+01  0.65403183931E+02 -0.48819744385E+02  0.81751520838E+02  0.00000000000E+00 0. -1.
</event>
<event>
 7    1  0.3001243E-009  0.7928218E+02  0.7561462E-02  0.1331101E+00
         -2   -1    0    0    0  501 -0.00000000000E+00  0.00000000000E+00  0.16768672207E+02  0.16768672207E+02  0.00000000000E+00 0.  1.
          2   -1    0    0  501    0  0.00000000000E+00 -0.00000000000E+00 -0.28769739960E+04  0.28769739960E+04  0.00000000000E+00 0. -1.
         25    2    1    2    0    0 -0.20183415341E+02  0.30024334105E+02 -0.27302156142E+04  0.27333191404E+04  0.12508953840E+03 0.  0.
          5    1    3    3  502    0 -0.16655863166E+02  0.69784989278E+02 -0.23273323052E+04  0.23284416449E+04  0.41800000000E+01 0.  1.
         -5    1    3    3    0  502 -0.35275521752E+01 -0.39760655173E+02 -0.40288330904E+03  0.40487749558E+03  0.41800000000E+01 0.  1.
        -11    1    1    2    0    0  0.20061878412E+02 -0.38994739231E+01  0.65077355701E+01  0.21448437811E+02  0.00000000000E+00 0.  1.
         11    1    1    2    0    0  0.12153692917E+00 -0.26124860182E+02 -0.13649744520E+03  0.13897508999E+03  0.00000000000E+00 0. -1.
</event>
<event>
 7    1  0.3001243E-009  0.1806508E+03  0.7561462E-02  0.1167175E+00
         -2   -1    0    0    0  501 -0.00000000000E+00  0.00000000000E+00  0.51707642879E+02  0.51707642879E+02  0.00000000000E+00 0.  1.
          2   -1    0    0  501    0  0.00000000000E+00 -0.00000000000E+00 -0.79593288254E+03  0.79593288254E+03  0.00000000000E+00 0. -1.
         25    2    1    2    0    0 -0.32408423637E+02  0.15268716009E+03 -0.24408518359E+03  0.31557947256E+03  0.12509657019E+03 0.  0.
          5    1    3    3  502    0 -0.69028752935E+02  0.79903334536E+02 -0.80722656742E+02  0.13297793544E+03  0.41800000000E+01 0.  1.
         -5    1    3    3    0  502  0.36620329298E+02  0.72783825551E+02 -0.16336252685E+03  0.18260153712E+03  0.41800000000E+01 0.  1.
        -11    1    1    2    0    0 -0.25294124641E+02 -0.55984969915E+02 -0.10997880595E+03  0.12597399476E+03  0.00000000000E+00 0.  1.
         11    1    1    2    0    0  0.57702548277E+02 -0.96702190173E+02 -0.39016125012E+03  0.40608705810E+03  0.00000000000E+00 0. -1.
</event>
<event>
 7    1  0.3001243E-009  0.7964352E+02  0.7561462E-02  0.1330066E+00
         -4   -1    0    0    0  501 -0.00000000000E+00  0.00000000000E+00  0.10052136830E+03  0.10052136830E+03  0.00000000000E+00 0.  1.
          4   -1    0    0  501    0  0.00000000000E+00 -0.00000000000E+00 -0.14900876478E+03  0.14900876478E+03  0.00000000000E+00 0. -1.
         25    2    1    2    0    0  0.42175978505E+02  0.32120377510E+02 -0.71617224268E+01  0.13605741908E+03  0.12509915749E+03 0.  0.
          5    1    3    3  502    0  0.56828618752E+02  0.10252969738E+02  0.47731532897E+02  0.75035904276E+02  0.41800000000E+01 0. -1.
         -5    1    3    3    0  502 -0.14652640248E+02  0.21867407773E+02 -0.54893255324E+02  0.61021514804E+02  0.41800000000E+01 0. -1.
        -11    1    1    2    0    0 -0.52428829374E+02 -0.14576949358E+02  0.12590087166E+02  0.55854989902E+02  0.00000000000E+00 0.  1.
         11    1    1    2    0    0  0.10252850869E+02 -0.17543428152E+02 -0.53915761219E+02  0.57617724097E+02  0.00000000000E+00 0. -1.
</event>
<event>
 7    1  0.3001243E-009  0.1065814E+03  0.7561462E-02  0.1267035E+00
          2   -1    0    0  501    0  0.00000000000E+00  0.00000000000E+00  0.11470086475E+03  0.11470086475E+03  0.00000000000E+00 0. -1.
         -2   -1    0    0    0  501 -0.00000000000E+00 -0.00000000000E+00 -0.12916202124E+03  0.12916202124E+03  0.00000000000E+00 0.  1.
         25    2    1    2    0    0 -0.16840076483E+02 -0.51438720773E+02  0.11372918737E+02  0.13677010988E+03  0.12508872653E+03 0.  0.
          5    1    3    3  502    0 -0.32175757298E+02 -0.77048524157E+02  0.42206318107E+02  0.93651482212E+02  0.41800000000E+01 0.  1.
         -5    1    3    3    0  502  0.15335680815E+02  0.25609803383E+02 -0.30833399370E+02  0.43118627670E+02  0.41800000000E+01 0.  1.
        -11    1    1    2    0    0 -0.25251599036E+02  0.51467009368E+02 -0.30163344110E+02  0.64779037004E+02  0.00000000000E+00 0.  1.
         11    1    1    2    0    0  0.42091675519E+02 -0.28288595224E-01  0.43292688853E+01  0.42313739108E+02  0.00000000000E+00 0. -1.
</event>
<event>
 6    1  0.3001243E-009  0.2093079E+03  0.7561462E-02  0.1142115E+00
         -1   -1    0    0    0  501 -0.00000000000E+00  0.00000000000E+00  0.31134348284E+02  0.31134348284E+02  0.00000000000E+00 0.  1.
          1   -1    0    0  501    0  0.00000000000E+00 -0.00000000000E+00 -0.15217379867E+04  0.15217379867E+04  0.00000000000E+00 0. -1.
          5    1    1    2  502    0  0.17141284354E+03 -0.45653545412E+01 -0.41265694193E+03  0.44688525318E+03  0.41800000000E+01 0.  1.
         -5    1    1    2    0  502  0.62052136993E+01  0.43539091920E+02 -0.18766878913E+03  0.19279835066E+03  0.41800000000E+01 0.  1.
        -11    1    1    2    0    0 -0.81181034466E+02 -0.63893934704E+02 -0.42621113293E+03  0.43855299005E+03  0.00000000000E+00 0.  1.
         11    1    1    2    0    0 -0.96437022769E+02  0.24920197325E+02 -0.46406677438E+03  0.47463574105E+03  0.00000000000E+00 0. -1.
</event>
<event>
 7    1  0.3001243E-009  0.1180715E+03  0.7561462E-02  0.1246313E+00
         -2   -1    0    0    0  501 -0.00000000000E+00  0.00000000000E+00  0.11435634256E+03  0.11435634256E+03  0.00000000000E+00 0.  1.
          2   -1    0    0  501    0  0.00000000000E+00 -0.00000000000E+00 -0.19331790513E+03  0.19331790513E+03  0.00000000000E+00 0. -1.
         25    2    1    2    0    0 -0.82285103089E+01  0.10043068242E+03 -0.61454472955E+02  0.17198308090E+03  0.12508995770E+03 0.  0.
          5    1    3    3  502    0  0.38455751842E+01  0.82711251861E+02 -0.98641073509E+02  0.12885446603E+03  0.41800000000E+01 0. -1.
         -5    1    3    3    0  502 -0.12074085493E+02  0.17719430560E+02  0.37186600554E+02  0.43128614870E+02  0.41800000000E+01 0. -1.
        -11    1    1    2    0    0  0.13263588372E+02 -0.11511039481E+03 -0.24874640041E+02  0.11851191284E+03  0.00000000000E+00 0. -1.
         11    1    1    2    0    0 -0.50350780630E+01  0.14679712385E+02  0.73675504265E+01  0.17179253944E+02  0.00000000000E+00 0.  1.
</event>
<event>
 7    1  0.3001243E-009  0.1157143E+03  0.7561462E-02  0.1250339E+00
         -2   -1    0    0    0  501 -0.00000000000E+00  0.00000000000E+00  0.57115174892E+02  0.57115174892E+02  0.00000000000E+00 0. -1.
          2   -1    0    0  501    0  0.00000000000E+00 -0.00000000000E+00 -0.36098931778E+03  0.36098931778E+03  0.00000000000E+00 0.  1.
         25    2    1    2    0    0 -0.85641883353E+01 -0.58095631646E+02 -0.58241219728E+02  0.14995764437E+03  0.12508720035E+03 0.  0.
          5    1    3    3  502    0 -0.44034359456E+02  0.11661457529E+02 -0.54979804228E+02  0.71521085544E+02  0.41800000000E+01 0. -1.
         -5    1    3    3    0  502  0.35470171121E+02 -0.69757089175E+02 -0.32614155002E+01  0.78436558827E+02  0.41800000000E+01 0. -1.
        -11    1    1    2    0    0  0.61374161919E+01 -0.24209488334E+02 -0.64939600315E+02  0.69576712282E+02  0.00000000000E+00 0.  1.
         11    1    1    2    0    0  0.24267721434E+01  0.82305119980E+02 -0.18069332285E+03  0.19857013602E+03  0.00000000000E+00 0. -1.
</event>
<event>
 7    1  0.3001243E-009  0.1309540E+03  0.7561462E-02  0.1226047E+00
          1   -1    0    0  501    0  0.00000000000E+00  0.00000000000E+00  0.22598478054E+03  0.22598478054E+03  0.00000000000E+00 0. -1.
         -1   -1    0    0    0  501 -0.00000000000E+00 -0.00000000000E+00 -0.98392954215E+02  0.98392954215E+02  0.00000000000E+00 0.  1.
         25    2    1    2    0    0 -0.73888911107E+02  0.66806666842E+02  0.48019401998E+02  0.16695665083E+03  0.12508380538E+03 0.  0.
          5    1    3    3  502    0 -0.64169373905E+02  0.92419625486E+02  0.12542576540E+01  0.11259725256E+03  0.41800000000E+01 0.  1.
         -5    1    3    3    0  502 -0.97195372022E+01 -0.25612958645E+02  0.46765144344E+02  0.54359398263E+02  0.41800000000E+01 0.  1.
        -11    1    1    2    0    0 -0.10833093570E+02 -0.24754669401E+02 -0.83514248923E+01  0.28282430433E+02  0.00000000000E+00 0.  1.
         11    1    1    2    0    0  0.84722004677E+02 -0.42051997440E+02  0.87923849218E+02  0.12913865350E+03  0.00000000000E+00 0. -1.
</event>
<event>
 7    1  0.3754875E-009  0.1404402E+03  0.7561462E-02  0.1212738E+00
         -1   -1    0    0    0  501 -0.00000000000E+00  0.00000000000E+00  0.30580328646E+03  0.30580328646E+03  0.00000000000E+00 0.  1.
          1   -1    0    0  501    0  0.00000000000E+00 -0.00000000000E+00 -0.84363977258E+02  0.84363977258E+02  0.00000000000E+00 0. -1.
         25    2    1    2    0    0  0.11144454981E+03 -0.27905433706E+02  0.15202361974E+03  0.22794176883E+03  0.12509063957E+03 0.  0.
          5    1    3    3  502    0  0.97779039005E+02  0.32933260647E+02  0.69693691557E+02  0.12457938501E+03  0.41800000000E+01 0. -1.
         -5    1    3    3    0  502  0.13665510807E+02 -0.60838694353E+02  0.82329928181E+02  0.10336238383E+03  0.41800000000E+01 0. -1.
        -11    1    1    2    0    0 -0.63615582279E+02  0.12131635461E+02  0.87372632588E+02  0.10875704949E+03  0.00000000000E+00 0.  1.
         11    1    1    2    0    0 -0.47828967533E+02  0.15773798246E+02 -0.17956943129E+02  0.53468445394E+02  0.00000000000E+00 0. -1.
</event>
<event>
 7    1  0.3001243E-009  0.1571776E+03  0.7561462E-02  0.1191921E+00
          1   -1    0    0  501    0  0.00000000000E+00  0.00000000000E+00  0.15787596877E+04  0.15787596877E+04  0.00000000000E+00 0. -1.
         -1   -1    0    0    0  501 -0.00000000000E+00 -0.00000000000E+00 -0.31565201115E+02  0.31565201115E+02  0.00000000000E+00 0.  1.
         25    2    1    2    0    0  0.62526448897E+02 -0.10406291848E+03  0.13475700145E+04  0.13587977398E+04  0.12509079091E+03 0.  0.
          5    1    3    3  502    0  0.95264284567E+02 -0.92972614608E+02  0.11898688523E+04  0.11972988554E+04  0.41800000000E+01 0.  1.
         -5    1    3    3    0  502 -0.32737835670E+02 -0.11090303874E+02  0.15770116221E+03  0.16149888448E+03  0.41800000000E+01 0.  1.
        -11    1    1    2    0    0 -0.11762236346E+01  0.80703722086E+02  0.72680688546E+02  0.10861379631E+03  0.00000000000E+00 0. -1.
         11    1    1    2    0    0 -0.61350225262E+02  0.23359196396E+02  0.12694378358E+03  0.14291335272E+03  0.00000000000E+00 0.  1.
</event>
<event>
 6    1  0.3001243E-009  0.1279560E+03  0.7561462E-02  0.1230521E+00
          2   -1    0    0  501    0  0.00000000000E+00  0.00000000000E+00  0.32530927072E+03  0.32530927072E+03  0.00000000000E+00 0. -1.
         -2   -1    0    0    0  501 -0.00000000000E+00 -0.00000000000E+00 -0.59487558596E+02  0.59487558596E+02  0.00000000000E+00 0.  1.
          5    1    1    2  502    0  0.41483005031E+02  0.23337686296E+01  0.14949459054E+02  0.44353634669E+02  0.41800000000E+01 0. -1.
         -5    1    1    2    0  502 -0.43391219543E+02 -0.85768433600E+02  0.15686871811E+03  0.18402252378E+03  0.41800000000E+01 0. -1.
        -11    1    1    2    0    0  0.15408938173E+02  0.97345693297E+02  0.55000236744E+02  0.11286560779E+03  0.00000000000E+00 0.  1.
         11    1    1    2    0    0 -0.13500723660E+02 -0.13911028327E+02  0.39003298212E+02  0.43555063080E+02  0.00000000000E+00 0. -1.
</event>
<event>
 7    1  0.3001243E-009  0.1539378E+03  0.7561462E-02  0.1195716E+00
         -1   -1    0    0    0  501 -0.00000000000E+00  0.00000000000E+00  0.76853046085E+02  0.76853046085E+02  0.00000000000E+00 0.  1.
          1   -1    0    0  501    0  0.00000000000E+00 -0.00000000000E+00 -0.32428792998E+03  0.32428792998E+03  0.00000000000E+00 0. -1.
         25    2    1    2    0    0 -0.96022123515E+02  0.53657623341E+02 -0.95095056973E+02  0.19180709336E+03  0.12508997744E+03 0.  0.
          5    1    3    3  502    0 -0.34257143105E+02  0.88799796408E+02 -0.50841477842E+02  0.10798742503E+03  0.41800000000E+01 0.  1.
         -5    1    3    3    0  502 -0.61764980409E+02 -0.35142173067E+02 -0.44253579131E+02  0.83819668329E+02  0.41800000000E+01 0.  1.
        -11    1    1    2    0    0 -0.77146635032E+01 -0.35222835302E+02 -0.55769547240E+02  0.66410891870E+02  0.00000000000E+00 0. -1.
         11    1    1    2    0    0  0.10373678702E+03 -0.18434788039E+02 -0.96570279679E+02  0.14292299083E+03  0.00000000000E+00 0.  1.
</event>
<event>
 7    1  0.3001243E-009  0.2020708E+03  0.7561462E-02  0.1148004E+00
         -1   -1    0    0    0  501 -0.00000000000E+00  0.00000000000E+00  0.32245285235E+03  0.32245285235E+03  0.00000000000E+00 0.  1.
          1   -1    0    0  501    0  0.00000000000E+00 -0.00000000000E+00 -0.13098854461E+03  0.13098854461E+03  0.00000000000E+00 0. -1.
         25    2    1    2    0    0 -0.16227334256E+03  0.64329612668E+02  0.14241859576E+03  0.25768623386E+03  0.12509277330E+03 0.  0.
          5    1    3    3  502    0 -0.10802666138E+03 -0.24147928947E+02  0.77703362459E+02  0.13530767524E+03  0.41800000000E+01 0.  1.
         -5    1    3    3    0  502 -0.54246681180E+02  0.88477541615E+02  0.64715233298E+02  0.12237855862E+03  0.41800000000E+01 0.  1.
        -11    1    1    2    0    0  0.59866781233E+02 -0.63250961338E+02  0.21591214807E+02  0.89726786202E+02  0.00000000000E+00 0.  1.
         11    1    1    2    0    0  0.10240656133E+03 -0.10786513303E+01  0.27454497171E+02  0.10602837690E+03  0.00000000000E+00 0. -1.
</event>
<event>
 7    1  0.3001243E-009  0.8260904E+02  0.7561462E-02  0.1321806E+00
         -3   -1    0    0    0  501 -0.00000000000E+00  0.00000000000E+00  0.23166543159E+03  0.23166543159E+03  0.00000000000E+00 0.  1.
          3   -1    0    0  501    0  0.00000000000E+00 -0.00000000000E+00 -0.55026756069E+02  0.55026756069E+02  0.00000000000E+00 0. -1.
         25    2    1    2    0    0  0.22379811334E+02 -0.85964172763E+01  0.13581513069E+03  0.18619542894E+03  0.12509290023E+03 0.  0.
          5    1    3    3  502    0  0.27797816826E+02 -0.38328506551E+02  0.14638376205E+03  0.15390734624E+03  0.41800000000E+01 0.  1.
         -5    1    3    3    0  502 -0.54180054916E+01  0.29732089275E+02 -0.10568631353E+02  0.32288082706E+02  0.41800000000E+01 0.  1.
        -11    1    1    2    0    0  0.41741462615E+01 -0.35477322903E+02  0.32653113170E+02  0.48397207947E+02  0.00000000000E+00 0.  1.
         11    1    1    2    0    0 -0.26553957596E+02  0.44073740179E+02  0.81704316628E+01  0.52099550775E+02  0.00000000000E+00 0. -1.
</event>
<event>
 7    1  0.3001243E-009  0.1407776E+03  0.7561462E-02  0.1212286E+00
          1   -1    0    0  501    0  0.00000000000E+00  0.00000000000E+00  0.45205403748E+03  0.45205403748E+03  0.00000000000E+00 0. -1.
         -1   -1    0    0    0  501 -0.00000000000E+00 -0.00000000000E+00 -0.62257560448E+02  0.62257560448E+02  0.00000000000E+00 0.  1.
         25    2    1    2    0    0 -0.91219138416E+02 -0.85121909106E+02  0.23563051489E+03  0.29451008803E+03  0.12509109393E+03 0.  0.
          5    1    3    3  502    0 -0.45690346105E+02 -0.56990026999E+02  0.22901993304E+03  0.24042269659E+03  0.41800000000E+01 0.  1.
         -5    1    3    3    0  502 -0.45528792310E+02 -0.28131882107E+02  0.66105818428E+01  0.54087391437E+02  0.41800000000E+01 0.  1.
        -11    1    1    2    0    0  0.67027066786E+02  0.84843105101E+00  0.49871326705E+02  0.83549367111E+02  0.00000000000E+00 0.  1.
         11    1    1    2    0    0  0.24192071629E+02  0.84273478055E+02  0.10429463544E+03  0.13625214279E+03  0.00000000000E+00 0. -1.
</event>
<event>
 7    1  0.3001243E-009  0.1146598E+03  0.7561462E-02  0.1252176E+00
          1   -1    0    0  501    0  0.00000000000E+00  0.00000000000E+00  0.45011685227E+02  0.45011685227E+02  0.00000000000E+00 0. -1.
         -1   -1    0    0    0  501 -0.00000000000E+00 -0.00000000000E+00 -0.45502341515E+03  0.45502341515E+03  0.00000000000E+00 0.  1.
         25    2    1    2    0    0 -0.31478956840E+01 -0.99335963341E+02 -0.22319661048E+03  0.27448314392E+03  0.12508687583E+03 0.  0.
          5    1    3    3  502    0 -0.19648803898E+02 -0.12218350149E+02 -0.16868595518E+03  0.17031672687E+03  0.41800000000E+01 0.  1.
         -5    1    3    3    0  502  0.16500908214E+02 -0.87117613191E+02 -0.54510655296E+02  0.10416641705E+03  0.41800000000E+01 0.  1.
        -11    1    1    2    0    0 -0.27743537528E+02  0.65998045922E+02 -0.69660482519E+02  0.99890083416E+02  0.00000000000E+00 0. -1.
         11    1    1    2    0    0  0.30891433212E+02  0.33337917419E+02 -0.11715463692E+03  0.12566187304E+03  0.00000000000E+00 0.  1.
</event>
<event>
 7    1  0.3001243E-009  0.1409968E+03  0.7561462E-02  0.1211994E+00
         -3   -1    0    0    0  501 -0.00000000000E+00  0.00000000000E+00  0.59241022513E+03  0.59241022513E+03  0.00000000000E+00 0.  1.
          3   -1    0    0  501    0  0.00000000000E+00 -0.00000000000E+00 -0.48358747315E+02  0.48358747315E+02  0.00000000000E+00 0. -1.
         25    2    1    2    0    0 -0.75214324179E+01 -0.10952893853E+03  0.15740713691E+03  0.22908230220E+03  0.12509410102E+03 0.  0.
          5    1    3    3  502    0 -0.32779051760E+02 -0.11453682232E+03  0.70836234654E+02  0.13866648637E+03  0.41800000000E+01 0.  1.
         -5    1    3    3    0  502  0.25257619343E+02  0.50078837963E+01  0.86570902251E+02  0.90415815826E+02  0.41800000000E+01 0.  1.
        -11    1    1    2    0    0  0.42356728073E+02  0.37013260713E+02  0.10951013297E+03  0.12311191293E+03  0.00000000000E+00 0. -1.
         11    1    1    2    0    0 -0.34835295656E+02  0.72515677815E+02  0.27713420793E+03  0.28857475732E+03  0.00000000000E+00 0.  1.
</event>
<event>
 7    1  0.3001243E-009  0.1107242E+03  0.7561462E-02  0.1259235E+00
         -1   -1    0    0    0  501 -0.00000000000E+00  0.00000000000E+00  0.95844819324E+02  0.95844819324E+02  0.00000000000E+00 0.  1.
          1   -1    0    0  501    0  0.00000000000E+00 -0.00000000000E+00 -0.16947501762E+03  0.16947501762E+03  0.00000000000E+00 0. -1.
         25    2    1    2    0    0  0.30314903172E+02  0.57134397410E+02 -0.60221641197E+02  0.15315833426E+03  0.12508995388E+03 0.  0.
          5    1    3    3  502    0  0.62155961164E+02  0.44406867487E+02  0.77672429205E+01  0.76896917043E+02  0.41800000000E+01 0. -1.
         -5    1    3    3    0  502 -0.31841057992E+02  0.12727529924E+02 -0.67988884117E+02  0.76261417214E+02  0.41800000000E+01 0. -1.
        -11    1    1    2    0    0 -0.15178033734E+02  0.23709458207E+02 -0.98874375745E+01  0.29837435183E+02  0.00000000000E+00 0.  1.
         11    1    1    2    0    0 -0.15136869438E+02 -0.80843855617E+02 -0.35211195232E+01  0.82324067502E+02  0.00000000000E+00 0. -1.
</event>
<event>
 7    1  0.3174091E-009  0.1041539E+03  0.7561462E-02  0.1271796E+00
          4   -1    0    0  501    0  0.00000000000E+00  0.00000000000E+00  0.10351127199E+03  0.10351127199E+03  0.00000000000E+00 0.  1.
         -4   -1    0    0    0  501 -0.00000000000E+00 -0.00000000000E+00 -0.15769187631E+03  0.15769187631E+03  0.00000000000E+00 0. -1.
         25    2    1    2    0    0 -0.43422190545E+02  0.71580024400E+01 -0.83051643261E+02  0.15646770279E+03  0.12509133838E+03 0.  0.
          5    1    3    3  502    0 -0.37663168359E+02 -0.56171203512E+02 -0.32632217670E+02  0.75206730981E+02  0.41800000000E+01 0. -1.
         -5    1    3    3    0  502 -0.57590221857E+01  0.63329205952E+02 -0.50419425591E+02  0.81260971813E+02  0.41800000000E+01 0. -1.
        -11    1    1    2    0    0  0.47045062902E+02 -0.28612917605E+02 -0.13862634856E+02  0.56781243756E+02  0.00000000000E+00 0. -1.
         11    1    1    2    0    0 -0.36228723574E+01  0.21454915165E+02  0.42733673799E+02  0.47954201747E+02  0.00000000000E+00 0.  1.
</event>
<event>
 7    1  0.3001243E-009  0.1278124E+03  0.7561462E-02  0.1230738E+00
          1   -1    0    0  501    0  0.00000000000E+00  0.00000000000E+00  0.35631885818E+02  0.35631885818E+02  0.00000000000E+00 0. -1.
         -1   -1    0    0    0  501 -0.00000000000E+00 -0.00000000000E+00 -0.71040128584E+03  0.71040128584E+03  0.00000000000E+00 0.  1.
         25    2    1    2    0    0 -0.92620752747E+02 -0.25910377439E+02 -0.21325199689E+03  0.26528131906E+03  0.12509121699E+03 0.  0.
          5    1    3    3  502    0 -0.10267445536E+03  0.22721154132E+02 -0.16635503741E+03  0.19684960122E+03  0.41800000000E+01 0.  1.
         -5    1    3    3    0  502  0.10053702608E+02 -0.48631531570E+02 -0.46896959475E+02  0.68431717843E+02  0.41800000000E+01 0.  1.
        -11    1    1    2    0    0  0.10850659697E+02 -0.64321730130E+01 -0.18495694435E+01  0.12748747886E+02  0.00000000000E+00 0. -1.
         11    1    1    2    0    0  0.81770093050E+02  0.32342550452E+02 -0.45966783370E+03  0.46800310472E+03  0.00000000000E+00 0.  1.
</event>
<event>
 7    1  0.3001243E-009  0.1158294E+03  0.7561462E-02  0.1250140E+00
         -2   -1    0    0    0  501 -0.00000000000E+00  0.00000000000E+00  0.19570837556E+02  0.19570837556E+02  0.00000000000E+00 0. -1.
          2   -1    0    0  501    0  0.00000000000E+00 -0.00000000000E+00 -0.86032773345E+03  0.86032773345E+03  0.00000000000E+00 0.  1.
         25    2    1    2    0    0 -0.62570824360E+02  0.16948196062E+02 -0.36380831043E+03  0.39013708508E+03  0.12509240187E+03 0.  0.
          5    1    3    3  502    0 -0.48589505217E+02 -0.40938413613E+02 -0.28057014202E+03  0.28770465884E+03  0.41800000000E+01 0.  1.
         -5    1    3    3    0  502 -0.13981319143E+02  0.57886609675E+02 -0.83238168412E+02  0.10243242624E+03  0.41800000000E+01 0.  1.
        -11    1    1    2    0    0  0.52030990112E+02 -0.50869442863E+02 -0.36940243454E+03  0.37650110596E+03  0.00000000000E+00 0.  1.
         11    1    1    2    0    0  0.10539834248E+02  0.33921246801E+02 -0.10754615092E+03  0.11326037996E+03  0.00000000000E+00 0. -1.
</event>
<event>
 7    1  0.3001243E-009  0.1170367E+03  0.7561462E-02  0.1248067E+00
         -2   -1    0    0    0  501 -0.00000000000E+00  0.00000000000E+00  0.15167021256E+03  0.15167021256E+03  0.00000000000E+00 0. -1.
          2   -1    0    0  501    0  0.00000000000E+00 -0.00000000000E+00 -0.10315461402E+03  0.10315461402E+03  0.00000000000E+00 0.  1.
         25    2    1    2    0    0  0.54397048094E+02 -0.32188514050E+02  0.30708332894E+02  0.14349515742E+03  0.12511082773E+03 0.  0.
          5    1    3    3  502    0  0.91306590900E+02 -0.80227791099E+00  0.17037064361E+02  0.92979950277E+02  0.41800000000E+01 0. -1.
         -5    1    3    3    0  502 -0.36909542806E+02 -0.31386236139E+02  0.13671268533E+02  0.50515207140E+02  0.41800000000E+01 0. -1.
        -11    1    1    2    0    0 -0.12604525030E+01  0.40270209333E+02 -0.20618115384E+02  0.45259089498E+02  0.00000000000E+00 0. -1.
         11    1    1    2    0    0 -0.53136595591E+02 -0.80816952831E+01  0.38425381032E+02  0.66070579664E+02  0.00000000000E+00 0.  1.
</event>
<event>
 7    1  0.3001243E-009  0.1451085E+03  0.7561462E-02  0.1206616E+00
          4   -1    0    0  501    0  0.00000000000E+00  0.00000000000E+00  0.17041917664E+03  0.17041917664E+03  0.00000000000E+00 0. -1.
         -4   -1    0    0    0  501 -0.00000000000E+00 -0.00000000000E+00 -0.18793688899E+03  0.18793688899E+03  0.00000000000E+00 0.  1.
         25    2    1    2    0    0 -0.21172022673E+02  0.11018487990E+03  0.78185931143E+02  0.18533583346E+03  0.12508944413E+03 0.  0.
          5    1    3    3  502    0 -0.46063864831E+02  0.11349989497E+03  0.94791186623E+02  0.15494175442E+03  0.41800000000E+01 0.  1.
         -5    1    3    3    0  502  0.24891842158E+02 -0.33150150702E+01 -0.16605255480E+02  0.30394079037E+02  0.41800000000E+01 0.  1.
        -11    1    1    2    0    0  0.67353395828E+01  0.14863521724E+02 -0.21172885981E+02  0.26731632537E+02  0.00000000000E+00 0. -1.
         11    1    1    2    0    0  0.14436683090E+02 -0.12504840163E+03 -0.74530757506E+02  0.14628859963E+03  0.00000000000E+00 0.  1.
</event>
<event>
 7    1  0.3001243E-009  0.5337843E+02  0.7561462E-02  0.1427927E+00
         -1   -1    0    0    0  501 -0.00000000000E+00  0.00000000000E+00  0.12548069440E+03  0.12548069440E+03  0.00000000000E+00 0.  1.
          1   -1    0    0  501    0  0.00000000000E+00 -0.00000000000E+00 -0.98706530792E+02  0.98706530792E+02  0.00000000000E+00 0. -1.
         25    2    1    2    0    0  0.20739274795E+02 -0.76951386772E+01  0.17104625087E+02  0.12818409060E+03  0.12509700318E+03 0.  0.
          5    1    3    3  502    0 -0.19054854594E+02  0.89257177907E+01  0.62110757570E+02  0.65711296803E+02  0.41800000000E+01 0.  1.
         -5    1    3    3    0  502  0.39794129389E+02 -0.16620856468E+02 -0.45006132482E+02  0.62472793795E+02  0.41800000000E+01 0.  1.
        -11    1    1    2    0    0 -0.28625950800E+02 -0.28949715493E+01  0.47722219732E+02  0.55724646034E+02  0.00000000000E+00 0.  1.
         11    1    1    2    0    0  0.78866760058E+01  0.10590110226E+02 -0.38052681213E+02  0.40278488558E+02  0.00000000000E+00 0. -1.
</event>
<event>
 7    1  0.3001243E-009  0.1129741E+03  0.7561462E-02  0.1255159E+00
         -2   -1    0    0    0  501 -0.00000000000E+00  0.00000000000E+00  0.21004979105E+03  0.21004979105E+03  0.00000000000E+00 0. -1.
          2   -1    0    0  501    0  0.00000000000E+00 -0.00000000000E+00 -0.71535237070E+02  0.71535237070E+02  0.00000000000E+00 0.  1.
         25    2    1    2    0    0 -0.43629705654E+02  0.11620033753E+02  0.11818086813E+03  0.17791318222E+03  0.12509119240E+03 0.  0.
          5    1    3    3  502    0 -0.85690088519E+02 -0.45602530992E+01  0.62948845659E+02  0.10650641647E+03  0.41800000000E+01 0.  1.
         -5    1    3    3    0  502  0.42060382865E+02  0.16180286852E+02  0.55232022472E+02  0.71406765756E+02  0.41800000000E+01 0.  1.
        -11    1    1    2    0    0 -0.21308439174E+02 -0.20092884272E+02  0.24310333830E+02  0.38062657676E+02  0.00000000000E+00 0.  1.
         11    1    1    2    0    0  0.64938144828E+02  0.84728505197E+01 -0.39766479831E+01  0.65609188220E+02  0.00000000000E+00 0. -1.
</event>
<event>
 7    1  0.3001243E-009  0.1009296E+03  0.7561462E-02  0.1278353E+00
          2   -1    0    0  501    0  0.00000000000E+00  0.00000000000E+00  0.44926658020E+03  0.44926658020E+03  0.00000000000E+00 0. -1.
         -2   -1    0    0    0  501 -0.00000000000E+00 -0.00000000000E+00 -0.35384524320E+02  0.35384524320E+02  0.00000000000E+00 0.  1.
         25    2    1    2    0    0 -0.33908486270E+01 -0.59965498474E+02  0.27906976085E+03  0.31166439875E+03  0.12508959654E+03 0.  0.
          5    1    3    3  502    0 -0.34213621885E+01 -0.76813526266E+02  0.28348147845E+03  0.29375371412E+03  0.41800000000E+01 0.  1.
         -5    1    3    3    0  502  0.30513561473E-01  0.16848027792E+02 -0.44117175972E+01  0.17910684624E+02  0.41800000000E+01 0.  1.
        -11    1    1    2    0    0  0.39510011582E+02  0.59440982904E+02  0.78623840214E+02  0.10618841610E+03  0.00000000000E+00 0.  1.
         11    1    1    2    0    0 -0.36119162955E+02  0.52451557069E+00  0.56188454819E+02  0.66798289679E+02  0.00000000000E+00 0. -1.
</event>
<event>
 7    1  0.3001243E-009  0.1583871E+03  0.7561462E-02  0.1190530E+00
          2   -1    0    0  501    0  0.00000000000E+00  0.00000000000E+00  0.20840759706E+03  0.20840759706E+03  0.00000000000E+00 0. -1.
         -2   -1    0    0    0  501 -0.00000000000E+00 -0.00000000000E+00 -0.13236173788E+03  0.13236173788E+03  0.00000000000E+00 0.  1.
         25    2    1    2    0    0 -0.12235443265E+03  0.35422210944E+02  0.31005997435E+02  0.18120251560E+03  0.12509052548E+03 0.  0.
          5    1    3    3  502    0  0.19561222596E+02  0.26366941637E+02 -0.72551259161E+01  0.33881651270E+02  0.41800000000E+01 0. -1.
         -5    1    3    3    0  502 -0.14191565525E+03  0.90552693072E+01  0.38261123351E+02  0.14732086433E+03  0.41800000000E+01 0. -1.
        -11    1    1    2    0    0 -0.44636378119E+01 -0.11529665452E+02  0.26435190584E+02  0.29183497892E+02  0.00000000000E+00 0. -1.
         11    1    1    2    0    0  0.12681807046E+03 -0.23892545492E+02  0.18604671158E+02  0.13038332146E+03  0.00000000000E+00 0.  1.
</event>
<event>
 7    1  0.3001243E-009  0.1080742E+03  0.7561462E-02  0.1264178E+00
          2   -1    0    0  501    0  0.00000000000E+00  0.00000000000E+00  0.22484856166E+03  0.22484856166E+03  0.00000000000E+00 0. -1.
         -2   -1    0    0    0  501 -0.00000000000E+00 -0.00000000000E+00 -0.17409218272E+03  0.17409218272E+03  0.00000000000E+00 0.  1.
         25    2    1    2    0    0  0.53413104327E+02 -0.66961300592E+02  0.16892462673E+03  0.22697990731E+03  0.12509026067E+03 0.  0.
          5    1    3    3  502    0  0.48610430578E+02 -0.35431308514E+02  0.56443713111E+01  0.60561397866E+02  0.41800000000E+01 0. -1.
         -5    1    3    3    0  502  0.48026737494E+01 -0.31529992078E+02  0.16328025542E+03  0.16641850944E+03  0.41800000000E+01 0. -1.
        -11    1    1    2    0    0 -0.77495235940E+02  0.38914848701E+02 -0.71281312806E+02  0.11225374202E+03  0.00000000000E+00 0.  1.
         11    1    1    2    0    0  0.24082131613E+02  0.28046451891E+02 -0.46886934988E+02  0.59707095050E+02  0.00000000000E+00 0. -1.
</event>
<event>
 7    1  0.4745082E-009  0.1224443E+03  0.7561462E-02  0.1239118E+00
          1   -1    0    0  501    0  0.00000000000E+00  0.00000000000E+00  0.55669357692E+03  0.55669357692E+03  0.00000000000E+00 0. -1.
         -1   -1    0    0    0  501 -0.00000000000E+00 -0.00000000000E+00 -0.38223268256E+02  0.38223268256E+02  0.00000000000E+00 0.  1.
         25    2    1    2    0    0 -0.35218429636E+02 -0.81660044770E+02  0.20152482518E+03  0.25331433649E+03  0.12508875732E+03 0.  0.
          5    1    3    3  502    0 -0.78320039048E+01  0.33543819069E+02  0.52406615530E+02  0.62852635857E+02  0.41800000000E+01 0. -1.
         -5    1    3    3    0  502 -0.27386425732E+02 -0.11520386384E+03  0.14911820965E+03  0.19046170063E+03  0.41800000000E+01 0. -1.
        -11    1    1    2    0    0  0.72764212495E+01  0.45118393677E+02  0.39609641766E+02  0.60477594818E+02  0.00000000000E+00 0.  1.
         11    1    1    2    0    0  0.27942008387E+02  0.36541651094E+02  0.27733584171E+03  0.28112491387E+03  0.00000000000E+00 0. -1.
</event>
<event>
 7    1  0.3001243E-009  0.8996965E+02  0.7561462E-02  0.1302925E+00
         -2   -1    0    0    0  501 -0.00000000000E+00  0.00000000000E+00  0.35972289995E+03  0.35972289995E+03  0.00000000000E+00 0.  1.
          2   -1    0    0  501    0  0.00000000000E+00 -0.00000000000E+00 -0.35813064725E+02  0.35813064725E+02  0.00000000000E+00 0. -1.
         25    2    1    2    0    0 -0.29891402037E+02  0.35067556294E+00  0.21095161681E+03  0.24709552180E+03  0.12514788600E+03 0.  0.
          5    1    3    3  502    0 -0.42100194032E+02  0.30978190778E+02  0.24808517173E+02  0.58008702500E+02  0.41800000000E+01 0. -1.
         -5    1    3    3    0  502  0.12208791995E+02 -0.30627515215E+02  0.18614309964E+03  0.18908681930E+03  0.41800000000E+01 0. -1.
        -11    1    1    2    0    0  0.40111917063E+02 -0.38001513766E+02  0.80775396993E+02  0.97865957811E+02  0.00000000000E+00 0.  1.
         11    1    1    2    0    0 -0.10220515025E+02  0.37650838203E+02  0.32182821421E+02  0.50574485063E+02  0.00000000000E+00 0. -1.
</event>
<event>
 7    1  0.3001243E-009  0.1246758E+03  0.7561462E-02  0.1235577E+00
          1   -1    0    0  501    0  0.00000000000E+00  0.00000000000E+00  0.22517753583E+02  0.22517753583E+02  0.00000000000E+00 0. -1.
         -1   -1    0    0    0  501 -0.00000000000E+00 -0.00000000000E+00 -0.10428494764E+04  0.10428494764E+04  0.00000000000E+00 0.  1.
         25    2    1    2    0    0  0.76080496467E+02 -0.61867834819E+02 -0.72360837887E+03  0.74085927281E+03  0.12508998849E+03 0.  0.
          5    1    3    3  502    0  0.55594229915E+02 -0.90154894189E+02 -0.35263949477E+03  0.36822643715E+03  0.41800000000E+01 0. -1.
         -5    1    3    3    0  502  0.20486266552E+02  0.28287059370E+02 -0.37096888410E+03  0.37263283567E+03  0.41800000000E+01 0. -1.
        -11    1    1    2    0    0 -0.23251202447E+02 -0.41536336068E+01 -0.10127911230E+02  0.25699137598E+02  0.00000000000E+00 0. -1.
         11    1    1    2    0    0 -0.52829294020E+02  0.66021468425E+02 -0.28659543276E+03  0.29880881962E+03  0.00000000000E+00 0.  1.
</event>
<event>
 7    1  0.3001243E-009  0.1230858E+03  0.7561462E-02  0.1238092E+00
         -3   -1    0    0    0  501 -0.00000000000E+00  0.00000000000E+00  0.41324782499E+03  0.41324782499E+03  0.00000000000E+00 0.  1.
          3   -1    0    0  501    0  0.00000000000E+00 -0.00000000000E+00 -0.38922937267E+02  0.38922937267E+02  0.00000000000E+00 0. -1.
         25    2    1    2    0    0 -0.47750790654E+02  0.34453930547E+02  0.16110530537E+03  0.21229259743E+03  0.12508403642E+03 0.  0.
          5    1    3    3  502    0 -0.67689908108E+02 -0.26442902329E+02  0.99689685315E+02  0.12343685228E+03  0.41800000000E+01 0.  1.
         -5    1    3    3    0  502  0.19939117454E+02  0.60896832876E+02  0.61415620052E+02  0.88855745147E+02  0.41800000000E+01 0.  1.
        -11    1    1    2    0    0  0.30980069037E+02 -0.66295947069E+02  0.15550306419E+03  0.17186075831E+03  0.00000000000E+00 0. -1.
         11    1    1    2    0    0  0.16770721616E+02  0.31842016522E+02  0.57716518167E+02  0.68017406515E+02  0.00000000000E+00 0.  1.
</event>
<event>
 7    1  0.3001243E-009  0.2111818E+03  0.7561462E-02  0.1140634E+00
         -2   -1    0    0    0  501 -0.00000000000E+00  0.00000000000E+00  0.22499494044E+03  0.22499494044E+03  0.00000000000E+00 0.  1.
          2   -1    0    0  501    0  0.00000000000E+00 -0.00000000000E+00 -0.24112055514E+03  0.24112055514E+03  0.00000000000E+00 0. -1.
         25    2    1    2    0    0 -0.19905598207E+03 -0.20343204161E+02 -0.54545381871E+02  0.24218686920E+03  0.12506858509E+03 0.  0.
          5    1    3    3  502    0 -0.14003747353E+01 -0.23778325662E+02  0.19481404762E+02  0.31054264637E+02  0.41800000000E+01 0.  1.
         -5    1    3    3    0  502 -0.19765560733E+03  0.34351215015E+01 -0.74026786633E+02  0.21113260456E+03  0.41800000000E+01 0.  1.
        -11    1    1    2    0    0  0.10666973528E+03  0.48991039212E+01  0.66922148699E+02  0.12601986999E+03  0.00000000000E+00 0.  1.
         11    1    1    2    0    0  0.92386246784E+02  0.15444100239E+02 -0.28502381528E+02  0.97908756400E+02  0.00000000000E+00 0. -1.
</event>
<event>
 7    1  0.3001243E-009  0.1296001E+03  0.7561462E-02  0.1228050E+00
         -2   -1    0    0    0  501 -0.00000000000E+00  0.00000000000E+00  0.46385375641E+03  0.46385375641E+03  0.00000000000E+00 0. -1.
          2   -1    0    0  501    0  0.00000000000E+00 -0.00000000000E+00 -0.46537072761E+02  0.46537072761E+02  0.00000000000E+00 0.  1.
         25    2    1    2    0    0 -0.57599287746E+02  0.78463029143E+02  0.25895370908E+03  0.30360912620E+03  0.12508938074E+03 0.  0.
          5    1    3    3  502    0 -0.58994755525E+02 -0.12439754388E+02  0.61678666886E+02  0.86353106589E+02  0.41800000000E+01 0. -1.
         -5    1    3    3    0  502  0.13954677798E+01  0.90902783531E+02  0.19727504220E+03  0.21725601961E+03  0.41800000000E+01 0. -1.
        -11    1    1    2    0    0  0.13891100971E+02 -0.57729825033E+02  0.24122456197E+02  0.64090469475E+02  0.00000000000E+00 0.  1.
         11    1    1    2    0    0  0.43708186774E+02 -0.20733204110E+02  0.13424051837E+03  0.14269123349E+03  0.00000000000E+00 0. -1.
</event>
<event>
 7    1  0.3001243E-009  0.9978708E+02  0.7561462E-02  0.1280744E+00
          1   -1    0    0  501    0  0.00000000000E+00  0.00000000000E+00  0.27818936114E+02  0.27818936114E+02  0.00000000000E+00 0. -1.
         -1   -1    0    0    0  501 -0.00000000000E+00 -0.00000000000E+00 -0.56818013189E+03  0.56818013189E+03  0.00000000000E+00 0.  1.
         25    2    1    2    0    0 -0.11555518971E+02  0.53178155654E+02 -0.41650838252E+03  0.43827775476E+03  0.12508681526E+03 0.  0.
          5    1    3    3  502    0  0.57793567041E+01  0.74919697654E+02 -0.12862386187E+03  0.14902326094E+03  0.41800000000E+01 0. -1.
         -5    1    3    3    0  502 -0.17334875675E+02 -0.21741541999E+02 -0.28788452065E+03  0.28925449382E+03  0.41800000000E+01 0. -1.
        -11    1    1    2    0    0 -0.13521064846E+02  0.16971968648E+02 -0.17524246600E+02  0.27892044264E+02  0.00000000000E+00 0. -1.
         11    1    1    2    0    0  0.25076583817E+02 -0.70150124303E+02 -0.10632856665E+03  0.12982926897E+03  0.00000000000E+00 0.  1.
</event>
<event>
 7    1  0.3001243E-009  0.9868836E+02  0.7561462E-02  0.1283079E+00
          2   -1    0    0  501    0  0.00000000000E+00  0.00000000000E+00  0.61127679788E+03  0.61127679788E+03  0.00000000000E+00 0. -1.
         -2   -1    0    0    0  501 -0.00000000000E+00 -0.00000000000E+00 -0.28787482512E+02  0.28787482512E+02  0.00000000000E+00 0.  1.
         25    2    1    2    0    0  0.17166556768E+02  0.14488970876E+02  0.49189597990E+03  0.50804929868E+03  0.12509122233E+03 0.  0.
          5    1    3    3  502    0 -0.47445231910E+02  0.34898249504E+02  0.24153251591E+03  0.24864506127E+03  0.41800000000E+01 0.  1.
         -5    1    3    3    0  502  0.64611788678E+02 -0.20409278628E+02  0.25036346399E+03  0.25940423742E+03  0.41800000000E+01 0.  1.
        -11    1    1    2    0    0 -0.11601591560E+02 -0.41383668986E+02  0.63971215697E+01  0.43452596583E+02  0.00000000000E+00 0.  1.
         11    1    1    2    0    0 -0.55649652083E+01  0.26894698110E+02  0.84196213899E+02  0.88562385126E+02  0.00000000000E+00 0. -1.
</event>
<event>
 7    1  0.3001243E-009  0.1255382E+03  0.7561462E-02  0.1234231E+00
         -2   -1    0    0    0  501 -0.00000000000E+00  0.00000000000E+00  0.27222157159E+02  0.27222157159E+02  0.00000000000E+00 0.  1.
          2   -1    0    0  501    0  0.00000000000E+00 -0.00000000000E+00 -0.63077672214E+03  0.63077672214E+03  0.00000000000E+00 0. -1.
         25    2    1    2    0    0 -0.33004423401E+02  0.54551508486E+02 -0.27217745572E+03  0.30625676181E+03  0.12508987852E+03 0.  0.
          5    1    3    3  502    0  0.19824209566E+02 -0.28313730209E+02 -0.12090098038E+03  0.12581409325E+03  0.41800000000E+01 0.  1.
         -5    1    3    3    0  502 -0.52828632967E+02  0.82865238696E+02 -0.15127647534E+03  0.18044266856E+03  0.41800000000E+01 0.  1.
        -11    1    1    2    0    0  0.61448450048E+02 -0.63220640991E+02 -0.24333012619E+03  0.25880941206E+03  0.00000000000E+00 0. -1.
         11    1    1    2    0    0 -0.28444026646E+02  0.86691325048E+01 -0.88046983062E+02  0.92932705420E+02  0.00000000000E+00 0.  1.
</event>
<event>
 7    1  0.3001243E-009  0.1070169E+03  0.7561462E-02  0.1266196E+00
          1   -1    0    0  501    0  0.00000000000E+00  0.00000000000E+00  0.14879223895E+02  0.14879223895E+02  0.00000000000E+00 0. -1.
         -1   -1    0    0    0  501 -0.00000000000E+00 -0.00000000000E+00 -0.12299704285E+04  0.12299704285E+04  0.00000000000E+00 0.  1.
         25    2    1    2    0    0 -0.19258146858E+02 -0.35669602192E+02 -0.98895022853E+03  0.99765374822E+03  0.12508896871E+03 0.  0.
          5    1    3    3  502    0 -0.12072657137E+02 -0.79591910483E+02 -0.47777453162E+03  0.48452718884E+03  0.41800000000E+01 0.  1.
         -5    1    3    3    0  502 -0.71854897203E+01  0.43922308291E+02 -0.51117569691E+03  0.51312655938E+03  0.41800000000E+01 0.  1.
        -11    1    1    2    0    0  0.48774538338E+01 -0.25459802137E+02 -0.12860878515E+03  0.13119531508E+03  0.00000000000E+00 0.  1.
         11    1    1    2    0    0  0.14380693024E+02  0.61129404329E+02 -0.97532190973E+02  0.11600058914E+03  0.00000000000E+00 0. -1.
</event>
<event>
 7    1  0.3001243E-009  0.1234821E+03  0.7561462E-02  0.1237461E+00
         -1   -1    0    0    0  501 -0.00000000000E+00  0.00000000000E+00  0.95700771869E+02  0.95700771869E+02  0.00000000000E+00 0.  1.
          1   -1    0    0  501    0  0.00000000000E+00 -0.00000000000E+00 -0.17899737769E+03  0.17899737769E+03  0.00000000000E+00 0. -1.
         25    2    1    2    0    0  0.49594098612E+01 -0.68487284245E+02 -0.20690371983E+02  0.14419696185E+03  0.12509823525E+03 0.  0.
          5    1    3    3  502    0 -0.21985138092E+02  0.31659480267E+02 -0.27727227014E+01  0.38869388712E+02  0.41800000000E+01 0.  1.
         -5    1    3    3    0  502  0.26944547953E+02 -0.10014676451E+03 -0.17917649282E+02  0.10532757313E+03  0.41800000000E+01 0.  1.
        -11    1    1    2    0    0 -0.41871010903E+02  0.37438385679E+02 -0.60013811863E+02  0.82197760861E+02  0.00000000000E+00 0. -1.
         11    1    1    2    0    0  0.36911601041E+02  0.31048898566E+02 -0.25924219731E+01  0.48303426848E+02  0.00000000000E+00 0.  1.
</event>
<event>
 7    1  0.3001243E-009  0.1247898E+03  0.7561462E-02  0.1235398E+00
          2   -1    0    0  501    0  0.00000000000E+00  0.00000000000E+00  0.99033712349E+03  0.99033712349E+03  0.00000000000E+00 0.  1.
         -2   -1    0    0    0  501 -0.00000000000E+00 -0.00000000000E+00 -0.28750816594E+02  0.28750816594E+02  0.00000000000E+00 0. -1.
         25    2    1    2    0    0 -0.69782801504E+02 -0.52643953461E+01  0.82895276584E+03  0.84125928053E+03  0.12512847731E+03 0.  0.
          5    1    3    3  502    0 -0.73775158059E+00 -0.56316285102E+02  0.37635100800E+03  0.38056487208E+03  0.41800000000E+01 0. -1.
         -5    1    3    3    0  502 -0.69045049924E+02  0.51051889756E+02  0.45260175785E+03  0.46069440845E+03  0.41800000000E+01 0. -1.
        -11    1    1    2    0    0  0.35678996218E+02  0.43260899262E+02  0.30958097228E+02  0.64053883256E+02  0.00000000000E+00 0. -1.
         11    1    1    2    0    0  0.34103805286E+02 -0.37996503916E+02  0.10167544382E+03  0.11377477630E+03  0.00000000000E+00 0.  1.
</event>
<event>
 7    1  0.3001243E-009  0.9765895E+02  0.7561462E-02  0.1285297E+00
         -2   -1    0    0    0  501 -0.00000000000E+00  0.00000000000E+00  0.32671450985E+02  0.32671450985E+02  0.00000000000E+00 0.  1.
          2   -1    0    0  501    0  0.00000000000E+00 -0.00000000000E+00 -0.53730045548E+03  0.53730045548E+03  0.00000000000E+00 0. -1.
         25    2    1    2    0    0  0.18660794382E+02  0.51862818649E+02 -0.17354794536E+03  0.22089492496E+03  0.12505079500E+03 0.  0.
          5    1    3    3  502    0 -0.30110886846E+02  0.19612868550E+02  0.15849892694E+01  0.36212079620E+02  0.41800000000E+01 0. -1.
         -5    1    3    3    0  502  0.48771681228E+02  0.32249950099E+02 -0.17513293463E+03  0.18468284534E+03  0.41800000000E+01 0. -1.
        -11    1    1    2    0    0  0.33589447659E+02 -0.24208135695E+02 -0.69495418250E+02  0.80894363126E+02  0.00000000000E+00 0.  1.
         11    1    1    2    0    0 -0.52250242041E+02 -0.27654682954E+02 -0.26158564088E+03  0.26818261838E+03  0.00000000000E+00 0. -1.
</event>
<event>
 7    1  0.3001243E-009  0.1041230E+03  0.7561462E-02  0.1271857E+00
          2   -1    0    0  501    0  0.00000000000E+00  0.00000000000E+00  0.58431796097E+03  0.58431796097E+03  0.00000000000E+00 0. -1.
         -2   -1    0    0    0  501 -0.00000000000E+00 -0.00000000000E+00 -0.68596262470E+02  0.68596262470E+02  0.00000000000E+00 0.  1.
         25    2    1    2    0    0 -0.53885470715E+02 -0.53933280722E+02  0.51048131762E+03  0.53108476547E+03  0.12508960689E+03 0.  0.
          5    1    3    3  502    0  0.10283713812E+02 -0.12757297294E+01 -0.24699452713E+01  0.11443569624E+02  0.41800000000E+01 0.  1.
         -5    1    3    3    0  502 -0.64169184527E+02 -0.52657550992E+02  0.51295126289E+03  0.51964119585E+03  0.41800000000E+01 0.  1.
        -11    1    1    2    0    0 -0.19517551639E+02  0.31762306423E+02 -0.18422202002E+02  0.41583127082E+02  0.00000000000E+00 0.  1.
         11    1    1    2    0    0  0.73403022354E+02  0.22170974299E+02  0.23662582879E+02  0.80246330885E+02  0.00000000000E+00 0. -1.
</event>
<event>
 7    1  0.3001243E-009  0.8988326E+02  0.7561462E-02  0.1303135E+00
         -1   -1    0    0    0  501 -0.00000000000E+00  0.00000000000E+00  0.60874849106E+02  0.60874849106E+02  0.00000000000E+00 0.  1.
          1   -1    0    0  501    0  0.00000000000E+00 -0.00000000000E+00 -0.24641667076E+03  0.24641667076E+03  0.00000000000E+00 0. -1.
         25    2    1    2    0    0  0.20073566795E+02 -0.30390131054E+02 -0.50833598266E+02  0.13982536926E+03  0.12506226859E+03 0.  0.
          5    1    3    3  502    0 -0.14447129051E+02  0.19341209537E+02 -0.71609576624E+02  0.75684911233E+02  0.41800000000E+01 0.  1.
         -5    1    3    3    0  502  0.34520695846E+02 -0.49731340591E+02  0.20775978357E+02  0.64140458023E+02  0.41800000000E+01 0.  1.
        -11    1    1    2    0    0 -0.26607978150E+02 -0.26362406369E+02 -0.80156026761E+02  0.88475700602E+02  0.00000000000E+00 0. -1.
         11    1    1    2    0    0  0.65344113544E+01  0.56752537424E+02 -0.54552196629E+02  0.78990450010E+02  0.00000000000E+00 0.  1.
</event>
<event>
 7    1  0.3001243E-009  0.1292829E+03  0.7561462E-02  0.1228524E+00
         -2   -1    0    0    0  501 -0.00000000000E+00  0.00000000000E+00  0.45573253332E+03  0.45573253332E+03  0.00000000000E+00 0.  1.
          2   -1    0    0  501    0  0.00000000000E+00 -0.00000000000E+00 -0.47762568938E+02  0.47762568938E+02  0.00000000000E+00 0. -1.
         25    2    1    2    0    0  0.10099980881E+03  0.81859417663E+01  0.20401655953E+03  0.25988530366E+03  0.12509853506E+03 0.  0.
          5    1    3    3  502    0  0.60037634870E+02 -0.40873575089E+02  0.17509978128E+03  0.18961163610E+03  0.41800000000E+01 0.  1.
         -5    1    3    3    0  502  0.40962173941E+02  0.49059516856E+02  0.28916778252E+02  0.70273667562E+02  0.41800000000E+01 0.  1.
        -11    1    1    2    0    0 -0.52441055108E+00  0.17942085290E+02  0.79686602355E+02  0.81683217529E+02  0.00000000000E+00 0.  1.
         11    1    1    2    0    0 -0.10047539826E+03 -0.26128027057E+02  0.12426680250E+03  0.16192658107E+03  0.00000000000E+00 0. -1.
</event>
<event>
 7    1  0.3030033E-009  0.8352205E+02  0.7561462E-02  0.1319343E+00
          1   -1    0    0  501    0  0.00000000000E+00  0.00000000000E+00  0.25100879961E+03  0.25100879961E+03  0.00000000000E+00 0. -1.
         -1   -1    0    0    0  501 -0.00000000000E+00 -0.00000000000E+00 -0.48558855109E+02  0.48558855109E+02  0.00000000000E+00 0.  1.
         25    2    1    2    0    0 -0.83989765421E+01  0.22035995401E+02  0.11569715381E+03  0.17201606762E+03  0.12509024030E+03 0.  0.
          5    1    3    3  502    0  0.52833242957E+02 -0.12979336534E+02  0.65970884231E+02  0.85612176146E+02  0.41800000000E+01 0.  1.
         -5    1    3    3    0  502 -0.61232219499E+02  0.35015331936E+02  0.49726269575E+02  0.86403891471E+02  0.41800000000E+01 0.  1.
        -11    1    1    2    0    0  0.60090322073E+01  0.89285264453E+01 -0.16516486030E+02  0.19713481766E+02  0.00000000000E+00 0.  1.
         11    1    1    2    0    0  0.23899443348E+01 -0.30964521847E+02  0.10326927673E+03  0.10783810534E+03  0.00000000000E+00 0. -1.
</event>
<event>
 7    1  0.3001243E-009  0.1060682E+03  0.7561462E-02  0.1268029E+00
         -2   -1    0    0    0  501 -0.00000000000E+00  0.00000000000E+00  0.10418529112E+03  0.10418529112E+03  0.00000000000E+00 0.  1.
          2   -1    0    0  501    0  0.00000000000E+00 -0.00000000000E+00 -0.21991672186E+03  0.21991672186E+03  0.00000000000E+00 0. -1.
         25    2    1    2    0    0  0.10972860317E+02  0.36044395691E+02  0.42016680514E+02  0.13722919372E+03  0.12508736164E+03 0.  0.
          5    1    3    3  502    0 -0.37159803875E+02  0.64508539768E+02  0.23878898056E+02  0.78293530380E+02  0.41800000000E+01 0. -1.
         -5    1    3    3    0  502  0.48132664193E+02 -0.28464144077E+02  0.18137782458E+02  0.58935663336E+02  0.41800000000E+01 0. -1.
        -11    1    1    2    0    0 -0.40569323104E+02 -0.93306220663E+01 -0.25666593122E+02  0.48905055850E+02  0.00000000000E+00 0.  1.
         11    1    1    2    0    0  0.29596462787E+02 -0.26713773624E+02 -0.13208151812E+03  0.13796776341E+03  0.00000000000E+00 0. -1.
</event>
<event>
 7    1  0.3001243E-009  0.1087144E+03  0.7561462E-02  0.1262969E+00
         -2   -1    0    0    0  501 -0.00000000000E+00  0.00000000000E+00  0.22432615927E+03  0.22432615927E+03  0.00000000000E+00 0.  1.
          2   -1    0    0  501    0  0.00000000000E+00 -0.00000000000E+00 -0.71005123134E+02  0.71005123134E+02  0.00000000000E+00 0. -1.
         25    2    1    2    0    0 -0.45727092578E+02 -0.43265452265E+02  0.10685554446E+03  0.17614906359E+03  0.12509004304E+03 0.  0.
          5    1    3    3  502    0 -0.27412648197E+02  0.38784819402E+02  0.68963638482E+02  0.83840153446E+02  0.41800000000E+01 0. -1.
         -5    1    3    3    0  502 -0.18314444381E+02 -0.82050271667E+02  0.37891905974E+02  0.92308910144E+02  0.41800000000E+01 0. -1.
        -11    1    1    2    0    0  0.52037193761E+02  0.52807065536E+02  0.64204332331E+02  0.98074726587E+02  0.00000000000E+00 0.  1.
         11    1    1    2    0    0 -0.63101011831E+01 -0.95416132714E+01 -0.17738840648E+02  0.21107492231E+02  0.00000000000E+00 0. -1.
</event>
<event>
 7    1  0.3001243E-009  0.9870491E+02  0.7561462E-02  0.1283043E+00
         -1   -1    0    0    0  501 -0.00000000000E+00  0.00000000000E+00  0.64630083234E+02  0.64630083234E+02  0.00000000000E+00 0.  1.
          1   -1    0    0  501    0  0.00000000000E+00 -0.00000000000E+00 -0.22849474495E+03  0.22849474495E+03  0.00000000000E+00 0. -1.
         25    2    1    2    0    0 -0.15688340968E+02 -0.53539131993E+02 -0.10677114979E+03  0.17366815988E+03  0.12509192073E+03 0.  0.
          5    1    3    3  502    0 -0.17235540894E+02  0.20746929406E+02  0.14859385089E+02  0.31076883288E+02  0.41800000000E+01 0.  1.
         -5    1    3    3    0  502  0.15471999266E+01 -0.74286061399E+02 -0.12163053488E+03  0.14259127660E+03  0.41800000000E+01 0.  1.
        -11    1    1    2    0    0  0.14370392087E+01 -0.20372423141E+02 -0.35823621023E+02  0.41236301113E+02  0.00000000000E+00 0. -1.
         11    1    1    2    0    0  0.14251301759E+02  0.73911555134E+02 -0.21269890904E+02  0.78220367189E+02  0.00000000000E+00 0.  1.
</event>
<event>
 7    1  0.3368494E-009  0.1536233E+03  0.7561462E-02  0.1196090E+00
         -1   -1    0    0    0  501 -0.00000000000E+00  0.00000000000E+00  0.71945755700E+02  0.71945755700E+02  0.00000000000E+00 0.  1.
          1   -1    0    0  501    0  0.00000000000E+00 -0.00000000000E+00 -0.38187036647E+03  0.38187036647E+03  0.00000000000E+00 0. -1.
         25    2    1    2    0    0  0.63463090020E+02  0.10509682206E+03 -0.19499996982E+03  0.26219458981E+03  0.12509240142E+03 0.  0.
          5    1    3    3  502    0 -0.29679444680E+02  0.66256541073E+02 -0.64734017473E+02  0.97358944580E+02  0.41800000000E+01 0.  1.
         -5    1    3    3    0  502  0.93142534700E+02  0.38840280991E+02 -0.13026595235E+03  0.16483564523E+03  0.41800000000E+01 0.  1.
        -11    1    1    2    0    0 -0.72040433953E+02 -0.83478121736E+02 -0.47070178456E+02  0.11989171211E+03  0.00000000000E+00 0.  1.
         11    1    1    2    0    0  0.85773439325E+01 -0.21618700328E+02 -0.67854462497E+02  0.71729820253E+02  0.00000000000E+00 0. -1.
</event>
<event>
 7    1  0.3001243E-009  0.9064832E+02  0.7561462E-02  0.1301289E+00
         -3   -1    0    0    0  501 -0.00000000000E+00  0.00000000000E+00  0.52623183951E+02  0.52623183951E+02  0.00000000000E+00 0.  1.
          3   -1    0    0  501    0  0.00000000000E+00 -0.00000000000E+00 -0.27471801388E+03  0.27471801388E+03  0.00000000000E+00 0. -1.
         25    2    1    2    0    0  0.36345378778E+02 -0.18355619909E+02 -0.83767778990E+02  0.15595644949E+03  0.12508979974E+03 0.  0.
          5    1    3    3  502    0  0.58243769877E+02 -0.28553797694E+02  0.37115441896E+01  0.65106866401E+02  0.41800000000E+01 0.  1.
         -5    1    3    3    0  502 -0.21898391099E+02  0.10198177785E+02 -0.87479323179E+02  0.90849583085E+02  0.41800000000E+01 0.  1.
        -11    1    1    2    0    0 -0.39712090067E+02  0.47799833322E+02 -0.55153453252E+02  0.83088973810E+02  0.00000000000E+00 0.  1.
         11    1    1    2    0    0  0.33667112894E+01 -0.29444213413E+02 -0.83173597690E+02  0.88295774537E+02  0.00000000000E+00 0. -1.
</event>
<event>
 6    1  0.3001243E-009  0.1341245E+03  0.7561462E-02  0.1221461E+00
          2   -1    0    0  501    0  0.00000000000E+00  0.00000000000E+00  0.19104369721E+03  0.19104369721E+03  0.00000000000E+00 0. -1.
         -2   -1    0    0    0  501 -0.00000000000E+00 -0.00000000000E+00 -0.12148924422E+03  0.12148924422E+03  0.00000000000E+00 0.  1.
          5    1    1    2  502    0  0.53481020484E+02 -0.89188376551E+02  0.95231355475E+01  0.10451291104E+03  0.41800000000E+01 0.  1.
         -5    1    1    2    0  502  0.31300898217E+02  0.28791983037E+02  0.54372579490E+02  0.69156158922E+02  0.41800000000E+01 0.  1.
        -11    1    1    2    0    0 -0.47265652402E+02  0.68336149290E+02 -0.28162774002E+02  0.87732622418E+02  0.00000000000E+00 0.  1.
         11    1    1    2    0    0 -0.37516266299E+02 -0.79397557765E+01  0.33821511955E+02  0.51131249053E+02  0.00000000000E+00 0. -1.
</event>
<event>
 7    1  0.3001243E-009  0.5486882E+02  0.7561462E-02  0.1420720E+00
         -2   -1    0    0    0  501 -0.00000000000E+00  0.00000000000E+00  0.40924445469E+02  0.40924445469E+02  0.00000000000E+00 0.  1.
          2   -1    0    0  501    0  0.00000000000E+00 -0.00000000000E+00 -0.32051653145E+03  0.32051653145E+03  0.00000000000E+00 0. -1.
         25    2    1    2    0    0 -0.28284757600E+02  0.18988671517E+02 -0.18105077330E+03  0.22268094805E+03  0.12508726934E+03 0.  0.
          5    1    3    3  502    0 -0.66456110089E+01 -0.10281028008E+02  0.16948012144E+02  0.21320675369E+02  0.41800000000E+01 0. -1.
         -5    1    3    3    0  502 -0.21639146591E+02  0.29269699525E+02 -0.19799878545E+03  0.20136027268E+03  0.41800000000E+01 0. -1.
        -11    1    1    2    0    0  0.34277721310E+02  0.57074163313E+01 -0.10658334950E+03  0.11210507200E+03  0.00000000000E+00 0. -1.
         11    1    1    2    0    0 -0.59929637103E+01 -0.24696087848E+02  0.80420368214E+01  0.26654956861E+02  0.00000000000E+00 0.  1.
</event>
<event>
 7    1  0.3001243E-009  0.5196565E+02  0.7561462E-02  0.1435019E+00
         -1   -1    0    0    0  501 -0.00000000000E+00  0.00000000000E+00  0.40672314119E+02  0.40672314119E+02  0.00000000000E+00 0.  1.
          1   -1    0    0  501    0  0.00000000000E+00 -0.00000000000E+00 -0.34979176184E+03  0.34979176184E+03  0.00000000000E+00 0. -1.
         25    2    1    2    0    0 -0.61502749082E+00  0.14335350431E+01 -0.25473340351E+03  0.28379357259E+03  0.12508897513E+03 0.  0.
          5    1    3    3  502    0  0.26827394421E+02  0.24705443450E+02 -0.12368323993E+02  0.38736492689E+02  0.41800000000E+01 0.  1.
         -5    1    3    3    0  502 -0.27442421912E+02 -0.23271908407E+02 -0.24236507951E+03  0.24505707990E+03  0.41800000000E+01 0.  1.
        -11    1    1    2    0    0  0.10364855821E+02 -0.12507870109E+02 -0.77535443226E+02  0.79218823565E+02  0.00000000000E+00 0. -1.
         11    1    1    2    0    0 -0.97498283299E+01  0.11074335066E+02  0.23149399011E+02  0.27451679806E+02  0.00000000000E+00 0.  1.
</event>
<event>
 7    1  0.3001243E-009  0.2368969E+03  0.7561462E-02  0.1121877E+00
         -2   -1    0    0    0  501 -0.00000000000E+00  0.00000000000E+00  0.47796325202E+02  0.47796325202E+02  0.00000000000E+00 0.  1.
          2   -1    0    0  501    0  0.00000000000E+00 -0.00000000000E+00 -0.12521519224E+04  0.12521519224E+04  0.00000000000E+00 0. -1.
         25    2    1    2    0    0 -0.36008707389E+02 -0.21453527692E+03 -0.64347515029E+03  0.69067373390E+03  0.12509166882E+03 0.  0.
          5    1    3    3  502    0 -0.64788388816E+02 -0.11135485585E+03 -0.23135880082E+03  0.26484298436E+03  0.41800000000E+01 0.  1.
         -5    1    3    3    0  502  0.28779681427E+02 -0.10318042107E+03 -0.41211634947E+03  0.42583074954E+03  0.41800000000E+01 0.  1.
        -11    1    1    2    0    0 -0.98663586764E+00  0.19656155806E+03 -0.47445414100E+03  0.51356027053E+03  0.00000000000E+00 0. -1.
         11    1    1    2    0    0  0.36995343257E+02  0.17973718861E+02 -0.86426305901E+02  0.95714243162E+02  0.00000000000E+00 0.  1.
</event>
<event>
 7    1  0.3001243E-009  0.1662489E+03  0.7561462E-02  0.1181817E+00
          1   -1    0    0  501    0  0.00000000000E+00  0.00000000000E+00  0.27533293761E+03  0.27533293761E+03  0.00000000000E+00 0. -1.
         -1   -1    0    0    0  501 -0.00000000000E+00 -0.00000000000E+00 -0.11931451103E+03  0.11931451103E+03  0.00000000000E+00 0.  1.
         25    2    1    2    0    0 -0.13033998934E+03 -0.58036582328E+02  0.11025624736E+03  0.21946172294E+03  0.12510095940E+03 0.  0.
          5    1    3    3  502    0 -0.15466157630E+03 -0.45001202131E+02  0.10046753241E+03  0.18988551510E+03  0.41800000000E+01 0.  1.
         -5    1    3    3    0  502  0.24321586965E+02 -0.13035380197E+02  0.97887149560E+01  0.29576207834E+02  0.41800000000E+01 0.  1.
        -11    1    1    2    0    0  0.62772334688E+02  0.36135795800E+02 -0.23331046418E+02  0.76095331442E+02  0.00000000000E+00 0.  1.
         11    1    1    2    0    0  0.67567654650E+02  0.21900786528E+02  0.69093225642E+02  0.99090394262E+02  0.00000000000E+00 0. -1.
</event>
<event>
 7    1  0.3001243E-009  0.8955572E+02  0.7561462E-02  0.1303931E+00
         -1   -1    0    0    0  501 -0.00000000000E+00  0.00000000000E+00  0.24258853009E+03  0.24258853009E+03  0.00000000000E+00 0.  1.
          1   -1    0    0  501    0  0.00000000000E+00 -0.00000000000E+00 -0.61109075370E+02  0.61109075370E+02  0.00000000000E+00 0. -1.
         25    2    1    2    0    0  0.13832411120E+02  0.27883109062E+02  0.16023188838E+03  0.20564657874E+03  0.12508978345E+03 0.  0.
          5    1    3    3  502    0  0.24046311766E+02  0.75024882464E+02  0.11448143772E+03  0.13903391701E+03  0.41800000000E+01 0. -1.
         -5    1    3    3    0  502 -0.10213900646E+02 -0.47141773402E+02  0.45750450666E+02  0.66612661724E+02  0.41800000000E+01 0. -1.
        -11    1    1    2    0    0  0.10328424324E+02 -0.25511659008E+02 -0.30384196141E+02  0.40996590950E+02  0.00000000000E+00 0. -1.
         11    1    1    2    0    0 -0.24160835443E+02 -0.23714500540E+01  0.51631762482E+02  0.57054435776E+02  0.00000000000E+00 0.  1.
</event>
<event>
 7    1  0.3001243E-009  0.1652140E+03  0.7561462E-02  0.1182933E+00
         -2   -1    0    0    0  501 -0.00000000000E+00  0.00000000000E+00  0.31629540458E+03  0.31629540458E+03  0.00000000000E+00 0.  1.
          2   -1    0    0  501    0  0.00000000000E+00 -0.00000000000E+00 -0.14022066122E+03  0.14022066122E+03  0.00000000000E+00 0. -1.
         25    2    1    2    0    0 -0.13132563078E+03 -0.74200337265E+02  0.19272390040E+03  0.27485100505E+03  0.12509381217E+03 0.  0.
          5    1    3    3  502    0 -0.17025306203E+02 -0.42015174112E+00  0.11855700266E+03  0.11984687255E+03  0.41800000000E+01 0. -1.
         -5    1    3    3    0  502 -0.11430032457E+03 -0.73780185524E+02  0.74166897737E+02  0.15500413251E+03  0.41800000000E+01 0. -1.
        -11    1    1    2    0    0 -0.19021348741E+01  0.38915941145E+02 -0.20015751393E+02  0.43802955335E+02  0.00000000000E+00 0.  1.
         11    1    1    2    0    0  0.13322776565E+03  0.35284396120E+02  0.33665943485E+01  0.13786210541E+03  0.00000000000E+00 0. -1.
</event>
<event>
 7    1  0.3001243E-009  0.1552832E+03  0.7561462E-02  0.1194127E+00
          2   -1    0    0  501    0  0.00000000000E+00  0.00000000000E+00  0.68152385115E+03  0.68152385115E+03  0.00000000000E+00 0. -1.
         -2   -1    0    0    0  501 -0.00000000000E+00 -0.00000000000E+00 -0.60008864819E+02  0.60008864819E+02  0.00000000000E+00 0.  1.
         25    2    1    2    0    0 -0.83352127147E+02  0.94169897437E+02  0.11430017270E+03  0.21101674883E+03  0.12509193469E+03 0.  0.
          5    1    3    3  502    0  0.11739463863E+02 -0.10665682449E+02  0.55188353197E+02  0.57574286991E+02  0.41800000000E+01 0.  1.
         -5    1    3    3    0  502 -0.95091591010E+02  0.10483557989E+03  0.59111819506E+02  0.15344246184E+03  0.41800000000E+01 0.  1.
        -11    1    1    2    0    0  0.63552308895E+02 -0.78881877524E+01  0.26509060199E+03  0.27271623849E+03  0.00000000000E+00 0.  1.
         11    1    1    2    0    0  0.19799818251E+02 -0.86281709684E+02  0.24212421164E+03  0.25779972864E+03  0.00000000000E+00 0. -1.
</event>
<event>
 7    1  0.3001243E-009  0.2418872E+03  0.7561462E-02  0.1118542E+00
         -2   -1    0    0    0  501 -0.00000000000E+00  0.00000000000E+00  0.48971196127E+02  0.48971196127E+02  0.00000000000E+00 0.  1.
          2   -1    0    0  501    0  0.00000000000E+00 -0.00000000000E+00 -0.14268514439E+04  0.14268514439E+04  0.00000000000E+00 0. -1.
         25    2    1    2    0    0  0.17446916139E+03  0.15990312067E+03 -0.58279184374E+03  0.64132834792E+03  0.12508885014E+03 0.  0.
          5    1    3    3  502    0  0.11165491065E+03  0.11570774013E+03 -0.23266731263E+03  0.28285446959E+03  0.41800000000E+01 0. -1.
         -5    1    3    3    0  502  0.62814250744E+02  0.44195380537E+02 -0.35012453111E+03  0.35847387833E+03  0.41800000000E+01 0. -1.
        -11    1    1    2    0    0 -0.16390996545E+03 -0.11587959562E+03 -0.55526566325E+03  0.59043586802E+03  0.00000000000E+00 0.  1.
         11    1    1    2    0    0 -0.10559195943E+02 -0.44023525048E+02 -0.23982274076E+03  0.24405842407E+03  0.00000000000E+00 0. -1.
</event>
<event>
 7    1  0.3001243E-009  0.9445317E+02  0.7561462E-02  0.1292412E+00
          2   -1    0    0  501    0  0.00000000000E+00  0.00000000000E+00  0.50217855528E+03  0.50217855528E+03  0.00000000000E+00 0. -1.
         -2   -1    0    0    0  501 -0.00000000000E+00 -0.00000000000E+00 -0.29776862870E+02  0.29776862870E+02  0.00000000000E+00 0.  1.
         25    2    1    2    0    0 -0.53302662551E+02  0.59195557542E+00  0.23906335624E+03  0.27503015748E+03  0.12509506378E+03 0.  0.
          5    1    3    3  502    0 -0.75739398941E+02  0.46169098668E-01  0.66241087535E+02  0.10070656762E+03  0.41800000000E+01 0.  1.
         -5    1    3    3    0  502  0.22436736390E+02  0.54578647675E+00  0.17282226870E+03  0.17432358986E+03  0.41800000000E+01 0.  1.
        -11    1    1    2    0    0 -0.16059688643E+02 -0.11841984679E+02  0.90924789833E+01  0.21927593906E+02  0.00000000000E+00 0.  1.
         11    1    1    2    0    0  0.69362351194E+02  0.11250029104E+02  0.22424585719E+03  0.23499766676E+03  0.00000000000E+00 0. -1.
</event>
<event>
 7    1  0.3001243E-009  0.1177210E+03  0.7561462E-02  0.1246905E+00
          2   -1    0    0  501    0  0.00000000000E+00  0.00000000000E+00  0.40776030742E+03  0.40776030742E+03  0.00000000000E+00 0. -1.
         -2   -1    0    0    0  501 -0.00000000000E+00 -0.00000000000E+00 -0.36256364358E+02  0.36256364358E+02  0.00000000000E+00 0.  1.
         25    2    1    2    0    0 -0.14475567725E+02 -0.44614417494E+02  0.15519183279E+03  0.20476891495E+03  0.12508323331E+03 0.  0.
          5    1    3    3  502    0 -0.65974521146E+02 -0.47846839245E+02  0.10053912809E+03  0.12948955997E+03  0.41800000000E+01 0. -1.
         -5    1    3    3    0  502  0.51498953421E+02  0.32324217505E+01  0.54652704708E+02  0.75279354977E+02  0.41800000000E+01 0. -1.
        -11    1    1    2    0    0  0.42495857017E+02 -0.72574870272E+01  0.97834273638E+02  0.10691171161E+03  0.00000000000E+00 0. -1.
         11    1    1    2    0    0 -0.28020289292E+02  0.51871904522E+02  0.11847783663E+03  0.13233604522E+03  0.00000000000E+00 0.  1.
</event>
<event>
 7    1  0.3001243E-009  0.1245060E+03  0.7561462E-02  0.1235843E+00
          1   -1    0    0  501    0  0.00000000000E+00  0.00000000000E+00  0.55462254712E+03  0.55462254712E+03  0.00000000000E+00 0. -1.
         -1   -1    0    0    0  501 -0.00000000000E+00 -0.00000000000E+00 -0.32701106841E+02  0.32701106841E+02  0.00000000000E+00 0.  1.
         25    2    1    2    0    0 -0.74610859741E+02 -0.34711564780E+02  0.30767034971E+03  0.34217013962E+03  0.12509071602E+03 0.  0.
          5    1    3    3  502    0  0.10727379236E+02  0.28857520523E+02  0.14099678863E+03  0.14437936126E+03  0.41800000000E+01 0. -1.
         -5    1    3    3    0  502 -0.85338238977E+02 -0.63569085303E+02  0.16667356108E+03  0.19779077835E+03  0.41800000000E+01 0. -1.
        -11    1    1    2    0    0  0.63685122884E+02 -0.10842861814E+02  0.79185451546E+02  0.10219441406E+03  0.00000000000E+00 0.  1.
         11    1    1    2    0    0  0.10925736857E+02  0.45554426593E+02  0.13506563903E+03  0.14295910029E+03  0.00000000000E+00 0. -1.
</event>
<event>
 7    1  0.3001243E-009  0.8477311E+02  0.7561462E-02  0.1316027E+00
         -2   -1    0    0    0  501 -0.00000000000E+00  0.00000000000E+00  0.10799416129E+03  0.10799416129E+03  0.00000000000E+00 0.  1.
          2   -1    0    0  501    0  0.00000000000E+00 -0.00000000000E+00 -0.11906240468E+03  0.11906240468E+03  0.00000000000E+00 0. -1.
         25    2    1    2    0    0  0.31034736623E+02 -0.23880537200E+01 -0.57904176353E+01  0.12903521163E+03  0.12509076395E+03 0.  0.
          5    1    3    3  502    0  0.65926834702E+01  0.55268790151E+02 -0.28015194512E+02  0.62453391931E+02  0.41800000000E+01 0. -1.
         -5    1    3    3    0  502  0.24442053153E+02 -0.57656843871E+02  0.22224776877E+02  0.66581819701E+02  0.41800000000E+01 0. -1.
        -11    1    1    2    0    0 -0.38096442692E+02  0.11166820468E+02  0.36999931318E+02  0.54268146667E+02  0.00000000000E+00 0.  1.
         11    1    1    2    0    0  0.70617060686E+01 -0.87787667479E+01 -0.42277757079E+02  0.43753207674E+02  0.00000000000E+00 0. -1.
</event>
<event>
 7    1  0.3001243E-009  0.9117890E+02  0.7561462E-02  0.1300022E+00
          1   -1    0    0  501    0  0.00000000000E+00  0.00000000000E+00  0.79414368755E+03  0.79414368755E+03  0.00000000000E+00 0. -1.
         -1   -1    0    0    0  501 -0.00000000000E+00 -0.00000000000E+00 -0.21083048347E+02  0.21083048347E+02  0.00000000000E+00 0.  1.
         25    2    1    2    0    0 -0.25162186156E+01 -0.56037156032E+02  0.56448002564E+03  0.58088722884E+03  0.12508308868E+03 0.  0.
          5    1    3    3  502    0 -0.41337358143E+02 -0.80968162086E+01  0.43864595294E+03  0.44068365075E+03  0.41800000000E+01 0.  1.
         -5    1    3    3    0  502  0.38821139528E+02 -0.47940339824E+02  0.12583407271E+03  0.14020357810E+03  0.41800000000E+01 0.  1.
        -11    1    1    2    0    0  0.26999187746E+02  0.42138482141E+02  0.19805999119E+03  0.20428501640E+03  0.00000000000E+00 0. -1.
         11    1    1    2    0    0 -0.24482969130E+02  0.13898673891E+02  0.10520622374E+02  0.30054490654E+02  0.00000000000E+00 0.  1.
</event>
<event>
 7    1  0.3001243E-009  0.3484594E+03  0.7561462E-02  0.1063249E+00
          2   -1    0    0  501    0  0.00000000000E+00  0.00000000000E+00  0.18685220889E+03  0.18685220889E+03  0.00000000000E+00 0. -1.
         -2   -1    0    0    0  501 -0.00000000000E+00 -0.00000000000E+00 -0.72212814658E+03  0.72212814658E+03  0.00000000000E+00 0.  1.
         25    2    1    2    0    0  0.29691504308E+03  0.17920586401E+03 -0.20736294466E+03  0.42299012582E+03  0.12509185114E+03 0.  0.
          5    1    3    3  502    0  0.49624591384E+02  0.19884531409E+02 -0.92984823859E+02  0.10733892364E+03  0.41800000000E+01 0. -1.
         -5    1    3    3    0  502  0.24729045170E+03  0.15932133260E+03 -0.11437812080E+03  0.31565120218E+03  0.41800000000E+01 0. -1.
        -11    1    1    2    0    0 -0.13349302160E+03 -0.10388113719E+03 -0.10334945091E+03  0.19822408149E+03  0.00000000000E+00 0. -1.
         11    1    1    2    0    0 -0.16342202148E+03 -0.75324726820E+02 -0.22456354212E+03  0.28776614816E+03  0.00000000000E+00 0.  1.
</event>
<event>
 7    1  0.3001243E-009  0.8958427E+02  0.7561462E-02  0.1303862E+00
          2   -1    0    0  501    0  0.00000000000E+00  0.00000000000E+00  0.15848123058E+03  0.15848123058E+03  0.00000000000E+00 0. -1.
         -2   -1    0    0    0  501 -0.00000000000E+00 -0.00000000000E+00 -0.75174994445E+02  0.75174994445E+02  0.00000000000E+00 0.  1.
         25    2    1    2    0    0  0.28222442123E+01  0.35645303156E+01  0.58798453837E+02  0.13829547512E+03  0.12509080433E+03 0.  0.
          5    1    3    3  502    0 -0.40042367929E+02 -0.23492544686E+02  0.71978585516E+02  0.85753600846E+02  0.41800000000E+01 0.  1.
         -5    1    3    3    0  502  0.42864612141E+02  0.27057075002E+02 -0.13180131678E+02  0.52541874279E+02  0.41800000000E+01 0.  1.
        -11    1    1    2    0    0 -0.31697441097E+02 -0.29187823995E+02 -0.92585289932E+01  0.44072408611E+02  0.00000000000E+00 0.  1.
         11    1    1    2    0    0  0.28875196885E+02  0.25623293679E+02  0.33766311295E+02  0.51288341293E+02  0.00000000000E+00 0. -1.
</event>
<event>
 7    1  0.3001243E-009  0.1678845E+03  0.7561462E-02  0.1180072E+00
         -1   -1    0    0    0  501 -0.00000000000E+00  0.00000000000E+00  0.46987347866E+02  0.46987347866E+02  0.00000000000E+00 0.  1.
          1   -1    0    0  501    0  0.00000000000E+00 -0.00000000000E+00 -0.90067268448E+03  0.90067268448E+03  0.00000000000E+00 0. -1.
         25    2    1    2    0    0  0.88943475405E+02  0.10586827064E+03 -0.67197870289E+03  0.69736217408E+03  0.12505835498E+03 0.  0.
          5    1    3    3  502    0  0.10865457839E+03  0.96581762756E+02 -0.42115313778E+03  0.44555728270E+03  0.41800000000E+01 0.  1.
         -5    1    3    3    0  502 -0.19711102989E+02  0.92865078833E+01 -0.25082556512E+03  0.25180489139E+03  0.41800000000E+01 0.  1.
        -11    1    1    2    0    0  0.94012182090E+01 -0.58027022709E+02 -0.39166444718E+02  0.70636595757E+02  0.00000000000E+00 0.  1.
         11    1    1    2    0    0 -0.98344693614E+02 -0.47841247930E+02 -0.14254018900E+03  0.17966126251E+03  0.00000000000E+00 0. -1.
</event>
<event>
 7    1  0.3652304E-009  0.8064989E+02  0.7561462E-02  0.1327217E+00
          4   -1    0    0  501    0  0.00000000000E+00  0.00000000000E+00  0.27183621034E+03  0.27183621034E+03  0.00000000000E+00 0.  1.
         -4   -1    0    0    0  501 -0.00000000000E+00 -0.00000000000E+00 -0.59124746198E+02  0.59124746198E+02  0.00000000000E+00 0. -1.
         25    2    1    2    0    0 -0.39654534679E+02  0.49232577548E+02  0.98300250736E+02  0.17118930299E+03  0.12508600781E+03 0.  0.
          5    1    3    3  502    0 -0.25228602202E+02  0.68377186519E+02  0.11875622217E+03  0.13940026797E+03  0.41800000000E+01 0. -1.
         -5    1    3    3    0  502 -0.14425932477E+02 -0.19144608971E+02 -0.20455971433E+02  0.31789035024E+02  0.41800000000E+01 0. -1.
        -11    1    1    2    0    0  0.19832395933E+02 -0.32258709200E+02  0.12574288469E+03  0.13132106190E+03  0.00000000000E+00 0.  1.
         11    1    1    2    0    0  0.19822138746E+02 -0.16973868348E+02 -0.11331671284E+02  0.28450591650E+02  0.00000000000E+00 0. -1.
</event>
<event>
 7    1  0.3001243E-009  0.1432545E+03  0.7561462E-02  0.1209016E+00
         -1   -1    0    0    0  501 -0.00000000000E+00  0.00000000000E+00  0.93229314070E+02  0.93229314070E+02  0.00000000000E+00 0.  1.
          1   -1    0    0  501    0  0.00000000000E+00 -0.00000000000E+00 -0.24340512956E+03  0.24340512956E+03  0.00000000000E+00 0. -1.
         25    2    1    2    0    0 -0.69273274555E+02  0.71703233314E+02 -0.11552880484E+03  0.19731652259E+03  0.12508703012E+03 0.  0.
          5    1    3    3  502    0 -0.34371152444E+02 -0.34014321594E+02 -0.33868186196E+02  0.59185104799E+02  0.41800000000E+01 0. -1.
         -5    1    3    3    0  502 -0.34902122110E+02  0.10571755491E+03 -0.81660618648E+02  0.13813141779E+03  0.41800000000E+01 0. -1.
        -11    1    1    2    0    0  0.76188924668E+02 -0.26245154096E+02 -0.44843457258E+02  0.92219824412E+02  0.00000000000E+00 0. -1.
         11    1    1    2    0    0 -0.69156501136E+01 -0.45458079217E+02  0.10196446609E+02  0.47098096629E+02  0.00000000000E+00 0.  1.
</event>
<event>
 7    1  0.3001243E-009  0.3275730E+03  0.7561462E-02  0.1072216E+00
         -1   -1    0    0    0  501 -0.00000000000E+00  0.00000000000E+00  0.26857634644E+03  0.26857634644E+03  0.00000000000E+00 0.  1.
          1   -1    0    0  501    0  0.00000000000E+00 -0.00000000000E+00 -0.42258339863E+03  0.42258339863E+03  0.00000000000E+00 0. -1.
         25    2    1    2    0    0  0.26607703604E+03  0.16611353884E+03 -0.13747727939E+03  0.36460702015E+03  0.12509028698E+03 0.  0.
          5    1    3    3  502    0  0.92031109590E+02  0.12101546137E+03 -0.29768824643E+02  0.15497781243E+03  0.41800000000E+01 0. -1.
         -5    1    3    3    0  502  0.17404592645E+03  0.45098077468E+02 -0.10770845474E+03  0.20962920772E+03  0.41800000000E+01 0. -1.
        -11    1    1    2    0    0 -0.21267579786E+03 -0.91659414479E+02  0.79187648126E+01  0.23172213984E+03  0.00000000000E+00 0.  1.
         11    1    1    2    0    0 -0.53401238187E+02 -0.74454124363E+02 -0.24448537621E+02  0.94830585078E+02  0.00000000000E+00 0. -1.
</event>
<event>
 7    1  0.3001243E-009  0.1161591E+03  0.7561462E-02  0.1249571E+00
          3   -1    0    0  501    0  0.00000000000E+00  0.00000000000E+00  0.10530125683E+03  0.10530125683E+03  0.00000000000E+00 0. -1.
         -3   -1    0    0    0  501 -0.00000000000E+00 -0.00000000000E+00 -0.15661753493E+03  0.15661753493E+03  0.00000000000E+00 0.  1.
         25    2    1    2    0    0  0.63772320877E+02  0.22750458468E+02 -0.28940904504E+02  0.14515902718E+03  0.12509626272E+03 0.  0.
          5    1    3    3  502    0 -0.23506559037E+02  0.19177170153E+02  0.27431009241E+02  0.41112708994E+02  0.41800000000E+01 0. -1.
         -5    1    3    3    0  502  0.87278879914E+02  0.35732883152E+01 -0.56371913746E+02  0.10404631818E+03  0.41800000000E+01 0. -1.
        -11    1    1    2    0    0 -0.71889229138E+02 -0.48846287342E+02 -0.13076672164E+02  0.87892095254E+02  0.00000000000E+00 0.  1.
         11    1    1    2    0    0  0.81169082612E+01  0.26095828874E+02 -0.92987014304E+01  0.28867669332E+02  0.00000000000E+00 0. -1.
</event>
<event>
 7    1  0.3001243E-009  0.4462716E+02  0.7561462E-02  0.1476683E+00
          2   -1    0    0  501    0  0.00000000000E+00  0.00000000000E+00  0.71203721436E+02  0.71203721436E+02  0.00000000000E+00 0. -1.
         -2   -1    0    0    0  501 -0.00000000000E+00 -0.00000000000E+00 -0.17040119382E+03  0.17040119382E+03  0.00000000000E+00 0.  1.
         25    2    1    2    0    0 -0.98395973841E+01 -0.42707203699E+01 -0.39045236800E+02  0.13147761665E+03  0.12508707541E+03 0.  0.
          5    1    3    3  502    0 -0.11520433266E+02  0.81781441827E+01  0.44507376595E+02  0.46882634272E+02  0.41800000000E+01 0. -1.
         -5    1    3    3    0  502  0.16808358815E+01 -0.12448864553E+02 -0.83552613396E+02  0.84594982376E+02  0.41800000000E+01 0. -1.
        -11    1    1    2    0    0  0.15890558530E+02  0.30485148789E+02 -0.72717161934E+02  0.80434071057E+02  0.00000000000E+00 0.  1.
         11    1    1    2    0    0 -0.60509611455E+01 -0.26214428420E+02  0.12564926351E+02  0.29693227550E+02  0.00000000000E+00 0. -1.
</event>
<event>
 7    1  0.3001243E-009  0.1269065E+03  0.7561462E-02  0.1232119E+00
          1   -1    0    0  501    0  0.00000000000E+00  0.00000000000E+00  0.27842410312E+02  0.27842410312E+02  0.00000000000E+00 0. -1.
         -1   -1    0    0    0  501 -0.00000000000E+00 -0.00000000000E+00 -0.83476281655E+03  0.83476281655E+03  0.00000000000E+00 0.  1.
         25    2    1    2    0    0  0.82599436718E+02 -0.37280591155E+02 -0.27331105078E+03  0.31394086853E+03  0.12508968395E+03 0.  0.
          5    1    3    3  502    0  0.78095959429E+02  0.15693776048E+02 -0.78321378325E+02  0.11178991094E+03  0.41800000000E+01 0. -1.
         -5    1    3    3    0  502  0.45034772890E+01 -0.52974367203E+02 -0.19498967246E+03  0.20215095759E+03  0.41800000000E+01 0. -1.
        -11    1    1    2    0    0  0.15102194662E+02  0.13279369677E+02 -0.38489811521E+02  0.43426760570E+02  0.00000000000E+00 0. -1.
         11    1    1    2    0    0 -0.97701631381E+02  0.24001221478E+02 -0.49511954394E+03  0.50523759776E+03  0.00000000000E+00 0.  1.
</event>
<event>
 7    1  0.3001243E-009  0.1000774E+03  0.7561462E-02  0.1280133E+00
         -2   -1    0    0    0  501 -0.00000000000E+00  0.00000000000E+00  0.11293337761E+03  0.11293337761E+03  0.00000000000E+00 0.  1.
          2   -1    0    0  501    0  0.00000000000E+00 -0.00000000000E+00 -0.12825223607E+03  0.12825223607E+03  0.00000000000E+00 0. -1.
         25    2    1    2    0    0  0.30020393522E+02 -0.85527019521E+01 -0.50335355975E+02  0.13840379121E+03  0.12509032185E+03 0.  0.
          5    1    3    3  502    0 -0.55879257254E+01  0.54589177564E+02 -0.12126589002E+02  0.56353613742E+02  0.41800000000E+01 0.  1.
         -5    1    3    3    0  502  0.35608319248E+02 -0.63141879516E+02 -0.38208766973E+02  0.82050177465E+02  0.41800000000E+01 0.  1.
        -11    1    1    2    0    0 -0.23454648608E+02 -0.27340074454E+02  0.51414781285E+02  0.62778021210E+02  0.00000000000E+00 0.  1.
         11    1    1    2    0    0 -0.65657449147E+01  0.35892776406E+02 -0.16398283774E+02  0.40003801259E+02  0.00000000000E+00 0. -1.
</event>
<event>
 6    1  0.3001243E-009  0.2753515E+03  0.7561462E-02  0.1098255E+00
         -2   -1    0    0    0  501 -0.00000000000E+00  0.00000000000E+00  0.62029773431E+02  0.62029773431E+02  0.00000000000E+00 0.  1.
          2   -1    0    0  501    0  0.00000000000E+00 -0.00000000000E+00 -0.13812634299E+04  0.13812634299E+04  0.00000000000E+00 0. -1.
          5    1    1    2  502    0 -0.22114230979E+03 -0.13593656921E+03 -0.77020551649E+03  0.81278329341E+03  0.41800000000E+01 0. -1.
         -5    1    1    2    0  502  0.15836070344E+02 -0.23097029561E+02 -0.99889012519E+02  0.10382456896E+03  0.41800000000E+01 0. -1.
        -11    1    1    2    0    0  0.16362302043E+03  0.14546980112E+03 -0.30103935537E+03  0.37223466971E+03  0.00000000000E+00 0.  1.
         11    1    1    2    0    0  0.41683219016E+02  0.13563797650E+02 -0.14809977211E+03  0.15445067126E+03  0.00000000000E+00 0. -1.
</event>
<event>
 7    1  0.3001243E-009  0.9076840E+02  0.7561462E-02  0.1301001E+00
         -2   -1    0    0    0  501 -0.00000000000E+00  0.00000000000E+00  0.30234227459E+03  0.30234227459E+03  0.00000000000E+00 0.  1.
          2   -1    0    0  501    0  0.00000000000E+00 -0.00000000000E+00 -0.57831543823E+02  0.57831543823E+02  0.00000000000E+00 0. -1.
         25    2    1    2    0    0  0.36079418117E+02  0.36348606254E+02  0.21015783080E+03  0.24990273451E+03  0.12514838106E+03 0.  0.
          5    1    3    3  502    0 -0.13876767498E+02 -0.23275653990E+02  0.14723333572E+03  0.14976464300E+03  0.41800000000E+01 0. -1.
         -5    1    3    3    0  502  0.49956185615E+02  0.59624260244E+02  0.62924495083E+02  0.10013809152E+03  0.41800000000E+01 0. -1.
        -11    1    1    2    0    0 -0.16908257697E+02 -0.49936573938E+02 -0.15672553925E+02  0.55001632171E+02  0.00000000000E+00 0. -1.
         11    1    1    2    0    0 -0.19171160420E+02  0.13587967683E+02  0.50025453887E+02  0.55269451728E+02  0.00000000000E+00 0.  1.
</event>
<event>
 7    1  0.3001243E-009  0.1922533E+03  0.7561462E-02  0.1156445E+00
         -3   -1    0    0    0  501 -0.00000000000E+00  0.00000000000E+00  0.63441409577E+03  0.63441409577E+03  0.00000000000E+00 0.  1.
          3   -1    0    0  501    0  0.00000000000E+00 -0.00000000000E+00 -0.73427678740E+02  0.73427678740E+02  0.00000000000E+00 0. -1.
         25    2    1    2    0    0  0.14807960441E+03  0.68457768215E+02  0.44666121405E+03  0.49169780828E+03  0.12508580757E+03 0.  0.
          5    1    3    3  502    0 -0.19360767495E+02  0.23121362404E+02  0.47072877286E+02  0.56060368295E+02  0.41800000000E+01 0.  1.
         -5    1    3    3    0  502  0.16744037191E+03  0.45336405811E+02  0.39958833676E+03  0.43563743998E+03  0.41800000000E+01 0.  1.
        -11    1    1    2    0    0 -0.14916850751E+03 -0.43252385595E+02  0.11053830769E+03  0.19063244729E+03  0.00000000000E+00 0. -1.
         11    1    1    2    0    0  0.10889030973E+01 -0.25205382621E+02  0.37868952955E+01  0.25511518947E+02  0.00000000000E+00 0.  1.
</event>
<event>
 7    1  0.3001243E-009  0.1558391E+03  0.7561462E-02  0.1193476E+00
          1   -1    0    0  501    0  0.00000000000E+00  0.00000000000E+00  0.10900317974E+03  0.10900317974E+03  0.00000000000E+00 0. -1.
         -1   -1    0    0    0  501 -0.00000000000E+00 -0.00000000000E+00 -0.26354988769E+03  0.26354988769E+03  0.00000000000E+00 0.  1.
         25    2    1    2    0    0  0.73856976431E+02 -0.10391680533E+03 -0.53050026932E+02  0.18631556917E+03  0.12508249502E+03 0.  0.
          5    1    3    3  502    0  0.28846425633E+01 -0.80749970142E+02  0.18309007923E+02  0.82955234987E+02  0.41800000000E+01 0. -1.
         -5    1    3    3    0  502  0.70972333868E+02 -0.23166835189E+02 -0.71359034854E+02  0.10336033418E+03  0.41800000000E+01 0. -1.
        -11    1    1    2    0    0  0.13050112245E+02  0.54456395215E+02 -0.40454952159E+02  0.69082614048E+02  0.00000000000E+00 0.  1.
         11    1    1    2    0    0 -0.86907088676E+02  0.49460410116E+02 -0.61041728862E+02  0.11715488421E+03  0.00000000000E+00 0. -1.
</event>
<event>
 7    1  0.3001243E-009  0.8809455E+02  0.7561462E-02  0.1307533E+00
          1   -1    0    0  501    0  0.00000000000E+00  0.00000000000E+00  0.69365259006E+02  0.69365259006E+02  0.00000000000E+00 0. -1.
         -1   -1    0    0    0  501 -0.00000000000E+00 -0.00000000000E+00 -0.34621057454E+03  0.34621057454E+03  0.00000000000E+00 0.  1.
         25    2    1    2    0    0 -0.61224723108E+02  0.17089191917E+02 -0.26907174333E+03  0.30345634489E+03  0.12508254472E+03 0.  0.
          5    1    3    3  502    0 -0.43745665730E+02  0.10275079918E+02 -0.27844052061E+03  0.28207420381E+03  0.41800000000E+01 0.  1.
         -5    1    3    3    0  502 -0.17479057378E+02  0.68141119995E+01  0.93687772840E+01  0.21382141075E+02  0.41800000000E+01 0.  1.
        -11    1    1    2    0    0  0.12723848523E+02 -0.51061712638E+02 -0.44465993658E+01  0.52810671883E+02  0.00000000000E+00 0.  1.
         11    1    1    2    0    0  0.48500874585E+02  0.33972520721E+02 -0.33269728455E+01  0.59308816781E+02  0.00000000000E+00 0. -1.
</event>
<event>
 7    1  0.3001243E-009  0.1167607E+03  0.7561462E-02  0.1248539E+00
         -2   -1    0    0    0  501 -0.00000000000E+00  0.00000000000E+00  0.11576413547E+02  0.11576413547E+02  0.00000000000E+00 0.  1.
          2   -1    0    0  501    0  0.00000000000E+00 -0.00000000000E+00 -0.12665874139E+04  0.12665874139E+04  0.00000000000E+00 0. -1.
         25    2    1    2    0    0  0.37515088796E+01  0.51226683456E+02 -0.78506658979E+03  0.79662779548E+03  0.12509215491E+03 0.  0.
          5    1    3    3  502    0 -0.27708134775E+01 -0.40170795371E+02 -0.16965447012E+03  0.17441755027E+03  0.41800000000E+01 0. -1.
         -5    1    3    3    0  502  0.65223223571E+01  0.91397478827E+02 -0.61541211966E+03  0.62221024522E+03  0.41800000000E+01 0. -1.
        -11    1    1    2    0    0 -0.16938154611E+02  0.21517241765E+02 -0.77674256772E+02  0.82360080985E+02  0.00000000000E+00 0.  1.
         11    1    1    2    0    0  0.13186645731E+02 -0.72743925220E+02 -0.39227015381E+03  0.39917595100E+03  0.00000000000E+00 0. -1.
</event>
<event>
 7    1  0.3001243E-009  0.1667865E+03  0.7561462E-02  0.1181241E+00
          3   -1    0    0  501    0  0.00000000000E+00  0.00000000000E+00  0.96169765023E+02  0.96169765023E+02  0.00000000000E+00 0. -1.
         -3   -1    0    0    0  501 -0.00000000000E+00 -0.00000000000E+00 -0.39918800363E+03  0.39918800363E+03  0.00000000000E+00 0.  1.
         25    2    1    2    0    0  0.13344800527E+03 -0.15069268727E+01 -0.41414254245E+02  0.18754415288E+03  0.12508808052E+03 0.  0.
          5    1    3    3  502    0 -0.18246698408E+02  0.57397920076E+01 -0.29162610416E+02  0.35125737876E+02  0.41800000000E+01 0. -1.
         -5    1    3    3    0  502  0.15169470367E+03 -0.72467188803E+01 -0.12251643829E+02  0.15241841501E+03  0.41800000000E+01 0. -1.
        -11    1    1    2    0    0 -0.96124134780E+02 -0.41867112504E+02 -0.17535184709E+03  0.20430608086E+03  0.00000000000E+00 0. -1.
         11    1    1    2    0    0 -0.37323870486E+02  0.43374039377E+02 -0.86252137273E+02  0.10350753491E+03  0.00000000000E+00 0.  1.
</event>
<event>
 7    1  0.3001243E-009  0.1048405E+03  0.7561462E-02  0.1270434E+00
         -2   -1    0    0    0  501 -0.00000000000E+00  0.00000000000E+00  0.36296057388E+02  0.36296057388E+02  0.00000000000E+00 0.  1.
          2   -1    0    0  501    0  0.00000000000E+00 -0.00000000000E+00 -0.44169701646E+03  0.44169701646E+03  0.00000000000E+00 0. -1.
         25    2    1    2    0    0  0.49169130341E+02 -0.40762688834E+02 -0.19920056247E+03  0.24373613701E+03  0.12508892923E+03 0.  0.
          5    1    3    3  502    0  0.58435484683E+02 -0.71201414364E+02 -0.86042468287E+02  0.12611552651E+03  0.41800000000E+01 0.  1.
         -5    1    3    3    0  502 -0.92663543417E+01  0.30438725530E+02 -0.11315809418E+03  0.11762061050E+03  0.41800000000E+01 0.  1.
        -11    1    1    2    0    0 -0.54239686844E+02  0.11192259696E+02 -0.19420210133E+03  0.20194471141E+03  0.00000000000E+00 0. -1.
         11    1    1    2    0    0  0.50705565025E+01  0.29570429138E+02 -0.11998295266E+02  0.32312225426E+02  0.00000000000E+00 0.  1.
</event>
<event>
 7    1  0.3042698E-009  0.1231303E+03  0.7561462E-02  0.1238021E+00
         -1   -1    0    0    0  501 -0.00000000000E+00  0.00000000000E+00  0.11544009322E+03  0.11544009322E+03  0.00000000000E+00 0.  1.
          1   -1    0    0  501    0  0.00000000000E+00 -0.00000000000E+00 -0.18186683583E+03  0.18186683583E+03  0.00000000000E+00 0. -1.
         25    2    1    2    0    0 -0.19087582815E+02 -0.93808507957E+02 -0.41528776538E+02  0.16289887720E+03  0.12508810068E+03 0.  0.
          5    1    3    3  502    0 -0.29436634017E+02  0.19813246667E+02  0.10776839108E+02  0.37318799912E+02  0.41800000000E+01 0. -1.
         -5    1    3    3    0  502  0.10349051202E+02 -0.11362175462E+03 -0.52305615646E+02  0.12558007729E+03  0.41800000000E+01 0. -1.
        -11    1    1    2    0    0  0.79883001643E+01  0.65023004965E+02  0.29518056663E+02  0.71854852191E+02  0.00000000000E+00 0.  1.
         11    1    1    2    0    0  0.11099282650E+02  0.28785502991E+02 -0.54416022733E+02  0.62553199662E+02  0.00000000000E+00 0. -1.
</event>
<event>
 7    1  0.3001243E-009  0.1872002E+03  0.7561462E-02  0.1161011E+00
          1   -1    0    0  501    0  0.00000000000E+00  0.00000000000E+00  0.14047392558E+03  0.14047392558E+03  0.00000000000E+00 0.  1.
         -1   -1    0    0    0  501 -0.00000000000E+00 -0.00000000000E+00 -0.31529933249E+03  0.31529933249E+03  0.00000000000E+00 0. -1.
         25    2    1    2    0    0 -0.15350512990E+03 -0.67021211757E+02 -0.17767498436E+02  0.20979327637E+03  0.12506745012E+03 0.  0.
          5    1    3    3  502    0 -0.11976682583E+03 -0.86031967903E+02  0.27511043101E+02  0.15006639185E+03  0.41800000000E+01 0. -1.
         -5    1    3    3    0  502 -0.33738304074E+02  0.19010756147E+02 -0.45278541537E+02  0.59726884522E+02  0.41800000000E+01 0. -1.
        -11    1    1    2    0    0  0.14746849128E+03  0.84133722869E+02 -0.14985989060E+03  0.22645844223E+03  0.00000000000E+00 0. -1.
         11    1    1    2    0    0  0.60366386191E+01 -0.17112511112E+02 -0.71980178742E+01  0.19521539481E+02  0.00000000000E+00 0.  1.
</event>
<event>
 7    1  0.3001243E-009  0.1522177E+03  0.7561462E-02  0.1197774E+00
          1   -1    0    0  501    0  0.00000000000E+00  0.00000000000E+00  0.43759753120E+03  0.43759753120E+03  0.00000000000E+00 0. -1.
         -1   -1    0    0    0  501 -0.00000000000E+00 -0.00000000000E+00 -0.57686512808E+02  0.57686512808E+02  0.00000000000E+00 0.  1.
         25    2    1    2    0    0  0.16168503861E+02  0.11246943241E+03  0.26236836890E+03  0.31207958785E+03  0.12508283019E+03 0.  0.
          5    1    3    3  502    0  0.50011340615E+02 -0.25822775720E+00  0.94786966679E+02  0.10725316930E+03  0.41800000000E+01 0.  1.
         -5    1    3    3    0  502 -0.33842836755E+02  0.11272766017E+03  0.16758140222E+03  0.20482641855E+03  0.41800000000E+01 0.  1.
        -11    1    1    2    0    0  0.90493970626E+01 -0.11083723454E+03  0.11094965664E+03  0.15708790678E+03  0.00000000000E+00 0.  1.
         11    1    1    2    0    0 -0.25217900923E+02 -0.16321978719E+01  0.65929928479E+01  0.26116549381E+02  0.00000000000E+00 0. -1.
</event>
<event>
 7    1  0.3001243E-009  0.8851960E+02  0.7561462E-02  0.1306477E+00
         -1   -1    0    0    0  501 -0.00000000000E+00  0.00000000000E+00  0.13090170366E+02  0.13090170366E+02  0.00000000000E+00 0.  1.
          1   -1    0    0  501    0  0.00000000000E+00 -0.00000000000E+00 -0.98787493535E+03  0.98787493535E+03  0.00000000000E+00 0. -1.
         25    2    1    2    0    0 -0.16397417210E+02 -0.29545917653E+02 -0.66550534095E+03  0.67800088327E+03  0.12508398119E+03 0.  0.
          5    1    3    3  502    0  0.13295251343E+01  0.25605893330E+02 -0.52919437654E+03  0.52983166191E+03  0.41800000000E+01 0. -1.
         -5    1    3    3    0  502 -0.17726942344E+02 -0.55151810984E+02 -0.13631096441E+03  0.14816922136E+03  0.41800000000E+01 0. -1.
        -11    1    1    2    0    0 -0.15980476602E+02  0.51458724776E+02 -0.17466820498E+03  0.18279047519E+03  0.00000000000E+00 0. -1.
         11    1    1    2    0    0  0.32377893812E+02 -0.21912807123E+02 -0.13461121906E+03  0.14017374726E+03  0.00000000000E+00 0.  1.
</event>
<event>
 7    1  0.3522148E-009  0.1343562E+03  0.7561462E-02  0.1221131E+00
         -1   -1    0    0    0  501 -0.00000000000E+00  0.00000000000E+00  0.53116643349E+02  0.53116643349E+02  0.00000000000E+00 0.  1.
          1   -1    0    0  501    0  0.00000000000E+00 -0.00000000000E+00 -0.49165343603E+03  0.49165343603E+03  0.00000000000E+00 0. -1.
         25    2    1    2    0    0 -0.79770614335E+02  0.88263300274E+02 -0.24596164330E+03  0.30049189896E+03  0.12507793683E+03 0.  0.
          5    1    3    3  502    0 -0.78444785254E+02  0.52616689700E+02 -0.62016961562E+02  0.11307376482E+03  0.41800000000E+01 0.  1.
         -5    1    3    3    0  502 -0.13258290810E+01  0.35646610575E+02 -0.18394468173E+03  0.18741813414E+03  0.41800000000E+01 0.  1.
        -11    1    1    2    0    0  0.59340141296E+02 -0.13652751808E+02 -0.38968821261E+02  0.72292593199E+02  0.00000000000E+00 0.  1.
         11    1    1    2    0    0  0.20430473039E+02 -0.74610548466E+02 -0.15360632813E+03  0.17198558722E+03  0.00000000000E+00 0. -1.
</event>
<event>
 7    1  0.3001243E-009  0.1086407E+03  0.7561462E-02  0.1263108E+00
         -2   -1    0    0    0  501 -0.00000000000E+00  0.00000000000E+00  0.19802653212E+03  0.19802653212E+03  0.00000000000E+00 0.  1.
          2   -1    0    0  501    0  0.00000000000E+00 -0.00000000000E+00 -0.10919121103E+03  0.10919121103E+03  0.00000000000E+00 0. -1.
         25    2    1    2    0    0 -0.73845259890E+02 -0.19720685929E+02  0.10416002151E+03  0.17983112162E+03  0.12509154392E+03 0.  0.
          5    1    3    3  502    0 -0.54787859936E+02  0.14159626752E+02  0.12372242925E+03  0.13611361624E+03  0.41800000000E+01 0. -1.
         -5    1    3    3    0  502 -0.19057399954E+02 -0.33880312681E+02 -0.19562407736E+02  0.43717505382E+02  0.41800000000E+01 0. -1.
        -11    1    1    2    0    0 -0.31380761596E+01  0.41357631718E+02 -0.22345411076E+02  0.47112828608E+02  0.00000000000E+00 0.  1.
         11    1    1    2    0    0  0.76983336050E+02 -0.21636945789E+02  0.70207106533E+01  0.80273792924E+02  0.00000000000E+00 0. -1.
</event>
<event>
 7    1  0.3102304E-009  0.1175120E+03  0.7561462E-02  0.1247259E+00
         -2   -1    0    0    0  501 -0.00000000000E+00  0.00000000000E+00  0.34532302253E+02  0.34532302253E+02  0.00000000000E+00 0.  1.
          2   -1    0    0  501    0  0.00000000000E+00 -0.00000000000E+00 -0.48762948009E+03  0.48762948009E+03  0.00000000000E+00 0. -1.
         25    2    1    2    0    0  0.69105108976E+02 -0.98100359968E+01 -0.22096335458E+03  0.26333372692E+03  0.12509234499E+03 0.  0.
          5    1    3    3  502    0 -0.21125080107E+02 -0.33972102162E+02 -0.28302790524E+02  0.49182243608E+02  0.41800000000E+01 0.  1.
         -5    1    3    3    0  502  0.90230189083E+02  0.24162066166E+02 -0.19266056405E+03  0.21415148331E+03  0.41800000000E+01 0.  1.
        -11    1    1    2    0    0 -0.31545475382E+02  0.41519378526E+02 -0.58478811580E+02  0.78350157716E+02  0.00000000000E+00 0.  1.
         11    1    1    2    0    0 -0.37559633594E+02 -0.31709342530E+02 -0.17365501168E+03  0.18047789770E+03  0.00000000000E+00 0. -1.
</event>
<event>
 7    1  0.3001243E-009  0.1874768E+03  0.7561462E-02  0.1160757E+00
          2   -1    0    0  501    0  0.00000000000E+00  0.00000000000E+00  0.10801524821E+04  0.10801524821E+04  0.00000000000E+00 0. -1.
         -2   -1    0    0    0  501 -0.00000000000E+00 -0.00000000000E+00 -0.45505601901E+02  0.45505601901E+02  0.00000000000E+00 0.  1.
         25    2    1    2    0    0 -0.97644549745E+02  0.15489069280E+03  0.69451556531E+03  0.72905767365E+03  0.12509051219E+03 0.  0.
          5    1    3    3  502    0 -0.77886120509E+02  0.72017701204E+02  0.55856114017E+03  0.56856030178E+03  0.41800000000E+01 0.  1.
         -5    1    3    3    0  502 -0.19758429236E+02  0.82872991593E+02  0.13595442514E+03  0.16049737187E+03  0.41800000000E+01 0.  1.
        -11    1    1    2    0    0  0.13227676980E+02 -0.29560129988E+02  0.15142050698E+03  0.15484489871E+03  0.00000000000E+00 0. -1.
         11    1    1    2    0    0  0.84416872765E+02 -0.12533056281E+03  0.18871080787E+03  0.24175551160E+03  0.00000000000E+00 0.  1.
</event>
<event>
 7    1  0.3001243E-009  0.1090769E+03  0.7561462E-02  0.1262289E+00
          1   -1    0    0  501    0  0.00000000000E+00  0.00000000000E+00  0.12228390101E+03  0.12228390101E+03  0.00000000000E+00 0. -1.
         -1   -1    0    0    0  501 -0.00000000000E+00 -0.00000000000E+00 -0.13466462791E+03  0.13466462791E+03  0.00000000000E+00 0.  1.
         25    2    1    2    0    0 -0.66004958716E+02 -0.38940139025E+01  0.94286869081E+01  0.14180546926E+03  0.12509225818E+03 0.  0.
          5    1    3    3  502    0 -0.68782512555E+02 -0.54354680344E+02 -0.81295716933E+01  0.88142087816E+02  0.41800000000E+01 0. -1.
         -5    1    3    3    0  502  0.27775538397E+01  0.50460666441E+02  0.17558258601E+02  0.53663381445E+02  0.41800000000E+01 0. -1.
        -11    1    1    2    0    0  0.61121546538E+02 -0.12659635135E+02  0.23470341219E+02  0.66685581124E+02  0.00000000000E+00 0. -1.
         11    1    1    2    0    0  0.48834121776E+01  0.16553649037E+02 -0.45279755028E+02  0.48457478539E+02  0.00000000000E+00 0.  1.
</event>
<event>
 7    1  0.3001243E-009  0.1593254E+03  0.7561462E-02  0.1189461E+00
         -1   -1    0    0    0  501 -0.00000000000E+00  0.00000000000E+00  0.41530966106E+02  0.41530966106E+02  0.00000000000E+00 0.  1.
          1   -1    0    0  501    0  0.00000000000E+00 -0.00000000000E+00 -0.67239118893E+03  0.67239118893E+03  0.00000000000E+00 0. -1.
         25    2    1    2    0    0 -0.80239503043E+02 -0.89925042313E+02 -0.42105098477E+03  0.45547310254E+03  0.12508766638E+03 0.  0.
          5    1    3    3  502    0 -0.96549107635E+02 -0.10864333477E+03 -0.38463522371E+03  0.41120169271E+03  0.41800000000E+01 0.  1.
         -5    1    3    3    0  502  0.16309604591E+02  0.18718292456E+02 -0.36415761060E+02  0.44271409826E+02  0.41800000000E+01 0.  1.
        -11    1    1    2    0    0 -0.55926912011E+01  0.55194211541E+02 -0.10380941002E+03  0.11770332532E+03  0.00000000000E+00 0. -1.
         11    1    1    2    0    0  0.85832194244E+02  0.34730830771E+02 -0.10599982804E+03  0.14074572718E+03  0.00000000000E+00 0.  1.
</event>
<event>
 7    1  0.3001243E-009  0.2670676E+03  0.7561462E-02  0.1102970E+00
          3   -1    0    0  501    0  0.00000000000E+00  0.00000000000E+00  0.97194226561E+03  0.97194226561E+03  0.00000000000E+00 0. -1.
         -3   -1    0    0    0  501 -0.00000000000E+00 -0.00000000000E+00 -0.82293214635E+02  0.82293214635E+02  0.00000000000E+00 0.  1.
         25    2    1    2    0    0 -0.21503125716E+03  0.12687247134E+03  0.31358801104E+03  0.41990486165E+03  0.12509031387E+03 0.  0.
          5    1    3    3  502    0 -0.15997775094E+03  0.14990341555E+03  0.25203457243E+03  0.33407007182E+03  0.41800000000E+01 0.  1.
         -5    1    3    3    0  502 -0.55053506221E+02 -0.23030944210E+02  0.61553438618E+02  0.85834789825E+02  0.41800000000E+01 0.  1.
        -11    1    1    2    0    0  0.12432112515E+02 -0.25771715621E+02  0.22988116899E+02  0.36704117837E+02  0.00000000000E+00 0.  1.
         11    1    1    2    0    0  0.20259914465E+03 -0.10110075572E+03  0.55307292303E+03  0.59762650076E+03  0.00000000000E+00 0. -1.
</event>
<event>
 7    1  0.3001243E-009  0.9297570E+02  0.7561462E-02  0.1295802E+00
         -1   -1    0    0    0  501 -0.00000000000E+00  0.00000000000E+00  0.27268748372E+02  0.27268748372E+02  0.00000000000E+00 0.  1.
          1   -1    0    0  501    0  0.00000000000E+00 -0.00000000000E+00 -0.79967781775E+03  0.79967781775E+03  0.00000000000E+00 0. -1.
         25    2    1    2    0    0  0.25473138901E+02  0.51102785069E+02 -0.65040859794E+03  0.66478631256E+03  0.12509644936E+03 0.  0.
          5    1    3    3  502    0  0.57692828483E+02  0.59408550919E+02 -0.25912102008E+03  0.27206435604E+03  0.41800000000E+01 0.  1.
         -5    1    3    3    0  502 -0.32219689582E+02 -0.83057658490E+01 -0.39128757786E+03  0.39272195651E+03  0.41800000000E+01 0.  1.
        -11    1    1    2    0    0  0.58941650718E+01 -0.32500874166E+02  0.18199049250E+01  0.33081113303E+02  0.00000000000E+00 0.  1.
         11    1    1    2    0    0 -0.31367303973E+02 -0.18601910903E+02 -0.12382037637E+03  0.12907914027E+03  0.00000000000E+00 0. -1.
</event>
<event>
 7    1  0.3001243E-009  0.1072960E+03  0.7561462E-02  0.1265661E+00
          2   -1    0    0  501    0  0.00000000000E+00  0.00000000000E+00  0.39949887355E+03  0.39949887355E+03  0.00000000000E+00 0. -1.
         -2   -1    0    0    0  501 -0.00000000000E+00 -0.00000000000E+00 -0.42459601988E+02  0.42459601988E+02  0.00000000000E+00 0.  1.
         25    2    1    2    0    0  0.31249032995E+02 -0.23528111551E+02  0.29468623906E+03  0.32251696505E+03  0.12508852528E+03 0.  0.
          5    1    3    3  502    0  0.77611144154E+02 -0.29392136238E+02  0.16812499186E+03  0.18753898970E+03  0.41800000000E+01 0. -1.
         -5    1    3    3    0  502 -0.46362111159E+02  0.58640246878E+01  0.12656124719E+03  0.13497797534E+03  0.41800000000E+01 0. -1.
        -11    1    1    2    0    0 -0.24065312065E+02  0.50887893906E+02  0.62839887148E+01  0.56641023165E+02  0.00000000000E+00 0.  1.
         11    1    1    2    0    0 -0.71837209294E+01 -0.27359782355E+02  0.56069043787E+02  0.62800487324E+02  0.00000000000E+00 0. -1.
</event>
<event>
 7    1  0.3001243E-009  0.1432313E+03  0.7561462E-02  0.1209046E+00
         -4   -1    0    0    0  501 -0.00000000000E+00  0.00000000000E+00  0.10398768155E+03  0.10398768155E+03  0.00000000000E+00 0.  1.
          4   -1    0    0  501    0  0.00000000000E+00 -0.00000000000E+00 -0.19929893767E+03  0.19929893767E+03  0.00000000000E+00 0. -1.
         25    2    1    2    0    0  0.10627033656E+02 -0.94478086693E+02 -0.54981280295E+02  0.16647090887E+03  0.12510227659E+03 0.  0.
          5    1    3    3  502    0 -0.28001970372E+01 -0.12343389419E+03 -0.34299891239E+02  0.12820968091E+03  0.41800000000E+01 0. -1.
         -5    1    3    3    0  502  0.13427230694E+02  0.28955807501E+02 -0.20681389055E+02  0.38261227965E+02  0.41800000000E+01 0. -1.
        -11    1    1    2    0    0  0.34840697448E+02  0.72063189239E+02 -0.24555349825E+02  0.83725400250E+02  0.00000000000E+00 0.  1.
         11    1    1    2    0    0 -0.45467731105E+02  0.22414897454E+02 -0.15774626000E+02  0.53090310087E+02  0.00000000000E+00 0. -1.
</event>
<event>
 7    1  0.3001243E-009  0.8866811E+02  0.7561462E-02  0.1306109E+00
         -3   -1    0    0    0  501 -0.00000000000E+00  0.00000000000E+00  0.10636365407E+03  0.10636365407E+03  0.00000000000E+00 0.  1.
          3   -1    0    0  501    0  0.00000000000E+00 -0.00000000000E+00 -0.13349375632E+03  0.13349375632E+03  0.00000000000E+00 0. -1.
         25    2    1    2    0    0 -0.21199276356E+02 -0.14254533444E+02 -0.61423545341E+02  0.14168007237E+03  0.12509112655E+03 0.  0.
          5    1    3    3  502    0 -0.34572928160E+00 -0.68161949749E+02 -0.43712226079E+02  0.81082686383E+02  0.41800000000E+01 0. -1.
         -5    1    3    3    0  502 -0.20853547074E+02  0.53907416305E+02 -0.17711319262E+02  0.60597385986E+02  0.41800000000E+01 0. -1.
        -11    1    1    2    0    0  0.34067595855E+02  0.16786845977E+02  0.59022400494E+02  0.70185775234E+02  0.00000000000E+00 0.  1.
         11    1    1    2    0    0 -0.12868319499E+02 -0.25323125331E+01 -0.24728957402E+02  0.27991562794E+02  0.00000000000E+00 0. -1.
</event>
<event>
 7    1  0.3001243E-009  0.8367400E+02  0.7561462E-02  0.1318937E+00
          4   -1    0    0  501    0  0.00000000000E+00  0.00000000000E+00  0.16585974415E+02  0.16585974415E+02  0.00000000000E+00 0. -1.
         -4   -1    0    0    0  501 -0.00000000000E+00 -0.00000000000E+00 -0.79576143134E+03  0.79576143134E+03  0.00000000000E+00 0.  1.
         25    2    1    2    0    0  0.26809044282E+02 -0.27285544766E+02 -0.43529490419E+03  0.45453181031E+03  0.12511709379E+03 0.  0.
          5    1    3    3  502    0  0.65477008923E+00 -0.47898018586E+02 -0.56238411472E+02  0.73992433622E+02  0.41800000000E+01 0. -1.
         -5    1    3    3    0  502  0.26154274193E+02  0.20612473820E+02 -0.37905649272E+03  0.38053937669E+03  0.41800000000E+01 0. -1.
        -11    1    1    2    0    0 -0.51972556066E+02  0.30614262371E+02 -0.30808248953E+03  0.31393183974E+03  0.00000000000E+00 0.  1.
         11    1    1    2    0    0  0.25163511784E+02 -0.33287176053E+01 -0.35798063195E+02  0.43883755705E+02  0.00000000000E+00 0. -1.
</event>
<event>
 7    1  0.3001243E-009  0.1687368E+03  0.7561462E-02  0.1179172E+00
          1   -1    0    0  501    0  0.00000000000E+00  0.00000000000E+00  0.33961569451E+03  0.33961569451E+03  0.00000000000E+00 0. -1.
         -1   -1    0    0    0  501 -0.00000000000E+00 -0.00000000000E+00 -0.14562297301E+03  0.14562297301E+03  0.00000000000E+00 0.  1.
         25    2    1    2    0    0 -0.50649819707E+02 -0.11941578731E+03 -0.56420713683E+02  0.18882898225E+03  0.12509017990E+03 0.  0.
          5    1    3    3  502    0  0.40895602509E+02 -0.22672718082E+02 -0.14648103163E+02  0.49178671963E+02  0.41800000000E+01 0.  1.
         -5    1    3    3    0  502 -0.91545422216E+02 -0.96743069233E+02 -0.41772610520E+02  0.13965031029E+03  0.41800000000E+01 0.  1.
        -11    1    1    2    0    0  0.20835883253E+02 -0.10950897497E+02  0.52671879936E+02  0.57692140911E+02  0.00000000000E+00 0. -1.
         11    1    1    2    0    0  0.29813936454E+02  0.13036668481E+03  0.19774155525E+03  0.23871754437E+03  0.00000000000E+00 0.  1.
</event>
<event>
 7    1  0.3001243E-009  0.9817409E+02  0.7561462E-02  0.1284183E+00
          2   -1    0    0  501    0  0.00000000000E+00  0.00000000000E+00  0.28609696850E+03  0.28609696850E+03  0.00000000000E+00 0. -1.
         -2   -1    0    0    0  501 -0.00000000000E+00 -0.00000000000E+00 -0.55137145658E+02  0.55137145658E+02  0.00000000000E+00 0.  1.
         25    2    1    2    0    0  0.38885229315E+02 -0.35523354583E+02  0.17659086492E+03  0.22272355730E+03  0.12508988619E+03 0.  0.
          5    1    3    3  502    0 -0.22197988462E+02 -0.14015155433E+02  0.15042035338E+03  0.15275120420E+03  0.41800000000E+01 0. -1.
         -5    1    3    3    0  502  0.61083217777E+02 -0.21508199150E+02  0.26170511536E+02  0.69972353103E+02  0.41800000000E+01 0. -1.
        -11    1    1    2    0    0 -0.38812297110E+02  0.64832423524E+02  0.43892418098E+02  0.87385249977E+02  0.00000000000E+00 0. -1.
         11    1    1    2    0    0 -0.72932204493E-01 -0.29309068941E+02  0.10476539822E+02  0.31125306873E+02  0.00000000000E+00 0.  1.
</event>
<event>
 7    1  0.3001243E-009  0.1647815E+03  0.7561462E-02  0.1183402E+00
          2   -1    0    0  501    0  0.00000000000E+00  0.00000000000E+00  0.34523858326E+03  0.34523858326E+03  0.00000000000E+00 0. -1.
         -2   -1    0    0    0  501 -0.00000000000E+00 -0.00000000000E+00 -0.88519237408E+02  0.88519237408E+02  0.00000000000E+00 0.  1.
         25    2    1    2    0    0  0.99524048636E+02 -0.84276024435E+02  0.88161137519E+02  0.20106706163E+03  0.12509233610E+03 0.  0.
          5    1    3    3  502    0 -0.33857206933E+01  0.24995837875E+02  0.31502807879E+02  0.40572827359E+02  0.41800000000E+01 0. -1.
         -5    1    3    3    0  502  0.10290976933E+03 -0.10927186231E+03  0.56658329640E+02  0.16049423427E+03  0.41800000000E+01 0. -1.
        -11    1    1    2    0    0 -0.12793084080E+02 -0.16497934271E+02  0.42129783246E+01  0.21297746872E+02  0.00000000000E+00 0.  1.
         11    1    1    2    0    0 -0.86730964556E+02  0.10077395871E+03  0.16434523001E+03  0.21139301217E+03  0.00000000000E+00 0. -1.
</event>
<event>
 7    1  0.3001243E-009  0.1013550E+03  0.7561462E-02  0.1277472E+00
          1   -1    0    0  501    0  0.00000000000E+00  0.00000000000E+00  0.35579492218E+03  0.35579492218E+03  0.00000000000E+00 0. -1.
         -1   -1    0    0    0  501 -0.00000000000E+00 -0.00000000000E+00 -0.43449417240E+02  0.43449417240E+02  0.00000000000E+00 0.  1.
         25    2    1    2    0    0  0.54096700505E+02 -0.14191963754E+02  0.21995054907E+03  0.25913958130E+03  0.12508882331E+03 0.  0.
          5    1    3    3  502    0  0.42693048653E+02 -0.46268128373E+02  0.21550823650E+03  0.22455446668E+03  0.41800000000E+01 0.  1.
         -5    1    3    3    0  502  0.11403651852E+02  0.32076164619E+02  0.44423125738E+01  0.34585114619E+02  0.41800000000E+01 0.  1.
        -11    1    1    2    0    0 -0.30485637660E+01  0.45388706632E+02  0.39301215885E+02  0.60116669907E+02  0.00000000000E+00 0. -1.
         11    1    1    2    0    0 -0.51048136739E+02 -0.31196742878E+02  0.53093739984E+02  0.79988088215E+02  0.00000000000E+00 0.  1.
</event>
<event>
 7    1  0.3001243E-009  0.8675191E+02  0.7561462E-02  0.1310914E+00
         -1   -1    0    0    0  501 -0.00000000000E+00  0.00000000000E+00  0.73565573792E+02  0.73565573792E+02  0.00000000000E+00 0.  1.
          1   -1    0    0  501    0  0.00000000000E+00 -0.00000000000E+00 -0.16073510832E+03  0.16073510832E+03  0.00000000000E+00 0. -1.
         25    2    1    2    0    0 -0.11397025774E+02 -0.79403978291E+01 -0.57469204432E+02  0.13835851548E+03  0.12508967677E+03 0.  0.
          5    1    3    3  502    0 -0.52562478046E+01  0.39596759024E+02  0.21749478930E+02  0.45673227387E+02  0.41800000000E+01 0. -1.
         -5    1    3    3    0  502 -0.61407779690E+01 -0.47537156853E+02 -0.79218683362E+02  0.92685288095E+02  0.41800000000E+01 0. -1.
        -11    1    1    2    0    0 -0.69591564188E+01  0.44115862287E+02 -0.32567813009E+02  0.55274782746E+02  0.00000000000E+00 0. -1.
         11    1    1    2    0    0  0.18356182192E+02 -0.36175464458E+02  0.28674829156E+01  0.40667383881E+02  0.00000000000E+00 0.  1.
</event>
<event>
 7    1  0.3001243E-009  0.1150123E+03  0.7561462E-02  0.1251560E+00
         -2   -1    0    0    0  501 -0.00000000000E+00  0.00000000000E+00  0.12227482959E+03  0.12227482959E+03  0.00000000000E+00 0.  1.
          2   -1    0    0  501    0  0.00000000000E+00 -0.00000000000E+00 -0.12504278426E+03  0.12504278426E+03  0.00000000000E+00 0. -1.
         25    2    1    2    0    0 -0.20982695180E+02  0.40672931437E+02 -0.36319944444E+02  0.13806728296E+03  0.12509546519E+03 0.  0.
          5    1    3    3  502    0  0.23221275119E+02  0.72954252944E+02 -0.10458345289E+02  0.77384753195E+02  0.41800000000E+01 0.  1.
         -5    1    3    3    0  502 -0.44203970299E+02 -0.32281321507E+02 -0.25861599155E+02  0.60682529770E+02  0.41800000000E+01 0.  1.
        -11    1    1    2    0    0  0.46688647164E+02 -0.52414587414E+02  0.39248708046E+02  0.80421264794E+02  0.00000000000E+00 0.  1.
         11    1    1    2    0    0 -0.25705951985E+02  0.11741655977E+02 -0.56967182798E+01  0.28829066091E+02  0.00000000000E+00 0. -1.
</event>
<event>
 7    1  0.3001243E-009  0.3937583E+03  0.7561462E-02  0.1045963E+00
         -2   -1    0    0    0  501 -0.00000000000E+00  0.00000000000E+00  0.34453172813E+03  0.34453172813E+03  0.00000000000E+00 0.  1.
          2   -1    0    0  501    0  0.00000000000E+00 -0.00000000000E+00 -0.50438995229E+03  0.50438995229E+03  0.00000000000E+00 0. -1.
         25    2    1    2    0    0  0.22872044352E+03 -0.31350399084E+03  0.27653082164E+02  0.40866625196E+03  0.12508244872E+03 0.  0.
          5    1    3    3  502    0  0.17823002983E+03 -0.29184702217E+03  0.56254400119E+02  0.34658715761E+03  0.41800000000E+01 0.  1.
         -5    1    3    3    0  502  0.50490413692E+02 -0.21656968665E+02 -0.28601317955E+02  0.62079094350E+02  0.41800000000E+01 0.  1.
        -11    1    1    2    0    0 -0.14766178139E+03  0.16641102638E+03 -0.63124259207E+02  0.23126025055E+03  0.00000000000E+00 0.  1.
         11    1    1    2    0    0 -0.81058662129E+02  0.14709296446E+03 -0.12438704712E+03  0.20899517791E+03  0.00000000000E+00 0. -1.
</event>
<event>
 7    1  0.3001243E-009  0.1012696E+03  0.7561462E-02  0.1277649E+00
         -4   -1    0    0    0  501 -0.00000000000E+00  0.00000000000E+00  0.41933490748E+03  0.41933490748E+03  0.00000000000E+00 0. -1.
          4   -1    0    0  501    0  0.00000000000E+00 -0.00000000000E+00 -0.39317343605E+02  0.39317343605E+02  0.00000000000E+00 0.  1.
         25    2    1    2    0    0 -0.20377932143E+02 -0.46195128239E+02  0.28839364006E+03  0.31838304842E+03  0.12509046288E+03 0.  0.
          5    1    3    3  502    0  0.41752613325E+02 -0.54226386907E+02  0.18642554481E+03  0.19863468457E+03  0.41800000000E+01 0.  1.
         -5    1    3    3    0  502 -0.62130545468E+02  0.80312586676E+01  0.10196809525E+03  0.11974836385E+03  0.41800000000E+01 0.  1.
        -11    1    1    2    0    0  0.36010504379E+02  0.21442683547E+02 -0.22149901542E+01  0.41969647184E+02  0.00000000000E+00 0.  1.
         11    1    1    2    0    0 -0.15632572236E+02  0.24752444693E+02  0.93838913966E+02  0.98299555478E+02  0.00000000000E+00 0. -1.
</event>
<event>
 7    1  0.3001243E-009  0.1105753E+03  0.7561462E-02  0.1259508E+00
          2   -1    0    0  501    0  0.00000000000E+00  0.00000000000E+00  0.76549711635E+03  0.76549711635E+03  0.00000000000E+00 0. -1.
         -2   -1    0    0    0  501 -0.00000000000E+00 -0.00000000000E+00 -0.18529848965E+02  0.18529848965E+02  0.00000000000E+00 0.  1.
         25    2    1    2    0    0 -0.30428162998E+02  0.39979527764E+02  0.43038708959E+03  0.45100361303E+03  0.12508787445E+03 0.  0.
          5    1    3    3  502    0 -0.58476738040E+02  0.71254794069E+02  0.30911334489E+03  0.32259154818E+03  0.41800000000E+01 0. -1.
         -5    1    3    3    0  502  0.28048575042E+02 -0.31275266305E+02  0.12127374471E+03  0.12841206485E+03  0.41800000000E+01 0. -1.
        -11    1    1    2    0    0  0.12874403628E-01  0.19687849545E+02  0.16886512086E+02  0.25937730739E+02  0.00000000000E+00 0.  1.
         11    1    1    2    0    0  0.30415288594E+02 -0.59667377309E+02  0.29969366571E+03  0.30708562154E+03  0.00000000000E+00 0. -1.
</event>
<event>
 7    1  0.3001243E-009  0.1359164E+03  0.7561462E-02  0.1218932E+00
          2   -1    0    0  501    0  0.00000000000E+00  0.00000000000E+00  0.50965155025E+03  0.50965155025E+03  0.00000000000E+00 0. -1.
         -2   -1    0    0    0  501 -0.00000000000E+00 -0.00000000000E+00 -0.37708787433E+02  0.37708787433E+02  0.00000000000E+00 0.  1.
         25    2    1    2    0    0 -0.81282797353E+02 -0.23287887940E+02  0.24222412193E+03  0.28542880659E+03  0.12509140464E+03 0.  0.
          5    1    3    3  502    0  0.31798406475E+02 -0.19871172410E+02  0.57467325194E+02  0.68745676317E+02  0.41800000000E+01 0. -1.
         -5    1    3    3    0  502 -0.11308120383E+03 -0.34167155300E+01  0.18475679674E+03  0.21668313027E+03  0.41800000000E+01 0. -1.
        -11    1    1    2    0    0  0.82437293688E+02 -0.13974715267E+02  0.12165687681E+03  0.14761976742E+03  0.00000000000E+00 0.  1.
         11    1    1    2    0    0 -0.11544963351E+01  0.37262603207E+02  0.10806176408E+03  0.11431176368E+03  0.00000000000E+00 0. -1.
</event>
<event>
 7    1  0.3001243E-009  0.8579626E+02  0.7561462E-02  0.1313363E+00
          1   -1    0    0  501    0  0.00000000000E+00  0.00000000000E+00  0.17766550174E+03  0.17766550174E+03  0.00000000000E+00 0. -1.
         -1   -1    0    0    0  501 -0.00000000000E+00 -0.00000000000E+00 -0.67341520950E+02  0.67341520950E+02  0.00000000000E+00 0.  1.
         25    2    1    2    0    0 -0.39092109173E+01 -0.27048749365E+00  0.74159120685E+02  0.14547466483E+03  0.12509175765E+03 0.  0.
          5    1    3    3  502    0 -0.48750683971E+02  0.17921968235E+02  0.81112244976E+02  0.96407960347E+02  0.41800000000E+01 0. -1.
         -5    1    3    3    0  502  0.44841473054E+02 -0.18192455729E+02 -0.69531242916E+01  0.49066704480E+02  0.41800000000E+01 0. -1.
        -11    1    1    2    0    0 -0.31302177392E+02 -0.12145908996E+02 -0.14519286379E+02  0.36580856903E+02  0.00000000000E+00 0.  1.
         11    1    1    2    0    0  0.35211388309E+02  0.12416396489E+02  0.50684146483E+02  0.62951500960E+02  0.00000000000E+00 0. -1.
</event>
<event>
 7    1  0.3001243E-009  0.9487176E+02  0.7561462E-02  0.1291465E+00
         -1   -1    0    0    0  501 -0.00000000000E+00  0.00000000000E+00  0.17792749996E+03  0.17792749996E+03  0.00000000000E+00 0.  1.
          1   -1    0    0  501    0  0.00000000000E+00 -0.00000000000E+00 -0.68526408229E+02  0.68526408229E+02  0.00000000000E+00 0. -1.
         25    2    1    2    0    0  0.37345332566E+01  0.35063234906E+02  0.86002608162E+02  0.15584535531E+03  0.12509176224E+03 0.  0.
          5    1    3    3  502    0  0.89905731994E+01 -0.46746640963E+02  0.34535815317E+02  0.58959933747E+02  0.41800000000E+01 0. -1.
         -5    1    3    3    0  502 -0.52560399428E+01  0.81809875869E+02  0.51466792845E+02  0.96885421563E+02  0.41800000000E+01 0. -1.
        -11    1    1    2    0    0  0.11980119685E+02  0.77482704226E+01  0.39693857624E+02  0.42180105444E+02  0.00000000000E+00 0.  1.
         11    1    1    2    0    0 -0.15714652941E+02 -0.42811505329E+02 -0.16295374054E+02  0.48428447437E+02  0.00000000000E+00 0. -1.
</event>
<event>
 7    1  0.3001243E-009  0.1116400E+03  0.7561462E-02  0.1257563E+00
          3   -1    0    0  501    0  0.00000000000E+00  0.00000000000E+00  0.22782187284E+03  0.22782187284E+03  0.00000000000E+00 0. -1.
         -3   -1    0    0    0  501 -0.00000000000E+00 -0.00000000000E+00 -0.82689920949E+02  0.82689920949E+02  0.00000000000E+00 0.  1.
         25    2    1    2    0    0  0.22046974713E+02  0.63009992696E+02  0.12830357151E+03  0.19122987088E+03  0.12510287280E+03 0.  0.
          5    1    3    3  502    0 -0.42072595904E+02  0.27458396938E+01  0.96586241411E+01  0.43455775014E+02  0.41800000000E+01 0. -1.
         -5    1    3    3    0  502  0.64119570617E+02  0.60264153002E+02  0.11864494737E+03  0.14777409587E+03  0.41800000000E+01 0. -1.
        -11    1    1    2    0    0  0.15961876682E+02 -0.50249221567E+02  0.45782036834E+02  0.69826647292E+02  0.00000000000E+00 0. -1.
         11    1    1    2    0    0 -0.38008851395E+02 -0.12760771129E+02 -0.28953656454E+02  0.49455275616E+02  0.00000000000E+00 0.  1.
</event>
<event>
 7    1  0.3001243E-009  0.1415721E+03  0.7561462E-02  0.1211229E+00
         -2   -1    0    0    0  501 -0.00000000000E+00  0.00000000000E+00  0.23140226048E+02  0.23140226048E+02  0.00000000000E+00 0.  1.
          2   -1    0    0  501    0  0.00000000000E+00 -0.00000000000E+00 -0.11164297068E+04  0.11164297068E+04  0.00000000000E+00 0. -1.
         25    2    1    2    0    0  0.28239596693E+02  0.10723549868E+03 -0.73688646634E+03  0.75561022623E+03  0.12509285637E+03 0.  0.
          5    1    3    3  502    0 -0.91553913670E+01  0.12384946634E+03 -0.50202787182E+03  0.51717692136E+03  0.41800000000E+01 0.  1.
         -5    1    3    3    0  502  0.37394988060E+02 -0.16613967655E+02 -0.23485859452E+03  0.23843330487E+03  0.41800000000E+01 0.  1.
        -11    1    1    2    0    0 -0.30221086243E+02 -0.38287278116E+02 -0.26499491835E+03  0.26944672288E+03  0.00000000000E+00 0.  1.
         11    1    1    2    0    0  0.19814895503E+01 -0.68948220567E+02 -0.91408096106E+02  0.11451298378E+03  0.00000000000E+00 0. -1.
</event>
<event>
 7    1  0.3001243E-009  0.1675576E+03  0.7561462E-02  0.1180419E+00
          2   -1    0    0  501    0  0.00000000000E+00  0.00000000000E+00  0.75788654925E+03  0.75788654925E+03  0.00000000000E+00 0. -1.
         -2   -1    0    0    0  501 -0.00000000000E+00 -0.00000000000E+00 -0.40550023293E+02  0.40550023293E+02  0.00000000000E+00 0.  1.
         25    2    1    2    0    0 -0.10105395187E+03  0.91957168600E+02  0.40589353188E+03  0.44616651287E+03  0.12508787288E+03 0.  0.
          5    1    3    3  502    0 -0.12298205287E+03  0.10234081641E+03  0.36283421762E+03  0.39656571953E+03  0.41800000000E+01 0. -1.
         -5    1    3    3    0  502  0.21928101000E+02 -0.10383647812E+02  0.43059314259E+02  0.49600793338E+02  0.41800000000E+01 0. -1.
        -11    1    1    2    0    0 -0.32891614497E+00 -0.33332038433E+02  0.14482205328E+03  0.14860874835E+03  0.00000000000E+00 0. -1.
         11    1    1    2    0    0  0.10138286802E+03 -0.58625130167E+02  0.16662094080E+03  0.20366131132E+03  0.00000000000E+00 0.  1.
</event>
<event>
 7    1  0.3001243E-009  0.1789971E+03  0.7561462E-02  0.1168777E+00
          2   -1    0    0  501    0  0.00000000000E+00  0.00000000000E+00  0.64128043920E+03  0.64128043920E+03  0.00000000000E+00 0.  1.
         -2   -1    0    0    0  501 -0.00000000000E+00 -0.00000000000E+00 -0.77252199154E+02  0.77252199154E+02  0.00000000000E+00 0. -1.
         25    2    1    2    0    0  0.11212647302E+03 -0.10445413173E+03  0.48349150217E+03  0.52239083941E+03  0.12508055342E+03 0.  0.
          5    1    3    3  502    0  0.13702705229E+03 -0.81675643063E+02  0.35043693853E+03  0.38505953308E+03  0.41800000000E+01 0. -1.
         -5    1    3    3    0  502 -0.24900579268E+02 -0.22778488670E+02  0.13305456364E+03  0.13733130633E+03  0.41800000000E+01 0. -1.
        -11    1    1    2    0    0 -0.72454499013E+02  0.26876201512E+02 -0.30946153913E+00  0.77279236548E+02  0.00000000000E+00 0.  1.
         11    1    1    2    0    0 -0.39671974009E+02  0.77577930221E+02  0.80846199424E+02  0.11886256240E+03  0.00000000000E+00 0. -1.
</event>
<event>
 7    1  0.3001243E-009  0.4864913E+02  0.7561462E-02  0.1452767E+00
         -2   -1    0    0    0  501 -0.00000000000E+00  0.00000000000E+00  0.58708253774E+02  0.58708253774E+02  0.00000000000E+00 0.  1.
          2   -1    0    0  501    0  0.00000000000E+00 -0.00000000000E+00 -0.20938019267E+03  0.20938019267E+03  0.00000000000E+00 0. -1.
         25    2    1    2    0    0 -0.29451007376E+01 -0.12374204174E+02 -0.63643731227E+02  0.14092453355E+03  0.12508958823E+03 0.  0.
          5    1    3    3  502    0  0.11980728263E+02  0.19861032761E+02 -0.92194121704E+02  0.95158956220E+02  0.41800000000E+01 0.  1.
         -5    1    3    3    0  502 -0.14925829000E+02 -0.32235236935E+02  0.28550390478E+02  0.45765577327E+02  0.41800000000E+01 0.  1.
        -11    1    1    2    0    0  0.59423199272E+01 -0.12006955307E+02  0.16217970046E+02  0.21035700470E+02  0.00000000000E+00 0.  1.
         11    1    1    2    0    0 -0.29972191897E+01  0.24381159481E+02 -0.10324617771E+03  0.10612821243E+03  0.00000000000E+00 0. -1.
</event>
<event>
 7    1  0.3001243E-009  0.1040476E+03  0.7561462E-02  0.1272008E+00
          2   -1    0    0  501    0  0.00000000000E+00  0.00000000000E+00  0.86335963340E+02  0.86335963340E+02  0.00000000000E+00 0. -1.
         -2   -1    0    0    0  501 -0.00000000000E+00 -0.00000000000E+00 -0.41903355985E+03  0.41903355985E+03  0.00000000000E+00 0.  1.
         25    2    1    2    0    0 -0.32960048382E+02  0.51272618620E+02 -0.36408368231E+03  0.38976826350E+03  0.12508846988E+03 0.  0.
          5    1    3    3  502    0 -0.44584196410E+02  0.65355459428E+02 -0.11310604838E+03  0.13809249518E+03  0.41800000000E+01 0. -1.
         -5    1    3    3    0  502  0.11624148028E+02 -0.14082840808E+02 -0.25097763394E+03  0.25167576832E+03  0.41800000000E+01 0. -1.
        -11    1    1    2    0    0  0.62061483581E+02 -0.15397092537E+02  0.26252234647E+02  0.69122196339E+02  0.00000000000E+00 0. -1.
         11    1    1    2    0    0 -0.29101435199E+02 -0.35875526083E+02  0.51338511527E+01  0.46479063352E+02  0.00000000000E+00 0.  1.
</event>
<event>
 7    1  0.3001243E-009  0.1399404E+03  0.7561462E-02  0.1213409E+00
         -2   -1    0    0    0  501 -0.00000000000E+00  0.00000000000E+00  0.37860024577E+02  0.37860024577E+02  0.00000000000E+00 0.  1.
          2   -1    0    0  501    0  0.00000000000E+00 -0.00000000000E+00 -0.53764569023E+03  0.53764569023E+03  0.00000000000E+00 0. -1.
         25    2    1    2    0    0 -0.52343638283E+02 -0.75775725149E+02 -0.25328909427E+03  0.29712885008E+03  0.12509345020E+03 0.  0.
          5    1    3    3  502    0  0.29590108335E+02  0.14470478007E+02 -0.48610847391E+02  0.58868124899E+02  0.41800000000E+01 0. -1.
         -5    1    3    3    0  502 -0.81933746618E+02 -0.90246203156E+02 -0.20467824688E+03  0.23826072518E+03  0.41800000000E+01 0. -1.
        -11    1    1    2    0    0  0.74260650438E+02  0.69993534584E+02 -0.16699023299E+03  0.19570252170E+03  0.00000000000E+00 0.  1.
         11    1    1    2    0    0 -0.21917012155E+02  0.57821905651E+01 -0.79506338389E+02  0.82674343019E+02  0.00000000000E+00 0. -1.
</event>
<event>
 7    1  0.3001243E-009  0.1060282E+03  0.7561462E-02  0.1268107E+00
         -1   -1    0    0    0  501 -0.00000000000E+00  0.00000000000E+00  0.32945590509E+02  0.32945590509E+02  0.00000000000E+00 0.  1.
          1   -1    0    0  501    0  0.00000000000E+00 -0.00000000000E+00 -0.44997737754E+03  0.44997737754E+03  0.00000000000E+00 0. -1.
         25    2    1    2    0    0 -0.41384687125E+02  0.35138102827E+02 -0.19418547859E+03  0.23728546169E+03  0.12509600966E+03 0.  0.
          5    1    3    3  502    0 -0.23875556820E+02 -0.36760690895E+02 -0.13631729087E+03  0.14325245826E+03  0.41800000000E+01 0. -1.
         -5    1    3    3    0  502 -0.17509130305E+02  0.71898793722E+02 -0.57868187724E+02  0.94033003426E+02  0.41800000000E+01 0. -1.
        -11    1    1    2    0    0  0.51376027438E+02  0.58587923089E+01 -0.17177467604E+03  0.17938885409E+03  0.00000000000E+00 0. -1.
         11    1    1    2    0    0 -0.99913403135E+01 -0.40996895136E+02 -0.51071632402E+02  0.66248652275E+02  0.00000000000E+00 0.  1.
</event>
<event>
 7    1  0.3001243E-009  0.1393170E+03  0.7561462E-02  0.1214251E+00
          1   -1    0    0  501    0  0.00000000000E+00  0.00000000000E+00  0.24263982564E+03  0.24263982564E+03  0.00000000000E+00 0. -1.
         -1   -1    0    0    0  501 -0.00000000000E+00 -0.00000000000E+00 -0.89721000880E+02  0.89721000880E+02  0.00000000000E+00 0.  1.
         25    2    1    2    0    0 -0.55296704459E+02  0.77310440700E+02  0.11275125150E+03  0.19337691545E+03  0.12508859640E+03 0.  0.
          5    1    3    3  502    0 -0.44831510420E+02  0.10852467033E+03  0.10848342336E+03  0.15991745977E+03  0.41800000000E+01 0.  1.
         -5    1    3    3    0  502 -0.10465194039E+02 -0.31214229626E+02  0.42678281380E+01  0.33459455680E+02  0.41800000000E+01 0.  1.
        -11    1    1    2    0    0  0.30789228260E+02 -0.93594815813E+02  0.13831990489E+02  0.99495176189E+02  0.00000000000E+00 0.  1.
         11    1    1    2    0    0  0.24507476199E+02  0.16284375114E+02  0.26335582773E+02  0.39488734881E+02  0.00000000000E+00 0. -1.
</event>
<event>
 7    1  0.3001243E-009  0.9972146E+02  0.7561462E-02  0.1280883E+00
          2   -1    0    0  501    0  0.00000000000E+00  0.00000000000E+00  0.88987928503E+02  0.88987928503E+02  0.00000000000E+00 0. -1.
         -2   -1    0    0    0  501 -0.00000000000E+00 -0.00000000000E+00 -0.15250181315E+03  0.15250181315E+03  0.00000000000E+00 0.  1.
         25    2    1    2    0    0  0.41382945457E+02  0.28927078667E+01 -0.40513215017E+02  0.13789957019E+03  0.12511616576E+03 0.  0.
          5    1    3    3  502    0  0.26026780901E+02  0.63267526407E+02 -0.28940610716E+02  0.74398955438E+02  0.41800000000E+01 0. -1.
         -5    1    3    3    0  502  0.15356164557E+02 -0.60374818540E+02 -0.11572604302E+02  0.63500614753E+02  0.41800000000E+01 0. -1.
        -11    1    1    2    0    0 -0.40951297999E+02 -0.23926089204E+02  0.23219541828E+02  0.52807325960E+02  0.00000000000E+00 0. -1.
         11    1    1    2    0    0 -0.43164745870E+00  0.21033381338E+02 -0.46220211456E+02  0.50782845500E+02  0.00000000000E+00 0.  1.
</event>
<event>
 7    1  0.3001243E-009  0.1899603E+03  0.7561462E-02  0.1158497E+00
          1   -1    0    0  501    0  0.00000000000E+00  0.00000000000E+00  0.34562146627E+03  0.34562146627E+03  0.00000000000E+00 0. -1.
         -1   -1    0    0    0  501 -0.00000000000E+00 -0.00000000000E+00 -0.24771232772E+03  0.24771232772E+03  0.00000000000E+00 0.  1.
         25    2    1    2    0    0  0.41584814699E+02 -0.16383497787E+03 -0.16501280980E+03  0.26729715587E+03  0.12508934946E+03 0.  0.
          5    1    3    3  502    0  0.77629965966E+02 -0.72665636849E+02 -0.11666387882E+03  0.15790705942E+03  0.41800000000E+01 0. -1.
         -5    1    3    3    0  502 -0.36045151267E+02 -0.91169341026E+02 -0.48348930981E+02  0.10939009644E+03  0.41800000000E+01 0. -1.
        -11    1    1    2    0    0 -0.98442846515E+01  0.12425912613E+03  0.11476668639E+03  0.16943622007E+03  0.00000000000E+00 0.  1.
         11    1    1    2    0    0 -0.31740530047E+02  0.39575851745E+02  0.14815526196E+03  0.15660041806E+03  0.00000000000E+00 0. -1.
</event>
<event>
 7    1  0.3001243E-009  0.9195239E+02  0.7561462E-02  0.1298191E+00
         -3   -1    0    0    0  501 -0.00000000000E+00  0.00000000000E+00  0.12225932629E+03  0.12225932629E+03  0.00000000000E+00 0.  1.
          3   -1    0    0  501    0  0.00000000000E+00 -0.00000000000E+00 -0.13343615840E+03  0.13343615840E+03  0.00000000000E+00 0. -1.
         25    2    1    2    0    0  0.42519016912E+02 -0.50965561644E+02  0.98904615752E+01  0.14195521504E+03  0.12509239215E+03 0.  0.
          5    1    3    3  502    0  0.47873102408E+02 -0.33189280815E+02  0.62780944730E+02  0.85745447205E+02  0.41800000000E+01 0. -1.
         -5    1    3    3    0  502 -0.53540854951E+01 -0.17776280828E+02 -0.52890483155E+02  0.56209767834E+02  0.41800000000E+01 0. -1.
        -11    1    1    2    0    0  0.20892453629E+02  0.35517318849E+02 -0.25271970822E+02  0.48338877378E+02  0.00000000000E+00 0.  1.
         11    1    1    2    0    0 -0.63411470541E+02  0.15448242794E+02  0.42046771438E+01  0.65401392275E+02  0.00000000000E+00 0. -1.
</event>
<event>
 6    1  0.3001243E-009  0.2031872E+03  0.7561462E-02  0.1147078E+00
         -2   -1    0    0    0  501 -0.00000000000E+00  0.00000000000E+00  0.74276327040E+02  0.74276327040E+02  0.00000000000E+00 0.  1.
          2   -1    0    0  501    0  0.00000000000E+00 -0.00000000000E+00 -0.69610224639E+03  0.69610224639E+03  0.00000000000E+00 0. -1.
          5    1    1    2  502    0 -0.81226218562E+01  0.14913681866E+03 -0.82377021574E+02  0.17062008601E+03  0.41800000000E+01 0.  1.
         -5    1    1    2    0  502 -0.24912017906E+02  0.39078359467E+02 -0.14259377119E+03  0.14999394254E+03  0.41800000000E+01 0.  1.
        -11    1    1    2    0    0  0.60720549164E+02 -0.91407363263E+02 -0.23095089626E+03  0.25569631916E+03  0.00000000000E+00 0. -1.
         11    1    1    2    0    0 -0.27685909401E+02 -0.96807814861E+02 -0.16590423032E+03  0.19406822572E+03  0.00000000000E+00 0.  1.
</event>
<event>
 7    1  0.3001243E-009  0.1271625E+03  0.7561462E-02  0.1231728E+00
         -1   -1    0    0    0  501 -0.00000000000E+00  0.00000000000E+00  0.97227034158E+02  0.97227034158E+02  0.00000000000E+00 0.  1.
          1   -1    0    0  501    0  0.00000000000E+00 -0.00000000000E+00 -0.21054632665E+03  0.21054632665E+03  0.00000000000E+00 0. -1.
         25    2    1    2    0    0  0.86259238599E+02 -0.27825700509E+02 -0.91223310062E+02  0.17939759990E+03  0.12508749218E+03 0.  0.
          5    1    3    3  502    0  0.99767566273E+02 -0.58360761475E+02 -0.49528194970E+02  0.12581756736E+03  0.41800000000E+01 0.  1.
         -5    1    3    3    0  502 -0.13508327674E+02  0.30535060966E+02 -0.41695115092E+02  0.53580032543E+02  0.41800000000E+01 0.  1.
        -11    1    1    2    0    0 -0.76961422867E+02  0.42294205430E+02  0.13494220177E+02  0.88847928512E+02  0.00000000000E+00 0.  1.
         11    1    1    2    0    0 -0.92978157316E+01 -0.14468504921E+02 -0.35590202610E+02  0.39527832395E+02  0.00000000000E+00 0. -1.
</event>
<event>
 7    1  0.3001243E-009  0.1178764E+03  0.7561462E-02  0.1246642E+00
          1   -1    0    0  501    0  0.00000000000E+00  0.00000000000E+00  0.11957446802E+04  0.11957446802E+04  0.00000000000E+00 0. -1.
         -1   -1    0    0    0  501 -0.00000000000E+00 -0.00000000000E+00 -0.19225657083E+02  0.19225657083E+02  0.00000000000E+00 0.  1.
         25    2    1    2    0    0 -0.94756992164E+02 -0.44048325671E+02  0.77896486134E+03  0.79583463996E+03  0.12508947360E+03 0.  0.
          5    1    3    3  502    0 -0.23204171880E+02 -0.27738178236E+02  0.61581379403E+03  0.61688892148E+03  0.41800000000E+01 0. -1.
         -5    1    3    3    0  502 -0.71552820284E+02 -0.16310147435E+02  0.16315106730E+03  0.17894571848E+03  0.41800000000E+01 0. -1.
        -11    1    1    2    0    0  0.94575670269E+00  0.31129898948E+02  0.16721100239E+03  0.17008669668E+03  0.00000000000E+00 0.  1.
         11    1    1    2    0    0  0.93811235462E+02  0.12918426723E+02  0.23034315941E+03  0.24904900067E+03  0.00000000000E+00 0. -1.
</event>
<event>
 7    1  0.3001243E-009  0.7761313E+02  0.7561462E-02  0.1335965E+00
         -1   -1    0    0    0  501 -0.00000000000E+00  0.00000000000E+00  0.10794279201E+03  0.10794279201E+03  0.00000000000E+00 0.  1.
          1   -1    0    0  501    0  0.00000000000E+00 -0.00000000000E+00 -0.10712217014E+03  0.10712217014E+03  0.00000000000E+00 0. -1.
         25    2    1    2    0    0  0.15564334156E+01 -0.52687127313E+01 -0.68551269528E+01  0.12537398577E+03  0.12506582956E+03 0.  0.
          5    1    3    3  502    0  0.13611548510E+02 -0.59092394516E+02  0.19859187054E+02  0.63945641391E+02  0.41800000000E+01 0. -1.
         -5    1    3    3    0  502 -0.12055115094E+02  0.53823681785E+02 -0.26714314007E+02  0.61428344383E+02  0.41800000000E+01 0. -1.
        -11    1    1    2    0    0 -0.18360028493E+02  0.10964158633E+02  0.44191084333E+02  0.49093333105E+02  0.00000000000E+00 0.  1.
         11    1    1    2    0    0  0.16803595077E+02 -0.56954459019E+01 -0.36515335513E+02  0.40597643271E+02  0.00000000000E+00 0. -1.
</event>
<event>
 7    1  0.3001243E-009  0.1779017E+03  0.7561462E-02  0.1169849E+00
         -2   -1    0    0    0  501 -0.00000000000E+00  0.00000000000E+00  0.86937281264E+02  0.86937281264E+02  0.00000000000E+00 0.  1.
          2   -1    0    0  501    0  0.00000000000E+00 -0.00000000000E+00 -0.49757834921E+03  0.49757834921E+03  0.00000000000E+00 0. -1.
         25    2    1    2    0    0  0.17320083639E+03 -0.25356272994E+01 -0.26418007721E+03  0.33977129164E+03  0.12509379799E+03 0.  0.
          5    1    3    3  502    0  0.10954381473E+03  0.15444374040E+02 -0.61742205645E+02  0.12675941145E+03  0.41800000000E+01 0. -1.
         -5    1    3    3    0  502  0.63657021662E+02 -0.17980001339E+02 -0.20243787157E+03  0.21301188018E+03  0.41800000000E+01 0. -1.
        -11    1    1    2    0    0 -0.15029959000E+03 -0.13433388042E+02 -0.76006692400E+02  0.16895987677E+03  0.00000000000E+00 0. -1.
         11    1    1    2    0    0 -0.22901246390E+02  0.15969015342E+02 -0.70454298340E+02  0.75784462073E+02  0.00000000000E+00 0.  1.
</event>
<event>
 7    1  0.3001243E-009  0.1286742E+03  0.7561462E-02  0.1229436E+00
         -1   -1    0    0    0  501 -0.00000000000E+00  0.00000000000E+00  0.28450179258E+02  0.28450179258E+02  0.00000000000E+00 0.  1.
          1   -1    0    0  501    0  0.00000000000E+00 -0.00000000000E+00 -0.79599989386E+03  0.79599989386E+03  0.00000000000E+00 0. -1.
         25    2    1    2    0    0 -0.77552461974E+02 -0.45503404823E+02 -0.55974292766E+03  0.58055558396E+03  0.12509075422E+03 0.  0.
          5    1    3    3  502    0 -0.42950903643E+02 -0.74012071769E+02 -0.19431187105E+03  0.21236087804E+03  0.41800000000E+01 0. -1.
         -5    1    3    3    0  502 -0.34601558331E+02  0.28508666945E+02 -0.36543105662E+03  0.36819470592E+03  0.41800000000E+01 0. -1.
        -11    1    1    2    0    0  0.51833860669E+02  0.72654034593E+02 -0.13164720760E+03  0.15904824778E+03  0.00000000000E+00 0.  1.
         11    1    1    2    0    0  0.25718601305E+02 -0.27150629770E+02 -0.76159579342E+02  0.84846241375E+02  0.00000000000E+00 0. -1.
</event>
<event>
 7    1  0.3001243E-009  0.1314453E+03  0.7561462E-02  0.1225327E+00
         -2   -1    0    0    0  501 -0.00000000000E+00  0.00000000000E+00  0.83132373910E+02  0.83132373910E+02  0.00000000000E+00 0. -1.
          2   -1    0    0  501    0  0.00000000000E+00 -0.00000000000E+00 -0.21741243810E+03  0.21741243810E+03  0.00000000000E+00 0.  1.
         25    2    1    2    0    0  0.52522893654E+02 -0.54755506767E+02 -0.98601024951E+02  0.17642609190E+03  0.12508870413E+03 0.  0.
          5    1    3    3  502    0  0.80407912778E+02  0.23018132119E+01 -0.40096188391E+02  0.89977261044E+02  0.41800000000E+01 0. -1.
         -5    1    3    3    0  502 -0.27885019124E+02 -0.57057319979E+02 -0.58504836560E+02  0.86448830852E+02  0.41800000000E+01 0. -1.
        -11    1    1    2    0    0 -0.76670422114E+02  0.55317303882E+02 -0.25611501611E+02  0.97950532161E+02  0.00000000000E+00 0.  1.
         11    1    1    2    0    0  0.24147528460E+02 -0.56179711469E+00 -0.10067537624E+02  0.26168187949E+02  0.00000000000E+00 0. -1.
</event>
<event>
 7    1  0.3001243E-009  0.1272971E+03  0.7561462E-02  0.1231522E+00
         -1   -1    0    0    0  501 -0.00000000000E+00  0.00000000000E+00  0.12684327924E+03  0.12684327924E+03  0.00000000000E+00 0.  1.
          1   -1    0    0  501    0  0.00000000000E+00 -0.00000000000E+00 -0.24373835798E+03  0.24373835798E+03  0.00000000000E+00 0. -1.
         25    2    1    2    0    0  0.60187267825E+02  0.43185773206E+02 -0.15062501011E+03  0.20933262246E+03  0.12507891484E+03 0.  0.
          5    1    3    3  502    0 -0.14262459063E+02  0.74197266620E+01 -0.11999862404E+03  0.12114294141E+03  0.41800000000E+01 0. -1.
         -5    1    3    3    0  502  0.74449726889E+02  0.35766046544E+02 -0.30626386075E+02  0.88189681047E+02  0.41800000000E+01 0. -1.
        -11    1    1    2    0    0 -0.91593005495E+02  0.11406500865E+02  0.33721926069E+02  0.98267773025E+02  0.00000000000E+00 0. -1.
         11    1    1    2    0    0  0.31405737669E+02 -0.54592274071E+02  0.80053106240E-02  0.62981241738E+02  0.00000000000E+00 0.  1.
</event>
<event>
 7    1  0.3001243E-009  0.2317921E+03  0.7561462E-02  0.1125385E+00
          2   -1    0    0  501    0  0.00000000000E+00  0.00000000000E+00  0.13460735066E+04  0.13460735066E+04  0.00000000000E+00 0.  1.
         -2   -1    0    0    0  501 -0.00000000000E+00 -0.00000000000E+00 -0.54401583764E+02  0.54401583764E+02  0.00000000000E+00 0. -1.
         25    2    1    2    0    0 -0.21301901375E+03 -0.14338166224E+02  0.33830463438E+03  0.41913010560E+03  0.12504933643E+03 0.  0.
          5    1    3    3  502    0  0.42540089167E+01 -0.15514355412E+02 -0.48911775657E+00  0.16628392944E+02  0.41800000000E+01 0. -1.
         -5    1    3    3    0  502 -0.21727302267E+03  0.11761891878E+01  0.33879375214E+03  0.40250171265E+03  0.41800000000E+01 0. -1.
        -11    1    1    2    0    0  0.48532031894E+02  0.40350939513E+02  0.19707232188E+03  0.20693249259E+03  0.00000000000E+00 0. -1.
         11    1    1    2    0    0  0.16448698185E+03 -0.26012773289E+02  0.75629496655E+03  0.77441249216E+03  0.00000000000E+00 0.  1.
</event>
<event>
 7    1  0.3001243E-009  0.8350979E+02  0.7561462E-02  0.1319376E+00
         -2   -1    0    0    0  501 -0.00000000000E+00  0.00000000000E+00  0.14578125509E+02  0.14578125509E+02  0.00000000000E+00 0.  1.
          2   -1    0    0  501    0  0.00000000000E+00 -0.00000000000E+00 -0.90852614212E+03  0.90852614212E+03  0.00000000000E+00 0. -1.
         25    2    1    2    0    0 -0.84416214643E-01  0.36766170044E+02 -0.49395920628E+03  0.51087631248E+03  0.12508857181E+03 0.  0.
          5    1    3    3  502    0  0.35318865978E+02  0.12406676424E+02 -0.40283107273E+02  0.55150240666E+02  0.41800000000E+01 0. -1.
         -5    1    3    3    0  502 -0.35403282193E+02  0.24359493621E+02 -0.45367609901E+03  0.45572607181E+03  0.41800000000E+01 0. -1.
        -11    1    1    2    0    0 -0.21635431580E+02 -0.54177825859E+02 -0.35156961068E+03  0.35637693509E+03  0.00000000000E+00 0. -1.
         11    1    1    2    0    0  0.21719847795E+02  0.17411655814E+02 -0.48419199651E+02  0.55851020056E+02  0.00000000000E+00 0.  1.
</event>
<event>
 7    1  0.3001243E-009  0.1745397E+03  0.7561462E-02  0.1173195E+00
         -1   -1    0    0    0  501 -0.00000000000E+00  0.00000000000E+00  0.16919761821E+03  0.16919761821E+03  0.00000000000E+00 0.  1.
          1   -1    0    0  501    0  0.00000000000E+00 -0.00000000000E+00 -0.21567390631E+03  0.21567390631E+03  0.00000000000E+00 0. -1.
         25    2    1    2    0    0 -0.51797583301E+02 -0.13037479507E+03 -0.94632685028E+02  0.21043229488E+03  0.12508328756E+03 0.  0.
          5    1    3    3  502    0 -0.12280745609E+02  0.24072282850E+02 -0.22448769177E+02  0.35379530125E+02  0.41800000000E+01 0.  1.
         -5    1    3    3    0  502 -0.39516837692E+02 -0.15444707792E+03 -0.72183915852E+02  0.17505276475E+03  0.41800000000E+01 0.  1.
        -11    1    1    2    0    0  0.55557333329E+02  0.32611718089E+02 -0.20897096186E+01  0.64455475560E+02  0.00000000000E+00 0. -1.
         11    1    1    2    0    0 -0.37597500272E+01  0.97763076979E+02  0.50246106549E+02  0.10998375409E+03  0.00000000000E+00 0.  1.
</event>
<event>
 7    1  0.3001243E-009  0.3201895E+03  0.7561462E-02  0.1075562E+00
          1   -1    0    0  501    0  0.00000000000E+00  0.00000000000E+00  0.15295812034E+03  0.15295812034E+03  0.00000000000E+00 0. -1.
         -1   -1    0    0    0  501 -0.00000000000E+00 -0.00000000000E+00 -0.84579250815E+03  0.84579250815E+03  0.00000000000E+00 0.  1.
         25    2    1    2    0    0  0.18239667187E+03 -0.25334185703E+03 -0.15377974193E+03  0.36978965831E+03  0.12508213273E+03 0.  0.
          5    1    3    3  502    0  0.17597473683E+03 -0.25550952161E+03 -0.11610968601E+03  0.33128711901E+03  0.41800000000E+01 0. -1.
         -5    1    3    3    0  502  0.64219350366E+01  0.21676645771E+01 -0.37670055919E+02  0.38502539297E+02  0.41800000000E+01 0.  1.
        -11    1    1    2    0    0 -0.11757444211E+03  0.95379930617E+02 -0.21946745402E+03  0.26662153697E+03  0.00000000000E+00 0. -1.
         11    1    1    2    0    0 -0.64822229759E+02  0.15796192641E+03 -0.31958719185E+03  0.36233943321E+03  0.00000000000E+00 0.  1.
</event>
<event>
 7    1  0.3001243E-009  0.6231580E+02  0.7561462E-02  0.1388363E+00
          2   -1    0    0  501    0  0.00000000000E+00  0.00000000000E+00  0.79405814409E+03  0.79405814409E+03  0.00000000000E+00 0. -1.
         -2   -1    0    0    0  501 -0.00000000000E+00 -0.00000000000E+00 -0.18309059065E+02  0.18309059065E+02  0.00000000000E+00 0.  1.
         25    2    1    2    0    0 -0.16853958212E+02  0.28004721835E+01  0.58244544997E+03  0.59597119353E+03  0.12508821999E+03 0.  0.
          5    1    3    3  502    0 -0.14527596382E+02 -0.78188591685E+01  0.58397602006E+03  0.58422397248E+03  0.41800000000E+01 0. -1.
         -5    1    3    3    0  502 -0.23263618301E+01  0.10619331352E+02 -0.15305700883E+01  0.11747221055E+02  0.41800000000E+01 0. -1.
        -11    1    1    2    0    0 -0.13799751150E+02 -0.43143949422E+02  0.73768066628E+02  0.86565357723E+02  0.00000000000E+00 0.  1.
         11    1    1    2    0    0  0.30653709362E+02  0.40343477239E+02  0.11953556843E+03  0.12983065190E+03  0.00000000000E+00 0. -1.
</event>
<event>
 7    1  0.3001243E-009  0.2024384E+03  0.7561462E-02  0.1147698E+00
         -1   -1    0    0    0  501 -0.00000000000E+00  0.00000000000E+00  0.42577511326E+02  0.42577511326E+02  0.00000000000E+00 0.  1.
          1   -1    0    0  501    0  0.00000000000E+00 -0.00000000000E+00 -0.10916988060E+04  0.10916988060E+04  0.00000000000E+00 0. -1.
         25    2    1    2    0    0  0.15443898847E+03  0.65935305425E+02 -0.73519514628E+03  0.76443409810E+03  0.12509485028E+03 0.  0.
          5    1    3    3  502    0  0.19040858063E+02 -0.35246660165E+02 -0.14742745301E+03  0.15283065016E+03  0.41800000000E+01 0. -1.
         -5    1    3    3    0  502  0.13539813040E+03  0.10118196559E+03 -0.58776769327E+03  0.61160344794E+03  0.41800000000E+01 0. -1.
        -11    1    1    2    0    0 -0.10985076556E+03 -0.92507217638E+02 -0.23263135524E+03  0.27339005734E+03  0.00000000000E+00 0.  1.
         11    1    1    2    0    0 -0.44588222904E+02  0.26571912213E+02 -0.81294793200E+02  0.96452161935E+02  0.00000000000E+00 0. -1.
</event>
<event>
 7    1  0.3001243E-009  0.8422837E+02  0.7561462E-02  0.1317463E+00
         -1   -1    0    0    0  501 -0.00000000000E+00  0.00000000000E+00  0.35529279623E+02  0.35529279623E+02  0.00000000000E+00 0.  1.
          1   -1    0    0  501    0  0.00000000000E+00 -0.00000000000E+00 -0.38194132441E+03  0.38194132441E+03  0.00000000000E+00 0. -1.
         25    2    1    2    0    0  0.40817735624E+02  0.40163157323E+01 -0.22619051412E+03  0.26171045502E+03  0.12509194722E+03 0.  0.
          5    1    3    3  502    0 -0.20219415294E+02 -0.26993286991E+02 -0.10794831157E+02  0.35657580921E+02  0.41800000000E+01 0. -1.
         -5    1    3    3    0  502  0.61037150918E+02  0.31009602723E+02 -0.21539568296E+03  0.22605287410E+03  0.41800000000E+01 0. -1.
        -11    1    1    2    0    0 -0.11168976648E+02  0.23128539328E+02  0.32693684891E+01  0.25891391255E+02  0.00000000000E+00 0.  1.
         11    1    1    2    0    0 -0.29648758975E+02 -0.27144855060E+02 -0.12349089916E+03  0.12986875775E+03  0.00000000000E+00 0. -1.
</event>
<event>
 7    1  0.3001243E-009  0.9665353E+02  0.7561462E-02  0.1287495E+00
          1   -1    0    0  501    0  0.00000000000E+00  0.00000000000E+00  0.71897874503E+02  0.71897874503E+02  0.00000000000E+00 0. -1.
         -1   -1    0    0    0  501 -0.00000000000E+00 -0.00000000000E+00 -0.16113481538E+03  0.16113481538E+03  0.00000000000E+00 0.  1.
         25    2    1    2    0    0  0.86331470783E+00 -0.40086456098E+01 -0.47122561862E+02  0.13373303227E+03  0.12508866268E+03 0.  0.
          5    1    3    3  502    0  0.32216879858E+02  0.39426496295E+02 -0.59673854486E+02  0.78554549627E+02  0.41800000000E+01 0. -1.
         -5    1    3    3    0  502 -0.31353565150E+02 -0.43435141905E+02  0.12551292624E+02  0.55178482640E+02  0.41800000000E+01 0. -1.
        -11    1    1    2    0    0  0.44523925216E+01  0.45973290522E+02 -0.30789218739E+02  0.55509848056E+02  0.00000000000E+00 0. -1.
         11    1    1    2    0    0 -0.53157072294E+01 -0.41964644912E+02 -0.11325160275E+02  0.43789809559E+02  0.00000000000E+00 0.  1.
</event>
<event>
 7    1  0.3001243E-009  0.1993940E+03  0.7561462E-02  0.1150251E+00
         -2   -1    0    0    0  501 -0.00000000000E+00  0.00000000000E+00  0.88351333651E+02  0.88351333651E+02  0.00000000000E+00 0.  1.
          2   -1    0    0  501    0  0.00000000000E+00 -0.00000000000E+00 -0.63873727664E+03  0.63873727664E+03  0.00000000000E+00 0. -1.
         25    2    1    2    0    0  0.16861491203E+03 -0.70132938603E+02 -0.44488303870E+03  0.49690947781E+03  0.12509393822E+03 0.  0.
          5    1    3    3  502    0  0.59732490843E+02  0.25651260600E+02 -0.73592496707E+02  0.98281664639E+02  0.41800000000E+01 0. -1.
         -5    1    3    3    0  502  0.10888242118E+03 -0.95784199203E+02 -0.37129054200E+03  0.39862781318E+03  0.41800000000E+01 0. -1.
        -11    1    1    2    0    0 -0.10042813956E+03  0.16407672206E+02 -0.11794773107E+02  0.10244090782E+03  0.00000000000E+00 0.  1.
         11    1    1    2    0    0 -0.68186772469E+02  0.53725266397E+02 -0.93708131174E+02  0.12773822465E+03  0.00000000000E+00 0. -1.
</event>
<event>
 7    1  0.3001243E-009  0.5683081E+02  0.7561462E-02  0.1411634E+00
         -1   -1    0    0    0  501 -0.00000000000E+00  0.00000000000E+00  0.11772791610E+03  0.11772791610E+03  0.00000000000E+00 0.  1.
          1   -1    0    0  501    0  0.00000000000E+00 -0.00000000000E+00 -0.10783044236E+03  0.10783044236E+03  0.00000000000E+00 0. -1.
         25    2    1    2    0    0 -0.24687945840E+02 -0.16914789105E+02  0.84607503384E+01  0.12889702212E+03  0.12508898134E+03 0.  0.
          5    1    3    3  502    0 -0.38000840788E+02  0.12103216598E+02 -0.48825552790E+02  0.63181949621E+02  0.41800000000E+01 0.  1.
         -5    1    3    3    0  502  0.13312894948E+02 -0.29018005703E+02  0.57286303129E+02  0.65715072495E+02  0.41800000000E+01 0.  1.
        -11    1    1    2    0    0  0.55211004333E+01  0.21044042008E+02  0.44395485380E+02  0.49439795470E+02  0.00000000000E+00 0.  1.
         11    1    1    2    0    0  0.19166845407E+02 -0.41292529024E+01 -0.42958761973E+02  0.47221540876E+02  0.00000000000E+00 0. -1.
</event>
<event>
 7    1  0.3001243E-009  0.9223954E+02  0.7561462E-02  0.1297517E+00
          1   -1    0    0  501    0  0.00000000000E+00  0.00000000000E+00  0.40626971826E+03  0.40626971826E+03  0.00000000000E+00 0. -1.
         -1   -1    0    0    0  501 -0.00000000000E+00 -0.00000000000E+00 -0.51105540695E+02  0.51105540695E+02  0.00000000000E+00 0.  1.
         25    2    1    2    0    0 -0.48168472688E+02  0.31135381395E+02  0.30687181861E+03  0.33631372913E+03  0.12508795948E+03 0.  0.
          5    1    3    3  502    0 -0.16726290837E+02  0.41422608225E+02  0.29860763464E+03  0.30195958859E+03  0.41800000000E+01 0. -1.
         -5    1    3    3    0  502 -0.31442181851E+02 -0.10287226830E+02  0.82641839756E+01  0.34354140539E+02  0.41800000000E+01 0. -1.
        -11    1    1    2    0    0  0.65728943774E+02  0.51753404388E+01  0.12438425129E+02  0.67095399380E+02  0.00000000000E+00 0.  1.
         11    1    1    2    0    0 -0.17560471086E+02 -0.36310721833E+02  0.35853933826E+02  0.53966130449E+02  0.00000000000E+00 0. -1.
</event>
<event>
 7    1  0.3001243E-009  0.1046399E+03  0.7561462E-02  0.1270831E+00
         -2   -1    0    0    0  501 -0.00000000000E+00  0.00000000000E+00  0.59296261124E+02  0.59296261124E+02  0.00000000000E+00 0.  1.
          2   -1    0    0  501    0  0.00000000000E+00 -0.00000000000E+00 -0.31667795081E+03  0.31667795081E+03  0.00000000000E+00 0. -1.
         25    2    1    2    0    0 -0.26556240252E+02  0.60510003671E+02 -0.25785499838E+03  0.29411347852E+03  0.12508734395E+03 0.  0.
          5    1    3    3  502    0 -0.34720279645E+02 -0.30644026246E+02 -0.58601981073E+02  0.74807878923E+02  0.41800000000E+01 0.  1.
         -5    1    3    3    0  502  0.81640393929E+01  0.91154029917E+02 -0.19925301731E+03  0.21930559960E+03  0.41800000000E+01 0.  1.
        -11    1    1    2    0    0  0.14712336119E+02 -0.68726305109E+01 -0.17683532399E+02  0.24008190318E+02  0.00000000000E+00 0. -1.
         11    1    1    2    0    0  0.11843904133E+02 -0.53637373160E+02  0.18156841090E+02  0.57852543098E+02  0.00000000000E+00 0.  1.
</event>
<event>
 7    1  0.3001243E-009  0.1210226E+03  0.7561462E-02  0.1241419E+00
         -2   -1    0    0    0  501 -0.00000000000E+00  0.00000000000E+00  0.22639252012E+02  0.22639252012E+02  0.00000000000E+00 0.  1.
          2   -1    0    0  501    0  0.00000000000E+00 -0.00000000000E+00 -0.76945896333E+03  0.76945896333E+03  0.00000000000E+00 0. -1.
         25    2    1    2    0    0 -0.73831510553E+02 -0.15021211195E+01 -0.36799592370E+03  0.39562661328E+03  0.12508424746E+03 0.  0.
          5    1    3    3  502    0  0.25495772509E+02 -0.16270615767E+02 -0.17883432580E+03  0.18142203790E+03  0.41800000000E+01 0.  1.
         -5    1    3    3    0  502 -0.99327283062E+02  0.14768494648E+02 -0.18916159790E+03  0.21420457538E+03  0.41800000000E+01 0.  1.
        -11    1    1    2    0    0  0.49366875613E+02  0.41250465239E+02 -0.15477005276E+03  0.16760805029E+03  0.00000000000E+00 0.  1.
         11    1    1    2    0    0  0.24464634940E+02 -0.39748344119E+02 -0.22405373486E+03  0.22886355176E+03  0.00000000000E+00 0. -1.
</event>
<event>
 7    1  0.3001243E-009  0.1152615E+03  0.7561462E-02  0.1251125E+00
          2   -1    0    0  501    0  0.00000000000E+00  0.00000000000E+00  0.13133679889E+04  0.13133679889E+04  0.00000000000E+00 0. -1.
         -2   -1    0    0    0  501 -0.00000000000E+00 -0.00000000000E+00 -0.12473702580E+02  0.12473702580E+02  0.00000000000E+00 0.  1.
         25    2    1    2    0    0  0.10038604936E+02 -0.55241296474E+02  0.92211675512E+03  0.93225530163E+03  0.12509301710E+03 0.  0.
          5    1    3    3  502    0  0.58521060391E+02  0.33355759854E+01  0.32107897268E+03  0.32641234608E+03  0.41800000000E+01 0. -1.
         -5    1    3    3    0  502 -0.48482455455E+02 -0.58576872459E+02  0.60103778244E+03  0.60584295555E+03  0.41800000000E+01 0. -1.
        -11    1    1    2    0    0  0.54854686311E+01 -0.18990798073E+02  0.25520885495E+02  0.32280897974E+02  0.00000000000E+00 0.  1.
         11    1    1    2    0    0 -0.15524073567E+02  0.74232094547E+02  0.35325664566E+03  0.36130549183E+03  0.00000000000E+00 0. -1.
</event>
<event>
 7    1  0.3001243E-009  0.9671178E+02  0.7561462E-02  0.1287367E+00
          2   -1    0    0  501    0  0.00000000000E+00  0.00000000000E+00  0.12482232481E+04  0.12482232481E+04  0.00000000000E+00 0. -1.
         -2   -1    0    0    0  501 -0.00000000000E+00 -0.00000000000E+00 -0.11163021497E+02  0.11163021497E+02  0.00000000000E+00 0.  1.
         25    2    1    2    0    0  0.25679602051E+02 -0.45330150924E+01  0.90691253049E+03  0.91586954114E+03  0.12508672285E+03 0.  0.
          5    1    3    3  502    0  0.31111082985E+02 -0.49388996601E+02  0.75653319618E+03  0.75879320094E+03  0.41800000000E+01 0. -1.
         -5    1    3    3    0  502 -0.54314809338E+01  0.44855981508E+02  0.15037933432E+03  0.15707634020E+03  0.41800000000E+01 0. -1.
        -11    1    1    2    0    0 -0.56705992577E+02  0.11176303161E+02  0.15305791771E+03  0.16360686269E+03  0.00000000000E+00 0. -1.
         11    1    1    2    0    0  0.31026390526E+02 -0.66432880686E+01  0.17708977841E+03  0.17990986577E+03  0.00000000000E+00 0.  1.
</event>
<event>
 7    1  0.3001243E-009  0.1107972E+03  0.7561462E-02  0.1259101E+00
         -1   -1    0    0    0  501 -0.00000000000E+00  0.00000000000E+00  0.60664544089E+02  0.60664544089E+02  0.00000000000E+00 0.  1.
          1   -1    0    0  501    0  0.00000000000E+00 -0.00000000000E+00 -0.27014663688E+03  0.27014663688E+03  0.00000000000E+00 0. -1.
         25    2    1    2    0    0  0.38082902493E+02  0.57306393831E+02 -0.11734661413E+03  0.18480561820E+03  0.12509419824E+03 0.  0.
          5    1    3    3  502    0 -0.26374175916E+02  0.71378082912E+02 -0.55486591708E+02  0.94269094272E+02  0.41800000000E+01 0.  1.
         -5    1    3    3    0  502  0.64457078409E+02 -0.14071689081E+02 -0.61860022423E+02  0.90536523927E+02  0.41800000000E+01 0.  1.
        -11    1    1    2    0    0 -0.43653260420E+02 -0.34048268128E+02 -0.49305074164E+01  0.55580586640E+02  0.00000000000E+00 0.  1.
         11    1    1    2    0    0  0.55703579273E+01 -0.23258125702E+02 -0.87204971245E+02  0.90424976132E+02  0.00000000000E+00 0. -1.
</event>
<event>
 7    1  0.3001243E-009  0.1789764E+03  0.7561462E-02  0.1168797E+00
          1   -1    0    0  501    0  0.00000000000E+00  0.00000000000E+00  0.12359713413E+04  0.12359713413E+04  0.00000000000E+00 0. -1.
         -1   -1    0    0    0  501 -0.00000000000E+00 -0.00000000000E+00 -0.28464810680E+02  0.28464810680E+02  0.00000000000E+00 0.  1.
         25    2    1    2    0    0 -0.35612462959E+02  0.14697944041E+03  0.71295826082E+03  0.73948617458E+03  0.12513639480E+03 0.  0.
          5    1    3    3  502    0  0.42212662915E+02  0.19077548412E+02  0.17064593447E+03  0.17687105223E+03  0.41800000000E+01 0. -1.
         -5    1    3    3    0  502 -0.77825125874E+02  0.12790189200E+03  0.54231232635E+03  0.56261512235E+03  0.41800000000E+01 0. -1.
        -11    1    1    2    0    0 -0.13490002014E+02 -0.12087186417E+02  0.12567338344E+02  0.22045820985E+02  0.00000000000E+00 0.  1.
         11    1    1    2    0    0  0.49102464974E+02 -0.13489225399E+03  0.48198093149E+03  0.50290415645E+03  0.00000000000E+00 0. -1.
</event>
<event>
 7    1  0.3001243E-009  0.1207470E+03  0.7561462E-02  0.1241870E+00
         -3   -1    0    0    0  501 -0.00000000000E+00  0.00000000000E+00  0.25032068930E+03  0.25032068930E+03  0.00000000000E+00 0.  1.
          3   -1    0    0  501    0  0.00000000000E+00 -0.00000000000E+00 -0.79071127180E+02  0.79071127180E+02  0.00000000000E+00 0. -1.
         25    2    1    2    0    0  0.91293082460E+01  0.91641752172E+02  0.95386606962E+02  0.18228312621E+03  0.12508788232E+03 0.  0.
          5    1    3    3  502    0  0.52772331490E+02  0.71841214285E+02  0.17805936891E+02  0.90997817717E+02  0.41800000000E+01 0.  1.
         -5    1    3    3    0  502 -0.43643023244E+02  0.19800537887E+02  0.77580670072E+02  0.91285308496E+02  0.41800000000E+01 0.  1.
        -11    1    1    2    0    0  0.15154852778E+02 -0.81714093434E+01  0.55106955880E+02  0.57734028785E+02  0.00000000000E+00 0.  1.
         11    1    1    2    0    0 -0.24284161024E+02 -0.83470342828E+02  0.20755999274E+02  0.89374661479E+02  0.00000000000E+00 0. -1.
</event>
<event>
 7    1  0.3001243E-009  0.3098551E+03  0.7561462E-02  0.1080415E+00
          2   -1    0    0  501    0  0.00000000000E+00  0.00000000000E+00  0.12446321164E+03  0.12446321164E+03  0.00000000000E+00 0. -1.
         -2   -1    0    0    0  501 -0.00000000000E+00 -0.00000000000E+00 -0.78935553132E+03  0.78935553132E+03  0.00000000000E+00 0.  1.
         25    2    1    2    0    0 -0.21728014349E+01  0.29128152688E+03 -0.39084163208E+03  0.50324267063E+03  0.12508539168E+03 0.  0.
          5    1    3    3  502    0 -0.58431398975E+02  0.11769963964E+03 -0.13005586809E+03  0.18493089191E+03  0.41800000000E+01 0. -1.
         -5    1    3    3    0  502  0.56258597540E+02  0.17358188724E+03 -0.26078576399E+03  0.31831177872E+03  0.41800000000E+01 0. -1.
        -11    1    1    2    0    0 -0.17086101799E+02 -0.36856563694E+01 -0.16355853861E+02  0.23938105462E+02  0.00000000000E+00 0.  1.
         11    1    1    2    0    0  0.19258903234E+02 -0.28759587051E+03 -0.25769483373E+03  0.38663796686E+03  0.00000000000E+00 0. -1.
</event>
<event>
 7    1  0.3001243E-009  0.1065975E+03  0.7561462E-02  0.1267004E+00
          1   -1    0    0  501    0  0.00000000000E+00  0.00000000000E+00  0.50125012411E+03  0.50125012411E+03  0.00000000000E+00 0. -1.
         -1   -1    0    0    0  501 -0.00000000000E+00 -0.00000000000E+00 -0.25538770140E+02  0.25538770140E+02  0.00000000000E+00 0.  1.
         25    2    1    2    0    0 -0.10638957740E+02  0.21916604218E+02  0.22390151880E+03  0.25763062807E+03  0.12509246754E+03 0.  0.
          5    1    3    3  502    0  0.27668658663E+02  0.59309556189E+02  0.76544117521E+02  0.10079510134E+03  0.41800000000E+01 0.  1.
         -5    1    3    3    0  502 -0.38307616403E+02 -0.37392951970E+02  0.14735740128E+03  0.15683552673E+03  0.41800000000E+01 0.  1.
        -11    1    1    2    0    0  0.42343870155E+02  0.15306137938E+02  0.10000955104E+03  0.10967767092E+03  0.00000000000E+00 0.  1.
         11    1    1    2    0    0 -0.31704912415E+02 -0.37222742157E+02  0.15180028412E+03  0.15948059526E+03  0.00000000000E+00 0. -1.
</event>
<event>
 7    1  0.3001243E-009  0.9291605E+02  0.7561462E-02  0.1295940E+00
         -1   -1    0    0    0  501 -0.00000000000E+00  0.00000000000E+00  0.10079334820E+03  0.10079334820E+03  0.00000000000E+00 0.  1.
          1   -1    0    0  501    0  0.00000000000E+00 -0.00000000000E+00 -0.19954804673E+03  0.19954804673E+03  0.00000000000E+00 0. -1.
         25    2    1    2    0    0  0.64402828104E+01 -0.92371896438E+02 -0.45196376415E+02  0.16206443979E+03  0.12509246863E+03 0.  0.
          5    1    3    3  502    0  0.72447191547E+01 -0.64754057481E+02  0.37139494643E+02  0.75115833073E+02  0.41800000000E+01 0.  1.
         -5    1    3    3    0  502 -0.80443634428E+00 -0.27617838957E+02 -0.82335871058E+02  0.86948606713E+02  0.41800000000E+01 0.  1.
        -11    1    1    2    0    0 -0.86421351182E+00  0.12489520443E+02  0.23828505007E+02  0.26917143919E+02  0.00000000000E+00 0.  1.
         11    1    1    2    0    0 -0.55760692986E+01  0.79882375995E+02 -0.77386827126E+02  0.11135981123E+03  0.00000000000E+00 0. -1.
</event>
<event>
 7    1  0.3001243E-009  0.1301077E+03  0.7561462E-02  0.1227296E+00
          4   -1    0    0  501    0  0.00000000000E+00  0.00000000000E+00  0.82829688495E+01  0.82829688495E+01  0.00000000000E+00 0. -1.
         -4   -1    0    0    0  501 -0.00000000000E+00 -0.00000000000E+00 -0.22478739519E+04  0.22478739519E+04  0.00000000000E+00 0.  1.
         25    2    1    2    0    0  0.20936585925E+02 -0.69848731104E+02 -0.15271322760E+04  0.15339808215E+04  0.12508791466E+03 0.  0.
          5    1    3    3  502    0 -0.93103116442E+01  0.33165104647E+02 -0.51316400972E+03  0.51433586240E+03  0.41800000000E+01 0. -1.
         -5    1    3    3    0  502  0.30246897569E+02 -0.10301383575E+03 -0.10139682663E+04  0.10196449591E+04  0.41800000000E+01 0. -1.
        -11    1    1    2    0    0 -0.41348986369E+02  0.83732091969E+02 -0.56314525534E+03  0.57083568609E+03  0.00000000000E+00 0.  1.
         11    1    1    2    0    0  0.20412400444E+02 -0.13883360865E+02 -0.14931345164E+03  0.15134041312E+03  0.00000000000E+00 0. -1.
</event>
<event>
 7    1  0.3001243E-009  0.8835715E+02  0.7561462E-02  0.1306880E+00
         -2   -1    0    0    0  501 -0.00000000000E+00  0.00000000000E+00  0.37992227478E+02  0.37992227478E+02  0.00000000000E+00 0. -1.
          2   -1    0    0  501    0  0.00000000000E+00 -0.00000000000E+00 -0.53386076891E+03  0.53386076891E+03  0.00000000000E+00 0.  1.
         25    2    1    2    0    0 -0.69303586895E+01  0.19775644695E+02 -0.45236817295E+03  0.46981452945E+03  0.12509844999E+03 0.  0.
          5    1    3    3  502    0 -0.28840454226E+02  0.43759984373E+02 -0.78291048605E+02  0.94306249655E+02  0.41800000000E+01 0.  1.
         -5    1    3    3    0  502  0.21910095537E+02 -0.23984339678E+02 -0.37407712434E+03  0.37550827979E+03  0.41800000000E+01 0.  1.
        -11    1    1    2    0    0 -0.19908777204E+02  0.29315516849E+02 -0.23954773169E+02  0.42773707993E+02  0.00000000000E+00 0.  1.
         11    1    1    2    0    0  0.26839135893E+02 -0.49091161544E+02 -0.19545595318E+02  0.59264758951E+02  0.00000000000E+00 0. -1.
</event>
<event>
 7    1  0.3001243E-009  0.1702273E+03  0.7561462E-02  0.1177611E+00
         -1   -1    0    0    0  501 -0.00000000000E+00  0.00000000000E+00  0.70625045036E+02  0.70625045036E+02  0.00000000000E+00 0.  1.
          1   -1    0    0  501    0  0.00000000000E+00 -0.00000000000E+00 -0.50020294799E+03  0.50020294799E+03  0.00000000000E+00 0. -1.
         25    2    1    2    0    0 -0.20863238567E+02  0.14810152980E+03 -0.27604360065E+03  0.33795973850E+03  0.12508947811E+03 0.  0.
          5    1    3    3  502    0 -0.53160719533E+02  0.12809164145E+03 -0.14183455453E+03  0.19841382000E+03  0.41800000000E+01 0.  1.
         -5    1    3    3    0  502  0.32297480966E+02  0.20009888354E+02 -0.13420904612E+03  0.13954591850E+03  0.41800000000E+01 0.  1.
        -11    1    1    2    0    0 -0.16823909594E+02 -0.10452779635E+03 -0.13658962461E+03  0.17281733043E+03  0.00000000000E+00 0.  1.
         11    1    1    2    0    0  0.37687148162E+02 -0.43573733447E+02 -0.16944677694E+02  0.60050924100E+02  0.00000000000E+00 0. -1.
</event>
<event>
 7    1  0.3001243E-009  0.1629404E+03  0.7561462E-02  0.1185416E+00
         -2   -1    0    0    0  501 -0.00000000000E+00  0.00000000000E+00  0.10921035095E+03  0.10921035095E+03  0.00000000000E+00 0.  1.
          2   -1    0    0  501    0  0.00000000000E+00 -0.00000000000E+00 -0.28680498790E+03  0.28680498790E+03  0.00000000000E+00 0. -1.
         25    2    1    2    0    0 -0.49140388987E+02  0.12773639527E+03 -0.10268906930E+03  0.21195119842E+03  0.12508757352E+03 0.  0.
          5    1    3    3  502    0 -0.27466568370E+02 -0.19135374818E+02 -0.35393492017E+02  0.48895261781E+02  0.41800000000E+01 0.  1.
         -5    1    3    3    0  502 -0.21673820617E+02  0.14687177009E+03 -0.67295577288E+02  0.16305593664E+03  0.41800000000E+01 0.  1.
        -11    1    1    2    0    0  0.27534803494E+02 -0.20748410794E+02  0.19625206229E+02  0.39671282730E+02  0.00000000000E+00 0.  1.
         11    1    1    2    0    0  0.21605585493E+02 -0.10698798448E+03 -0.94530773875E+02  0.14439285771E+03  0.00000000000E+00 0. -1.
</event>
<event>
 7    1  0.3001243E-009  0.9261608E+02  0.7561462E-02  0.1296637E+00
          1   -1    0    0  501    0  0.00000000000E+00  0.00000000000E+00  0.35206731923E+03  0.35206731923E+03  0.00000000000E+00 0. -1.
         -1   -1    0    0    0  501 -0.00000000000E+00 -0.00000000000E+00 -0.43200056586E+02  0.43200056586E+02  0.00000000000E+00 0.  1.
         25    2    1    2    0    0 -0.32486484873E+02  0.19316791406E+02  0.24550168242E+03  0.27811458691E+03  0.12509251478E+03 0.  0.
          5    1    3    3  502    0 -0.35863702703E+02 -0.42493021758E+02  0.17754645268E+03  0.18609695679E+03  0.41800000000E+01 0.  1.
         -5    1    3    3    0  502  0.33772178298E+01  0.61809813164E+02  0.67955229739E+02  0.92017630118E+02  0.41800000000E+01 0.  1.
        -11    1    1    2    0    0 -0.41638147739E+01 -0.29178341121E+02  0.72373196849E+02  0.78144689942E+02  0.00000000000E+00 0. -1.
         11    1    1    2    0    0  0.36650299647E+02  0.98615497150E+01 -0.90076166256E+01  0.39008098958E+02  0.00000000000E+00 0.  1.
</event>
<event>
 7    1  0.3001243E-009  0.1878754E+03  0.7561462E-02  0.1160392E+00
          1   -1    0    0  501    0  0.00000000000E+00  0.00000000000E+00  0.51014288501E+03  0.51014288501E+03  0.00000000000E+00 0. -1.
         -1   -1    0    0    0  501 -0.00000000000E+00 -0.00000000000E+00 -0.76490920676E+02  0.76490920676E+02  0.00000000000E+00 0.  1.
         25    2    1    2    0    0  0.15698175031E+03  0.22762318972E+02  0.29900624789E+03  0.36085195616E+03  0.12509198572E+03 0.  0.
          5    1    3    3  502    0  0.77656189526E+02  0.73576625247E+02  0.14440428609E+03  0.17976115764E+03  0.41800000000E+01 0. -1.
         -5    1    3    3    0  502  0.79325560782E+02 -0.50814306275E+02  0.15460196180E+03  0.18109079852E+03  0.41800000000E+01 0. -1.
        -11    1    1    2    0    0 -0.93634754243E+02 -0.49174362394E+02  0.50512275593E+02  0.11720526910E+03  0.00000000000E+00 0.  1.
         11    1    1    2    0    0 -0.63346996065E+02  0.26412043422E+02  0.84133440841E+02  0.10857658042E+03  0.00000000000E+00 0. -1.
</event>
<event>
 7    1  0.3894680E-009  0.1586086E+03  0.7561462E-02  0.1190277E+00
         -1   -1    0    0    0  501 -0.00000000000E+00  0.00000000000E+00  0.48153525005E+02  0.48153525005E+02  0.00000000000E+00 0.  1.
          1   -1    0    0  501    0  0.00000000000E+00 -0.00000000000E+00 -0.60546485255E+03  0.60546485255E+03  0.00000000000E+00 0. -1.
         25    2    1    2    0    0  0.52183007389E+02 -0.12043640066E+03 -0.27433006403E+03  0.32883417657E+03  0.12508772434E+03 0.  0.
          5    1    3    3  502    0  0.88555071534E+02 -0.81916553708E+02 -0.14283915598E+03  0.18701021188E+03  0.41800000000E+01 0.  1.
         -5    1    3    3    0  502 -0.36372064145E+02 -0.38519846953E+02 -0.13149090805E+03  0.14182396469E+03  0.41800000000E+01 0.  1.
        -11    1    1    2    0    0 -0.64195418557E+02  0.89170161977E+02 -0.14018823350E+03  0.17811544111E+03  0.00000000000E+00 0.  1.
         11    1    1    2    0    0  0.12012411168E+02  0.31266238684E+02 -0.14279303002E+03  0.14666875988E+03  0.00000000000E+00 0. -1.
</event>
<event>
 7    1  0.3001243E-009  0.1022958E+03  0.7561462E-02  0.1275541E+00
         -2   -1    0    0    0  501 -0.00000000000E+00  0.00000000000E+00  0.41799935377E+02  0.41799935377E+02  0.00000000000E+00 0.  1.
          2   -1    0    0  501    0  0.00000000000E+00 -0.00000000000E+00 -0.40490623474E+03  0.40490623474E+03  0.00000000000E+00 0. -1.
         25    2    1    2    0    0 -0.31255155508E+02  0.24443570488E+02 -0.98784297941E+02  0.16425933053E+03  0.12509363398E+03 0.  0.
          5    1    3    3  502    0 -0.52081444591E+02 -0.38435180515E+02 -0.48284040223E+02  0.80861368479E+02  0.41800000000E+01 0. -1.
         -5    1    3    3    0  502  0.20826289084E+02  0.62878751003E+02 -0.50500257717E+02  0.83397962051E+02  0.41800000000E+01 0. -1.
        -11    1    1    2    0    0  0.19704580063E+02 -0.45365542780E+02 -0.24943345171E+03  0.25428989319E+03  0.00000000000E+00 0. -1.
         11    1    1    2    0    0  0.11550575445E+02  0.20921972292E+02 -0.14888549709E+02  0.28156946392E+02  0.00000000000E+00 0.  1.
</event>
<event>
 7    1  0.3001243E-009  0.1015576E+03  0.7561462E-02  0.1277054E+00
          2   -1    0    0  501    0  0.00000000000E+00  0.00000000000E+00  0.42105450460E+03  0.42105450460E+03  0.00000000000E+00 0. -1.
         -2   -1    0    0    0  501 -0.00000000000E+00 -0.00000000000E+00 -0.53179176400E+02  0.53179176400E+02  0.00000000000E+00 0.  1.
         25    2    1    2    0    0  0.10209235757E+02 -0.60104331995E+02  0.32034259229E+03  0.34926109191E+03  0.12508866722E+03 0.  0.
          5    1    3    3  502    0  0.56147357331E+02  0.79368097556E+01  0.13725045484E+03  0.14856203565E+03  0.41800000000E+01 0.  1.
         -5    1    3    3    0  502 -0.45938121574E+02 -0.68041141750E+02  0.18309213745E+03  0.20069905625E+03  0.41800000000E+01 0.  1.
        -11    1    1    2    0    0 -0.35935100088E-01  0.48971554027E+02 -0.22098667614E+02  0.53726767123E+02  0.00000000000E+00 0.  1.
         11    1    1    2    0    0 -0.10173300657E+02  0.11132777967E+02  0.69631403521E+02  0.71245821968E+02  0.00000000000E+00 0. -1.
</event>
<event>
 7    1  0.3001243E-009  0.1452731E+03  0.7561462E-02  0.1206405E+00
          2   -1    0    0  501    0  0.00000000000E+00  0.00000000000E+00  0.27469806279E+03  0.27469806279E+03  0.00000000000E+00 0.  1.
         -2   -1    0    0    0  501 -0.00000000000E+00 -0.00000000000E+00 -0.97262720965E+02  0.97262720965E+02  0.00000000000E+00 0. -1.
         25    2    1    2    0    0  0.59970997260E+02 -0.97692871316E+02  0.13670950069E+03  0.21789590353E+03  0.12509484233E+03 0.  0.
          5    1    3    3  502    0  0.79654074459E+02 -0.16224341588E+02  0.42829477669E+02  0.91977374366E+02  0.41800000000E+01 0.  1.
         -5    1    3    3    0  502 -0.19683077199E+02 -0.81468529727E+02  0.93880023020E+02  0.12591852916E+03  0.41800000000E+01 0.  1.
        -11    1    1    2    0    0  0.50484638389E+01  0.33449101209E+02 -0.24505149608E+02  0.41771182844E+02  0.00000000000E+00 0. -1.
         11    1    1    2    0    0 -0.65019461098E+02  0.64243770106E+02  0.65230990748E+02  0.11229369739E+03  0.00000000000E+00 0.  1.
</event>
<event>
 7    1  0.3001243E-009  0.1227545E+03  0.7561462E-02  0.1238621E+00
         -2   -1    0    0    0  501 -0.00000000000E+00  0.00000000000E+00  0.14938641061E+03  0.14938641061E+03  0.00000000000E+00 0.  1.
          2   -1    0    0  501    0  0.00000000000E+00 -0.00000000000E+00 -0.14267238687E+03  0.14267238687E+03  0.00000000000E+00 0. -1.
         25    2    1    2    0    0  0.38969222909E+01 -0.81474492425E+02 -0.49896701697E+02  0.15744754615E+03  0.12508704981E+03 0.  0.
          5    1    3    3  502    0  0.56522046738E+02 -0.48890583237E+02  0.44365688847E+01  0.74981240589E+02  0.41800000000E+01 0. -1.
         -5    1    3    3    0  502 -0.52625124448E+02 -0.32583909188E+02 -0.54333270582E+02  0.82466305563E+02  0.41800000000E+01 0. -1.
        -11    1    1    2    0    0  0.12958772614E+02 -0.95198657036E+01  0.36534144215E+02  0.39916178728E+02  0.00000000000E+00 0.  1.
         11    1    1    2    0    0 -0.16855694905E+02  0.90994358128E+02  0.20076581217E+02  0.94695072603E+02  0.00000000000E+00 0. -1.
</event>
<event>
 7    1  0.3001243E-009  0.8704481E+02  0.7561462E-02  0.1310170E+00
         -1   -1    0    0    0  501 -0.00000000000E+00  0.00000000000E+00  0.97810128997E+02  0.97810128997E+02  0.00000000000E+00 0.  1.
          1   -1    0    0  501    0  0.00000000000E+00 -0.00000000000E+00 -0.24104450918E+03  0.24104450918E+03  0.00000000000E+00 0. -1.
         25    2    1    2    0    0 -0.26416108202E+02 -0.52437440123E+02 -0.17386257027E+03  0.22208837792E+03  0.12509020092E+03 0.  0.
          5    1    3    3  502    0 -0.92984928453E+01 -0.78867762586E+02 -0.17289634691E+03  0.19030818458E+03  0.41800000000E+01 0. -1.
         -5    1    3    3    0  502 -0.17117615357E+02  0.26430322463E+02 -0.96622336129E+00  0.31780193338E+02  0.41800000000E+01 0. -1.
        -11    1    1    2    0    0  0.88149209163E+01  0.40701624015E+02  0.64532451843E+02  0.76803400765E+02  0.00000000000E+00 0.  1.
         11    1    1    2    0    0  0.17601187286E+02  0.11735816109E+02 -0.33904261760E+02  0.39962859496E+02  0.00000000000E+00 0. -1.
</event>
<event>
 7    1  0.3001243E-009  0.1260055E+03  0.7561462E-02  0.1233506E+00
          1   -1    0    0  501    0  0.00000000000E+00  0.00000000000E+00  0.54030781687E+03  0.54030781687E+03  0.00000000000E+00 0. -1.
         -1   -1    0    0    0  501 -0.00000000000E+00 -0.00000000000E+00 -0.47479984114E+02  0.47479984114E+02  0.00000000000E+00 0.  1.
         25    2    1    2    0    0 -0.20625630309E+02  0.84233890119E+02  0.11929201903E+03  0.19336938456E+03  0.12506145773E+03 0.  0.
          5    1    3    3  502    0 -0.56529608296E+02  0.73114121289E+02  0.31417671789E+02  0.97702680857E+02  0.41800000000E+01 0. -1.
         -5    1    3    3    0  502  0.35903977987E+02  0.11119768830E+02  0.87874347238E+02  0.95666703699E+02  0.41800000000E+01 0. -1.
        -11    1    1    2    0    0 -0.32587820099E+02 -0.45025093693E+02  0.11741290272E+03  0.12990386756E+03  0.00000000000E+00 0.  1.
         11    1    1    2    0    0  0.53213450408E+02 -0.39208796426E+02  0.25612291100E+03  0.26451454887E+03  0.00000000000E+00 0. -1.
</event>
<event>
 7    1  0.3001243E-009  0.1635419E+03  0.7561462E-02  0.1184755E+00
          1   -1    0    0  501    0  0.00000000000E+00  0.00000000000E+00  0.64812155549E+02  0.64812155549E+02  0.00000000000E+00 0. -1.
         -1   -1    0    0    0  501 -0.00000000000E+00 -0.00000000000E+00 -0.53557665821E+03  0.53557665821E+03  0.00000000000E+00 0.  1.
         25    2    1    2    0    0  0.60509437408E+02 -0.13665250922E+03 -0.28776276774E+03  0.34754923425E+03  0.12509100463E+03 0.  0.
          5    1    3    3  502    0  0.13287030368E+02 -0.93242608209E+01  0.10513472377E+02  0.19786169849E+02  0.41800000000E+01 0. -1.
         -5    1    3    3    0  502  0.47222407040E+02 -0.12732824840E+03 -0.29827624012E+03  0.32776306440E+03  0.41800000000E+01 0. -1.
        -11    1    1    2    0    0 -0.76141008808E+02  0.13915514155E+03 -0.16557899733E+03  0.22929895551E+03  0.00000000000E+00 0.  1.
         11    1    1    2    0    0  0.15631571401E+02 -0.25026323276E+01 -0.17422737593E+02  0.23540623999E+02  0.00000000000E+00 0. -1.
</event>
<event>
 7    1  0.3001243E-009  0.7038954E+02  0.7561462E-02  0.1358773E+00
         -2   -1    0    0    0  501 -0.00000000000E+00  0.00000000000E+00  0.78342886853E+02  0.78342886853E+02  0.00000000000E+00 0.  1.
          2   -1    0    0  501    0  0.00000000000E+00 -0.00000000000E+00 -0.18030635600E+03  0.18030635600E+03  0.00000000000E+00 0. -1.
         25    2    1    2    0    0 -0.36411291631E+02  0.41457113806E+01 -0.88279542107E+02  0.15742696043E+03  0.12508797398E+03 0.  0.
          5    1    3    3  502    0 -0.29735313166E+02  0.10730579483E+02 -0.11995934171E+03  0.12412513947E+03  0.41800000000E+01 0. -1.
         -5    1    3    3    0  502 -0.66759784649E+01 -0.65848681027E+01  0.31679799604E+02  0.33301820961E+02  0.41800000000E+01 0. -1.
        -11    1    1    2    0    0  0.56598302284E+02  0.26048048682E+02 -0.17463084744E+02  0.64705702919E+02  0.00000000000E+00 0.  1.
         11    1    1    2    0    0 -0.20187010653E+02 -0.30193760062E+02  0.37791577006E+01  0.36516579505E+02  0.00000000000E+00 0. -1.
</event>
<event>
 7    1  0.3001243E-009  0.1213958E+03  0.7561462E-02  0.1240812E+00
          1   -1    0    0  501    0  0.00000000000E+00  0.00000000000E+00  0.23931083689E+03  0.23931083689E+03  0.00000000000E+00 0. -1.
         -1   -1    0    0    0  501 -0.00000000000E+00 -0.00000000000E+00 -0.11540762207E+03  0.11540762207E+03  0.00000000000E+00 0.  1.
         25    2    1    2    0    0 -0.48043592175E+02  0.45088011000E+02 -0.47975650843E+02  0.14929050458E+03  0.12507947953E+03 0.  0.
          5    1    3    3  502    0 -0.18437636220E+02  0.81905526382E+02 -0.56252281908E+02  0.10114471465E+03  0.41800000000E+01 0.  1.
         -5    1    3    3    0  502 -0.29605955955E+02 -0.36817515381E+02  0.82766310649E+01  0.48145789937E+02  0.41800000000E+01 0.  1.
        -11    1    1    2    0    0  0.58860987270E+02  0.59228849182E+01  0.10620619993E+03  0.12157077482E+03  0.00000000000E+00 0. -1.
         11    1    1    2    0    0 -0.10817395095E+02 -0.51010895919E+02  0.65672665738E+02  0.83857179562E+02  0.00000000000E+00 0.  1.
</event>
<event>
 7    1  0.3001243E-009  0.9389801E+02  0.7561462E-02  0.1293677E+00
         -2   -1    0    0    0  501 -0.00000000000E+00  0.00000000000E+00  0.17312640766E+02  0.17312640766E+02  0.00000000000E+00 0. -1.
          2   -1    0    0  501    0  0.00000000000E+00 -0.00000000000E+00 -0.10959174323E+04  0.10959174323E+04  0.00000000000E+00 0.  1.
         25    2    1    2    0    0 -0.66257542567E+02  0.25211795183E+02 -0.78258208141E+03  0.79568064169E+03  0.12508905973E+03 0.  0.
          5    1    3    3  502    0 -0.31562051607E+02 -0.24497072534E+02 -0.63235990965E+03  0.63363459296E+03  0.41800000000E+01 0.  1.
         -5    1    3    3    0  502 -0.34695490960E+02  0.49708867718E+02 -0.15022217176E+03  0.16204604873E+03  0.41800000000E+01 0.  1.
        -11    1    1    2    0    0  0.67233833377E+02 -0.58645654704E+01 -0.28926348562E+03  0.29703222988E+03  0.00000000000E+00 0.  1.
         11    1    1    2    0    0 -0.97629080959E+00 -0.19347229713E+02 -0.67592245256E+01  0.20517201503E+02  0.00000000000E+00 0. -1.
</event>
<event>
 7    1  0.3001243E-009  0.1003132E+03  0.7561462E-02  0.1279639E+00
         -4   -1    0    0    0  501 -0.00000000000E+00  0.00000000000E+00  0.59140601905E+03  0.59140601905E+03  0.00000000000E+00 0.  1.
          4   -1    0    0  501    0  0.00000000000E+00 -0.00000000000E+00 -0.29915857122E+02  0.29915857122E+02  0.00000000000E+00 0. -1.
         25    2    1    2    0    0  0.55659135312E+02  0.41612003851E+02  0.23250950988E+03  0.27301516424E+03  0.12508840677E+03 0.  0.
          5    1    3    3  502    0  0.61221259391E+02  0.48730112876E+02  0.24489487308E+03  0.25712572365E+03  0.41800000000E+01 0. -1.
         -5    1    3    3    0  502 -0.55621240791E+01 -0.71181090245E+01 -0.12385363202E+02  0.15889440582E+02  0.41800000000E+01 0. -1.
        -11    1    1    2    0    0 -0.42089708770E+02  0.21845688526E+02  0.17261667288E+03  0.17901199247E+03  0.00000000000E+00 0.  1.
         11    1    1    2    0    0 -0.13569426542E+02 -0.63457692378E+02  0.15636397916E+03  0.16929471946E+03  0.00000000000E+00 0. -1.
</event>
<event>
 7    1  0.3001243E-009  0.1523997E+03  0.7561462E-02  0.1197555E+00
         -2   -1    0    0    0  501 -0.00000000000E+00  0.00000000000E+00  0.63827905234E+02  0.63827905234E+02  0.00000000000E+00 0.  1.
          2   -1    0    0  501    0  0.00000000000E+00 -0.00000000000E+00 -0.49138805014E+03  0.49138805014E+03  0.00000000000E+00 0. -1.
         25    2    1    2    0    0  0.71908993313E+02 -0.74894077960E+02 -0.84717884128E+02  0.18331569186E+03  0.12508995466E+03 0.  0.
          5    1    3    3  502    0 -0.32187225648E+02  0.64770455599E+00 -0.27233397657E+02  0.42374135555E+02  0.41800000000E+01 0.  1.
         -5    1    3    3    0  502  0.10409621896E+03 -0.75541782516E+02 -0.57484486471E+02  0.14094155630E+03  0.41800000000E+01 0.  1.
        -11    1    1    2    0    0  0.13532039230E+02  0.54028817710E+02 -0.14772608670E+03  0.15787724954E+03  0.00000000000E+00 0. -1.
         11    1    1    2    0    0 -0.85441032543E+02  0.20865260251E+02 -0.19511617407E+03  0.21402301398E+03  0.00000000000E+00 0.  1.
</event>
<event>
 7    1  0.3001243E-009  0.1287450E+03  0.7561462E-02  0.1229330E+00
          1   -1    0    0  501    0  0.00000000000E+00  0.00000000000E+00  0.25329517200E+02  0.25329517200E+02  0.00000000000E+00 0. -1.
         -1   -1    0    0    0  501 -0.00000000000E+00 -0.00000000000E+00 -0.89420984961E+03  0.89420984961E+03  0.00000000000E+00 0.  1.
         25    2    1    2    0    0  0.70422582274E+02  0.48905475960E+02 -0.60382456533E+03  0.62257625676E+03  0.12508398824E+03 0.  0.
          5    1    3    3  502    0 -0.17086631665E+02  0.43328775774E+02 -0.36768901983E+03  0.37065081073E+03  0.41800000000E+01 0. -1.
         -5    1    3    3    0  502  0.87509213940E+02  0.55767001860E+01 -0.23613554550E+03  0.25192544603E+03  0.41800000000E+01 0. -1.
        -11    1    1    2    0    0  0.12831900644E+02  0.13701878066E+02 -0.95987307272E+01  0.21083993176E+02  0.00000000000E+00 0. -1.
         11    1    1    2    0    0 -0.83254482918E+02 -0.62607354027E+02 -0.25545703636E+03  0.27587911687E+03  0.00000000000E+00 0.  1.
</event>
<event>
 7    1  0.3001243E-009  0.7372048E+02  0.7561462E-02  0.1347880E+00
          1   -1    0    0  501    0  0.00000000000E+00  0.00000000000E+00  0.19182623521E+03  0.19182623521E+03  0.00000000000E+00 0. -1.
         -1   -1    0    0    0  501 -0.00000000000E+00 -0.00000000000E+00 -0.65965568521E+02  0.65965568521E+02  0.00000000000E+00 0.  1.
         25    2    1    2    0    0 -0.27063212924E+01  0.32423704170E+01  0.10531452890E+03  0.16357358119E+03  0.12508928541E+03 0.  0.
          5    1    3    3  502    0 -0.31212565122E+02  0.55098607208E+02  0.70215241557E+02  0.94645302496E+02  0.41800000000E+01 0. -1.
         -5    1    3    3    0  502  0.28506243829E+02 -0.51856236791E+02  0.35099287341E+02  0.68928278690E+02  0.41800000000E+01 0. -1.
        -11    1    1    2    0    0 -0.65619625276E+01  0.78299995684E+01  0.55482637300E+02  0.56415346203E+02  0.00000000000E+00 0. -1.
         11    1    1    2    0    0  0.92682838201E+01 -0.11072369985E+02 -0.34936499506E+02  0.37802876343E+02  0.00000000000E+00 0.  1.
</event>
<event>
 7    1  0.3001243E-009  0.9599065E+02  0.7561462E-02  0.1288960E+00
         -2   -1    0    0    0  501 -0.00000000000E+00  0.00000000000E+00  0.15711094575E+03  0.15711094575E+03  0.00000000000E+00 0. -1.
          2   -1    0    0  501    0  0.00000000000E+00 -0.00000000000E+00 -0.13889354066E+03  0.13889354066E+03  0.00000000000E+00 0.  1.
         25    2    1    2    0    0  0.17860690537E+02 -0.55227557401E+02 -0.72757106007E+02  0.15590634693E+03  0.12507639736E+03 0.  0.
          5    1    3    3  502    0  0.35787012131E-01  0.27965179243E+02 -0.64375268594E+02  0.70311450969E+02  0.41800000000E+01 0. -1.
         -5    1    3    3    0  502  0.17824903525E+02 -0.83192736644E+02 -0.83818374127E+01  0.85594895960E+02  0.41800000000E+01 0. -1.
        -11    1    1    2    0    0  0.10673265041E+02 -0.50681146630E+01  0.68793135587E+02  0.69800428916E+02  0.00000000000E+00 0. -1.
         11    1    1    2    0    0 -0.28533955578E+02  0.60295672064E+02  0.22181375517E+02  0.70297710563E+02  0.00000000000E+00 0.  1.
</event>
<event>
 7    1  0.3001243E-009  0.3871120E+03  0.7561462E-02  0.1048336E+00
          2   -1    0    0  501    0  0.00000000000E+00  0.00000000000E+00  0.21604097836E+04  0.21604097836E+04  0.00000000000E+00 0. -1.
         -2   -1    0    0    0  501 -0.00000000000E+00 -0.00000000000E+00 -0.79977598297E+02  0.79977598297E+02  0.00000000000E+00 0.  1.
         25    2    1    2    0    0  0.27303764964E+03  0.25371260639E+03  0.14483305065E+04  0.15007426637E+04  0.12509053530E+03 0.  0.
          5    1    3    3  502    0  0.11478888465E+03  0.18940017946E+03  0.86387082488E+03  0.89181791330E+03  0.41800000000E+01 0. -1.
         -5    1    3    3    0  502  0.15824876499E+03  0.64312426935E+02  0.58445968159E+03  0.60892475043E+03  0.41800000000E+01 0. -1.
        -11    1    1    2    0    0 -0.10623411715E+03 -0.15534934670E+03  0.35147451431E+03  0.39868965547E+03  0.00000000000E+00 0. -1.
         11    1    1    2    0    0 -0.16680353249E+03 -0.98363259690E+02  0.28062716452E+03  0.34095506269E+03  0.00000000000E+00 0.  1.
</event>
<event>
 7    1  0.3001243E-009  0.9511916E+02  0.7561462E-02  0.1290908E+00
          1   -1    0    0  501    0  0.00000000000E+00  0.00000000000E+00  0.73946719570E+02  0.73946719570E+02  0.00000000000E+00 0. -1.
         -1   -1    0    0    0  501 -0.00000000000E+00 -0.00000000000E+00 -0.18255482117E+03  0.18255482117E+03  0.00000000000E+00 0.  1.
         25    2    1    2    0    0  0.21636000544E+02  0.34956840989E+02 -0.64288811809E+02  0.14652427130E+03  0.12508482524E+03 0.  0.
          5    1    3    3  502    0  0.78414963217E+01  0.65660072553E+02 -0.84238310126E+02  0.10717415493E+03  0.41800000000E+01 0. -1.
         -5    1    3    3    0  502  0.13794504222E+02 -0.30703231564E+02  0.19949498317E+02  0.39350116370E+02  0.41800000000E+01 0. -1.
        -11    1    1    2    0    0 -0.52075968987E+02 -0.17317406571E+02 -0.19622366976E+01  0.54914929565E+02  0.00000000000E+00 0.  1.
         11    1    1    2    0    0  0.30439968443E+02 -0.17639434417E+02 -0.42357053089E+02  0.55062339868E+02  0.00000000000E+00 0. -1.
</event>
<event>
 7    1  0.3001243E-009  0.8193789E+02  0.7561462E-02  0.1323640E+00
         -2   -1    0    0    0  501 -0.00000000000E+00  0.00000000000E+00  0.20437197127E+03  0.20437197127E+03  0.00000000000E+00 0.  1.
          2   -1    0    0  501    0  0.00000000000E+00 -0.00000000000E+00 -0.75910478113E+02  0.75910478113E+02  0.00000000000E+00 0. -1.
         25    2    1    2    0    0 -0.74615298061E+01 -0.57649714857E+02  0.10028929248E+03  0.17053960642E+03  0.12508657452E+03 0.  0.
          5    1    3    3  502    0  0.39970600460E+02 -0.33557042657E+02  0.10463075907E+03  0.11699911177E+03  0.41800000000E+01 0.  1.
         -5    1    3    3    0  502 -0.47432130266E+02 -0.24092672200E+02 -0.43414665903E+01  0.53540494651E+02  0.41800000000E+01 0.  1.
        -11    1    1    2    0    0  0.27531887322E+01  0.27852759317E+02  0.59805909216E+02  0.66031076221E+02  0.00000000000E+00 0.  1.
         11    1    1    2    0    0  0.47083410739E+01  0.29796955541E+02 -0.31633708538E+02  0.43711766734E+02  0.00000000000E+00 0. -1.
</event>
<event>
 7    1  0.3001243E-009  0.7589431E+02  0.7561462E-02  0.1341124E+00
         -2   -1    0    0    0  501 -0.00000000000E+00  0.00000000000E+00  0.15287795122E+02  0.15287795122E+02  0.00000000000E+00 0.  1.
          2   -1    0    0  501    0  0.00000000000E+00 -0.00000000000E+00 -0.77207051970E+03  0.77207051970E+03  0.00000000000E+00 0. -1.
         25    2    1    2    0    0  0.92713657779E+01 -0.64733625700E+01 -0.45611075415E+03  0.47308773205E+03  0.12508844678E+03 0.  0.
          5    1    3    3  502    0 -0.45451788325E+01 -0.34730057361E+02 -0.31497586439E+02  0.47290653267E+02  0.41800000000E+01 0.  1.
         -5    1    3    3    0  502  0.13816544610E+02  0.28256694791E+02 -0.42461316771E+03  0.42579707878E+03  0.41800000000E+01 0.  1.
        -11    1    1    2    0    0 -0.23710130297E+02  0.40998509458E+02 -0.22401431588E+03  0.22896607123E+03  0.00000000000E+00 0. -1.
         11    1    1    2    0    0  0.14438764519E+02 -0.34525146888E+02 -0.76657654549E+02  0.85304511542E+02  0.00000000000E+00 0.  1.
</event>
<event>
 7    1  0.3001243E-009  0.1116265E+03  0.7561462E-02  0.1257587E+00
         -1   -1    0    0    0  501 -0.00000000000E+00  0.00000000000E+00  0.12131664338E+02  0.12131664338E+02  0.00000000000E+00 0.  1.
          1   -1    0    0  501    0  0.00000000000E+00 -0.00000000000E+00 -0.10778589850E+04  0.10778589850E+04  0.00000000000E+00 0. -1.
         25    2    1    2    0    0 -0.27929457224E+02 -0.92831149452E+01 -0.70436659657E+03  0.71599277139E+03  0.12508843081E+03 0.  0.
          5    1    3    3  502    0 -0.22430497183E+02 -0.66048209335E+02 -0.43980707741E+03  0.44532373718E+03  0.41800000000E+01 0. -1.
         -5    1    3    3    0  502 -0.54989600403E+01  0.56765094390E+02 -0.26455951916E+03  0.27066903421E+03  0.41800000000E+01 0. -1.
        -11    1    1    2    0    0 -0.76016802469E+01  0.45102189440E+02 -0.15958768516E+03  0.16601271725E+03  0.00000000000E+00 0.  1.
         11    1    1    2    0    0  0.35531137471E+02 -0.35819074494E+02 -0.20177303893E+03  0.20798516069E+03  0.00000000000E+00 0. -1.
</event>
<event>
 7    1  0.3209068E-009  0.1332167E+03  0.7561462E-02  0.1222759E+00
          1   -1    0    0  501    0  0.00000000000E+00  0.00000000000E+00  0.45252125032E+03  0.45252125032E+03  0.00000000000E+00 0. -1.
         -1   -1    0    0    0  501 -0.00000000000E+00 -0.00000000000E+00 -0.47007757304E+02  0.47007757304E+02  0.00000000000E+00 0.  1.
         25    2    1    2    0    0 -0.16057390807E+01 -0.89744192457E+02  0.15536882006E+03  0.21873112937E+03  0.12508892129E+03 0.  0.
          5    1    3    3  502    0  0.47004649384E+02 -0.10559680224E+02  0.15536855085E+02  0.50791831785E+02  0.41800000000E+01 0. -1.
         -5    1    3    3    0  502 -0.48610388465E+02 -0.79184512232E+02  0.13983196497E+03  0.16793929758E+03  0.41800000000E+01 0. -1.
        -11    1    1    2    0    0  0.33994795857E+02  0.50201487463E+01  0.46075137528E+02  0.57478398874E+02  0.00000000000E+00 0.  1.
         11    1    1    2    0    0 -0.32389056777E+02  0.84724043710E+02  0.20406953543E+03  0.22331947938E+03  0.00000000000E+00 0. -1.
</event>
<event>
 7    1  0.3001243E-009  0.1117456E+03  0.7561462E-02  0.1257371E+00
          3   -1    0    0  501    0  0.00000000000E+00  0.00000000000E+00  0.20944271104E+03  0.20944271104E+03  0.00000000000E+00 0. -1.
         -3   -1    0    0    0  501 -0.00000000000E+00 -0.00000000000E+00 -0.77963934330E+02  0.77963934330E+02  0.00000000000E+00 0.  1.
         25    2    1    2    0    0  0.54872099686E+02  0.28181246549E+01  0.31562716528E+02  0.14022778487E+03  0.12509491367E+03 0.  0.
          5    1    3    3  502    0 -0.21496556715E+02  0.43521882067E+02  0.20601118393E+02  0.52897397368E+02  0.41800000000E+01 0.  1.
         -5    1    3    3    0  502  0.76368656401E+02 -0.40703757412E+02  0.10961598134E+02  0.87330387505E+02  0.41800000000E+01 0.  1.
        -11    1    1    2    0    0 -0.56466430655E+02  0.23935089980E+02  0.22619842684E+02  0.65368215566E+02  0.00000000000E+00 0.  1.
         11    1    1    2    0    0  0.15943309684E+01 -0.26753214634E+02  0.77296217501E+02  0.81810644934E+02  0.00000000000E+00 0. -1.
</event>
<event>
 7    1  0.3001243E-009  0.9479215E+02  0.7561462E-02  0.1291645E+00
          3   -1    0    0  501    0  0.00000000000E+00  0.00000000000E+00  0.72760467191E+03  0.72760467191E+03  0.00000000000E+00 0. -1.
         -3   -1    0    0    0  501 -0.00000000000E+00 -0.00000000000E+00 -0.20030447305E+02  0.20030447305E+02  0.00000000000E+00 0.  1.
         25    2    1    2    0    0 -0.50562860444E+02 -0.12084812537E+01  0.39004587055E+03  0.41272459033E+03  0.12509093912E+03 0.  0.
          5    1    3    3  502    0 -0.39168923167E+02  0.30135935321E+02  0.47964843751E+02  0.68996215663E+02  0.41800000000E+01 0.  1.
         -5    1    3    3    0  502 -0.11393937277E+02 -0.31344416575E+02  0.34208102679E+03  0.34372837467E+03  0.41800000000E+01 0.  1.
        -11    1    1    2    0    0  0.78434540467E+02  0.24928348796E+01  0.22714646586E+03  0.24032001231E+03  0.00000000000E+00 0. -1.
         11    1    1    2    0    0 -0.27871680023E+02 -0.12843536259E+01  0.90381888205E+02  0.94590516580E+02  0.00000000000E+00 0.  1.
</event>
<event>
 7    1  0.3001243E-009  0.3489584E+03  0.7561462E-02  0.1063043E+00
          1   -1    0    0  501    0  0.00000000000E+00  0.00000000000E+00  0.13536370193E+03  0.13536370193E+03  0.00000000000E+00 0. -1.
         -1   -1    0    0    0  501 -0.00000000000E+00 -0.00000000000E+00 -0.97301365723E+03  0.97301365723E+03  0.00000000000E+00 0.  1.
         25    2    1    2    0    0 -0.20605733476E+03  0.26347296693E+03 -0.55965789690E+03  0.66388315922E+03  0.12508500318E+03 0.  0.
          5    1    3    3  502    0 -0.85371686067E+02  0.19497721898E+03 -0.28081129400E+03  0.35238742307E+03  0.41800000000E+01 0.  1.
         -5    1    3    3    0  502 -0.12068564869E+03  0.68495747952E+02 -0.27884660290E+03  0.31149573614E+03  0.41800000000E+01 0.  1.
        -11    1    1    2    0    0  0.18838602204E+03 -0.17890157331E+03 -0.22004983983E+03  0.34046585474E+03  0.00000000000E+00 0. -1.
         11    1    1    2    0    0  0.17671312715E+02 -0.84571393621E+02 -0.57942218566E+02  0.10402834520E+03  0.00000000000E+00 0.  1.
</event>
<event>
 7    1  0.3001243E-009  0.9412317E+02  0.7561462E-02  0.1293163E+00
          1   -1    0    0  501    0  0.00000000000E+00  0.00000000000E+00  0.62479245747E+02  0.62479245747E+02  0.00000000000E+00 0. -1.
         -1   -1    0    0    0  501 -0.00000000000E+00 -0.00000000000E+00 -0.18816871202E+03  0.18816871202E+03  0.00000000000E+00 0.  1.
         25    2    1    2    0    0  0.85897838371E+01 -0.37082954397E+01 -0.67327074336E+02  0.14236421597E+03  0.12508836560E+03 0.  0.
          5    1    3    3  502    0 -0.36312274919E+02 -0.38609795020E+02  0.12419209452E+01  0.53181879893E+02  0.41800000000E+01 0.  1.
         -5    1    3    3    0  502  0.44902058756E+02  0.34901499581E+02 -0.68568995281E+02  0.89182336073E+02  0.41800000000E+01 0.  1.
        -11    1    1    2    0    0  0.73876274627E+01  0.38799843342E+02 -0.57447417104E+02  0.69715210786E+02  0.00000000000E+00 0.  1.
         11    1    1    2    0    0 -0.15977411300E+02 -0.35091547903E+02 -0.91497483540E+00  0.38568531019E+02  0.00000000000E+00 0. -1.
</event>
<event>
 7    1  0.3001243E-009  0.7135399E+02  0.7561462E-02  0.1355548E+00
         -2   -1    0    0    0  501 -0.00000000000E+00  0.00000000000E+00  0.15014153623E+03  0.15014153623E+03  0.00000000000E+00 0.  1.
          2   -1    0    0  501    0  0.00000000000E+00 -0.00000000000E+00 -0.83633063706E+02  0.83633063706E+02  0.00000000000E+00 0. -1.
         25    2    1    2    0    0 -0.16004838289E+02  0.23455353449E+02  0.26886525209E+02  0.13106025828E+03  0.12509035778E+03 0.  0.
          5    1    3    3  502    0 -0.14630973170E+02  0.67910206733E+02 -0.13438519202E+02  0.70879670941E+02  0.41800000000E+01 0.  1.
         -5    1    3    3    0  502 -0.13738651192E+01 -0.44454853284E+02  0.40325044410E+02  0.60180587340E+02  0.41800000000E+01 0.  1.
        -11    1    1    2    0    0  0.81175781369E+01 -0.13328354816E+02  0.68953320648E+02  0.70697245669E+02  0.00000000000E+00 0.  1.
         11    1    1    2    0    0  0.78872601525E+01 -0.10126998633E+02 -0.29331373330E+02  0.32017095987E+02  0.00000000000E+00 0. -1.
</event>
<event>
 7    1  0.3001243E-009  0.1155087E+03  0.7561462E-02  0.1250696E+00
          1   -1    0    0  501    0  0.00000000000E+00  0.00000000000E+00  0.74463821627E+03  0.74463821627E+03  0.00000000000E+00 0. -1.
         -1   -1    0    0    0  501 -0.00000000000E+00 -0.00000000000E+00 -0.24707414368E+02  0.24707414368E+02  0.00000000000E+00 0.  1.
         25    2    1    2    0    0  0.37425994925E+02 -0.65764193832E+02  0.47166786510E+03  0.49380603167E+03  0.12509271626E+03 0.  0.
          5    1    3    3  502    0 -0.27175330781E+02 -0.51248152077E+02  0.35381085572E+03  0.35855887344E+03  0.41800000000E+01 0.  1.
         -5    1    3    3    0  502  0.64601325705E+02 -0.14516041755E+02  0.11785700938E+03  0.13524715823E+03  0.41800000000E+01 0.  1.
        -11    1    1    2    0    0 -0.17202201026E+01  0.70478830279E+02  0.96184700865E+02  0.11925485883E+03  0.00000000000E+00 0.  1.
         11    1    1    2    0    0 -0.35705774822E+02 -0.47146364465E+01  0.15207823594E+03  0.15628474014E+03  0.00000000000E+00 0. -1.
</event>
<event>
 7    1  0.3765814E-009  0.8424011E+02  0.7561462E-02  0.1317432E+00
         -2   -1    0    0    0  501 -0.00000000000E+00  0.00000000000E+00  0.25946578477E+02  0.25946578477E+02  0.00000000000E+00 0.  1.
          2   -1    0    0  501    0  0.00000000000E+00 -0.00000000000E+00 -0.55705709624E+03  0.55705709624E+03  0.00000000000E+00 0. -1.
         25    2    1    2    0    0 -0.47778448760E+02 -0.21066966626E+02 -0.31312911549E+03  0.34120821446E+03  0.12508639173E+03 0.  0.
          5    1    3    3  502    0 -0.72079366227E+01  0.23384253093E+02 -0.26990460884E+01  0.24970680665E+02  0.41800000000E+01 0.  1.
         -5    1    3    3    0  502 -0.40570512137E+02 -0.44451219719E+02 -0.31043006940E+03  0.31623753379E+03  0.41800000000E+01 0. -1.
        -11    1    1    2    0    0 -0.15804181099E+02 -0.14648068571E+01 -0.25823335885E+01  0.16080617094E+02  0.00000000000E+00 0.  1.
         11    1    1    2    0    0  0.63582629859E+02  0.22531773483E+02 -0.21539906868E+03  0.22571484316E+03  0.00000000000E+00 0. -1.
</event>
<event>
 7    1  0.3001243E-009  0.9888209E+02  0.7561462E-02  0.1282664E+00
          1   -1    0    0  501    0  0.00000000000E+00  0.00000000000E+00  0.72298720465E+02  0.72298720465E+02  0.00000000000E+00 0. -1.
         -1   -1    0    0    0  501 -0.00000000000E+00 -0.00000000000E+00 -0.31791427973E+03  0.31791427973E+03  0.00000000000E+00 0.  1.
         25    2    1    2    0    0 -0.12045434691E+02 -0.10383827156E+02 -0.25561867763E+03  0.28502848162E+03  0.12508961034E+03 0.  0.
          5    1    3    3  502    0 -0.28964415003E+02 -0.60038951061E+02 -0.18688950533E+03  0.19846604894E+03  0.41800000000E+01 0.  1.
         -5    1    3    3    0  502  0.16918980312E+02  0.49655123905E+02 -0.68729172304E+02  0.86562432674E+02  0.41800000000E+01 0.  1.
        -11    1    1    2    0    0  0.67673759195E+01  0.43900193519E+02 -0.29338304635E+02  0.53233076998E+02  0.00000000000E+00 0.  1.
         11    1    1    2    0    0  0.52780587717E+01 -0.33516366363E+02  0.39341423001E+02  0.51951441581E+02  0.00000000000E+00 0. -1.
</event>
<event>
 7    1  0.3001243E-009  0.5806564E+02  0.7561462E-02  0.1406133E+00
          1   -1    0    0  501    0  0.00000000000E+00  0.00000000000E+00  0.17594832002E+02  0.17594832002E+02  0.00000000000E+00 0. -1.
         -1   -1    0    0    0  501 -0.00000000000E+00 -0.00000000000E+00 -0.11091605205E+04  0.11091605205E+04  0.00000000000E+00 0.  1.
         25    2    1    2    0    0 -0.43665741500E+02  0.11397338680E+02 -0.90102409208E+03  0.91078430860E+03  0.12508815284E+03 0.  0.
          5    1    3    3  502    0 -0.26505692899E+02 -0.69775794714E+00 -0.33188488565E+02  0.42684737266E+02  0.41800000000E+01 0.  1.
         -5    1    3    3    0  502 -0.17160048601E+02  0.12095096627E+02 -0.86783560351E+03  0.86809957133E+03  0.41800000000E+01 0.  1.
        -11    1    1    2    0    0  0.75334188511E+00  0.16617855085E+02  0.19735196723E+01  0.16751579374E+02  0.00000000000E+00 0. -1.
         11    1    1    2    0    0  0.42912399615E+02 -0.28015193765E+02 -0.19251511610E+03  0.19921946454E+03  0.00000000000E+00 0.  1.
</event>
<event>
 7    1  0.3001243E-009  0.1135719E+03  0.7561462E-02  0.1254095E+00
         -1   -1    0    0    0  501 -0.00000000000E+00  0.00000000000E+00  0.50980187975E+03  0.50980187975E+03  0.00000000000E+00 0.  1.
          1   -1    0    0  501    0  0.00000000000E+00 -0.00000000000E+00 -0.28571612270E+02  0.28571612270E+02  0.00000000000E+00 0. -1.
         25    2    1    2    0    0  0.32101503590E+02  0.39992622365E+02  0.24660079940E+03  0.28122817648E+03  0.12508963428E+03 0.  0.
          5    1    3    3  502    0  0.75843492026E+02  0.21356401272E+01  0.12099312830E+03  0.14287619024E+03  0.41800000000E+01 0. -1.
         -5    1    3    3    0  502 -0.43741988436E+02  0.37856982238E+02  0.12560767110E+03  0.13835198624E+03  0.41800000000E+01 0. -1.
        -11    1    1    2    0    0 -0.52803108630E+02 -0.47609017961E+02  0.11281073133E+03  0.13334559601E+03  0.00000000000E+00 0. -1.
         11    1    1    2    0    0  0.20701605040E+02  0.76163955958E+01  0.12181873675E+03  0.12379971954E+03  0.00000000000E+00 0.  1.
</event>
<event>
 7    1  0.3001243E-009  0.1203682E+03  0.7561462E-02  0.1242491E+00
         -2   -1    0    0    0  501 -0.00000000000E+00  0.00000000000E+00  0.83027513739E+02  0.83027513739E+02  0.00000000000E+00 0.  1.
          2   -1    0    0  501    0  0.00000000000E+00 -0.00000000000E+00 -0.22501003044E+03  0.22501003044E+03  0.00000000000E+00 0. -1.
         25    2    1    2    0    0 -0.36924576100E+02  0.59335399137E+02 -0.28717945748E+02  0.14614472283E+03  0.12509774456E+03 0.  0.
          5    1    3    3  502    0  0.33551100429E+02  0.62299542999E+02 -0.29932145096E+01  0.70946043801E+02  0.41800000000E+01 0. -1.
         -5    1    3    3    0  502 -0.70475676529E+02 -0.29641438619E+01 -0.25724731238E+02  0.75198679034E+02  0.41800000000E+01 0. -1.
        -11    1    1    2    0    0  0.44156127056E+02 -0.72085078442E+02 -0.52781470082E+02  0.99658946786E+02  0.00000000000E+00 0. -1.
         11    1    1    2    0    0 -0.72315509557E+01  0.12749679304E+02 -0.60483100870E+02  0.62233874558E+02  0.00000000000E+00 0.  1.
</event>
<event>
 7    1  0.3001243E-009  0.1088295E+03  0.7561462E-02  0.1262753E+00
          2   -1    0    0  501    0  0.00000000000E+00  0.00000000000E+00  0.41972711766E+03  0.41972711766E+03  0.00000000000E+00 0.  1.
         -2   -1    0    0    0  501 -0.00000000000E+00 -0.00000000000E+00 -0.35207447030E+02  0.35207447030E+02  0.00000000000E+00 0. -1.
         25    2    1    2    0    0  0.36637554650E+02 -0.38280503301E+02  0.23180571075E+03  0.26868127041E+03  0.12509208682E+03 0.  0.
          5    1    3    3  502    0 -0.15268581867E+02  0.39263052842E+02  0.67325586819E+02  0.79529390487E+02  0.41800000000E+01 0. -1.
         -5    1    3    3    0  502  0.51906136517E+02 -0.77543556143E+02  0.16448012393E+03  0.18915187992E+03  0.41800000000E+01 0. -1.
        -11    1    1    2    0    0  0.17192219318E+02  0.27268397350E+01 -0.30376331500E+01  0.17670180395E+02  0.00000000000E+00 0.  1.
         11    1    1    2    0    0 -0.53829773969E+02  0.35553663566E+02  0.15575159303E+03  0.16858311389E+03  0.00000000000E+00 0. -1.
</event>
<event>
 7    1  0.3001243E-009  0.7636246E+02  0.7561462E-02  0.1339703E+00
         -2   -1    0    0    0  501 -0.00000000000E+00  0.00000000000E+00  0.67451477508E+03  0.67451477508E+03  0.00000000000E+00 0.  1.
          2   -1    0    0  501    0  0.00000000000E+00 -0.00000000000E+00 -0.20311492462E+02  0.20311492462E+02  0.00000000000E+00 0. -1.
         25    2    1    2    0    0  0.76912328237E+01 -0.43783808703E+02  0.39222827175E+03  0.41407954331E+03  0.12507067627E+03 0.  0.
          5    1    3    3  502    0 -0.12655543856E+02 -0.80229657464E+01 -0.37055941602E+01  0.15991704029E+02  0.41800000000E+01 0. -1.
         -5    1    3    3    0  502  0.20346776680E+02 -0.35760842956E+02  0.39593386591E+03  0.39808783928E+03  0.41800000000E+01 0. -1.
        -11    1    1    2    0    0  0.35397596036E+02  0.14801776652E+01  0.14302321010E+03  0.14734591734E+03  0.00000000000E+00 0.  1.
         11    1    1    2    0    0 -0.43088828860E+02  0.42303631038E+02  0.11895180077E+03  0.13340080689E+03  0.00000000000E+00 0. -1.
</event>
<event>
 7    1  0.3001243E-009  0.1151922E+03  0.7561462E-02  0.1251246E+00
         -3   -1    0    0    0  501 -0.00000000000E+00  0.00000000000E+00  0.90270969516E+02  0.90270969516E+02  0.00000000000E+00 0.  1.
          3   -1    0    0  501    0  0.00000000000E+00 -0.00000000000E+00 -0.14827631946E+03  0.14827631946E+03  0.00000000000E+00 0. -1.
         25    2    1    2    0    0  0.23907118192E+02  0.32026768633E+02 -0.33818095246E+02  0.13560894421E+03  0.12509539549E+03 0.  0.
          5    1    3    3  502    0  0.72019089573E+02  0.39443509968E+02 -0.25206780038E+02  0.85996476099E+02  0.41800000000E+01 0.  1.
         -5    1    3    3    0  502 -0.48111971381E+02 -0.74167413353E+01 -0.86113152077E+01  0.49612468109E+02  0.41800000000E+01 0.  1.
        -11    1    1    2    0    0 -0.37971744522E+02  0.21722875193E+02 -0.16925853813E+02  0.46906515710E+02  0.00000000000E+00 0. -1.
         11    1    1    2    0    0  0.14064626331E+02 -0.53749643826E+02 -0.72614008876E+01  0.56031829062E+02  0.00000000000E+00 0.  1.
</event>
<event>
 7    1  0.3001243E-009  0.1535060E+03  0.7561462E-02  0.1196230E+00
          1   -1    0    0  501    0  0.00000000000E+00  0.00000000000E+00  0.35488267467E+03  0.35488267467E+03  0.00000000000E+00 0. -1.
         -1   -1    0    0    0  501 -0.00000000000E+00 -0.00000000000E+00 -0.12617401936E+03  0.12617401936E+03  0.00000000000E+00 0.  1.
         25    2    1    2    0    0 -0.59804655233E+02 -0.13259158389E+03 -0.42587405105E+01  0.19189423001E+03  0.12509250071E+03 0.  0.
          5    1    3    3  502    0 -0.62996102256E+02 -0.13904595443E+03  0.30866009274E+02  0.15579624280E+03  0.41800000000E+01 0. -1.
         -5    1    3    3    0  502  0.31914470227E+01  0.64543705380E+01 -0.35124749785E+02  0.36097987210E+02  0.41800000000E+01 0. -1.
        -11    1    1    2    0    0  0.27146220690E+02  0.75137181019E+02  0.49085592965E+02  0.93765178537E+02  0.00000000000E+00 0.  1.
         11    1    1    2    0    0  0.32658434543E+02  0.57454402868E+02  0.18388180285E+03  0.19539728549E+03  0.00000000000E+00 0. -1.
</event>
<event>
 7    1  0.3001243E-009  0.1224810E+03  0.7561462E-02  0.1239059E+00
          2   -1    0    0  501    0  0.00000000000E+00  0.00000000000E+00  0.87619389565E+02  0.87619389565E+02  0.00000000000E+00 0. -1.
         -2   -1    0    0    0  501 -0.00000000000E+00 -0.00000000000E+00 -0.18877652450E+03  0.18877652450E+03  0.00000000000E+00 0.  1.
         25    2    1    2    0    0  0.57125572131E+02  0.15339115937E+02 -0.88886311769E+02  0.16445916552E+03  0.12508965279E+03 0.  0.
          5    1    3    3  502    0  0.91803162227E+02 -0.11506756555E+02 -0.47817041907E+02  0.10423131937E+03  0.41800000000E+01 0. -1.
         -5    1    3    3    0  502 -0.34677590095E+02  0.26845872492E+02 -0.41069269862E+02  0.60227846149E+02  0.41800000000E+01 0. -1.
        -11    1    1    2    0    0 -0.27119806008E+02 -0.53360970612E+02  0.60277326700E+01  0.60159875529E+02  0.00000000000E+00 0. -1.
         11    1    1    2    0    0 -0.30005766123E+02  0.38021854674E+02 -0.18298555835E+02  0.51776873014E+02  0.00000000000E+00 0.  1.
</event>
<event>
 7    1  0.3001243E-009  0.9374347E+02  0.7561462E-02  0.1294031E+00
         -2   -1    0    0    0  501 -0.00000000000E+00  0.00000000000E+00  0.41508816193E+03  0.41508816193E+03  0.00000000000E+00 0. -1.
          2   -1    0    0  501    0  0.00000000000E+00 -0.00000000000E+00 -0.38893029967E+02  0.38893029967E+02  0.00000000000E+00 0.  1.
         25    2    1    2    0    0  0.59138782504E+02 -0.18018329334E+02  0.25430227417E+03  0.29006672333E+03  0.12508797523E+03 0.  0.
          5    1    3    3  502    0  0.38372708366E+02  0.34847904645E+02  0.21417504987E+03  0.22039797093E+03  0.41800000000E+01 0. -1.
         -5    1    3    3    0  502  0.20766074138E+02 -0.52866233980E+02  0.40127224305E+02  0.69668752398E+02  0.41800000000E+01 0. -1.
        -11    1    1    2    0    0 -0.19443308635E+02  0.31150524691E+02  0.18149174573E+01  0.36765355494E+02  0.00000000000E+00 0.  1.
         11    1    1    2    0    0 -0.39695473869E+02 -0.13132195357E+02  0.12007794033E+03  0.12714911307E+03  0.00000000000E+00 0. -1.
</event>
<event>
 7    1  0.3001243E-009  0.9821371E+02  0.7561462E-02  0.1284098E+00
         -1   -1    0    0    0  501 -0.00000000000E+00  0.00000000000E+00  0.16681675236E+03  0.16681675236E+03  0.00000000000E+00 0.  1.
          1   -1    0    0  501    0  0.00000000000E+00 -0.00000000000E+00 -0.10488465701E+03  0.10488465701E+03  0.00000000000E+00 0. -1.
         25    2    1    2    0    0 -0.56185224326E+02 -0.38040707509E+02 -0.36540827300E+00  0.14230826917E+03  0.12509050760E+03 0.  0.
          5    1    3    3  502    0 -0.46796565601E+02  0.15257281124E+01  0.55723604492E+02  0.72902941613E+02  0.41800000000E+01 0.  1.
         -5    1    3    3    0  502 -0.93886587255E+01 -0.39566435621E+02 -0.56089012765E+02  0.69405327558E+02  0.41800000000E+01 0.  1.
        -11    1    1    2    0    0  0.25933812118E+02 -0.26613053474E+02  0.42744578273E+01  0.37404387656E+02  0.00000000000E+00 0.  1.
         11    1    1    2    0    0  0.30251412208E+02  0.64653760983E+02  0.58023045798E+02  0.91988752538E+02  0.00000000000E+00 0. -1.
</event>
<event>
 7    1  0.3268951E-009  0.8357939E+02  0.7561462E-02  0.1319190E+00
         -1   -1    0    0    0  501 -0.00000000000E+00  0.00000000000E+00  0.31544258188E+02  0.31544258188E+02  0.00000000000E+00 0.  1.
          1   -1    0    0  501    0  0.00000000000E+00 -0.00000000000E+00 -0.44683976863E+03  0.44683976863E+03  0.00000000000E+00 0. -1.
         25    2    1    2    0    0 -0.45346281716E+02  0.17028341703E+02 -0.23666291640E+03  0.27203425577E+03  0.12508817141E+03 0.  0.
          5    1    3    3  502    0  0.22959881106E+02 -0.19349559517E+02 -0.16062304658E+03  0.16345885442E+03  0.41800000000E+01 0. -1.
         -5    1    3    3    0  502 -0.68306162823E+02  0.36377901220E+02 -0.76039869816E+02  0.10857540135E+03  0.41800000000E+01 0. -1.
        -11    1    1    2    0    0  0.36410408083E+01  0.93228076518E+01  0.83091949632E+01  0.13008252827E+02  0.00000000000E+00 0.  1.
         11    1    1    2    0    0  0.41705240908E+02 -0.26351149355E+02 -0.18694178901E+03  0.19334151822E+03  0.00000000000E+00 0. -1.
</event>
<event>
 7    1  0.3106634E-009  0.1470139E+03  0.7561462E-02  0.1204191E+00
         -1   -1    0    0    0  501 -0.00000000000E+00  0.00000000000E+00  0.34427832013E+02  0.34427832013E+02  0.00000000000E+00 0.  1.
          1   -1    0    0  501    0  0.00000000000E+00 -0.00000000000E+00 -0.87312489065E+03  0.87312489065E+03  0.00000000000E+00 0. -1.
         25    2    1    2    0    0  0.88527254600E+02  0.73326267565E+02 -0.26073811455E+03  0.31119974371E+03  0.12508836791E+03 0.  0.
          5    1    3    3  502    0  0.11452968304E+03  0.60392606057E+02 -0.15780791990E+03  0.20416935899E+03  0.41800000000E+01 0.  1.
         -5    1    3    3    0  502 -0.26002428443E+02  0.12933661508E+02 -0.10293019465E+03  0.10703038473E+03  0.41800000000E+01 0.  1.
        -11    1    1    2    0    0  0.92296976790E+01 -0.23859830845E+02 -0.40969172371E+02  0.48300641113E+02  0.00000000000E+00 0.  1.
         11    1    1    2    0    0 -0.97756952279E+02 -0.49466436720E+02 -0.53698977171E+03  0.54805233783E+03  0.00000000000E+00 0. -1.
</event>
<event>
 7    1  0.3001243E-009  0.9439231E+02  0.7561462E-02  0.1292551E+00
          2   -1    0    0  501    0  0.00000000000E+00  0.00000000000E+00  0.64168230720E+03  0.64168230720E+03  0.00000000000E+00 0. -1.
         -2   -1    0    0    0  501 -0.00000000000E+00 -0.00000000000E+00 -0.24269079306E+02  0.24269079306E+02  0.00000000000E+00 0.  1.
         25    2    1    2    0    0  0.44708927043E+02  0.41199453778E+02  0.37531962336E+03  0.40025547424E+03  0.12507334579E+03 0.  0.
          5    1    3    3  502    0 -0.54842782553E+00  0.33755785517E+02  0.15297198531E+02  0.37299202563E+02  0.41800000000E+01 0. -1.
         -5    1    3    3    0  502  0.45257354869E+02  0.74436682609E+01  0.36002242483E+03  0.36295627168E+03  0.41800000000E+01 0. -1.
        -11    1    1    2    0    0 -0.50736819754E+02  0.14435587016E+02  0.10185178753E+03  0.11470134120E+03  0.00000000000E+00 0.  1.
         11    1    1    2    0    0  0.60278927103E+01 -0.55635040793E+02  0.14024181700E+03  0.15099457106E+03  0.00000000000E+00 0. -1.
</event>
<event>
 7    1  0.3001243E-009  0.1935791E+03  0.7561462E-02  0.1155272E+00
         -1   -1    0    0    0  501 -0.00000000000E+00  0.00000000000E+00  0.13243715219E+03  0.13243715219E+03  0.00000000000E+00 0.  1.
          1   -1    0    0  501    0  0.00000000000E+00 -0.00000000000E+00 -0.31215347485E+03  0.31215347485E+03  0.00000000000E+00 0. -1.
         25    2    1    2    0    0 -0.84808627564E+02 -0.14717622417E+03 -0.13456627642E+03  0.25021726727E+03  0.12508898361E+03 0.  0.
          5    1    3    3  502    0 -0.82235653616E+02 -0.16551764970E+03 -0.98532552576E+02  0.20948730607E+03  0.41800000000E+01 0. -1.
         -5    1    3    3    0  502 -0.25729739477E+01  0.18341425529E+02 -0.36033723847E+02  0.40729961203E+02  0.41800000000E+01 0. -1.
        -11    1    1    2    0    0  0.97026854274E+02  0.13183725387E+03 -0.23850574291E+02  0.16542104417E+03  0.00000000000E+00 0.  1.
         11    1    1    2    0    0 -0.12218226711E+02  0.15338970295E+02 -0.21299471949E+02  0.28952315606E+02  0.00000000000E+00 0. -1.
</event>
<event>
 7    1  0.3001243E-009  0.1014547E+03  0.7561462E-02  0.1277266E+00
          2   -1    0    0  501    0  0.00000000000E+00  0.00000000000E+00  0.39260612230E+03  0.39260612230E+03  0.00000000000E+00 0. -1.
         -2   -1    0    0    0  501 -0.00000000000E+00 -0.00000000000E+00 -0.41146021799E+02  0.41146021799E+02  0.00000000000E+00 0.  1.
         25    2    1    2    0    0  0.61097339550E+02 -0.19145245552E-01  0.14396188349E+03  0.20026064215E+03  0.12508563320E+03 0.  0.
          5    1    3    3  502    0  0.96602674721E+02  0.18477081294E+02  0.10977591263E+03  0.14745067884E+03  0.41800000000E+01 0. -1.
         -5    1    3    3    0  502 -0.35505335171E+02 -0.18496226539E+02  0.34185970858E+02  0.52809963315E+02  0.41800000000E+01 0. -1.
        -11    1    1    2    0    0 -0.24483365565E+02 -0.96968022251E+01  0.41665633431E+01  0.26661271779E+02  0.00000000000E+00 0.  1.
         11    1    1    2    0    0 -0.36613973985E+02  0.97159474707E+01  0.20333165367E+03  0.20683023016E+03  0.00000000000E+00 0. -1.
</event>
<event>
 7    1  0.3001243E-009  0.1473221E+03  0.7561462E-02  0.1203803E+00
          2   -1    0    0  501    0  0.00000000000E+00  0.00000000000E+00  0.93253945970E+02  0.93253945970E+02  0.00000000000E+00 0. -1.
         -2   -1    0    0    0  501 -0.00000000000E+00 -0.00000000000E+00 -0.34532597855E+03  0.34532597855E+03  0.00000000000E+00 0.  1.
         25    2    1    2    0    0 -0.11159153573E+03 -0.34018669953E+02 -0.32822243024E+02  0.17416970854E+03  0.12509135455E+03 0.  0.
          5    1    3    3  502    0 -0.12017180329E+03 -0.52685332587E+02  0.45053940141E+01  0.13135744193E+03  0.41800000000E+01 0.  1.
         -5    1    3    3    0  502  0.85802675597E+01  0.18666662633E+02 -0.37327637038E+02  0.42812266608E+02  0.41800000000E+01 0.  1.
        -11    1    1    2    0    0  0.46735711276E+02 -0.26471649641E+02 -0.11901012382E+03  0.13056946241E+03  0.00000000000E+00 0.  1.
         11    1    1    2    0    0  0.64855824449E+02  0.60490319594E+02 -0.10023966573E+03  0.13384075357E+03  0.00000000000E+00 0. -1.
</event>
<event>
 7    1  0.3001243E-009  0.9625745E+02  0.7561462E-02  0.1288369E+00
         -2   -1    0    0    0  501 -0.00000000000E+00  0.00000000000E+00  0.22261585066E+03  0.22261585066E+03  0.00000000000E+00 0.  1.
          2   -1    0    0  501    0  0.00000000000E+00 -0.00000000000E+00 -0.58934404042E+02  0.58934404042E+02  0.00000000000E+00 0. -1.
         25    2    1    2    0    0  0.23622210717E+01  0.37673984460E+02  0.88027392896E+02  0.15755521050E+03  0.12509961336E+03 0.  0.
          5    1    3    3  502    0  0.51922402163E+02 -0.15108972134E+02  0.56975633522E+02  0.78663283053E+02  0.41800000000E+01 0.  1.
         -5    1    3    3    0  502 -0.49560181091E+02  0.52782956594E+02  0.31051759374E+02  0.78891927450E+02  0.41800000000E+01 0.  1.
        -11    1    1    2    0    0 -0.12579521973E+02 -0.48947981896E+02  0.39480056128E+01  0.50692564081E+02  0.00000000000E+00 0. -1.
         11    1    1    2    0    0  0.10217300901E+02  0.11273997436E+02  0.71706048108E+02  0.73302480116E+02  0.00000000000E+00 0.  1.
</event>
<event>
 7    1  0.3001243E-009  0.1441500E+03  0.7561462E-02  0.1207851E+00
          2   -1    0    0  501    0  0.00000000000E+00  0.00000000000E+00  0.56468603837E+03  0.56468603837E+03  0.00000000000E+00 0. -1.
         -2   -1    0    0    0  501 -0.00000000000E+00 -0.00000000000E+00 -0.37299810662E+02  0.37299810662E+02  0.00000000000E+00 0.  1.
         25    2    1    2    0    0  0.64972364716E+02  0.70147920601E+02  0.30964006321E+03  0.34737287204E+03  0.12509518193E+03 0.  0.
          5    1    3    3  502    0  0.96065694950E+02  0.21625082200E+02  0.21452914702E+03  0.23608576672E+03  0.41800000000E+01 0. -1.
         -5    1    3    3    0  502 -0.31093330234E+02  0.48522838401E+02  0.95110916192E+02  0.11128710532E+03  0.41800000000E+01 0. -1.
        -11    1    1    2    0    0  0.11391608176E+01 -0.65688261693E+02  0.10746384569E+03  0.12595524420E+03  0.00000000000E+00 0.  1.
         11    1    1    2    0    0 -0.66111525534E+02 -0.44596589084E+01  0.11028231881E+03  0.12865773279E+03  0.00000000000E+00 0. -1.
</event>
<event>
 7    1  0.3001243E-009  0.1123988E+03  0.7561462E-02  0.1256191E+00
         -2   -1    0    0    0  501 -0.00000000000E+00  0.00000000000E+00  0.75725407979E+02  0.75725407979E+02  0.00000000000E+00 0.  1.
          2   -1    0    0  501    0  0.00000000000E+00 -0.00000000000E+00 -0.33206530869E+03  0.33206530869E+03  0.00000000000E+00 0. -1.
         25    2    1    2    0    0  0.11597227604E+02 -0.94784712307E+02 -0.53554278551E+02  0.16623654025E+03  0.12509152325E+03 0.  0.
          5    1    3    3  502    0  0.12224099504E+02 -0.48612923576E+02  0.38381353351E+02  0.63271206977E+02  0.41800000000E+01 0. -1.
         -5    1    3    3    0  502 -0.62687189958E+00 -0.46171788731E+02 -0.91935631902E+02  0.10296533327E+03  0.41800000000E+01 0. -1.
        -11    1    1    2    0    0  0.36827685883E+02  0.31609118404E+02 -0.52541006395E+02  0.71526024402E+02  0.00000000000E+00 0.  1.
         11    1    1    2    0    0 -0.48424913487E+02  0.63175593903E+02 -0.15024461576E+03  0.17002815201E+03  0.00000000000E+00 0. -1.
</event>
<event>
 7    1  0.3001243E-009  0.6931689E+02  0.7561462E-02  0.1362432E+00
         -4   -1    0    0    0  501 -0.00000000000E+00  0.00000000000E+00  0.20776398788E+03  0.20776398788E+03  0.00000000000E+00 0.  1.
          4   -1    0    0  501    0  0.00000000000E+00 -0.00000000000E+00 -0.75114007300E+02  0.75114007300E+02  0.00000000000E+00 0. -1.
         25    2    1    2    0    0  0.11591576999E+02 -0.25548286579E+01  0.50394141007E+01  0.12575348613E+03  0.12509057428E+03 0.  0.
          5    1    3    3  502    0 -0.19395409824E+02 -0.23209112030E+02  0.55234983876E+02  0.63112761366E+02  0.41800000000E+01 0.  1.
         -5    1    3    3    0  502  0.30986986823E+02  0.20654283372E+02 -0.50195569775E+02  0.62640724765E+02  0.41800000000E+01 0.  1.
        -11    1    1    2    0    0 -0.15714708335E+02 -0.32093089973E+02  0.11433990076E+03  0.11979370346E+03  0.00000000000E+00 0.  1.
         11    1    1    2    0    0  0.41231313361E+01  0.34647918631E+02  0.13270665717E+02  0.37330805590E+02  0.00000000000E+00 0. -1.
</event>
<event>
 7    1  0.3001243E-009  0.1084892E+03  0.7561462E-02  0.1263394E+00
         -1   -1    0    0    0  501 -0.00000000000E+00  0.00000000000E+00  0.24593273001E+03  0.24593273001E+03  0.00000000000E+00 0.  1.
          1   -1    0    0  501    0  0.00000000000E+00 -0.00000000000E+00 -0.67397570530E+02  0.67397570530E+02  0.00000000000E+00 0. -1.
         25    2    1    2    0    0  0.15419207229E+02 -0.69996783468E+02  0.11344135499E+03  0.18342383629E+03  0.12505223328E+03 0.  0.
          5    1    3    3  502    0 -0.33084003922E+02 -0.61152262321E+02  0.12166722141E+02  0.70708217558E+02  0.41800000000E+01 0.  1.
         -5    1    3    3    0  502  0.48503211151E+02 -0.88445211469E+01  0.10127463285E+03  0.11271561873E+03  0.41800000000E+01 0.  1.
        -11    1    1    2    0    0 -0.39654092653E+02  0.25408622949E+02 -0.34251523433E+00  0.47097372549E+02  0.00000000000E+00 0. -1.
         11    1    1    2    0    0  0.24234885424E+02  0.44588160519E+02  0.65436319718E+02  0.82809091701E+02  0.00000000000E+00 0.  1.
</event>
<event>
 7    1  0.3001243E-009  0.5830359E+02  0.7561462E-02  0.1405092E+00
         -2   -1    0    0    0  501 -0.00000000000E+00  0.00000000000E+00  0.51860896890E+03  0.51860896890E+03  0.00000000000E+00 0.  1.
          2   -1    0    0  501    0  0.00000000000E+00 -0.00000000000E+00 -0.22024447270E+02  0.22024447270E+02  0.00000000000E+00 0. -1.
         25    2    1    2    0    0  0.12262146879E+02 -0.25439699905E+01  0.30244753562E+03  0.32753482248E+03  0.12509083141E+03 0.  0.
          5    1    3    3  502    0 -0.78443165763E+01 -0.18830761980E+02 -0.29354932659E+01  0.21029037544E+02  0.41800000000E+01 0. -1.
         -5    1    3    3    0  502  0.20106463455E+02  0.16286791990E+02  0.30538302888E+03  0.30650578493E+03  0.41800000000E+01 0. -1.
        -11    1    1    2    0    0  0.15298914442E+02  0.28095071732E+02  0.27222843802E+02  0.42005631329E+02  0.00000000000E+00 0. -1.
         11    1    1    2    0    0 -0.27561061321E+02 -0.25551101742E+02  0.16691414221E+03  0.17109296236E+03  0.00000000000E+00 0.  1.
</event>
<event>
 7    1  0.3001243E-009  0.1164125E+03  0.7561462E-02  0.1249135E+00
          2   -1    0    0  501    0  0.00000000000E+00  0.00000000000E+00  0.46936317803E+03  0.46936317803E+03  0.00000000000E+00 0. -1.
         -2   -1    0    0    0  501 -0.00000000000E+00 -0.00000000000E+00 -0.30841079717E+02  0.30841079717E+02  0.00000000000E+00 0.  1.
         25    2    1    2    0    0  0.49269850497E+02 -0.14008254793E+02  0.28177136603E+03  0.31251626767E+03  0.12509022932E+03 0.  0.
          5    1    3    3  502    0  0.85518313003E+02 -0.35329192399E+02  0.18381486053E+03  0.20583223519E+03  0.41800000000E+01 0. -1.
         -5    1    3    3    0  502 -0.36248462506E+02  0.21320937606E+02  0.97956505505E+02  0.10668403248E+03  0.41800000000E+01 0. -1.
        -11    1    1    2    0    0 -0.69777277598E+02 -0.50303986979E+01  0.81527212485E+02  0.10742839362E+03  0.00000000000E+00 0. -1.
         11    1    1    2    0    0  0.20507427101E+02  0.19038653491E+02  0.75223519792E+02  0.80259596454E+02  0.00000000000E+00 0.  1.
</event>
<event>
 7    1  0.3001243E-009  0.9814678E+02  0.7561462E-02  0.1284242E+00
         -1   -1    0    0    0  501 -0.00000000000E+00  0.00000000000E+00  0.19507807747E+03  0.19507807747E+03  0.00000000000E+00 0.  1.
          1   -1    0    0  501    0  0.00000000000E+00 -0.00000000000E+00 -0.75190820087E+02  0.75190820087E+02  0.00000000000E+00 0. -1.
         25    2    1    2    0    0 -0.14075180995E+02 -0.20826459569E+02  0.12017877772E+02  0.12815516723E+03  0.12508982918E+03 0.  0.
          5    1    3    3  502    0  0.18924665378E+02  0.40310333480E+02 -0.22942319965E+02  0.50268164779E+02  0.41800000000E+01 0. -1.
         -5    1    3    3    0  502 -0.32999846372E+02 -0.61136793049E+02  0.34960197737E+02  0.77887002450E+02  0.41800000000E+01 0. -1.
        -11    1    1    2    0    0  0.30165980615E+02 -0.21262400039E+02  0.82557459582E+02  0.90431245565E+02  0.00000000000E+00 0.  1.
         11    1    1    2    0    0 -0.16090799620E+02  0.42088859608E+02  0.25311920026E+02  0.51682484759E+02  0.00000000000E+00 0. -1.
</event>
<event>
 7    1  0.3001243E-009  0.1126796E+03  0.7561462E-02  0.1255687E+00
         -2   -1    0    0    0  501 -0.00000000000E+00  0.00000000000E+00  0.97554689374E+02  0.97554689374E+02  0.00000000000E+00 0.  1.
          2   -1    0    0  501    0  0.00000000000E+00 -0.00000000000E+00 -0.17604494780E+03  0.17604494780E+03  0.00000000000E+00 0. -1.
         25    2    1    2    0    0 -0.67257100152E+02  0.20381033241E+02 -0.20871150926E+02  0.14498865565E+03  0.12508877363E+03 0.  0.
          5    1    3    3  502    0 -0.44225411881E+02 -0.33728441270E+02  0.33269724431E+02  0.64944913352E+02  0.41800000000E+01 0.  1.
         -5    1    3    3    0  502 -0.23031688271E+02  0.54109474511E+02 -0.54140875357E+02  0.80043742297E+02  0.41800000000E+01 0.  1.
        -11    1    1    2    0    0  0.53483415042E+02  0.27968057934E+02 -0.48701666491E+02  0.77553467158E+02  0.00000000000E+00 0.  1.
         11    1    1    2    0    0  0.13773685110E+02 -0.48349091175E+02 -0.89174410042E+01  0.51057514364E+02  0.00000000000E+00 0. -1.
</event>
<event>
 7    1  0.3001243E-009  0.7786531E+02  0.7561462E-02  0.1335221E+00
         -2   -1    0    0    0  501 -0.00000000000E+00  0.00000000000E+00  0.95808492778E+02  0.95808492778E+02  0.00000000000E+00 0.  1.
          2   -1    0    0  501    0  0.00000000000E+00 -0.00000000000E+00 -0.18908477649E+03  0.18908477649E+03  0.00000000000E+00 0. -1.
         25    2    1    2    0    0 -0.38484649594E+02  0.25089600480E+02  0.19668455832E+02  0.13470265966E+03  0.12508957614E+03 0.  0.
          5    1    3    3  502    0 -0.46461314964E+02  0.58249599246E+02 -0.24678666816E+02  0.78601390549E+02  0.41800000000E+01 0. -1.
         -5    1    3    3    0  502  0.79766653703E+01 -0.33159998766E+02  0.44347122648E+02  0.56101269110E+02  0.41800000000E+01 0. -1.
        -11    1    1    2    0    0  0.65173760352E+01 -0.85485758736E+01  0.14335985205E+02  0.17918560535E+02  0.00000000000E+00 0.  1.
         11    1    1    2    0    0  0.31967273559E+02 -0.16541024606E+02 -0.12728072475E+03  0.13227204907E+03  0.00000000000E+00 0. -1.
</event>
<event>
 7    1  0.3001243E-009  0.1076078E+03  0.7561462E-02  0.1265065E+00
          1   -1    0    0  501    0  0.00000000000E+00  0.00000000000E+00  0.85711873186E+03  0.85711873186E+03  0.00000000000E+00 0. -1.
         -1   -1    0    0    0  501 -0.00000000000E+00 -0.00000000000E+00 -0.34571515223E+02  0.34571515223E+02  0.00000000000E+00 0.  1.
         25    2    1    2    0    0  0.11549312690E+02 -0.83071223373E+02  0.70380819962E+03  0.71974148633E+03  0.12509040934E+03 0.  0.
          5    1    3    3  502    0  0.34011109339E+02 -0.32137507673E+01  0.47635149707E+03  0.47759324212E+03  0.41800000000E+01 0. -1.
         -5    1    3    3    0  502 -0.22461796650E+02 -0.79857472605E+02  0.22745670255E+03  0.24214824421E+03  0.41800000000E+01 0. -1.
        -11    1    1    2    0    0 -0.24602106115E+02  0.15863578583E+02 -0.57903558122E+01  0.29840324583E+02  0.00000000000E+00 0.  1.
         11    1    1    2    0    0  0.13052793426E+02  0.67207644789E+02  0.12452937283E+03  0.14210843617E+03  0.00000000000E+00 0. -1.
</event>
<event>
 7    1  0.3001243E-009  0.8341759E+02  0.7561462E-02  0.1319623E+00
          1   -1    0    0  501    0  0.00000000000E+00  0.00000000000E+00  0.11526173968E+03  0.11526173968E+03  0.00000000000E+00 0. -1.
         -1   -1    0    0    0  501 -0.00000000000E+00 -0.00000000000E+00 -0.26558442135E+03  0.26558442135E+03  0.00000000000E+00 0.  1.
         25    2    1    2    0    0 -0.17844957137E+02  0.51724315169E+02  0.57162110294E+02  0.14802032246E+03  0.12509461112E+03 0.  0.
          5    1    3    3  502    0 -0.71733821800E+01 -0.55090275153E+01  0.83422542271E+02  0.84015473308E+02  0.41800000000E+01 0.  1.
         -5    1    3    3    0  502 -0.10671574957E+02  0.57233342685E+02 -0.26260431977E+02  0.64004849149E+02  0.41800000000E+01 0.  1.
        -11    1    1    2    0    0 -0.39958494058E+01  0.21614001851E+02 -0.89796759227E+02  0.92447768260E+02  0.00000000000E+00 0.  1.
         11    1    1    2    0    0  0.21840806542E+02 -0.73338317021E+02 -0.11768803274E+03  0.14037807031E+03  0.00000000000E+00 0. -1.
</event>
<event>
 7    1  0.3001243E-009  0.8111509E+02  0.7561462E-02  0.1325916E+00
         -1   -1    0    0    0  501 -0.00000000000E+00  0.00000000000E+00  0.21411901257E+02  0.21411901257E+02  0.00000000000E+00 0.  1.
          1   -1    0    0  501    0  0.00000000000E+00 -0.00000000000E+00 -0.85373849094E+03  0.85373849094E+03  0.00000000000E+00 0. -1.
         25    2    1    2    0    0 -0.23046607454E+02 -0.76001857187E+02 -0.49927385124E+03  0.52079335090E+03  0.12507560673E+03 0.  0.
          5    1    3    3  502    0  0.81997261649E+00 -0.17861666206E+02 -0.41588127791E+03  0.41628646529E+03  0.41800000000E+01 0. -1.
         -5    1    3    3    0  502 -0.23866580070E+02 -0.58140190981E+02 -0.83392573331E+02  0.10450688560E+03  0.41800000000E+01 0. -1.
        -11    1    1    2    0    0  0.23488066134E+02  0.54155135642E+02 -0.32613934523E+03  0.33143829060E+03  0.00000000000E+00 0. -1.
         11    1    1    2    0    0 -0.44145867974E+00  0.21846721544E+02 -0.69133932172E+01  0.22918750703E+02  0.00000000000E+00 0.  1.
</event>
<event>
 7    1  0.3001243E-009  0.1005754E+03  0.7561462E-02  0.1279091E+00
         -2   -1    0    0    0  501 -0.00000000000E+00  0.00000000000E+00  0.38079261245E+02  0.38079261245E+02  0.00000000000E+00 0. -1.
          2   -1    0    0  501    0  0.00000000000E+00 -0.00000000000E+00 -0.48529076758E+03  0.48529076758E+03  0.00000000000E+00 0.  1.
         25    2    1    2    0    0 -0.15997549146E+02 -0.78272197995E+02 -0.21335438253E+03  0.25990408233E+03  0.12509029102E+03 0.  0.
          5    1    3    3  502    0  0.19896917987E+02 -0.45510558230E+02 -0.20430111813E+03  0.21029388370E+03  0.41800000000E+01 0.  1.
         -5    1    3    3    0  502 -0.35894467133E+02 -0.32761639765E+02 -0.90532644000E+01  0.49610198620E+02  0.41800000000E+01 0.  1.
        -11    1    1    2    0    0 -0.21824751164E+02  0.52232237169E+02 -0.19582112267E+03  0.20383924658E+03  0.00000000000E+00 0.  1.
         11    1    1    2    0    0  0.37822300309E+02  0.26039960826E+02 -0.38036001138E+02  0.59626699918E+02  0.00000000000E+00 0. -1.
</event>
<event>
 7    1  0.3001243E-009  0.8717018E+02  0.7561462E-02  0.1309853E+00
          1   -1    0    0  501    0  0.00000000000E+00  0.00000000000E+00  0.65304156398E+03  0.65304156398E+03  0.00000000000E+00 0. -1.
         -1   -1    0    0    0  501 -0.00000000000E+00 -0.00000000000E+00 -0.21214360543E+02  0.21214360543E+02  0.00000000000E+00 0.  1.
         25    2    1    2    0    0  0.30516858004E+02 -0.22575544722E+02  0.43162890970E+03  0.45098915289E+03  0.12508703567E+03 0.  0.
          5    1    3    3  502    0  0.21160288978E+02 -0.58223529332E+02  0.39130447278E+03  0.39619994954E+03  0.41800000000E+01 0. -1.
         -5    1    3    3    0  502  0.93565690264E+01  0.35647984610E+02  0.40324436920E+02  0.54789203349E+02  0.41800000000E+01 0. -1.
        -11    1    1    2    0    0 -0.51060296476E+02  0.14442801550E+02  0.19279596728E+03  0.19996508043E+03  0.00000000000E+00 0. -1.
         11    1    1    2    0    0  0.20543438472E+02  0.81327431715E+01  0.74023264522E+01  0.23301691197E+02  0.00000000000E+00 0.  1.
</event>
<event>
 7    1  0.3001243E-009  0.1012821E+03  0.7561462E-02  0.1277623E+00
          1   -1    0    0  501    0  0.00000000000E+00  0.00000000000E+00  0.20947044917E+03  0.20947044917E+03  0.00000000000E+00 0. -1.
         -1   -1    0    0    0  501 -0.00000000000E+00 -0.00000000000E+00 -0.78286847516E+02  0.78286847516E+02  0.00000000000E+00 0.  1.
         25    2    1    2    0    0 -0.35649947943E+02 -0.35528948378E+02  0.12658983120E+03  0.18496010531E+03  0.12510807421E+03 0.  0.
          5    1    3    3  502    0 -0.43463071074E+02  0.29969399627E+02  0.14623914132E+02  0.54941193341E+02  0.41800000000E+01 0. -1.
         -5    1    3    3    0  502  0.78131231311E+01 -0.65498348005E+02  0.11196591707E+03  0.13001891197E+03  0.41800000000E+01 0. -1.
        -11    1    1    2    0    0 -0.10433015000E+02  0.35941534919E+02  0.31946862006E+02  0.49206135048E+02  0.00000000000E+00 0.  1.
         11    1    1    2    0    0  0.46082962943E+02 -0.41258654104E+00 -0.27353091551E+02  0.53591056331E+02  0.00000000000E+00 0. -1.
</event>
<event>
 7    1  0.3001243E-009  0.1183915E+03  0.7561462E-02  0.1245774E+00
         -4   -1    0    0    0  501 -0.00000000000E+00  0.00000000000E+00  0.41432060513E+03  0.41432060513E+03  0.00000000000E+00 0.  1.
          4   -1    0    0  501    0  0.00000000000E+00 -0.00000000000E+00 -0.47625581559E+02  0.47625581559E+02  0.00000000000E+00 0. -1.
         25    2    1    2    0    0 -0.96591104421E+00 -0.84484444762E+02  0.24186189079E+03  0.28510213134E+03  0.12508995439E+03 0.  0.
          5    1    3    3  502    0 -0.42290354664E+02 -0.21076168539E+02  0.18323263564E+03  0.18927321559E+03  0.41800000000E+01 0.  1.
         -5    1    3    3    0  502  0.41324443620E+02 -0.63408276223E+02  0.58629255153E+02  0.95828915750E+02  0.41800000000E+01 0.  1.
        -11    1    1    2    0    0  0.38088239472E+02  0.35348833445E+02  0.20844684221E+02  0.55988881684E+02  0.00000000000E+00 0. -1.
         11    1    1    2    0    0 -0.37122328427E+02  0.49135611317E+02  0.10398844856E+03  0.12085517367E+03  0.00000000000E+00 0.  1.
</event>
<event>
 7    1  0.3001243E-009  0.1379466E+03  0.7561462E-02  0.1216119E+00
          1   -1    0    0  501    0  0.00000000000E+00  0.00000000000E+00  0.55299476994E+03  0.55299476994E+03  0.00000000000E+00 0. -1.
         -1   -1    0    0    0  501 -0.00000000000E+00 -0.00000000000E+00 -0.52444070271E+02  0.52444070271E+02  0.00000000000E+00 0.  1.
         25    2    1    2    0    0  0.83205615461E+02 -0.88118509783E+02  0.17469982679E+03  0.24668843557E+03  0.12508840295E+03 0.  0.
          5    1    3    3  502    0  0.78976666537E+02 -0.92136338750E+02  0.66869743362E+02  0.13861981732E+03  0.41800000000E+01 0.  1.
         -5    1    3    3    0  502  0.42289489247E+01  0.40178289665E+01  0.10783008343E+03  0.10806861825E+03  0.41800000000E+01 0.  1.
        -11    1    1    2    0    0  0.12057579795E+02 -0.59205900555E+01  0.55137035876E+02  0.56749725483E+02  0.00000000000E+00 0. -1.
         11    1    1    2    0    0 -0.95263195257E+02  0.94039099839E+02  0.27071383700E+03  0.30200067916E+03  0.00000000000E+00 0.  1.
</event>
<event>
 7    1  0.3001243E-009  0.9673765E+02  0.7561462E-02  0.1287310E+00
         -3   -1    0    0    0  501 -0.00000000000E+00  0.00000000000E+00  0.60343009958E+03  0.60343009958E+03  0.00000000000E+00 0.  1.
          3   -1    0    0  501    0  0.00000000000E+00 -0.00000000000E+00 -0.20428743106E+02  0.20428743106E+02  0.00000000000E+00 0. -1.
         25    2    1    2    0    0 -0.31014183732E+02  0.15127414632E+02  0.41115207004E+03  0.43114138879E+03  0.12508458804E+03 0.  0.
          5    1    3    3  502    0 -0.74167459611E+02  0.26223677142E+01  0.33019960832E+03  0.33846261627E+03  0.41800000000E+01 0. -1.
         -5    1    3    3    0  502  0.43153275879E+02  0.12505046918E+02  0.80952461718E+02  0.92678772520E+02  0.41800000000E+01 0. -1.
        -11    1    1    2    0    0  0.60318093344E+01  0.25567748697E+02  0.11736572865E+03  0.12026972503E+03  0.00000000000E+00 0.  1.
         11    1    1    2    0    0  0.24982374397E+02 -0.40695163329E+02  0.54483557785E+02  0.72447728865E+02  0.00000000000E+00 0. -1.
</event>
<event>
 7    1  0.3001243E-009  0.1850668E+03  0.7561462E-02  0.1162987E+00
         -2   -1    0    0    0  501 -0.00000000000E+00  0.00000000000E+00  0.59883411246E+02  0.59883411246E+02  0.00000000000E+00 0.  1.
          2   -1    0    0  501    0  0.00000000000E+00 -0.00000000000E+00 -0.72771483495E+03  0.72771483495E+03  0.00000000000E+00 0. -1.
         25    2    1    2    0    0 -0.16269765084E+03  0.65303409656E+02 -0.33359891777E+03  0.39707830387E+03  0.12509148877E+03 0.  0.
          5    1    3    3  502    0 -0.40110992726E+02  0.49370767186E+02 -0.22031409397E+03  0.22935155721E+03  0.41800000000E+01 0. -1.
         -5    1    3    3    0  502 -0.12258665811E+03  0.15932642469E+02 -0.11328482380E+03  0.16772674666E+03  0.41800000000E+01 0. -1.
        -11    1    1    2    0    0  0.65825334734E+02  0.78189334984E-01 -0.48360778013E+02  0.81680754505E+02  0.00000000000E+00 0.  1.
         11    1    1    2    0    0  0.96872316102E+02 -0.65381598991E+02 -0.28587172792E+03  0.30883918783E+03  0.00000000000E+00 0. -1.
</event>
<event>
 7    1  0.3001243E-009  0.1389881E+03  0.7561462E-02  0.1214697E+00
          2   -1    0    0  501    0  0.00000000000E+00  0.00000000000E+00  0.75057486742E+03  0.75057486742E+03  0.00000000000E+00 0.  1.
         -2   -1    0    0    0  501 -0.00000000000E+00 -0.00000000000E+00 -0.33552481369E+02  0.33552481369E+02  0.00000000000E+00 0. -1.
         25    2    1    2    0    0  0.51004456571E+02 -0.76076722031E+02  0.21304504538E+03  0.26348827103E+03  0.12509498544E+03 0.  0.
          5    1    3    3  502    0  0.74759002741E+02 -0.94304160295E+02  0.14139234672E+03  0.18571874232E+03  0.41800000000E+01 0. -1.
         -5    1    3    3    0  502 -0.23754546170E+02  0.18227438264E+02  0.71652698661E+02  0.77769528703E+02  0.41800000000E+01 0. -1.
        -11    1    1    2    0    0 -0.72013809521E+02  0.32613423187E+02  0.36659174424E+03  0.37501884096E+03  0.00000000000E+00 0.  1.
         11    1    1    2    0    0  0.21009352950E+02  0.43463298845E+02  0.13738559644E+03  0.14562023681E+03  0.00000000000E+00 0. -1.
</event>
<event>
 7    1  0.3001243E-009  0.1122789E+03  0.7561462E-02  0.1256407E+00
          3   -1    0    0  501    0  0.00000000000E+00  0.00000000000E+00  0.49649034257E+02  0.49649034257E+02  0.00000000000E+00 0. -1.
         -3   -1    0    0    0  501 -0.00000000000E+00 -0.00000000000E+00 -0.37995449465E+03  0.37995449465E+03  0.00000000000E+00 0.  1.
         25    2    1    2    0    0  0.37397973232E+02 -0.70672436137E+02 -0.11182573465E+03  0.18586500629E+03  0.12509038332E+03 0.  0.
          5    1    3    3  502    0  0.21305075272E+02 -0.10232685495E+03 -0.53601457868E+02  0.11753841994E+03  0.41800000000E+01 0. -1.
         -5    1    3    3    0  502  0.16092897961E+02  0.31654418808E+02 -0.58224276787E+02  0.68326586350E+02  0.41800000000E+01 0. -1.
        -11    1    1    2    0    0 -0.25244018739E+02  0.20340886035E+02 -0.18845562091E+02  0.37498897815E+02  0.00000000000E+00 0.  1.
         11    1    1    2    0    0 -0.12153954493E+02  0.50331550102E+02 -0.19963416365E+03  0.20623962481E+03  0.00000000000E+00 0. -1.
</event>
<event>
 7    1  0.3001243E-009  0.1149650E+03  0.7561462E-02  0.1251642E+00
         -3   -1    0    0    0  501 -0.00000000000E+00  0.00000000000E+00  0.25957793358E+03  0.25957793358E+03  0.00000000000E+00 0.  1.
          3   -1    0    0  501    0  0.00000000000E+00 -0.00000000000E+00 -0.18367765399E+03  0.18367765399E+03  0.00000000000E+00 0. -1.
         25    2    1    2    0    0  0.16821916379E+02  0.77085299096E+02 -0.13014245057E+03  0.19700516777E+03  0.12509539751E+03 0.  0.
          5    1    3    3  502    0  0.37273296096E+02  0.25749676618E+02  0.97567761349E+01  0.46529684378E+02  0.41800000000E+01 0.  1.
         -5    1    3    3    0  502 -0.20451379717E+02  0.51335622478E+02 -0.13989922671E+03  0.15047548339E+03  0.41800000000E+01 0.  1.
        -11    1    1    2    0    0 -0.30987325069E+02 -0.98546142938E+02  0.13042313687E+03  0.16637833763E+03  0.00000000000E+00 0.  1.
         11    1    1    2    0    0  0.14165408690E+02  0.21460843842E+02  0.75619593286E+02  0.79872082173E+02  0.00000000000E+00 0. -1.
</event>
<event>
 7    1  0.3001243E-009  0.9353055E+02  0.7561462E-02  0.1294520E+00
         -1   -1    0    0    0  501 -0.00000000000E+00  0.00000000000E+00  0.19327825081E+03  0.19327825081E+03  0.00000000000E+00 0.  1.
          1   -1    0    0  501    0  0.00000000000E+00 -0.00000000000E+00 -0.88280859918E+02  0.88280859918E+02  0.00000000000E+00 0. -1.
         25    2    1    2    0    0  0.17880526282E+02 -0.54614053821E+02  0.69835046302E+01  0.13783463187E+03  0.12508880170E+03 0.  0.
          5    1    3    3  502    0 -0.48099636821E+02 -0.37908559555E+02 -0.19909328960E+02  0.64532842255E+02  0.41800000000E+01 0.  1.
         -5    1    3    3    0  502  0.65980163104E+02 -0.16705494266E+02  0.26892833590E+02  0.73301789612E+02  0.41800000000E+01 0.  1.
        -11    1    1    2    0    0 -0.82072300334E+01  0.22709812743E+02 -0.13270521668E+02  0.27553601670E+02  0.00000000000E+00 0. -1.
         11    1    1    2    0    0 -0.96732962490E+01  0.31904241078E+02  0.11128440793E+03  0.11617087720E+03  0.00000000000E+00 0.  1.
</event>
<event>
 7    1  0.4289029E-009  0.1737483E+03  0.7561462E-02  0.1173994E+00
          2   -1    0    0  501    0  0.00000000000E+00  0.00000000000E+00  0.14893793114E+03  0.14893793114E+03  0.00000000000E+00 0. -1.
         -2   -1    0    0    0  501 -0.00000000000E+00 -0.00000000000E+00 -0.25482326090E+03  0.25482326090E+03  0.00000000000E+00 0.  1.
         25    2    1    2    0    0  0.10972338784E+03 -0.11171251501E+03 -0.95384361764E+02  0.22195596121E+03  0.12508942560E+03 0.  0.
          5    1    3    3  502    0  0.65283299535E+02 -0.12653357198E+03 -0.37354812220E+02  0.14726000283E+03  0.41800000000E+01 0.  1.
         -5    1    3    3    0  502  0.44440088306E+02  0.14821056967E+02 -0.58029549544E+02  0.74695958382E+02  0.41800000000E+01 0.  1.
        -11    1    1    2    0    0 -0.60539671759E+02  0.76373947840E+02 -0.49964701899E+02  0.10951941929E+03  0.00000000000E+00 0.  1.
         11    1    1    2    0    0 -0.49183716083E+02  0.35338567173E+02  0.39463733904E+02  0.72285811548E+02  0.00000000000E+00 0. -1.
</event>
<event>
 7    1  0.3001243E-009  0.9134272E+02  0.7561462E-02  0.1299632E+00
         -2   -1    0    0    0  501 -0.00000000000E+00  0.00000000000E+00  0.22467601350E+03  0.22467601350E+03  0.00000000000E+00 0. -1.
          2   -1    0    0  501    0  0.00000000000E+00 -0.00000000000E+00 -0.81358783225E+02  0.81358783225E+02  0.00000000000E+00 0.  1.
         25    2    1    2    0    0 -0.18242200636E+02  0.16106452634E+01 -0.93748506303E+01  0.12676353520E+03  0.12508290838E+03 0.  0.
          5    1    3    3  502    0  0.39660010851E+02  0.40247400794E+02 -0.53956293779E+01  0.56915331394E+02  0.41800000000E+01 0.  1.
         -5    1    3    3    0  502 -0.57902211487E+02 -0.38636755530E+02 -0.39792212524E+01  0.69848203805E+02  0.41800000000E+01 0.  1.
        -11    1    1    2    0    0 -0.14928098726E+02  0.13235462258E+02 -0.22935660298E+01  0.20081982917E+02  0.00000000000E+00 0.  1.
         11    1    1    2    0    0  0.33170299362E+02 -0.14846107521E+02  0.15498564693E+03  0.15918927861E+03  0.00000000000E+00 0. -1.
</event>
<event>
 7    1  0.3001243E-009  0.1023251E+03  0.7561462E-02  0.1275481E+00
          3   -1    0    0  501    0  0.00000000000E+00  0.00000000000E+00  0.29659839425E+02  0.29659839425E+02  0.00000000000E+00 0. -1.
         -3   -1    0    0    0  501 -0.00000000000E+00 -0.00000000000E+00 -0.39697750088E+03  0.39697750088E+03  0.00000000000E+00 0.  1.
         25    2    1    2    0    0 -0.65161956265E+01 -0.18693348968E+01 -0.20658745926E+03  0.24160040204E+03  0.12508565354E+03 0.  0.
          5    1    3    3  502    0 -0.91832868607E+00 -0.60910402171E+02 -0.71602758959E+02  0.94102858144E+02  0.41800000000E+01 0.  1.
         -5    1    3    3    0  502 -0.55978669404E+01  0.59041067275E+02 -0.13498470030E+03  0.14749754389E+03  0.41800000000E+01 0.  1.
        -11    1    1    2    0    0  0.37498695939E+02 -0.23361402176E+02 -0.47060678249E+02  0.64549320260E+02  0.00000000000E+00 0. -1.
         11    1    1    2    0    0 -0.30982500313E+02  0.25230737073E+02 -0.11366952394E+03  0.12048761800E+03  0.00000000000E+00 0.  1.
</event>
<event>
 7    1  0.3001243E-009  0.8499696E+02  0.7561462E-02  0.1315440E+00
         -1   -1    0    0    0  501 -0.00000000000E+00  0.00000000000E+00  0.54982617434E+02  0.54982617434E+02  0.00000000000E+00 0.  1.
          1   -1    0    0  501    0  0.00000000000E+00 -0.00000000000E+00 -0.23753107838E+03  0.23753107838E+03  0.00000000000E+00 0. -1.
         25    2    1    2    0    0 -0.98564280414E+01 -0.31629471838E+00 -0.15142417789E+03  0.19665646547E+03  0.12508890657E+03 0.  0.
          5    1    3    3  502    0 -0.32869334593E+02 -0.49048000514E+02 -0.36199407635E+02  0.69382771811E+02  0.41800000000E+01 0. -1.
         -5    1    3    3    0  502  0.23012906552E+02  0.48731705796E+02 -0.11522477025E+03  0.12727369366E+03  0.41800000000E+01 0. -1.
        -11    1    1    2    0    0 -0.15258102156E+02  0.19775642626E+02 -0.52105805643E+02  0.57783221651E+02  0.00000000000E+00 0. -1.
         11    1    1    2    0    0  0.25114530197E+02 -0.19459347908E+02  0.20981522584E+02  0.38074008693E+02  0.00000000000E+00 0.  1.
</event>
<event>
 7    1  0.3001243E-009  0.1180839E+03  0.7561462E-02  0.1246292E+00
         -2   -1    0    0    0  501 -0.00000000000E+00  0.00000000000E+00  0.22846262749E+02  0.22846262749E+02  0.00000000000E+00 0.  1.
          2   -1    0    0  501    0  0.00000000000E+00 -0.00000000000E+00 -0.66000532142E+03  0.66000532142E+03  0.00000000000E+00 0. -1.
         25    2    1    2    0    0  0.24090749035E+02 -0.43984652757E+02 -0.41525700954E+03  0.43658090220E+03  0.12509790696E+03 0.  0.
          5    1    3    3  502    0  0.65175733423E+02 -0.61571946041E+02 -0.28579218723E+03  0.29955571677E+03  0.41800000000E+01 0. -1.
         -5    1    3    3    0  502 -0.41084984388E+02  0.17587293284E+02 -0.12946482231E+03  0.13702518543E+03  0.41800000000E+01 0. -1.
        -11    1    1    2    0    0 -0.46554894866E+02  0.58511054556E+02 -0.19254101726E+03  0.20655010305E+03  0.00000000000E+00 0. -1.
         11    1    1    2    0    0  0.22464145831E+02 -0.14526401799E+02 -0.29361031864E+02  0.39720578914E+02  0.00000000000E+00 0.  1.
</event>
<event>
 7    1  0.3001243E-009  0.4469969E+03  0.7561462E-02  0.1028621E+00
          1   -1    0    0  501    0  0.00000000000E+00  0.00000000000E+00  0.39214745903E+03  0.39214745903E+03  0.00000000000E+00 0. -1.
         -1   -1    0    0    0  501 -0.00000000000E+00 -0.00000000000E+00 -0.53926216288E+03  0.53926216288E+03  0.00000000000E+00 0.  1.
         25    2    1    2    0    0  0.22017913624E+03  0.38879445496E+03 -0.78189304564E+02  0.47053265541E+03  0.12508969667E+03 0.  0.
          5    1    3    3  502    0  0.16353754383E+03  0.27471558901E+03  0.24169022544E+01  0.31974442435E+03  0.41800000000E+01 0.  1.
         -5    1    3    3    0  502  0.56641592415E+02  0.11407886595E+03 -0.80606206818E+02  0.15078823106E+03  0.41800000000E+01 0.  1.
        -11    1    1    2    0    0 -0.13933339235E+03 -0.24927672830E+03 -0.15200380426E+00  0.28557434164E+03  0.00000000000E+00 0. -1.
         11    1    1    2    0    0 -0.80845743898E+02 -0.13951772666E+03 -0.68773395486E+02  0.17530262486E+03  0.00000000000E+00 0.  1.
</event>
<event>
 7    1  0.3001243E-009  0.8825170E+02  0.7561462E-02  0.1307142E+00
          2   -1    0    0  501    0  0.00000000000E+00  0.00000000000E+00  0.31452690834E+02  0.31452690834E+02  0.00000000000E+00 0. -1.
         -2   -1    0    0    0  501 -0.00000000000E+00 -0.00000000000E+00 -0.42250019774E+03  0.42250019774E+03  0.00000000000E+00 0.  1.
         25    2    1    2    0    0 -0.16950033816E+02 -0.18061859848E+02 -0.16762701539E+03  0.21061822795E+03  0.12509071599E+03 0.  0.
          5    1    3    3  502    0  0.44710367627E+02  0.95830850191E+01 -0.23946800491E+02  0.51785848893E+02  0.41800000000E+01 0. -1.
         -5    1    3    3    0  502 -0.61660401443E+02 -0.27644944867E+02 -0.14368021490E+03  0.15883237906E+03  0.41800000000E+01 0. -1.
        -11    1    1    2    0    0  0.11039028950E+02 -0.20814453485E+02 -0.88140463686E+01  0.25155298596E+02  0.00000000000E+00 0. -1.
         11    1    1    2    0    0  0.59110048656E+01  0.38876313333E+02 -0.21460644515E+03  0.21817936203E+03  0.00000000000E+00 0.  1.
</event>
<event>
 7    1  0.3001243E-009  0.1555386E+03  0.7561462E-02  0.1193828E+00
         -2   -1    0    0    0  501 -0.00000000000E+00  0.00000000000E+00  0.16262373772E+03  0.16262373772E+03  0.00000000000E+00 0. -1.
          2   -1    0    0  501    0  0.00000000000E+00 -0.00000000000E+00 -0.18011709498E+03  0.18011709498E+03  0.00000000000E+00 0.  1.
         25    2    1    2    0    0  0.80219798418E+02 -0.88332011723E+02 -0.65153254316E+02  0.18474483667E+03  0.12509175743E+03 0.  0.
          5    1    3    3  502    0  0.32604132722E+02  0.29436306776E+02 -0.59165344727E+01  0.44519696846E+02  0.41800000000E+01 0. -1.
         -5    1    3    3    0  502  0.47615665697E+02 -0.11776831850E+03 -0.59236719844E+02  0.14022513983E+03  0.41800000000E+01 0. -1.
        -11    1    1    2    0    0 -0.30923954644E+02 -0.77352415622E+01  0.37982675359E+02  0.49586374744E+02  0.00000000000E+00 0. -1.
         11    1    1    2    0    0 -0.49295843774E+02  0.96067253285E+02  0.96772216983E+01  0.10840962128E+03  0.00000000000E+00 0.  1.
</event>
<event>
 7    1  0.3001243E-009  0.7726038E+02  0.7561462E-02  0.1337011E+00
         -1   -1    0    0    0  501 -0.00000000000E+00  0.00000000000E+00  0.83525514283E+02  0.83525514283E+02  0.00000000000E+00 0.  1.
          1   -1    0    0  501    0  0.00000000000E+00 -0.00000000000E+00 -0.17939191228E+03  0.17939191228E+03  0.00000000000E+00 0. -1.
         25    2    1    2    0    0  0.50082663110E+01 -0.53952806283E+02 -0.37216593154E+02  0.14131614228E+03  0.12509671949E+03 0.  0.
          5    1    3    3  502    0 -0.24024606059E+02 -0.35725669280E+02  0.38619859853E+02  0.57986818475E+02  0.41800000000E+01 0.  1.
         -5    1    3    3    0  502  0.29032872370E+02 -0.18227137003E+02 -0.75836453008E+02  0.83329323807E+02  0.41800000000E+01 0.  1.
        -11    1    1    2    0    0  0.14524132502E+02  0.55278233252E+02  0.26853229360E+01  0.57217518783E+02  0.00000000000E+00 0.  1.
         11    1    1    2    0    0 -0.19532398813E+02 -0.13254269691E+01 -0.61335127779E+02  0.64383765498E+02  0.00000000000E+00 0. -1.
</event>
<event>
 7    1  0.3825137E-009  0.9846427E+02  0.7561462E-02  0.1283559E+00
          1   -1    0    0  501    0  0.00000000000E+00  0.00000000000E+00  0.61114584712E+03  0.61114584712E+03  0.00000000000E+00 0. -1.
         -1   -1    0    0    0  501 -0.00000000000E+00 -0.00000000000E+00 -0.33994656646E+02  0.33994656646E+02  0.00000000000E+00 0.  1.
         25    2    1    2    0    0  0.31648349123E+02 -0.64651762565E+02  0.44991278176E+03  0.47249473881E+03  0.12509315972E+03 0.  0.
          5    1    3    3  502    0  0.66370235798E+02 -0.25027010917E+02  0.36949254522E+03  0.37626263813E+03  0.41800000000E+01 0. -1.
         -5    1    3    3    0  502 -0.34721886675E+02 -0.39624751648E+02  0.80420236533E+02  0.96232100681E+02  0.41800000000E+01 0. -1.
        -11    1    1    2    0    0 -0.15019737081E+02  0.44091896367E+02  0.41672516912E+01  0.46765947161E+02  0.00000000000E+00 0.  1.
         11    1    1    2    0    0 -0.16628612042E+02  0.20559866198E+02  0.12307115703E+03  0.12587981780E+03  0.00000000000E+00 0. -1.
</event>
<event>
 7    1  0.3001243E-009  0.1209473E+03  0.7561462E-02  0.1241542E+00
          1   -1    0    0  501    0  0.00000000000E+00  0.00000000000E+00  0.40974278082E+02  0.40974278082E+02  0.00000000000E+00 0. -1.
         -1   -1    0    0    0  501 -0.00000000000E+00 -0.00000000000E+00 -0.53217857697E+03  0.53217857697E+03  0.00000000000E+00 0.  1.
         25    2    1    2    0    0 -0.61492017349E+02 -0.14795409270E+02 -0.11561919726E+03  0.18170499608E+03  0.12509490195E+03 0.  0.
          5    1    3    3  502    0 -0.75747258680E+01 -0.64154134092E+02 -0.38283693554E+02  0.75207998147E+02  0.41800000000E+01 0.  1.
         -5    1    3    3    0  502 -0.53917291482E+02  0.49358724823E+02 -0.77335503703E+02  0.10649699794E+03  0.41800000000E+01 0.  1.
        -11    1    1    2    0    0  0.60977957682E+02  0.43708094466E+02 -0.32127903756E+03  0.32992261035E+03  0.00000000000E+00 0.  1.
         11    1    1    2    0    0  0.51405966771E+00 -0.28912685197E+02 -0.54306064076E+02  0.61525248623E+02  0.00000000000E+00 0. -1.
</event>
<event>
 7    1  0.3001243E-009  0.9604354E+02  0.7561462E-02  0.1288843E+00
         -2   -1    0    0    0  501 -0.00000000000E+00  0.00000000000E+00  0.24184851636E+02  0.24184851636E+02  0.00000000000E+00 0.  1.
          2   -1    0    0  501    0  0.00000000000E+00 -0.00000000000E+00 -0.69451020932E+03  0.69451020932E+03  0.00000000000E+00 0. -1.
         25    2    1    2    0    0 -0.44140422915E+02 -0.51729796481E+01 -0.22051615514E+03  0.25739065765E+03  0.12508972505E+03 0.  0.
          5    1    3    3  502    0  0.16824246204E+02  0.19909584286E+02 -0.17545373116E+03  0.17742866450E+03  0.41800000000E+01 0.  1.
         -5    1    3    3    0  502 -0.60964669119E+02 -0.25082563934E+02 -0.45062423981E+02  0.79961993155E+02  0.41800000000E+01 0.  1.
        -11    1    1    2    0    0  0.50501695619E+01  0.44145719494E+02 -0.14946353118E+03  0.15592849616E+03  0.00000000000E+00 0.  1.
         11    1    1    2    0    0  0.39090253353E+02 -0.38972739846E+02 -0.30034567135E+03  0.30537590714E+03  0.00000000000E+00 0. -1.
</event>
<event>
 7    1  0.3001243E-009  0.1124380E+03  0.7561462E-02  0.1256121E+00
         -2   -1    0    0    0  501 -0.00000000000E+00  0.00000000000E+00  0.50839989410E+03  0.50839989410E+03  0.00000000000E+00 0.  1.
          2   -1    0    0  501    0  0.00000000000E+00 -0.00000000000E+00 -0.32485438981E+02  0.32485438981E+02  0.00000000000E+00 0. -1.
         25    2    1    2    0    0  0.85330972825E+01  0.45802976428E+02  0.15698251937E+03  0.20606063965E+03  0.12508696746E+03 0.  0.
          5    1    3    3  502    0  0.47085981433E+02  0.71677181868E+02  0.89348291596E+02  0.12391649470E+03  0.41800000000E+01 0.  1.
         -5    1    3    3    0  502 -0.38552884150E+02 -0.25874205440E+02  0.67634227771E+02  0.82144144951E+02  0.41800000000E+01 0.  1.
        -11    1    1    2    0    0 -0.16881207168E+02  0.19939492044E+02  0.37552376060E+02  0.45746469221E+02  0.00000000000E+00 0. -1.
         11    1    1    2    0    0  0.83481098850E+01 -0.65742468472E+02  0.28137955970E+03  0.28907822421E+03  0.00000000000E+00 0.  1.
</event>
<event>
 7    1  0.3731293E-009  0.3194298E+03  0.7561462E-02  0.1075912E+00
          1   -1    0    0  501    0  0.00000000000E+00  0.00000000000E+00  0.15733724110E+04  0.15733724110E+04  0.00000000000E+00 0. -1.
         -1   -1    0    0    0  501 -0.00000000000E+00 -0.00000000000E+00 -0.71613537414E+02  0.71613537414E+02  0.00000000000E+00 0.  1.
         25    2    1    2    0    0 -0.76049694558E+02  0.29464272029E+03  0.54283142744E+03  0.63475297820E+03  0.12508995188E+03 0.  0.
          5    1    3    3  502    0  0.81596858418E+01  0.18339485171E+03  0.36587472106E+03  0.40936784928E+03  0.41800000000E+01 0.  1.
         -5    1    3    3    0  502 -0.84209380400E+02  0.11124786858E+03  0.17695670637E+03  0.22538512892E+03  0.41800000000E+01 0.  1.
        -11    1    1    2    0    0 -0.11263997720E+02 -0.11867898128E+03  0.42136426655E+03  0.43790344069E+03  0.00000000000E+00 0.  1.
         11    1    1    2    0    0  0.87313692278E+02 -0.17596373900E+03  0.53756317958E+03  0.57232952951E+03  0.00000000000E+00 0. -1.
</event>
<event>
 7    1  0.3001243E-009  0.1146866E+03  0.7561462E-02  0.1252129E+00
          2   -1    0    0  501    0  0.00000000000E+00  0.00000000000E+00  0.52031754865E+03  0.52031754865E+03  0.00000000000E+00 0.  1.
         -2   -1    0    0    0  501 -0.00000000000E+00 -0.00000000000E+00 -0.34759753342E+02  0.34759753342E+02  0.00000000000E+00 0. -1.
         25    2    1    2    0    0 -0.61705660242E+02  0.49364310142E+02  0.26700407629E+03  0.30525860931E+03  0.12508884116E+03 0.  0.
          5    1    3    3  502    0 -0.81583753008E+02  0.27309137776E+02  0.85749505965E+02  0.12154072541E+03  0.41800000000E+01 0. -1.
         -5    1    3    3    0  502  0.19878092767E+02  0.22055172367E+02  0.18125457033E+03  0.18371788390E+03  0.41800000000E+01 0. -1.
        -11    1    1    2    0    0 -0.29446056304E+00  0.20124768347E+02  0.12487947755E+02  0.23686321942E+02  0.00000000000E+00 0.  1.
         11    1    1    2    0    0  0.62000120805E+02 -0.69489078489E+02  0.20606577126E+03  0.22613237074E+03  0.00000000000E+00 0. -1.
</event>
<event>
 7    1  0.3001243E-009  0.1584711E+03  0.7561462E-02  0.1190434E+00
         -1   -1    0    0    0  501 -0.00000000000E+00  0.00000000000E+00  0.70567394706E+03  0.70567394706E+03  0.00000000000E+00 0.  1.
          1   -1    0    0  501    0  0.00000000000E+00 -0.00000000000E+00 -0.44764347747E+02  0.44764347747E+02  0.00000000000E+00 0. -1.
         25    2    1    2    0    0  0.85921114310E+02 -0.11550175799E+03  0.31011753637E+03  0.36406486491E+03  0.12508895042E+03 0.  0.
          5    1    3    3  502    0  0.10297489492E+03 -0.10323506510E+03  0.17759863289E+03  0.22982613962E+03  0.41800000000E+01 0.  1.
         -5    1    3    3    0  502 -0.17053780611E+02 -0.12266692893E+02  0.13251890348E+03  0.13423872529E+03  0.41800000000E+01 0.  1.
        -11    1    1    2    0    0 -0.68719481196E+02  0.58947405252E+02  0.13438779770E+03  0.16204087093E+03  0.00000000000E+00 0. -1.
         11    1    1    2    0    0 -0.17201633114E+02  0.56554352738E+02  0.21640426524E+03  0.22433255896E+03  0.00000000000E+00 0.  1.
</event>
<event>
 7    1  0.3001243E-009  0.1614492E+03  0.7561462E-02  0.1187070E+00
          2   -1    0    0  501    0  0.00000000000E+00  0.00000000000E+00  0.34237545388E+02  0.34237545388E+02  0.00000000000E+00 0. -1.
         -2   -1    0    0    0  501 -0.00000000000E+00 -0.00000000000E+00 -0.86539197641E+03  0.86539197641E+03  0.00000000000E+00 0.  1.
         25    2    1    2    0    0 -0.40203390976E+02 -0.11519213871E+03 -0.31416974098E+03  0.35949242099E+03  0.12508650261E+03 0.  0.
          5    1    3    3  502    0 -0.84636606659E+02 -0.73692180073E+02 -0.22526013180E+03  0.25170119580E+03  0.41800000000E+01 0. -1.
         -5    1    3    3    0  502  0.44433215683E+02 -0.41499958636E+02 -0.88909609185E+02  0.10779122519E+03  0.41800000000E+01 0. -1.
        -11    1    1    2    0    0  0.65810170118E+02  0.61067071031E+02 -0.38300106816E+03  0.39338274475E+03  0.00000000000E+00 0.  1.
         11    1    1    2    0    0 -0.25606779142E+02  0.54125067677E+02 -0.13398362187E+03  0.14675435605E+03  0.00000000000E+00 0. -1.
</event>
<event>
 7    1  0.3001243E-009  0.3827578E+03  0.7561462E-02  0.1049919E+00
         -2   -1    0    0    0  501 -0.00000000000E+00  0.00000000000E+00  0.43835747279E+03  0.43835747279E+03  0.00000000000E+00 0.  1.
          2   -1    0    0  501    0  0.00000000000E+00 -0.00000000000E+00 -0.35500845503E+03  0.35500845503E+03  0.00000000000E+00 0. -1.
         25    2    1    2    0    0  0.18428866368E+03  0.33097470304E+03  0.57997342633E+02  0.40313453978E+03  0.12508876767E+03 0.  0.
          5    1    3    3  502    0  0.59770240499E+02  0.17765229168E+03  0.81012072617E+02  0.20423821067E+03  0.41800000000E+01 0.  1.
         -5    1    3    3    0  502  0.12451842318E+03  0.15332241136E+03 -0.23014729984E+02  0.19889632911E+03  0.41800000000E+01 0.  1.
        -11    1    1    2    0    0 -0.54623047832E+02 -0.67622600622E+02  0.41331461559E+02  0.96253743740E+02  0.00000000000E+00 0.  1.
         11    1    1    2    0    0 -0.12966561585E+03 -0.26335210242E+03 -0.15979786434E+02  0.29397764431E+03  0.00000000000E+00 0. -1.
</event>
<event>
 7    1  0.3001243E-009  0.1399688E+03  0.7561462E-02  0.1213371E+00
         -1   -1    0    0    0  501 -0.00000000000E+00  0.00000000000E+00  0.15159160317E+03  0.15159160317E+03  0.00000000000E+00 0.  1.
          1   -1    0    0  501    0  0.00000000000E+00 -0.00000000000E+00 -0.14759982127E+03  0.14759982127E+03  0.00000000000E+00 0. -1.
         25    2    1    2    0    0 -0.10836588371E+03  0.18297989990E+01  0.58872717995E+01  0.16561779166E+03  0.12509228605E+03 0.  0.
          5    1    3    3  502    0 -0.12499719086E+03  0.16549803553E+02 -0.23722965184E+02  0.12836839642E+03  0.41800000000E+01 0.  1.
         -5    1    3    3    0  502  0.16631307157E+02 -0.14720004554E+02  0.29610236984E+02  0.37249395244E+02  0.41800000000E+01 0.  1.
        -11    1    1    2    0    0  0.95920045824E+02 -0.29902119748E+02  0.92689981084E+01  0.10089948604E+03  0.00000000000E+00 0.  1.
         11    1    1    2    0    0  0.12445837884E+02  0.28072320749E+02 -0.11164488011E+02  0.32674146743E+02  0.00000000000E+00 0. -1.
</event>
<event>
 7    1  0.3001243E-009  0.1145724E+03  0.7561462E-02  0.1252329E+00
          1   -1    0    0  501    0  0.00000000000E+00  0.00000000000E+00  0.58482574984E+03  0.58482574984E+03  0.00000000000E+00 0. -1.
         -1   -1    0    0    0  501 -0.00000000000E+00 -0.00000000000E+00 -0.23518655284E+02  0.23518655284E+02  0.00000000000E+00 0.  1.
         25    2    1    2    0    0 -0.43032148475E+02 -0.94094246346E+01  0.32581990891E+03  0.35177091951E+03  0.12507543203E+03 0.  0.
          5    1    3    3  502    0 -0.30513932570E+02 -0.64872892460E+02  0.22201293135E+03  0.23333839449E+03  0.41800000000E+01 0. -1.
         -5    1    3    3    0  502 -0.12518215906E+02  0.55463467826E+02  0.10380697755E+03  0.11843252502E+03  0.41800000000E+01 0. -1.
        -11    1    1    2    0    0 -0.14354848813E+02 -0.28244223020E+02  0.96392068223E+02  0.10146540610E+03  0.00000000000E+00 0. -1.
         11    1    1    2    0    0  0.57386997288E+02  0.37653647655E+02  0.13909511743E+03  0.15510807952E+03  0.00000000000E+00 0.  1.
</event>
<event>
 7    1  0.3001243E-009  0.1933301E+03  0.7561462E-02  0.1155492E+00
          2   -1    0    0  501    0  0.00000000000E+00  0.00000000000E+00  0.22137383588E+03  0.22137383588E+03  0.00000000000E+00 0. -1.
         -2   -1    0    0    0  501 -0.00000000000E+00 -0.00000000000E+00 -0.21759963140E+03  0.21759963140E+03  0.00000000000E+00 0.  1.
         25    2    1    2    0    0  0.87299767618E+02 -0.15263397255E+03 -0.71593229809E+02  0.22735972339E+03  0.12509386181E+03 0.  0.
          5    1    3    3  502    0 -0.24655766713E+02 -0.56719235407E+02 -0.47112356926E+02  0.77859007651E+02  0.41800000000E+01 0.  1.
         -5    1    3    3    0  502  0.11195553433E+03 -0.95914737140E+02 -0.24480872883E+02  0.14950071574E+03  0.41800000000E+01 0.  1.
        -11    1    1    2    0    0 -0.32973970437E+02  0.79659190201E+02 -0.10081283772E+02  0.86801506855E+02  0.00000000000E+00 0.  1.
         11    1    1    2    0    0 -0.54325797181E+02  0.72974782346E+02  0.85448718053E+02  0.12481223704E+03  0.00000000000E+00 0. -1.
</event>
<event>
 7    1  0.3001243E-009  0.1463851E+03  0.7561462E-02  0.1204987E+00
          1   -1    0    0  501    0  0.00000000000E+00  0.00000000000E+00  0.51473219277E+02  0.51473219277E+02  0.00000000000E+00 0. -1.
         -1   -1    0    0    0  501 -0.00000000000E+00 -0.00000000000E+00 -0.60046744767E+03  0.60046744767E+03  0.00000000000E+00 0.  1.
         25    2    1    2    0    0 -0.12825179326E+03 -0.52798507737E+02 -0.35330624134E+03  0.39963777753E+03  0.12509535629E+03 0.  0.
          5    1    3    3  502    0 -0.35342856064E+02 -0.33830431464E+01 -0.54179940362E+01  0.36157841682E+02  0.41800000000E+01 0. -1.
         -5    1    3    3    0  502 -0.92908937194E+02 -0.49415464590E+02 -0.34788824731E+03  0.36347993585E+03  0.41800000000E+01 0. -1.
        -11    1    1    2    0    0  0.52168008563E+02 -0.99199755810E+01 -0.34427808576E+02  0.63286499637E+02  0.00000000000E+00 0. -1.
         11    1    1    2    0    0  0.76083784696E+02  0.62718483318E+02 -0.16126017847E+03  0.18901638977E+03  0.00000000000E+00 0.  1.
</event>
<event>
 7    1  0.3001243E-009  0.1136477E+03  0.7561462E-02  0.1253960E+00
          3   -1    0    0  501    0  0.00000000000E+00  0.00000000000E+00  0.39998954286E+03  0.39998954286E+03  0.00000000000E+00 0. -1.
         -3   -1    0    0    0  501 -0.00000000000E+00 -0.00000000000E+00 -0.37764412556E+02  0.37764412556E+02  0.00000000000E+00 0.  1.
         25    2    1    2    0    0 -0.37615999889E+02  0.43163940896E+02  0.20307455207E+03  0.24530118082E+03  0.12512116675E+03 0.  0.
          5    1    3    3  502    0 -0.73276106579E+02  0.38513989477E+02  0.18914623919E+03  0.20651025975E+03  0.41800000000E+01 0.  1.
         -5    1    3    3    0  502  0.35660106690E+02  0.46499514191E+01  0.13928312880E+02  0.38790921065E+02  0.41800000000E+01 0.  1.
        -11    1    1    2    0    0  0.24806350814E+02 -0.72267692168E+02  0.11160518389E+03  0.13525417348E+03  0.00000000000E+00 0. -1.
         11    1    1    2    0    0  0.12809649074E+02  0.29103751272E+02  0.47545394339E+02  0.57198601122E+02  0.00000000000E+00 0.  1.
</event>
<event>
 7    1  0.3001243E-009  0.1476920E+03  0.7561462E-02  0.1203338E+00
         -3   -1    0    0    0  501 -0.00000000000E+00  0.00000000000E+00  0.33537460668E+03  0.33537460668E+03  0.00000000000E+00 0.  1.
          3   -1    0    0  501    0  0.00000000000E+00 -0.00000000000E+00 -0.77327022508E+02  0.77327022508E+02  0.00000000000E+00 0. -1.
         25    2    1    2    0    0  0.10968160676E+03 -0.24914913119E+02  0.17116897350E+03  0.23999071156E+03  0.12508363757E+03 0.  0.
          5    1    3    3  502    0  0.53279565457E+02 -0.61016624078E+02  0.14842729675E+03  0.16914453976E+03  0.41800000000E+01 0. -1.
         -5    1    3    3    0  502  0.56402041303E+02  0.36101710959E+02  0.22741676747E+02  0.70846171799E+02  0.41800000000E+01 0. -1.
        -11    1    1    2    0    0 -0.10941516207E+03  0.51260622097E+02  0.59389643738E+02  0.13463453811E+03  0.00000000000E+00 0. -1.
         11    1    1    2    0    0 -0.26644469254E+00 -0.26345708979E+02  0.27488966934E+02  0.38076379521E+02  0.00000000000E+00 0.  1.
</event>
<event>
 7    1  0.3001243E-009  0.6616517E+02  0.7561462E-02  0.1373641E+00
         -2   -1    0    0    0  501 -0.00000000000E+00  0.00000000000E+00  0.86519702410E+01  0.86519702410E+01  0.00000000000E+00 0.  1.
          2   -1    0    0  501    0  0.00000000000E+00 -0.00000000000E+00 -0.15249646999E+04  0.15249646999E+04  0.00000000000E+00 0. -1.
         25    2    1    2    0    0 -0.77672002346E+01  0.25448391525E+02 -0.10443476490E+04  0.10521488735E+04  0.12508912860E+03 0.  0.
          5    1    3    3  502    0 -0.11005800910E+02  0.28761087320E+02 -0.10453648768E+04  0.10458267188E+04  0.41800000000E+01 0.  1.
         -5    1    3    3    0  502  0.32386006750E+01 -0.33126957956E+01  0.10172277930E+01  0.63221547078E+01  0.41800000000E+01 0.  1.
        -11    1    1    2    0    0  0.22287218126E+02 -0.56498679363E+02 -0.28756883835E+03  0.29391267011E+03  0.00000000000E+00 0.  1.
         11    1    1    2    0    0 -0.14520017891E+02  0.31050287839E+02 -0.18439624239E+03  0.18755512657E+03  0.00000000000E+00 0. -1.
</event>
<event>
 7    1  0.3001243E-009  0.6469943E+02  0.7561462E-02  0.1379106E+00
         -3   -1    0    0    0  501 -0.00000000000E+00  0.00000000000E+00  0.10410121152E+03  0.10410121152E+03  0.00000000000E+00 0.  1.
          3   -1    0    0  501    0  0.00000000000E+00 -0.00000000000E+00 -0.13686847408E+03  0.13686847408E+03  0.00000000000E+00 0. -1.
         25    2    1    2    0    0 -0.38207940295E+02 -0.27757092337E+02 -0.83790637406E+01  0.13396389913E+03  0.12508323103E+03 0.  0.
          5    1    3    3  502    0 -0.21158238152E+02 -0.31660811959E+02 -0.64507383174E+02  0.75025015425E+02  0.41800000000E+01 0. -1.
         -5    1    3    3    0  502 -0.17049702143E+02  0.39037196225E+01  0.56128319433E+02  0.58938883705E+02  0.41800000000E+01 0. -1.
        -11    1    1    2    0    0  0.47539966274E+02  0.36794810822E+02 -0.50062788065E+02  0.78231638393E+02  0.00000000000E+00 0. -1.
         11    1    1    2    0    0 -0.93320259799E+01 -0.90377184851E+01  0.25674589250E+02  0.28774148075E+02  0.00000000000E+00 0.  1.
</event>
<event>
 7    1  0.3001243E-009  0.1090474E+03  0.7561462E-02  0.1262344E+00
          1   -1    0    0  501    0  0.00000000000E+00  0.00000000000E+00  0.20069407133E+03  0.20069407133E+03  0.00000000000E+00 0. -1.
         -1   -1    0    0    0  501 -0.00000000000E+00 -0.00000000000E+00 -0.92646473797E+02  0.92646473797E+02  0.00000000000E+00 0.  1.
         25    2    1    2    0    0 -0.23145910193E+02  0.28973916485E+02  0.13908357637E+03  0.19071254894E+03  0.12510721048E+03 0.  0.
          5    1    3    3  502    0 -0.16398038707E+02 -0.44677757134E+02  0.23041226181E+02  0.53041193047E+02  0.41800000000E+01 0. -1.
         -5    1    3    3    0  502 -0.67478714854E+01  0.73651673619E+02  0.11604235019E+03  0.13767135589E+03  0.41800000000E+01 0. -1.
        -11    1    1    2    0    0  0.56701756998E+02 -0.96435282229E+01 -0.27468566558E+02  0.63738599231E+02  0.00000000000E+00 0.  1.
         11    1    1    2    0    0 -0.33555846805E+02 -0.19330388262E+02 -0.35674122761E+01  0.38889396955E+02  0.00000000000E+00 0. -1.
</event>
<event>
 7    1  0.3001243E-009  0.1287746E+03  0.7561462E-02  0.1229285E+00
         -2   -1    0    0    0  501 -0.00000000000E+00  0.00000000000E+00  0.17867274055E+02  0.17867274055E+02  0.00000000000E+00 0.  1.
          2   -1    0    0  501    0  0.00000000000E+00 -0.00000000000E+00 -0.11855730813E+04  0.11855730813E+04  0.00000000000E+00 0. -1.
         25    2    1    2    0    0  0.94906521309E+02  0.83316017758E+01 -0.69963416856E+03  0.71708558005E+03  0.12508835245E+03 0.  0.
          5    1    3    3  502    0  0.11051179891E+03 -0.42254813909E+01 -0.67923681917E+03  0.68819389805E+03  0.41800000000E+01 0. -1.
         -5    1    3    3    0  502 -0.15605277600E+02  0.12557083167E+02 -0.20397349390E+02  0.28891682000E+02  0.41800000000E+01 0. -1.
        -11    1    1    2    0    0 -0.41427160864E+02 -0.45312682541E+02 -0.15736386383E+03  0.16891664955E+03  0.00000000000E+00 0. -1.
         11    1    1    2    0    0 -0.53479360445E+02  0.36981080765E+02 -0.31070777482E+03  0.31743812572E+03  0.00000000000E+00 0.  1.
</event>
<event>
 7    1  0.3001243E-009  0.1570920E+03  0.7561462E-02  0.1192019E+00
         -2   -1    0    0    0  501 -0.00000000000E+00  0.00000000000E+00  0.47965567742E+02  0.47965567742E+02  0.00000000000E+00 0.  1.
          2   -1    0    0  501    0  0.00000000000E+00 -0.00000000000E+00 -0.67249618274E+03  0.67249618274E+03  0.00000000000E+00 0. -1.
         25    2    1    2    0    0 -0.11995451028E+03  0.45614080655E+02 -0.45557452230E+03  0.48955318452E+03  0.12507776065E+03 0.  0.
          5    1    3    3  502    0 -0.10105031250E+03 -0.24413257309E+02 -0.22694530665E+03  0.24965740005E+03  0.41800000000E+01 0.  1.
         -5    1    3    3    0  502 -0.18904197785E+02  0.70027337963E+02 -0.22862921565E+03  0.23989578446E+03  0.41800000000E+01 0.  1.
        -11    1    1    2    0    0  0.78732448584E+02 -0.38798390931E+01 -0.38197967386E+02  0.87595298526E+02  0.00000000000E+00 0.  1.
         11    1    1    2    0    0  0.41222061700E+02 -0.41734241561E+02 -0.13075812531E+03  0.14331326744E+03  0.00000000000E+00 0. -1.
</event>
<event>
 7    1  0.3001243E-009  0.8539201E+02  0.7561462E-02  0.1314411E+00
         -1   -1    0    0    0  501 -0.00000000000E+00  0.00000000000E+00  0.30365477149E+02  0.30365477149E+02  0.00000000000E+00 0.  1.
          1   -1    0    0  501    0  0.00000000000E+00 -0.00000000000E+00 -0.44163449794E+03  0.44163449794E+03  0.00000000000E+00 0. -1.
         25    2    1    2    0    0 -0.19466477146E+02 -0.43823370144E+02 -0.27501229094E+03  0.30590551544E+03  0.12508793989E+03 0.  0.
          5    1    3    3  502    0  0.27142128301E+02 -0.20376956915E+02 -0.97931327074E+01  0.35570962175E+02  0.41800000000E+01 0. -1.
         -5    1    3    3    0  502 -0.46608605447E+02 -0.23446413230E+02 -0.26521915823E+03  0.27033455326E+03  0.41800000000E+01 0. -1.
        -11    1    1    2    0    0  0.35743419318E+02  0.54213696856E+02 -0.63519154219E+02  0.90837216515E+02  0.00000000000E+00 0.  1.
         11    1    1    2    0    0 -0.16276942172E+02 -0.10390326712E+02 -0.72737575635E+02  0.75257243140E+02  0.00000000000E+00 0. -1.
</event>
<event>
 7    1  0.3001243E-009  0.1805692E+03  0.7561462E-02  0.1167253E+00
         -1   -1    0    0    0  501 -0.00000000000E+00  0.00000000000E+00  0.24521812486E+03  0.24521812486E+03  0.00000000000E+00 0.  1.
          1   -1    0    0  501    0  0.00000000000E+00 -0.00000000000E+00 -0.15621985258E+03  0.15621985258E+03  0.00000000000E+00 0. -1.
         25    2    1    2    0    0 -0.64490059775E+02  0.13784308666E+03 -0.10429178607E+02  0.19727113948E+03  0.12508976919E+03 0.  0.
          5    1    3    3  502    0  0.27603614008E+02  0.31456026367E+02 -0.34571237458E+02  0.54443401441E+02  0.41800000000E+01 0. -1.
         -5    1    3    3    0  502 -0.92093673782E+02  0.10638706029E+03  0.24142058852E+02  0.14282773804E+03  0.41800000000E+01 0. -1.
        -11    1    1    2    0    0  0.88703561050E+02 -0.11237690117E+03  0.78833894006E+02  0.16343705976E+03  0.00000000000E+00 0.  1.
         11    1    1    2    0    0 -0.24213501276E+02 -0.25466185488E+02  0.20593556883E+02  0.40729778203E+02  0.00000000000E+00 0. -1.
</event>
<event>
 7    1  0.3001243E-009  0.1065181E+03  0.7561462E-02  0.1267157E+00
         -2   -1    0    0    0  501 -0.00000000000E+00  0.00000000000E+00  0.26409519103E+03  0.26409519103E+03  0.00000000000E+00 0.  1.
          2   -1    0    0  501    0  0.00000000000E+00 -0.00000000000E+00 -0.49728242831E+02  0.49728242831E+02  0.00000000000E+00 0. -1.
         25    2    1    2    0    0  0.10729121758E+02  0.29240269185E+02  0.15842456304E+03  0.20424421246E+03  0.12508896336E+03 0.  0.
          5    1    3    3  502    0 -0.44591564232E+02  0.43968221504E+02  0.45340600467E+02  0.77426446086E+02  0.41800000000E+01 0. -1.
         -5    1    3    3    0  502  0.55320685990E+02 -0.14727952320E+02  0.11308396257E+03  0.12681776638E+03  0.41800000000E+01 0. -1.
        -11    1    1    2    0    0  0.14037368200E+02  0.27548975569E+02  0.10165824445E+02  0.32547469141E+02  0.00000000000E+00 0.  1.
         11    1    1    2    0    0 -0.24766489958E+02 -0.56789244753E+02  0.45776560713E+02  0.77031752253E+02  0.00000000000E+00 0. -1.
</event>
<event>
 7    1  0.3001243E-009  0.2026045E+03  0.7561462E-02  0.1147560E+00
          1   -1    0    0  501    0  0.00000000000E+00  0.00000000000E+00  0.13734062062E+04  0.13734062062E+04  0.00000000000E+00 0. -1.
         -1   -1    0    0    0  501 -0.00000000000E+00 -0.00000000000E+00 -0.38295263254E+02  0.38295263254E+02  0.00000000000E+00 0.  1.
         25    2    1    2    0    0  0.11463110473E+03  0.15103601545E+03  0.90231234917E+03  0.93046651357E+03  0.12509272269E+03 0.  0.
          5    1    3    3  502    0  0.79516461036E+02  0.38854707718E+02  0.20534964406E+03  0.22364817147E+03  0.41800000000E+01 0.  1.
         -5    1    3    3    0  502  0.35114643693E+02  0.11218130773E+03  0.69696270511E+03  0.70681834210E+03  0.41800000000E+01 0.  1.
        -11    1    1    2    0    0 -0.43001312801E+02 -0.10595997018E+03  0.16788218547E+03  0.20312817722E+03  0.00000000000E+00 0. -1.
         11    1    1    2    0    0 -0.71629791928E+02 -0.45076045266E+02  0.26491640830E+03  0.27810677866E+03  0.00000000000E+00 0.  1.
</event>
<event>
 7    1  0.3001243E-009  0.8863940E+02  0.7561462E-02  0.1306180E+00
         -2   -1    0    0    0  501 -0.00000000000E+00  0.00000000000E+00  0.34097065815E+03  0.34097065815E+03  0.00000000000E+00 0.  1.
          2   -1    0    0  501    0  0.00000000000E+00 -0.00000000000E+00 -0.35828996457E+02  0.35828996457E+02  0.00000000000E+00 0. -1.
         25    2    1    2    0    0  0.19031334370E+01  0.17081435253E+02  0.15296627110E+03  0.19834845202E+03  0.12509208999E+03 0.  0.
          5    1    3    3  502    0 -0.23419069069E+02 -0.42675562764E+02  0.25181031237E+02  0.54965563650E+02  0.41800000000E+01 0.  1.
         -5    1    3    3    0  502  0.25322202506E+02  0.59756998017E+02  0.12778523986E+03  0.14338288837E+03  0.41800000000E+01 0.  1.
        -11    1    1    2    0    0  0.22283968825E+02  0.12200864671E+02  0.13392605756E+03  0.13631443526E+03  0.00000000000E+00 0.  1.
         11    1    1    2    0    0 -0.24187102262E+02 -0.29282299925E+02  0.18249333033E+02  0.42136767328E+02  0.00000000000E+00 0. -1.
</event>
<event>
 7    1  0.3001243E-009  0.1258850E+03  0.7561462E-02  0.1233693E+00
          1   -1    0    0  501    0  0.00000000000E+00  0.00000000000E+00  0.20842569067E+03  0.20842569067E+03  0.00000000000E+00 0. -1.
         -1   -1    0    0    0  501 -0.00000000000E+00 -0.00000000000E+00 -0.98127364603E+02  0.98127364603E+02  0.00000000000E+00 0.  1.
         25    2    1    2    0    0 -0.79855839946E+02 -0.49856124826E+02  0.10325982119E+03  0.18754882296E+03  0.12509748984E+03 0.  0.
          5    1    3    3  502    0 -0.29420563389E+02  0.38046348290E+02  0.60687056032E+02  0.77546665552E+02  0.41800000000E+01 0.  1.
         -5    1    3    3    0  502 -0.50435276557E+02 -0.87902473116E+02  0.42572765159E+02  0.11000215741E+03  0.41800000000E+01 0.  1.
        -11    1    1    2    0    0  0.13507723645E+02  0.29852044012E+02 -0.26383269273E+02  0.42067565027E+02  0.00000000000E+00 0.  1.
         11    1    1    2    0    0  0.66348116301E+02  0.20004080814E+02  0.33421774152E+02  0.76936667288E+02  0.00000000000E+00 0. -1.
</event>
<event>
 7    1  0.3001243E-009  0.9600735E+02  0.7561462E-02  0.1288923E+00
         -2   -1    0    0    0  501 -0.00000000000E+00  0.00000000000E+00  0.50101584287E+02  0.50101584287E+02  0.00000000000E+00 0. -1.
          2   -1    0    0  501    0  0.00000000000E+00 -0.00000000000E+00 -0.32887199764E+03  0.32887199764E+03  0.00000000000E+00 0.  1.
         25    2    1    2    0    0 -0.38104033140E+02  0.47399907274E+02 -0.10740748074E+03  0.17573343701E+03  0.12508879012E+03 0.  0.
          5    1    3    3  502    0  0.24493614953E+02 -0.25078146484E+02 -0.53324864219E+01  0.35703759129E+02  0.41800000000E+01 0.  1.
         -5    1    3    3    0  502 -0.62597648093E+02  0.72478053758E+02 -0.10207499432E+03  0.14002967788E+03  0.41800000000E+01 0.  1.
        -11    1    1    2    0    0  0.23365822708E+02 -0.27438209019E+02 -0.17454247433E+03  0.17822427536E+03  0.00000000000E+00 0.  1.
         11    1    1    2    0    0  0.14738210432E+02 -0.19961698255E+02  0.31795417101E+01  0.25015869553E+02  0.00000000000E+00 0. -1.
</event>
<event>
 7    1  0.3001243E-009  0.1306821E+03  0.7561462E-02  0.1226447E+00
         -1   -1    0    0    0  501 -0.00000000000E+00  0.00000000000E+00  0.70447977663E+02  0.70447977663E+02  0.00000000000E+00 0.  1.
          1   -1    0    0  501    0  0.00000000000E+00 -0.00000000000E+00 -0.26547525807E+03  0.26547525807E+03  0.00000000000E+00 0. -1.
         25    2    1    2    0    0  0.42937895288E+02 -0.65308912566E+02 -0.12741629316E+03  0.19491493762E+03  0.12509198308E+03 0.  0.
          5    1    3    3  502    0 -0.17308778384E+02 -0.77835641564E+02 -0.43980998058E+02  0.91158002924E+02  0.41800000000E+01 0.  1.
         -5    1    3    3    0  502  0.60246673672E+02  0.12526728997E+02 -0.83435295105E+02  0.10375693469E+03  0.41800000000E+01 0.  1.
        -11    1    1    2    0    0 -0.77087489106E+01 -0.23269803915E+02 -0.66574763600E+00  0.24522475485E+02  0.00000000000E+00 0.  1.
         11    1    1    2    0    0 -0.35229146377E+02  0.88578716482E+02 -0.66945239612E+02  0.11648582263E+03  0.00000000000E+00 0. -1.
</event>
<event>
 7    1  0.3001243E-009  0.2102247E+03  0.7561462E-02  0.1141388E+00
          2   -1    0    0  501    0  0.00000000000E+00  0.00000000000E+00  0.32255634263E+03  0.32255634263E+03  0.00000000000E+00 0. -1.
         -2   -1    0    0    0  501 -0.00000000000E+00 -0.00000000000E+00 -0.21510847903E+03  0.21510847903E+03  0.00000000000E+00 0.  1.
         25    2    1    2    0    0  0.18449545148E+03 -0.21548867956E+02  0.21151167153E+03  0.30803907144E+03  0.12509179433E+03 0.  0.
          5    1    3    3  502    0  0.43491120766E+02 -0.61835516046E+02  0.89470698375E+02  0.11720745240E+03  0.41800000000E+01 0.  1.
         -5    1    3    3    0  502  0.14100433072E+03  0.40286648090E+02  0.12204097316E+03  0.19083161904E+03  0.41800000000E+01 0.  1.
        -11    1    1    2    0    0 -0.95661319807E+02 -0.23384308277E+02 -0.22714414351E+02  0.10106363639E+03  0.00000000000E+00 0.  1.
         11    1    1    2    0    0 -0.88834131676E+02  0.44933176233E+02 -0.81349393585E+02  0.12856211383E+03  0.00000000000E+00 0. -1.
</event>
<event>
 7    1  0.3001243E-009  0.1690339E+03  0.7561462E-02  0.1178859E+00
         -1   -1    0    0    0  501 -0.00000000000E+00  0.00000000000E+00  0.44759098907E+02  0.44759098907E+02  0.00000000000E+00 0.  1.
          1   -1    0    0  501    0  0.00000000000E+00 -0.00000000000E+00 -0.10255621271E+04  0.10255621271E+04  0.00000000000E+00 0. -1.
         25    2    1    2    0    0  0.97668139192E+02  0.12147980715E+03 -0.76518129161E+03  0.79085152878E+03  0.12508925852E+03 0.  0.
          5    1    3    3  502    0  0.82880763192E+02  0.32977072299E+02 -0.20629864544E+03  0.22479615591E+03  0.41800000000E+01 0.  1.
         -5    1    3    3    0  502  0.14787376000E+02  0.88502734848E+02 -0.55888264617E+03  0.56605537287E+03  0.41800000000E+01 0.  1.
        -11    1    1    2    0    0 -0.96834144706E+02 -0.10650625401E+03 -0.22082287587E+03  0.26359661650E+03  0.00000000000E+00 0.  1.
         11    1    1    2    0    0 -0.83399448593E+00 -0.14973553134E+02  0.52011393173E+01  0.15873080686E+02  0.00000000000E+00 0. -1.
</event>
<event>
 7    1  0.3268200E-009  0.9995415E+02  0.7561462E-02  0.1280392E+00
          1   -1    0    0  501    0  0.00000000000E+00  0.00000000000E+00  0.92704004846E+02  0.92704004846E+02  0.00000000000E+00 0. -1.
         -1   -1    0    0    0  501 -0.00000000000E+00 -0.00000000000E+00 -0.15841637049E+03  0.15841637049E+03  0.00000000000E+00 0.  1.
         25    2    1    2    0    0 -0.43273728479E+02  0.31043911401E+02 -0.48375160025E+02  0.14430617578E+03  0.12509107182E+03 0.  0.
          5    1    3    3  502    0  0.38956186745E+02  0.36135306726E+02 -0.22456374053E+02  0.57836891458E+02  0.41800000000E+01 0.  1.
         -5    1    3    3    0  502 -0.82229915224E+02 -0.50913953249E+01 -0.25918785972E+02  0.86469284317E+02  0.41800000000E+01 0.  1.
        -11    1    1    2    0    0  0.95975293077E+01 -0.28808695202E+02 -0.50866141672E+02  0.59240339775E+02  0.00000000000E+00 0.  1.
         11    1    1    2    0    0  0.33676199171E+02 -0.22352161993E+01  0.33528936053E+02  0.47573859786E+02  0.00000000000E+00 0. -1.
</event>
<event>
 7    1  0.3001243E-009  0.8682758E+02  0.7561462E-02  0.1310721E+00
         -2   -1    0    0    0  501 -0.00000000000E+00  0.00000000000E+00  0.39671601264E+02  0.39671601264E+02  0.00000000000E+00 0.  1.
          2   -1    0    0  501    0  0.00000000000E+00 -0.00000000000E+00 -0.21742758713E+03  0.21742758713E+03  0.00000000000E+00 0. -1.
         25    2    1    2    0    0  0.35866645751E+02 -0.26255757540E+02 -0.16029541573E+03  0.20813582632E+03  0.12510044290E+03 0.  0.
          5    1    3    3  502    0  0.68029929573E+01 -0.73208277618E+02 -0.66561624501E+02  0.99265577524E+02  0.41800000000E+01 0. -1.
         -5    1    3    3    0  502  0.29063652793E+02  0.46952520078E+02 -0.93733791225E+02  0.10887024880E+03  0.41800000000E+01 0. -1.
        -11    1    1    2    0    0 -0.18694859532E+02  0.16186909263E+02 -0.42992623252E+01  0.25099750217E+02  0.00000000000E+00 0.  1.
         11    1    1    2    0    0 -0.17171786219E+02  0.10068848277E+02 -0.13161307818E+02  0.23863611861E+02  0.00000000000E+00 0. -1.
</event>
<event>
 7    1  0.3001243E-009  0.1123794E+03  0.7561462E-02  0.1256226E+00
         -2   -1    0    0    0  501 -0.00000000000E+00  0.00000000000E+00  0.12336575804E+02  0.12336575804E+02  0.00000000000E+00 0.  1.
          2   -1    0    0  501    0  0.00000000000E+00 -0.00000000000E+00 -0.13599836586E+04  0.13599836586E+04  0.00000000000E+00 0. -1.
         25    2    1    2    0    0  0.14948634541E+02  0.50736388073E+02 -0.99007119181E+03  0.99934350260E+03  0.12509527805E+03 0.  0.
          5    1    3    3  502    0 -0.10390215580E+02  0.87290128979E+02 -0.75054599263E+03  0.75568795322E+03  0.41800000000E+01 0. -1.
         -5    1    3    3    0  502  0.25338850121E+02 -0.36553740906E+02 -0.23952519918E+03  0.24365554938E+03  0.41800000000E+01 0. -1.
        -11    1    1    2    0    0  0.78123856264E+01  0.18027105986E+02 -0.21255344277E+02  0.28944767744E+02  0.00000000000E+00 0.  1.
         11    1    1    2    0    0 -0.22761020167E+02 -0.68763494059E+02 -0.33632054667E+03  0.34403196402E+03  0.00000000000E+00 0. -1.
</event>
<event>
 7    1  0.3001243E-009  0.1117017E+03  0.7561462E-02  0.1257451E+00
          1   -1    0    0  501    0  0.00000000000E+00  0.00000000000E+00  0.24194259942E+03  0.24194259942E+03  0.00000000000E+00 0. -1.
         -1   -1    0    0    0  501 -0.00000000000E+00 -0.00000000000E+00 -0.82461556870E+02  0.82461556870E+02  0.00000000000E+00 0.  1.
         25    2    1    2    0    0  0.85766695427E+02 -0.21518790299E+02  0.11351702611E+03  0.19066543366E+03  0.12509279754E+03 0.  0.
          5    1    3    3  502    0 -0.89091244334E+01  0.15105153235E+02 -0.17329076102E+02  0.25006147863E+02  0.41800000000E+01 0.  1.
         -5    1    3    3    0  502  0.94675819860E+02 -0.36623943533E+02  0.13084610222E+03  0.16565928580E+03  0.41800000000E+01 0.  1.
        -11    1    1    2    0    0 -0.54530001063E+02  0.39867449334E+02 -0.87547150225E+01  0.68114459312E+02  0.00000000000E+00 0.  1.
         11    1    1    2    0    0 -0.31236694364E+02 -0.18348659035E+02  0.54718731456E+02  0.65624263313E+02  0.00000000000E+00 0. -1.
</event>
<event>
 7    1  0.3001243E-009  0.1015168E+03  0.7561462E-02  0.1277138E+00
          1   -1    0    0  501    0  0.00000000000E+00  0.00000000000E+00  0.95913728361E+02  0.95913728361E+02  0.00000000000E+00 0. -1.
         -1   -1    0    0    0  501 -0.00000000000E+00 -0.00000000000E+00 -0.13487971991E+03  0.13487971991E+03  0.00000000000E+00 0.  1.
         25    2    1    2    0    0  0.14186482148E+02  0.17268664928E+02 -0.33893562997E+02  0.13151259228E+03  0.12508926913E+03 0.  0.
          5    1    3    3  502    0 -0.96027590303E+01 -0.47741473915E+02  0.93778950148E+01  0.49768249190E+02  0.41800000000E+01 0.  1.
         -5    1    3    3    0  502  0.23789241178E+02  0.65010138843E+02 -0.43271458011E+02  0.81744343086E+02  0.41800000000E+01 0.  1.
        -11    1    1    2    0    0  0.34298317118E+02 -0.10369791575E+02  0.23244082270E+02  0.42710589963E+02  0.00000000000E+00 0. -1.
         11    1    1    2    0    0 -0.48484799266E+02 -0.68988733533E+01 -0.28316510820E+02  0.56570266027E+02  0.00000000000E+00 0.  1.
</event>
<event>
 7    1  0.3001243E-009  0.1154600E+03  0.7561462E-02  0.1250780E+00
         -4   -1    0    0    0  501 -0.00000000000E+00  0.00000000000E+00  0.41247381328E+03  0.41247381328E+03  0.00000000000E+00 0.  1.
          4   -1    0    0  501    0  0.00000000000E+00 -0.00000000000E+00 -0.33441871789E+02  0.33441871789E+02  0.00000000000E+00 0. -1.
         25    2    1    2    0    0  0.33467298491E+02  0.25015408646E+02  0.23310839421E+03  0.26782926360E+03  0.12508860960E+03 0.  0.
          5    1    3    3  502    0  0.75035474099E+02  0.41521315672E+02  0.16886154042E+03  0.18943609545E+03  0.41800000000E+01 0. -1.
         -5    1    3    3    0  502 -0.41568175608E+02 -0.16505907026E+02  0.64246853795E+02  0.78393168151E+02  0.41800000000E+01 0. -1.
        -11    1    1    2    0    0  0.94400732306E+01  0.29379820125E+02  0.62043645334E+02  0.69294319677E+02  0.00000000000E+00 0.  1.
         11    1    1    2    0    0 -0.42907371722E+02 -0.54395228771E+02  0.83879901945E+02  0.10879210179E+03  0.00000000000E+00 0. -1.
</event>
<event>
 7    1  0.3001243E-009  0.9908194E+02  0.7561462E-02  0.1282238E+00
         -2   -1    0    0    0  501 -0.00000000000E+00  0.00000000000E+00  0.95055131677E+02  0.95055131677E+02  0.00000000000E+00 0. -1.
          2   -1    0    0  501    0  0.00000000000E+00 -0.00000000000E+00 -0.14206359570E+03  0.14206359570E+03  0.00000000000E+00 0.  1.
         25    2    1    2    0    0  0.19400213176E+01  0.28696186770E+02 -0.63671626304E+02  0.14327987895E+03  0.12509121831E+03 0.  0.
          5    1    3    3  502    0  0.51943825961E+02  0.33247063162E+02  0.34345776766E+00  0.61815197384E+02  0.41800000000E+01 0.  1.
         -5    1    3    3    0  502 -0.50003804643E+02 -0.45508763918E+01 -0.64015084072E+02  0.81464681570E+02  0.41800000000E+01 0.  1.
        -11    1    1    2    0    0  0.25005953072E+02 -0.47105527397E+02 -0.66337065168E+01  0.53742296774E+02  0.00000000000E+00 0.  1.
         11    1    1    2    0    0 -0.26945974390E+02  0.18409340627E+02  0.23296868799E+02  0.40096551647E+02  0.00000000000E+00 0. -1.
</event>
<event>
 7    1  0.3001243E-009  0.8185347E+02  0.7561462E-02  0.1323872E+00
         -1   -1    0    0    0  501 -0.00000000000E+00  0.00000000000E+00  0.64738552391E+02  0.64738552391E+02  0.00000000000E+00 0.  1.
          1   -1    0    0  501    0  0.00000000000E+00 -0.00000000000E+00 -0.20721079588E+03  0.20721079588E+03  0.00000000000E+00 0. -1.
         25    2    1    2    0    0  0.24613472375E+02  0.25612739852E+02 -0.90193177417E+02  0.15825367707E+03  0.12509029374E+03 0.  0.
          5    1    3    3  502    0  0.39601937861E+02 -0.13609115471E+02  0.15186880263E+02  0.44739638335E+02  0.41800000000E+01 0.  1.
         -5    1    3    3    0  502 -0.14988465485E+02  0.39221855323E+02 -0.10538005768E+03  0.11351403873E+03  0.41800000000E+01 0.  1.
        -11    1    1    2    0    0 -0.35866933459E+02 -0.44675340643E+02 -0.40188912133E+00  0.57292970705E+02  0.00000000000E+00 0.  1.
         11    1    1    2    0    0  0.11253461083E+02  0.19062600791E+02 -0.51877176945E+02  0.56402700495E+02  0.00000000000E+00 0. -1.
</event>
<event>
 7    1  0.3001243E-009  0.1977144E+03  0.7561462E-02  0.1151682E+00
         -1   -1    0    0    0  501 -0.00000000000E+00  0.00000000000E+00  0.21989707738E+03  0.21989707738E+03  0.00000000000E+00 0.  1.
          1   -1    0    0  501    0  0.00000000000E+00 -0.00000000000E+00 -0.33508333173E+03  0.33508333173E+03  0.00000000000E+00 0. -1.
         25    2    1    2    0    0  0.12027229077E+02 -0.17091337152E+03  0.12225542488E+03  0.24484602499E+03  0.12508857756E+03 0.  0.
          5    1    3    3  502    0  0.89329608964E+01 -0.18631714139E+03  0.86676294155E+02  0.20572828521E+03  0.41800000000E+01 0. -1.
         -5    1    3    3    0  502  0.30942681806E+01  0.15403769875E+02  0.35579130730E+02  0.39117739779E+02  0.41800000000E+01 0. -1.
        -11    1    1    2    0    0  0.36334262367E+02  0.45828072969E+02 -0.11274104278E+03  0.12700761246E+03  0.00000000000E+00 0.  1.
         11    1    1    2    0    0 -0.48361491444E+02  0.12508529855E+03 -0.12470063645E+03  0.18312677166E+03  0.00000000000E+00 0. -1.
</event>
<event>
 7    1  0.3001243E-009  0.5858437E+02  0.7561462E-02  0.1403870E+00
          1   -1    0    0  501    0  0.00000000000E+00  0.00000000000E+00  0.27001235323E+03  0.27001235323E+03  0.00000000000E+00 0. -1.
         -1   -1    0    0    0  501 -0.00000000000E+00 -0.00000000000E+00 -0.46313768603E+02  0.46313768603E+02  0.00000000000E+00 0.  1.
         25    2    1    2    0    0 -0.20996535918E+02  0.44768167213E+02  0.16483496428E+03  0.21275046249E+03  0.12508857072E+03 0.  0.
          5    1    3    3  502    0  0.97559417788E+01  0.76849380218E+01  0.16386102167E+03  0.16438413396E+03  0.41800000000E+01 0. -1.
         -5    1    3    3    0  502 -0.30752477697E+02  0.37083229191E+02  0.97394260922E+00  0.48366328535E+02  0.41800000000E+01 0. -1.
        -11    1    1    2    0    0  0.20031636283E+02 -0.12900648377E+02  0.66629414143E+02  0.70761373713E+02  0.00000000000E+00 0. -1.
         11    1    1    2    0    0  0.96489963575E+00 -0.31867518836E+02 -0.77657937983E+01  0.32814285630E+02  0.00000000000E+00 0.  1.
</event>
<event>
 7    1  0.3001243E-009  0.1413682E+03  0.7561462E-02  0.1211500E+00
          2   -1    0    0  501    0  0.00000000000E+00  0.00000000000E+00  0.41593674967E+03  0.41593674967E+03  0.00000000000E+00 0. -1.
         -2   -1    0    0    0  501 -0.00000000000E+00 -0.00000000000E+00 -0.71694446950E+02  0.71694446950E+02  0.00000000000E+00 0.  1.
         25    2    1    2    0    0  0.76512580556E+02 -0.91771936694E+02  0.98546062653E+02  0.19911873192E+03  0.12514263697E+03 0.  0.
          5    1    3    3  502    0  0.78934568523E+02 -0.10540698934E+03  0.38366799502E+02  0.13722530093E+03  0.41800000000E+01 0.  1.
         -5    1    3    3    0  502 -0.24219879665E+01  0.13635052651E+02  0.60179263151E+02  0.61893430991E+02  0.41800000000E+01 0.  1.
        -11    1    1    2    0    0  0.54810414927E+01  0.38162584673E+02  0.22199996935E+02  0.44488926135E+02  0.00000000000E+00 0.  1.
         11    1    1    2    0    0 -0.81993622049E+02  0.53609352021E+02  0.22349624313E+03  0.24402353857E+03  0.00000000000E+00 0. -1.
</event>
<event>
 7    1  0.3001243E-009  0.1274883E+03  0.7561462E-02  0.1231231E+00
          2   -1    0    0  501    0  0.00000000000E+00  0.00000000000E+00  0.22651879356E+02  0.22651879356E+02  0.00000000000E+00 0. -1.
         -2   -1    0    0    0  501 -0.00000000000E+00 -0.00000000000E+00 -0.80071309822E+03  0.80071309822E+03  0.00000000000E+00 0.  1.
         25    2    1    2    0    0 -0.47183619942E+02  0.56000148485E+02 -0.33590268451E+03  0.36584141997E+03  0.12508805094E+03 0.  0.
          5    1    3    3  502    0 -0.70447525640E+02 -0.13084736740E+02 -0.17497838214E+03  0.18912686435E+03  0.41800000000E+01 0.  1.
         -5    1    3    3    0  502  0.23263905698E+02  0.69084885224E+02 -0.16092430237E+03  0.17671455562E+03  0.41800000000E+01 0.  1.
        -11    1    1    2    0    0  0.60722144643E+02 -0.91361179606E+01 -0.16397582766E+03  0.17509631509E+03  0.00000000000E+00 0. -1.
         11    1    1    2    0    0 -0.13538524701E+02 -0.46864030524E+02 -0.27818270670E+03  0.28242724251E+03  0.00000000000E+00 0.  1.
</event>
<event>
 7    1  0.3001243E-009  0.1600209E+03  0.7561462E-02  0.1188673E+00
         -1   -1    0    0    0  501 -0.00000000000E+00  0.00000000000E+00  0.13357236008E+03  0.13357236008E+03  0.00000000000E+00 0.  1.
          1   -1    0    0  501    0  0.00000000000E+00 -0.00000000000E+00 -0.23650656933E+03  0.23650656933E+03  0.00000000000E+00 0. -1.
         25    2    1    2    0    0 -0.50579036323E+02 -0.12543236022E+03 -0.41029831030E+02  0.18873816737E+03  0.12508850020E+03 0.  0.
          5    1    3    3  502    0 -0.67071634919E+02 -0.24323040462E+02  0.13311189218E+02  0.72697143454E+02  0.41800000000E+01 0.  1.
         -5    1    3    3    0  502  0.16492598596E+02 -0.10110931975E+03 -0.54341020248E+02  0.11604102392E+03  0.41800000000E+01 0.  1.
        -11    1    1    2    0    0  0.56781452204E+01  0.86288093971E+02 -0.81303467074E+02  0.11869342969E+03  0.00000000000E+00 0. -1.
         11    1    1    2    0    0  0.44900891102E+02  0.39144266245E+02  0.19399088861E+02  0.62647332348E+02  0.00000000000E+00 0.  1.
</event>
<event>
 7    1  0.3001243E-009  0.2673470E+03  0.7561462E-02  0.1102808E+00
          1   -1    0    0  501    0  0.00000000000E+00  0.00000000000E+00  0.35406119724E+03  0.35406119724E+03  0.00000000000E+00 0. -1.
         -1   -1    0    0    0  501 -0.00000000000E+00 -0.00000000000E+00 -0.26449322097E+03  0.26449322097E+03  0.00000000000E+00 0.  1.
         25    2    1    2    0    0  0.24884383883E+03 -0.65728496685E+02  0.17123637867E+03  0.33348129921E+03  0.12507752853E+03 0.  0.
          5    1    3    3  502    0  0.23662835121E+02 -0.40294827111E+02  0.72275841783E+02  0.86167700232E+02  0.41800000000E+01 0.  1.
         -5    1    3    3    0  502  0.22518100371E+03 -0.25433669573E+02  0.98960536886E+02  0.24731359898E+03  0.41800000000E+01 0.  1.
        -11    1    1    2    0    0 -0.34108601525E+02  0.25666194671E+02 -0.47693449527E+02  0.64006369798E+02  0.00000000000E+00 0.  1.
         11    1    1    2    0    0 -0.21473523730E+03  0.40062302014E+02 -0.33974952870E+02  0.22106674921E+03  0.00000000000E+00 0. -1.
</event>
<event>
 7    1  0.3001243E-009  0.9963706E+02  0.7561462E-02  0.1281061E+00
         -2   -1    0    0    0  501 -0.00000000000E+00  0.00000000000E+00  0.19085155396E+03  0.19085155396E+03  0.00000000000E+00 0.  1.
          2   -1    0    0  501    0  0.00000000000E+00 -0.00000000000E+00 -0.80796252187E+02  0.80796252187E+02  0.00000000000E+00 0. -1.
         25    2    1    2    0    0 -0.38057960617E+02  0.15967864298E+02  0.13439300204E+02  0.13241089034E+03  0.12509455637E+03 0.  0.
          5    1    3    3  502    0  0.34337521098E+02 -0.11687582250E+02 -0.26510831493E+02  0.45121630295E+02  0.41800000000E+01 0.  1.
         -5    1    3    3    0  502 -0.72395481715E+02  0.27655446548E+02  0.39950131697E+02  0.87289260045E+02  0.41800000000E+01 0.  1.
        -11    1    1    2    0    0  0.15311286397E+02 -0.45423818940E+02  0.89236107604E+02  0.10129581294E+03  0.00000000000E+00 0.  1.
         11    1    1    2    0    0  0.22746674221E+02  0.29455954642E+02  0.73798939629E+01  0.37941102868E+02  0.00000000000E+00 0. -1.
</event>
<event>
 7    1  0.3001243E-009  0.1046126E+03  0.7561462E-02  0.1270885E+00
          2   -1    0    0  501    0  0.00000000000E+00  0.00000000000E+00  0.90384352179E+02  0.90384352179E+02  0.00000000000E+00 0. -1.
         -2   -1    0    0    0  501 -0.00000000000E+00 -0.00000000000E+00 -0.19424321743E+03  0.19424321743E+03  0.00000000000E+00 0.  1.
         25    2    1    2    0    0  0.36869418379E+02 -0.35442900933E+02 -0.11883130640E+03  0.17994912113E+03  0.12508098807E+03 0.  0.
          5    1    3    3  502    0  0.39575392899E+02  0.40281480164E+02 -0.68563297565E+02  0.88922480511E+02  0.41800000000E+01 0. -1.
         -5    1    3    3    0  502 -0.27059745201E+01 -0.75724381097E+02 -0.50268008833E+02  0.91026640621E+02  0.41800000000E+01 0. -1.
        -11    1    1    2    0    0 -0.45829578777E+02  0.63445664254E+01 -0.26431975605E+02  0.53284642706E+02  0.00000000000E+00 0.  1.
         11    1    1    2    0    0  0.89601603978E+01  0.29098334508E+02  0.41404416749E+02  0.51393805773E+02  0.00000000000E+00 0. -1.
</event>
<event>
 7    1  0.3001243E-009  0.1185453E+03  0.7561462E-02  0.1245516E+00
          2   -1    0    0  501    0  0.00000000000E+00  0.00000000000E+00  0.25159980421E+03  0.25159980421E+03  0.00000000000E+00 0.  1.
         -2   -1    0    0    0  501 -0.00000000000E+00 -0.00000000000E+00 -0.62181502074E+02  0.62181502074E+02  0.00000000000E+00 0. -1.
         25    2    1    2    0    0 -0.37384162513E+02  0.42303442489E+02  0.69607255444E+02  0.15388278802E+03  0.12509030972E+03 0.  0.
          5    1    3    3  502    0 -0.67067221681E+02  0.67229080624E+02  0.63769340412E+02  0.11446293148E+03  0.41800000000E+01 0. -1.
         -5    1    3    3    0  502  0.29683059168E+02 -0.24925638135E+02  0.58379150319E+01  0.39419856544E+02  0.41800000000E+01 0. -1.
        -11    1    1    2    0    0 -0.28203095467E+02 -0.15660408158E+02  0.21562153186E+02  0.38801925565E+02  0.00000000000E+00 0. -1.
         11    1    1    2    0    0  0.65587257979E+02 -0.26643034331E+02  0.98248893504E+02  0.12109659270E+03  0.00000000000E+00 0.  1.
</event>
<event>
 7    1  0.3001243E-009  0.1599661E+03  0.7561462E-02  0.1188735E+00
          2   -1    0    0  501    0  0.00000000000E+00  0.00000000000E+00  0.18965617383E+04  0.18965617383E+04  0.00000000000E+00 0.  1.
         -2   -1    0    0    0  501 -0.00000000000E+00 -0.00000000000E+00 -0.17149335771E+02  0.17149335771E+02  0.00000000000E+00 0. -1.
         25    2    1    2    0    0  0.13593821162E+03  0.44275597758E+02  0.10601096113E+04  0.10769948284E+04  0.12508375817E+03 0.  0.
          5    1    3    3  502    0 -0.23063341096E+01 -0.12826144411E+02  0.39602454299E+03  0.39626094963E+03  0.41800000000E+01 0.  1.
         -5    1    3    3    0  502  0.13824454573E+03  0.57101742169E+02  0.66408506832E+03  0.68073387880E+03  0.41800000000E+01 0.  1.
        -11    1    1    2    0    0 -0.47985327823E+01 -0.23323192213E+02  0.43151990554E+02  0.49285814396E+02  0.00000000000E+00 0. -1.
         11    1    1    2    0    0 -0.13113967884E+03 -0.20952405545E+02  0.77615080072E+03  0.78743043129E+03  0.00000000000E+00 0.  1.
</event>
<event>
 7    1  0.3001243E-009  0.6619007E+02  0.7561462E-02  0.1373550E+00
         -2   -1    0    0    0  501 -0.00000000000E+00  0.00000000000E+00  0.17481603591E+03  0.17481603591E+03  0.00000000000E+00 0. -1.
          2   -1    0    0  501    0  0.00000000000E+00 -0.00000000000E+00 -0.10267234509E+03  0.10267234509E+03  0.00000000000E+00 0.  1.
         25    2    1    2    0    0  0.34926626139E+02  0.11171639618E+02 -0.32044062552E+02  0.13423336220E+03  0.12508836412E+03 0.  0.
          5    1    3    3  502    0  0.40826407619E+02  0.23076728764E+02 -0.75289970666E+02  0.88799679348E+02  0.41800000000E+01 0. -1.
         -5    1    3    3    0  502 -0.58997814791E+01 -0.11905089146E+02  0.43245908114E+02  0.45433682854E+02  0.41800000000E+01 0. -1.
        -11    1    1    2    0    0  0.13624349922E+02  0.11458613818E+02  0.84231627946E+02  0.86092333502E+02  0.00000000000E+00 0. -1.
         11    1    1    2    0    0 -0.48550976061E+02 -0.22630253436E+02  0.19956125426E+02  0.57162685286E+02  0.00000000000E+00 0.  1.
</event>
<event>
 7    1  0.3001243E-009  0.2516617E+03  0.7561462E-02  0.1112259E+00
         -2   -1    0    0    0  501 -0.00000000000E+00  0.00000000000E+00  0.86097742189E+02  0.86097742189E+02  0.00000000000E+00 0.  1.
          2   -1    0    0  501    0  0.00000000000E+00 -0.00000000000E+00 -0.84461718379E+03  0.84461718379E+03  0.00000000000E+00 0. -1.
         25    2    1    2    0    0  0.48625485686E+02  0.23784323811E+03 -0.33512059765E+03  0.43230477739E+03  0.12509101412E+03 0.  0.
          5    1    3    3  502    0  0.37478207014E+01  0.10288373861E+01  0.98901053460E+01  0.11418898814E+02  0.41800000000E+01 0. -1.
         -5    1    3    3    0  502  0.44877664984E+02  0.23681440072E+03 -0.34501070300E+03  0.42088587858E+03  0.41800000000E+01 0. -1.
        -11    1    1    2    0    0  0.17252243595E+02 -0.12258941415E+03 -0.15002464884E+03  0.19450758245E+03  0.00000000000E+00 0.  1.
         11    1    1    2    0    0 -0.65877729281E+02 -0.11525382396E+03 -0.27337419511E+03  0.30390256614E+03  0.00000000000E+00 0. -1.
</event>
<event>
 7    1  0.3001243E-009  0.8894683E+02  0.7561462E-02  0.1305422E+00
          1   -1    0    0  501    0  0.00000000000E+00  0.00000000000E+00  0.61223796183E+03  0.61223796183E+03  0.00000000000E+00 0. -1.
         -1   -1    0    0    0  501 -0.00000000000E+00 -0.00000000000E+00 -0.20643930453E+02  0.20643930453E+02  0.00000000000E+00 0.  1.
         25    2    1    2    0    0  0.83020216991E+01 -0.81165774698E+01  0.40060857819E+03  0.41984520024E+03  0.12509179371E+03 0.  0.
          5    1    3    3  502    0  0.72602060594E+01  0.54810948435E+02  0.11935375629E+03  0.13160449157E+03  0.41800000000E+01 0. -1.
         -5    1    3    3    0  502  0.10418156397E+01 -0.62927525905E+02  0.28125482190E+03  0.28824070868E+03  0.41800000000E+01 0. -1.
        -11    1    1    2    0    0  0.25129070827E+02  0.76064227140E+00  0.72858977335E+01  0.26175046954E+02  0.00000000000E+00 0.  1.
         11    1    1    2    0    0 -0.33431092526E+02  0.73559351984E+01  0.18369955546E+03  0.18686164509E+03  0.00000000000E+00 0. -1.
</event>
<event>
 7    1  0.3001243E-009  0.8422739E+02  0.7561462E-02  0.1317465E+00
         -2   -1    0    0    0  501 -0.00000000000E+00  0.00000000000E+00  0.19200645413E+02  0.19200645413E+02  0.00000000000E+00 0.  1.
          2   -1    0    0  501    0  0.00000000000E+00 -0.00000000000E+00 -0.13885649918E+04  0.13885649918E+04  0.00000000000E+00 0. -1.
         25    2    1    2    0    0  0.11396646099E+02  0.14579872124E+02 -0.12471600665E+04  0.12535543552E+04  0.12509130120E+03 0.  0.
          5    1    3    3  502    0  0.47949624051E+02 -0.31997509870E+02 -0.85237257482E+03  0.85432984601E+03  0.41800000000E+01 0. -1.
         -5    1    3    3    0  502 -0.36552977952E+02  0.46577381994E+02 -0.39478749170E+03  0.39922450916E+03  0.41800000000E+01 0. -1.
        -11    1    1    2    0    0 -0.29174690591E+02 -0.14665441163E+01  0.81632650488E+00  0.29222931264E+02  0.00000000000E+00 0.  1.
         11    1    1    2    0    0  0.17778044491E+02 -0.13113328007E+02 -0.12302060636E+03  0.12498835077E+03  0.00000000000E+00 0. -1.
</event>
<event>
 7    1  0.3001243E-009  0.3078041E+03  0.7561462E-02  0.1081403E+00
          1   -1    0    0  501    0  0.00000000000E+00  0.00000000000E+00  0.11971179228E+04  0.11971179228E+04  0.00000000000E+00 0. -1.
         -1   -1    0    0    0  501 -0.00000000000E+00 -0.00000000000E+00 -0.10107194223E+03  0.10107194223E+03  0.00000000000E+00 0.  1.
         25    2    1    2    0    0  0.30287156046E+03 -0.27394670360E+02  0.79310223891E+03  0.85857067431E+03  0.12510312275E+03 0.  0.
          5    1    3    3  502    0  0.30151707028E+03 -0.23069952648E+02  0.79617737017E+03  0.85168106916E+03  0.41800000000E+01 0. -1.
         -5    1    3    3    0  502  0.13544901782E+01 -0.43247177125E+01 -0.30751312592E+01  0.68896051554E+01  0.41800000000E+01 0. -1.
        -11    1    1    2    0    0 -0.15421197898E+02 -0.80371943584E+01  0.57203717866E+02  0.59788587334E+02  0.00000000000E+00 0. -1.
         11    1    1    2    0    0 -0.28745036256E+03  0.35431864719E+02  0.24574002379E+03  0.37983060338E+03  0.00000000000E+00 0.  1.
</event>
<event>
 7    1  0.3001243E-009  0.1000501E+03  0.7561462E-02  0.1280191E+00
         -1   -1    0    0    0  501 -0.00000000000E+00  0.00000000000E+00  0.87943247355E+02  0.87943247355E+02  0.00000000000E+00 0.  1.
          1   -1    0    0  501    0  0.00000000000E+00 -0.00000000000E+00 -0.14120300332E+03  0.14120300332E+03  0.00000000000E+00 0. -1.
         25    2    1    2    0    0 -0.49604565894E+02 -0.21091624497E+02 -0.41006478718E+02  0.14224810614E+03  0.12509005885E+03 0.  0.
          5    1    3    3  502    0  0.28276689171E+02  0.25615356564E+02  0.76494364109E+01  0.39136989151E+02  0.41800000000E+01 0.  1.
         -5    1    3    3    0  502 -0.77881255066E+02 -0.46706981060E+02 -0.48655915129E+02  0.10311111699E+03  0.41800000000E+01 0.  1.
        -11    1    1    2    0    0  0.20187584654E+02 -0.14336043742E+02  0.19030143989E+02  0.31228306143E+02  0.00000000000E+00 0.  1.
         11    1    1    2    0    0  0.29416981240E+02  0.35427668238E+02 -0.31283421237E+02  0.55669838390E+02  0.00000000000E+00 0. -1.
</event>
<event>
 7    1  0.3001243E-009  0.1072996E+03  0.7561462E-02  0.1265654E+00
         -2   -1    0    0    0  501 -0.00000000000E+00  0.00000000000E+00  0.22118448999E+03  0.22118448999E+03  0.00000000000E+00 0. -1.
          2   -1    0    0  501    0  0.00000000000E+00 -0.00000000000E+00 -0.89219985792E+02  0.89219985792E+02  0.00000000000E+00 0.  1.
         25    2    1    2    0    0 -0.41992103786E+02  0.66235374417E+02  0.27126363778E+02  0.15011081977E+03  0.12508779715E+03 0.  0.
          5    1    3    3  502    0  0.74218161800E+01 -0.57753967833E+01 -0.39096583722E+02  0.40428378921E+02  0.41800000000E+01 0.  1.
         -5    1    3    3    0  502 -0.49413919966E+02  0.72010771200E+02  0.66222947500E+02  0.10968244085E+03  0.41800000000E+01 0.  1.
        -11    1    1    2    0    0  0.53193880411E+01  0.21306604818E+02  0.49659449346E+01  0.22515059562E+02  0.00000000000E+00 0.  1.
         11    1    1    2    0    0  0.36672715745E+02 -0.87541979235E+02  0.99872195489E+02  0.13777859645E+03  0.00000000000E+00 0. -1.
</event>
<event>
 7    1  0.3001243E-009  0.1009651E+03  0.7561462E-02  0.1278280E+00
          2   -1    0    0  501    0  0.00000000000E+00  0.00000000000E+00  0.23111371299E+03  0.23111371299E+03  0.00000000000E+00 0.  1.
         -2   -1    0    0    0  501 -0.00000000000E+00 -0.00000000000E+00 -0.87329545732E+02  0.87329545732E+02  0.00000000000E+00 0. -1.
         25    2    1    2    0    0 -0.12708802245E+02  0.52179487450E+02 -0.33715882840E+00  0.13613234030E+03  0.12509071842E+03 0.  0.
          5    1    3    3  502    0  0.29469222059E+02  0.20960544162E+01 -0.46963952176E+02  0.55640935442E+02  0.41800000000E+01 0. -1.
         -5    1    3    3    0  502 -0.42178024304E+02  0.50083433033E+02  0.46626793348E+02  0.80491404861E+02  0.41800000000E+01 0. -1.
        -11    1    1    2    0    0  0.31280654367E+02  0.16478575294E+02  0.76019638688E+02  0.83839180862E+02  0.00000000000E+00 0.  1.
         11    1    1    2    0    0 -0.18571852122E+02 -0.68658062744E+02  0.68101687395E+02  0.98471737555E+02  0.00000000000E+00 0. -1.
</event>
<event>
 7    1  0.3001243E-009  0.8610416E+02  0.7561462E-02  0.1312570E+00
          1   -1    0    0  501    0  0.00000000000E+00  0.00000000000E+00  0.30133618999E+03  0.30133618999E+03  0.00000000000E+00 0. -1.
         -1   -1    0    0    0  501 -0.00000000000E+00 -0.00000000000E+00 -0.58694470421E+02  0.58694470421E+02  0.00000000000E+00 0.  1.
         25    2    1    2    0    0  0.23206489609E+01  0.57703896802E+02  0.20141155266E+03  0.24402802488E+03  0.12509171940E+03 0.  0.
          5    1    3    3  502    0  0.29948975903E+02  0.32302569261E+02  0.55911071465E+01  0.44599663874E+02  0.41800000000E+01 0.  1.
         -5    1    3    3    0  502 -0.27628326942E+02  0.25401327540E+02  0.19582044552E+03  0.19942836101E+03  0.41800000000E+01 0.  1.
        -11    1    1    2    0    0  0.85342134872E+01  0.14692968419E+02  0.39249646748E+02  0.42769742700E+02  0.00000000000E+00 0. -1.
         11    1    1    2    0    0 -0.10854862448E+02 -0.72396865221E+02  0.19805201572E+01  0.73232892833E+02  0.00000000000E+00 0.  1.
</event>
<event>
 7    1  0.3001243E-009  0.5777629E+02  0.7561462E-02  0.1407408E+00
         -2   -1    0    0    0  501 -0.00000000000E+00  0.00000000000E+00  0.63473822957E+02  0.63473822957E+02  0.00000000000E+00 0.  1.
          2   -1    0    0  501    0  0.00000000000E+00 -0.00000000000E+00 -0.18009599742E+03  0.18009599742E+03  0.00000000000E+00 0. -1.
         25    2    1    2    0    0  0.33104107487E+02 -0.37540557115E+02 -0.36438730015E+02  0.13957088455E+03  0.12508827046E+03 0.  0.
          5    1    3    3  502    0  0.31151067625E+02 -0.57541639914E+01 -0.79597731389E+02  0.85771619197E+02  0.41800000000E+01 0. -1.
         -5    1    3    3    0  502  0.19530398623E+01 -0.31786393124E+02  0.43159001374E+02  0.53799265349E+02  0.41800000000E+01 0. -1.
        -11    1    1    2    0    0 -0.21309978247E+02  0.15061705559E+02 -0.77133998640E+01  0.27211517501E+02  0.00000000000E+00 0.  1.
         11    1    1    2    0    0 -0.11794129240E+02  0.22478851556E+02 -0.72470044580E+02  0.76787418327E+02  0.00000000000E+00 0. -1.
</event>
<event>
 7    1  0.3001243E-009  0.1458703E+03  0.7561462E-02  0.1205641E+00
         -2   -1    0    0    0  501 -0.00000000000E+00  0.00000000000E+00  0.31829541772E+03  0.31829541772E+03  0.00000000000E+00 0.  1.
          2   -1    0    0  501    0  0.00000000000E+00 -0.00000000000E+00 -0.86785891689E+02  0.86785891689E+02  0.00000000000E+00 0. -1.
         25    2    1    2    0    0  0.69535865005E+02 -0.86003027499E+02  0.51223194452E+02  0.17467081568E+03  0.12511722879E+03 0.  0.
          5    1    3    3  502    0  0.27874933283E+02 -0.11264262432E+03  0.45513973551E+02  0.12471714761E+03  0.41800000000E+01 0.  1.
         -5    1    3    3    0  502  0.41660931721E+02  0.26639596820E+02  0.57092209013E+01  0.49953668073E+02  0.41800000000E+01 0.  1.
        -11    1    1    2    0    0 -0.80807191917E+02  0.75834432602E+02  0.18398905156E+03  0.21478508916E+03  0.00000000000E+00 0.  1.
         11    1    1    2    0    0  0.11271326912E+02  0.10168594897E+02 -0.37027199808E+01  0.15625404564E+02  0.00000000000E+00 0. -1.
</event>
<event>
 7    1  0.3001243E-009  0.1415551E+03  0.7561462E-02  0.1211252E+00
          2   -1    0    0  501    0  0.00000000000E+00  0.00000000000E+00  0.60100344138E+03  0.60100344138E+03  0.00000000000E+00 0. -1.
         -2   -1    0    0    0  501 -0.00000000000E+00 -0.00000000000E+00 -0.47442240668E+02  0.47442240668E+02  0.00000000000E+00 0.  1.
         25    2    1    2    0    0  0.10967885232E+03  0.49552029835E+02  0.39822249645E+03  0.43441057905E+03  0.12508613113E+03 0.  0.
          5    1    3    3  502    0  0.14794781371E+02 -0.32819769241E+02  0.17030414747E+03  0.17411777007E+03  0.41800000000E+01 0.  1.
         -5    1    3    3    0  502  0.94884070952E+02  0.82371799076E+02  0.22791834898E+03  0.26029280898E+03  0.41800000000E+01 0.  1.
        -11    1    1    2    0    0 -0.27548840172E+02 -0.19241282689E+02  0.11085670334E+03  0.11583770643E+03  0.00000000000E+00 0. -1.
         11    1    1    2    0    0 -0.82130012152E+02 -0.30310747146E+02  0.44482000927E+02  0.98197396580E+02  0.00000000000E+00 0.  1.
</event>
<event>
 7    1  0.3001243E-009  0.1713926E+03  0.7561462E-02  0.1176403E+00
         -1   -1    0    0    0  501 -0.00000000000E+00  0.00000000000E+00  0.80517636532E+02  0.80517636532E+02  0.00000000000E+00 0.  1.
          1   -1    0    0  501    0  0.00000000000E+00 -0.00000000000E+00 -0.40643092149E+03  0.40643092149E+03  0.00000000000E+00 0. -1.
         25    2    1    2    0    0 -0.14142813880E+02  0.13422572689E+03 -0.24147927608E+03  0.30360642946E+03  0.12509219916E+03 0.  0.
          5    1    3    3  502    0 -0.43287508315E+02 -0.29113590203E+01 -0.51736534769E+02  0.67649285417E+02  0.41800000000E+01 0.  1.
         -5    1    3    3    0  502  0.29144694436E+02  0.13713708591E+03 -0.18974274131E+03  0.23595714404E+03  0.41800000000E+01 0.  1.
        -11    1    1    2    0    0  0.45512869019E+02 -0.11080605352E+03 -0.79766360443E+02  0.14391690311E+03  0.00000000000E+00 0. -1.
         11    1    1    2    0    0 -0.31370055139E+02 -0.23419673362E+02 -0.46676484360E+01  0.39425225450E+02  0.00000000000E+00 0.  1.
</event>
<event>
 7    1  0.3001243E-009  0.1093842E+03  0.7561462E-02  0.1261715E+00
         -2   -1    0    0    0  501 -0.00000000000E+00  0.00000000000E+00  0.31104985413E+02  0.31104985413E+02  0.00000000000E+00 0.  1.
          2   -1    0    0  501    0  0.00000000000E+00 -0.00000000000E+00 -0.65404917719E+03  0.65404917719E+03  0.00000000000E+00 0. -1.
         25    2    1    2    0    0 -0.28159081435E+02  0.40974334644E+02 -0.15285215791E+03  0.20367558247E+03  0.12509248877E+03 0.  0.
          5    1    3    3  502    0 -0.17597594259E+02  0.75866861309E+02 -0.14714860163E+03  0.16654020334E+03  0.41800000000E+01 0.  1.
         -5    1    3    3    0  502 -0.10561487175E+02 -0.34892526665E+02 -0.57035562860E+01  0.37135379124E+02  0.41800000000E+01 0.  1.
        -11    1    1    2    0    0  0.16328717704E+02 -0.70450877763E+02 -0.32333472890E+03  0.33132355804E+03  0.00000000000E+00 0.  1.
         11    1    1    2    0    0  0.11830363731E+02  0.29476543119E+02 -0.14675730497E+03  0.15015502210E+03  0.00000000000E+00 0. -1.
</event>
<event>
 7    1  0.3001243E-009  0.1315786E+03  0.7561462E-02  0.1225132E+00
         -1   -1    0    0    0  501 -0.00000000000E+00  0.00000000000E+00  0.16437365628E+03  0.16437365628E+03  0.00000000000E+00 0. -1.
          1   -1    0    0  501    0  0.00000000000E+00 -0.00000000000E+00 -0.12139149671E+03  0.12139149671E+03  0.00000000000E+00 0.  1.
         25    2    1    2    0    0 -0.30766216891E+02 -0.73439322706E+02  0.48477055634E+02  0.15600546533E+03  0.12509111107E+03 0.  0.
          5    1    3    3  502    0 -0.19706169434E+02 -0.10786747966E+03  0.24553255895E+02  0.11244581387E+03  0.41800000000E+01 0.  1.
         -5    1    3    3    0  502 -0.11060047457E+02  0.34428156958E+02  0.23923799739E+02  0.43559651459E+02  0.41800000000E+01 0.  1.
        -11    1    1    2    0    0  0.54770528099E+02  0.75112076860E+02 -0.27718225536E+02  0.97004818774E+02  0.00000000000E+00 0.  1.
         11    1    1    2    0    0 -0.24004311208E+02 -0.16727541545E+01  0.22223329475E+02  0.32754868890E+02  0.00000000000E+00 0. -1.
</event>
<event>
 7    1  0.3001243E-009  0.1912594E+03  0.7561462E-02  0.1157330E+00
          2   -1    0    0  501    0  0.00000000000E+00  0.00000000000E+00  0.52463818649E+03  0.52463818649E+03  0.00000000000E+00 0.  1.
         -2   -1    0    0    0  501 -0.00000000000E+00 -0.00000000000E+00 -0.10602562152E+03  0.10602562152E+03  0.00000000000E+00 0. -1.
         25    2    1    2    0    0 -0.53417834508E+02  0.15893564785E+03  0.37558532598E+03  0.42991263249E+03  0.12508608748E+03 0.  0.
          5    1    3    3  502    0 -0.44907959494E+02 -0.18453895932E+01  0.11536208774E+03  0.12387902960E+03  0.41800000000E+01 0. -1.
         -5    1    3    3    0  502 -0.85098750145E+01  0.16078103744E+03  0.26022323824E+03  0.30603360288E+03  0.41800000000E+01 0. -1.
        -11    1    1    2    0    0 -0.10657363656E+02 -0.37887318161E+02 -0.26207891813E+02  0.47285112571E+02  0.00000000000E+00 0. -1.
         11    1    1    2    0    0  0.64075198164E+02 -0.12104832969E+03  0.69235130809E+02  0.15346606295E+03  0.00000000000E+00 0.  1.
</event>
<event>
 7    1  0.3001243E-009  0.1075192E+03  0.7561462E-02  0.1265234E+00
         -1   -1    0    0    0  501 -0.00000000000E+00  0.00000000000E+00  0.29093949695E+03  0.29093949695E+03  0.00000000000E+00 0.  1.
          1   -1    0    0  501    0  0.00000000000E+00 -0.00000000000E+00 -0.70740628595E+02  0.70740628595E+02  0.00000000000E+00 0. -1.
         25    2    1    2    0    0  0.78765373346E+02  0.42798938997E+02  0.15694356382E+03  0.21980475443E+03  0.12508842723E+03 0.  0.
          5    1    3    3  502    0  0.96708763279E+02  0.44201058870E+02  0.62162497305E+02  0.12323947002E+03  0.41800000000E+01 0.  1.
         -5    1    3    3    0  502 -0.17943389933E+02 -0.14021198725E+01  0.94781066517E+02  0.96565284406E+02  0.41800000000E+01 0.  1.
        -11    1    1    2    0    0 -0.66647496648E+02 -0.39935389967E+02  0.86028257038E+02  0.11592059865E+03  0.00000000000E+00 0.  1.
         11    1    1    2    0    0 -0.12117876698E+02 -0.28635490300E+01 -0.22772952499E+02  0.25954772476E+02  0.00000000000E+00 0. -1.
</event>
<event>
 7    1  0.3001243E-009  0.9152173E+02  0.7561462E-02  0.1299208E+00
          1   -1    0    0  501    0  0.00000000000E+00  0.00000000000E+00  0.17513826399E+03  0.17513826399E+03  0.00000000000E+00 0. -1.
         -1   -1    0    0    0  501 -0.00000000000E+00 -0.00000000000E+00 -0.74737224813E+02  0.74737224813E+02  0.00000000000E+00 0.  1.
         25    2    1    2    0    0  0.13477836773E+02 -0.25588583547E+02  0.88907949373E+02  0.15616824881E+03  0.12508985084E+03 0.  0.
          5    1    3    3  502    0  0.40676853677E+02 -0.63650674894E+02  0.31383462326E+02  0.81904877432E+02  0.41800000000E+01 0. -1.
         -5    1    3    3    0  502 -0.27199016903E+02  0.38062091347E+02  0.57524487047E+02  0.74263371377E+02  0.41800000000E+01 0. -1.
        -11    1    1    2    0    0  0.17042874642E+02  0.24547024907E+02 -0.29896597627E+02  0.42270823952E+02  0.00000000000E+00 0.  1.
         11    1    1    2    0    0 -0.30520711415E+02  0.10415586391E+01  0.41389687430E+02  0.51436416042E+02  0.00000000000E+00 0. -1.
</event>
<event>
 7    1  0.3001243E-009  0.8221408E+02  0.7561462E-02  0.1322883E+00
         -4   -1    0    0    0  501 -0.00000000000E+00  0.00000000000E+00  0.57449815092E+02  0.57449815092E+02  0.00000000000E+00 0.  1.
          4   -1    0    0  501    0  0.00000000000E+00 -0.00000000000E+00 -0.20863523433E+03  0.20863523433E+03  0.00000000000E+00 0. -1.
         25    2    1    2    0    0  0.12160672450E+02 -0.11271664642E+02 -0.10013974782E+03  0.16108993835E+03  0.12508823593E+03 0.  0.
          5    1    3    3  502    0  0.31237905285E+02 -0.62356168424E+02 -0.68801453070E+02  0.98057181337E+02  0.41800000000E+01 0.  1.
         -5    1    3    3    0  502 -0.19077232835E+02  0.51084503783E+02 -0.31338294749E+02  0.63032757017E+02  0.41800000000E+01 0.  1.
        -11    1    1    2    0    0  0.35044934265E+01  0.21091699235E+02  0.21386154581E+02  0.30240847517E+02  0.00000000000E+00 0.  1.
         11    1    1    2    0    0 -0.15665165876E+02 -0.98200345937E+01 -0.72431825996E+02  0.74754263547E+02  0.00000000000E+00 0. -1.
</event>
<event>
 7    1  0.3001243E-009  0.1263931E+03  0.7561462E-02  0.1232908E+00
         -2   -1    0    0    0  501 -0.00000000000E+00  0.00000000000E+00  0.12119158417E+03  0.12119158417E+03  0.00000000000E+00 0. -1.
          2   -1    0    0  501    0  0.00000000000E+00 -0.00000000000E+00 -0.18498987752E+03  0.18498987752E+03  0.00000000000E+00 0.  1.
         25    2    1    2    0    0 -0.83356035720E+02 -0.45300837002E+02 -0.75076891050E+02  0.17402204848E+03  0.12508692682E+03 0.  0.
          5    1    3    3  502    0 -0.22014432937E+02 -0.67879805551E+02 -0.81266802235E+02  0.10823155180E+03  0.41800000000E+01 0.  1.
         -5    1    3    3    0  502 -0.61341602783E+02  0.22578968549E+02  0.61899111853E+01  0.65790496678E+02  0.41800000000E+01 0.  1.
        -11    1    1    2    0    0  0.62785211207E+02 -0.34620529704E+01  0.37376435191E+02  0.73150300510E+02  0.00000000000E+00 0.  1.
         11    1    1    2    0    0  0.20570824513E+02  0.48762889973E+02 -0.26097837489E+02  0.59009112696E+02  0.00000000000E+00 0. -1.
</event>
<event>
 7    1  0.3001243E-009  0.1087204E+03  0.7561462E-02  0.1262958E+00
         -2   -1    0    0    0  501 -0.00000000000E+00  0.00000000000E+00  0.35979641702E+03  0.35979641702E+03  0.00000000000E+00 0. -1.
          2   -1    0    0  501    0  0.00000000000E+00 -0.00000000000E+00 -0.36188916069E+02  0.36188916069E+02  0.00000000000E+00 0.  1.
         25    2    1    2    0    0 -0.34538395096E+02  0.10821817866E+02  0.19514270258E+03  0.23459415348E+03  0.12507489756E+03 0.  0.
          5    1    3    3  502    0 -0.65172826534E+02  0.47159320486E+02  0.10228910305E+03  0.13019996862E+03  0.41800000000E+01 0.  1.
         -5    1    3    3    0  502  0.30634431438E+02 -0.36337502620E+02  0.92853599532E+02  0.10439418486E+03  0.41800000000E+01 0.  1.
        -11    1    1    2    0    0 -0.19181477139E+02 -0.26956957514E+02  0.82452174553E+02  0.88842375655E+02  0.00000000000E+00 0. -1.
         11    1    1    2    0    0  0.53719872235E+02  0.16135139648E+02  0.46012623823E+02  0.72548803956E+02  0.00000000000E+00 0.  1.
</event>
<event>
 7    1  0.3001243E-009  0.1036902E+03  0.7561462E-02  0.1272722E+00
         -2   -1    0    0    0  501 -0.00000000000E+00  0.00000000000E+00  0.87024381649E+02  0.87024381649E+02  0.00000000000E+00 0.  1.
          2   -1    0    0  501    0  0.00000000000E+00 -0.00000000000E+00 -0.22094808415E+03  0.22094808415E+03  0.00000000000E+00 0. -1.
         25    2    1    2    0    0  0.22417873317E+02 -0.84580573953E+02 -0.67891690239E+02  0.16707967546E+03  0.12509956760E+03 0.  0.
          5    1    3    3  502    0 -0.28240170688E+02 -0.14472145414E+02 -0.73637956654E+02  0.80293033904E+02  0.41800000000E+01 0.  1.
         -5    1    3    3    0  502  0.50658044005E+02 -0.70108428539E+02  0.57462664148E+01  0.86786641555E+02  0.41800000000E+01 0.  1.
        -11    1    1    2    0    0 -0.13163571906E+02  0.22958507139E+02  0.21048012070E+02  0.33814072329E+02  0.00000000000E+00 0.  1.
         11    1    1    2    0    0 -0.92543014111E+01  0.61622066815E+02 -0.87080024331E+02  0.10707871801E+03  0.00000000000E+00 0. -1.
</event>
<event>
 7    1  0.3001243E-009  0.1205519E+03  0.7561462E-02  0.1242189E+00
         -3   -1    0    0    0  501 -0.00000000000E+00  0.00000000000E+00  0.41320259414E+03  0.41320259414E+03  0.00000000000E+00 0.  1.
          3   -1    0    0  501    0  0.00000000000E+00 -0.00000000000E+00 -0.56672729181E+02  0.56672729181E+02  0.00000000000E+00 0. -1.
         25    2    1    2    0    0  0.81906917294E+02 -0.61473660526E+02  0.14881716696E+03  0.21973431318E+03  0.12509542425E+03 0.  0.
          5    1    3    3  502    0  0.47818640688E+02  0.14423621222E+02  0.12252121213E+03  0.13237667116E+03  0.41800000000E+01 0. -1.
         -5    1    3    3    0  502  0.34088276607E+02 -0.75897281747E+02  0.26295954833E+02  0.87357642019E+02  0.41800000000E+01 0. -1.
        -11    1    1    2    0    0 -0.16664718222E+02 -0.18370863604E+01 -0.60704425432E+01  0.17830815808E+02  0.00000000000E+00 0. -1.
         11    1    1    2    0    0 -0.65242199072E+02  0.63310746886E+02  0.21378314054E+03  0.23231019433E+03  0.00000000000E+00 0.  1.
</event>
<event>
 7    1  0.3001243E-009  0.1828560E+03  0.7561462E-02  0.1165067E+00
         -2   -1    0    0    0  501 -0.00000000000E+00  0.00000000000E+00  0.22257330225E+03  0.22257330225E+03  0.00000000000E+00 0.  1.
          2   -1    0    0  501    0  0.00000000000E+00 -0.00000000000E+00 -0.15312074999E+03  0.15312074999E+03  0.00000000000E+00 0. -1.
         25    2    1    2    0    0  0.13970485787E+03  0.44472394366E+02  0.59178116531E+02  0.20160542816E+03  0.12508979980E+03 0.  0.
          5    1    3    3  502    0  0.21531806377E+02 -0.41142287197E+02  0.17307525716E+02  0.49732578137E+02  0.41800000000E+01 0. -1.
         -5    1    3    3    0  502  0.11817305149E+03  0.85614681563E+02  0.41870590814E+02  0.15187285002E+03  0.41800000000E+01 0. -1.
        -11    1    1    2    0    0 -0.90924137158E+02  0.19161462902E+02  0.13206553746E+02  0.93855066141E+02  0.00000000000E+00 0.  1.
         11    1    1    2    0    0 -0.48780720714E+02 -0.63633857268E+02 -0.29321180156E+01  0.80233557943E+02  0.00000000000E+00 0. -1.
</event>
<event>
 7    1  0.3001243E-009  0.2997149E+03  0.7561462E-02  0.1085383E+00
          2   -1    0    0  501    0  0.00000000000E+00  0.00000000000E+00  0.28170511993E+04  0.28170511993E+04  0.00000000000E+00 0. -1.
         -2   -1    0    0    0  501 -0.00000000000E+00 -0.00000000000E+00 -0.38813840999E+02  0.38813840999E+02  0.00000000000E+00 0.  1.
         25    2    1    2    0    0  0.28255273721E+03 -0.45445362361E+02  0.19402094087E+04  0.19651872431E+04  0.12508805151E+03 0.  0.
          5    1    3    3  502    0  0.20306850066E+03  0.26672702059E+02  0.12536627272E+04  0.12702897130E+04  0.41800000000E+01 0.  1.
         -5    1    3    3    0  502  0.79484236552E+02 -0.72118064420E+02  0.68654668146E+03  0.69489753007E+03  0.41800000000E+01 0.  1.
        -11    1    1    2    0    0 -0.23904249743E+02  0.10722075840E+02  0.22910468442E+02  0.34803241664E+02  0.00000000000E+00 0.  1.
         11    1    1    2    0    0 -0.25864848747E+03  0.34723286521E+02  0.81511748120E+03  0.85587455556E+03  0.00000000000E+00 0. -1.
</event>
<event>
 7    1  0.3001243E-009  0.1739368E+03  0.7561462E-02  0.1173803E+00
          2   -1    0    0  501    0  0.00000000000E+00  0.00000000000E+00  0.66711458717E+03  0.66711458717E+03  0.00000000000E+00 0. -1.
         -2   -1    0    0    0  501 -0.00000000000E+00 -0.00000000000E+00 -0.60148091922E+02  0.60148091922E+02  0.00000000000E+00 0.  1.
         25    2    1    2    0    0 -0.12434586469E+03  0.97315985182E+02  0.21151977053E+03  0.29210524526E+03  0.12511021518E+03 0.  0.
          5    1    3    3  502    0  0.48796340783E+01 -0.82266100333E+00  0.87729235078E+02  0.87968054925E+02  0.41800000000E+01 0.  1.
         -5    1    3    3    0  502 -0.12922549877E+03  0.98138646186E+02  0.12379053546E+03  0.20413719033E+03  0.41800000000E+01 0.  1.
        -11    1    1    2    0    0  0.69062727867E+02 -0.22445199045E+01  0.11851782043E+03  0.13719027666E+03  0.00000000000E+00 0.  1.
         11    1    1    2    0    0  0.55283136828E+02 -0.95071465278E+02  0.27692890429E+03  0.29796715718E+03  0.00000000000E+00 0. -1.
</event>
<event>
 7    1  0.3001243E-009  0.1562044E+03  0.7561462E-02  0.1193050E+00
          1   -1    0    0  501    0  0.00000000000E+00  0.00000000000E+00  0.15512889852E+04  0.15512889852E+04  0.00000000000E+00 0. -1.
         -1   -1    0    0    0  501 -0.00000000000E+00 -0.00000000000E+00 -0.37327282920E+02  0.37327282920E+02  0.00000000000E+00 0.  1.
         25    2    1    2    0    0  0.29646750436E+02  0.14747158473E+03  0.13037592361E+04  0.13183559312E+04  0.12508963849E+03 0.  0.
          5    1    3    3  502    0  0.45421742122E+02  0.13135870176E+03  0.12697222453E+04  0.12773137030E+04  0.41800000000E+01 0. -1.
         -5    1    3    3    0  502 -0.15774991686E+02  0.16112882962E+02  0.34036990787E+02  0.41042228276E+02  0.41800000000E+01 0. -1.
        -11    1    1    2    0    0 -0.18391295187E+02 -0.90736452411E+02  0.18559028044E+03  0.20740080938E+03  0.00000000000E+00 0. -1.
         11    1    1    2    0    0 -0.11255455249E+02 -0.56735132314E+02  0.24612185774E+02  0.62859527521E+02  0.00000000000E+00 0.  1.
</event>
<event>
 7    1  0.3001243E-009  0.1012438E+03  0.7561462E-02  0.1277702E+00
         -2   -1    0    0    0  501 -0.00000000000E+00  0.00000000000E+00  0.30263864767E+03  0.30263864767E+03  0.00000000000E+00 0.  1.
          2   -1    0    0  501    0  0.00000000000E+00 -0.00000000000E+00 -0.64940810606E+02  0.64940810606E+02  0.00000000000E+00 0. -1.
         25    2    1    2    0    0  0.35140804789E+02 -0.47304375973E+01  0.23963915011E+02  0.13221088756E+03  0.12509275105E+03 0.  0.
          5    1    3    3  502    0  0.75626108586E+02  0.80484101144E+01  0.40730983224E+02  0.86374594642E+02  0.41800000000E+01 0.  1.
         -5    1    3    3    0  502 -0.40485303796E+02 -0.12778847712E+02 -0.16767068213E+02  0.45836292921E+02  0.41800000000E+01 0.  1.
        -11    1    1    2    0    0 -0.49682721320E+02 -0.21131771693E+02  0.18955522184E+03  0.19709415694E+03  0.00000000000E+00 0.  1.
         11    1    1    2    0    0  0.14541916530E+02  0.25862209290E+02  0.24178700213E+02  0.38274413774E+02  0.00000000000E+00 0. -1.
</event>
<event>
 7    1  0.3491032E-009  0.1117642E+03  0.7561462E-02  0.1257337E+00
         -1   -1    0    0    0  501 -0.00000000000E+00  0.00000000000E+00  0.45940447010E+02  0.45940447010E+02  0.00000000000E+00 0.  1.
          1   -1    0    0  501    0  0.00000000000E+00 -0.00000000000E+00 -0.42748081114E+03  0.42748081114E+03  0.00000000000E+00 0. -1.
         25    2    1    2    0    0  0.20584634684E+02 -0.62809513085E+02 -0.10996836778E+03  0.17917430263E+03  0.12506648908E+03 0.  0.
          5    1    3    3  502    0  0.72761901192E+02 -0.40120205614E+02 -0.76563577666E+02  0.11306360594E+03  0.41800000000E+01 0. -1.
         -5    1    3    3    0  502 -0.52177266508E+02 -0.22689307471E+02 -0.33404790112E+02  0.66110696685E+02  0.41800000000E+01 0. -1.
        -11    1    1    2    0    0 -0.25921051731E+02  0.65029887617E+01 -0.13293179408E+02  0.29847921276E+02  0.00000000000E+00 0.  1.
         11    1    1    2    0    0  0.53364170474E+01  0.56306524323E+02 -0.25827881694E+03  0.26439903424E+03  0.00000000000E+00 0. -1.
</event>
<event>
 7    1  0.4244271E-009  0.1320896E+03  0.7561462E-02  0.1224388E+00
         -2   -1    0    0    0  501 -0.00000000000E+00  0.00000000000E+00  0.19396090188E+02  0.19396090188E+02  0.00000000000E+00 0. -1.
          2   -1    0    0  501    0  0.00000000000E+00 -0.00000000000E+00 -0.11399473027E+04  0.11399473027E+04  0.00000000000E+00 0.  1.
         25    2    1    2    0    0  0.25680881667E+02  0.81986957309E+02 -0.81636449026E+03  0.83034944792E+03  0.12509138998E+03 0.  0.
          5    1    3    3  502    0  0.21815498785E+02  0.11447535377E+03 -0.57167401207E+03  0.58344594530E+03  0.41800000000E+01 0.  1.
         -5    1    3    3    0  502  0.38653828813E+01 -0.32488396460E+02 -0.24469047819E+03  0.24690350262E+03  0.41800000000E+01 0.  1.
        -11    1    1    2    0    0 -0.52065803933E+02 -0.43090787284E+02 -0.10919876042E+03  0.12842131118E+03  0.00000000000E+00 0. -1.
         11    1    1    2    0    0  0.26384922266E+02 -0.38896170025E+02 -0.19498796183E+03  0.20057263379E+03  0.00000000000E+00 0.  1.
</event>
<event>
 7    1  0.3001243E-009  0.1686461E+03  0.7561462E-02  0.1179267E+00
          2   -1    0    0  501    0  0.00000000000E+00  0.00000000000E+00  0.22091494907E+04  0.22091494907E+04  0.00000000000E+00 0. -1.
         -2   -1    0    0    0  501 -0.00000000000E+00 -0.00000000000E+00 -0.19712833846E+02  0.19712833846E+02  0.00000000000E+00 0.  1.
         25    2    1    2    0    0 -0.10836848598E+03  0.10104872924E+03  0.16669369484E+04  0.16781778196E+04  0.12508968684E+03 0.  0.
          5    1    3    3  502    0 -0.21231176439E+00  0.38803438196E+02  0.92385274724E+03  0.92467676670E+03  0.41800000000E+01 0.  1.
         -5    1    3    3    0  502 -0.10815617421E+03  0.62245291043E+02  0.74308420117E+03  0.75350105289E+03  0.41800000000E+01 0.  1.
        -11    1    1    2    0    0  0.88631933049E+02 -0.11786820892E+03  0.42817044173E+03  0.45285589474E+03  0.00000000000E+00 0.  1.
         11    1    1    2    0    0  0.19736552927E+02  0.16819479678E+02  0.94329266709E+02  0.97828610212E+02  0.00000000000E+00 0. -1.
</event>
<event>
 7    1  0.3001243E-009  0.1208049E+03  0.7561462E-02  0.1241775E+00
         -1   -1    0    0    0  501 -0.00000000000E+00  0.00000000000E+00  0.21679786526E+02  0.21679786526E+02  0.00000000000E+00 0.  1.
          1   -1    0    0  501    0  0.00000000000E+00 -0.00000000000E+00 -0.87046730532E+03  0.87046730532E+03  0.00000000000E+00 0. -1.
         25    2    1    2    0    0 -0.68800435332E+02  0.43600840137E+02 -0.48068043071E+03  0.50332584375E+03  0.12509474554E+03 0.  0.
          5    1    3    3  502    0 -0.88497585721E+02 -0.22122608199E+01 -0.38805587553E+03  0.39804717272E+03  0.41800000000E+01 0. -1.
         -5    1    3    3    0  502  0.19697150389E+02  0.45813100957E+02 -0.92624555182E+02  0.10527867104E+03  0.41800000000E+01 0. -1.
        -11    1    1    2    0    0 -0.69639720892E+01  0.85035984200E+01 -0.17854821382E+01  0.11135350907E+02  0.00000000000E+00 0.  1.
         11    1    1    2    0    0  0.75764407421E+02 -0.52104438557E+02 -0.36632160594E+03  0.37768589718E+03  0.00000000000E+00 0. -1.
</event>
<event>
 7    1  0.3001243E-009  0.1252737E+03  0.7561462E-02  0.1234642E+00
          1   -1    0    0  501    0  0.00000000000E+00  0.00000000000E+00  0.27211935178E+03  0.27211935178E+03  0.00000000000E+00 0. -1.
         -1   -1    0    0    0  501 -0.00000000000E+00 -0.00000000000E+00 -0.10488016723E+03  0.10488016723E+03  0.00000000000E+00 0.  1.
         25    2    1    2    0    0  0.35918289497E+02 -0.73981577288E+02 -0.25864312219E+02  0.15191728986E+03  0.12508598248E+03 0.  0.
          5    1    3    3  502    0 -0.39928494727E+02 -0.42150867767E+02 -0.36748666586E+02  0.68839794019E+02  0.41800000000E+01 0. -1.
         -5    1    3    3    0  502  0.75846784223E+02 -0.31830709520E+02  0.10884354367E+02  0.83077495843E+02  0.41800000000E+01 0. -1.
        -11    1    1    2    0    0 -0.50754504848E+02  0.79353678230E+02  0.18439018214E+03  0.20705739610E+03  0.00000000000E+00 0. -1.
         11    1    1    2    0    0  0.14836215351E+02 -0.53721009419E+01  0.87133146355E+01  0.18024833048E+02  0.00000000000E+00 0.  1.
</event>
<event>
 7    1  0.3001243E-009  0.9473402E+02  0.7561462E-02  0.1291776E+00
         -1   -1    0    0    0  501 -0.00000000000E+00  0.00000000000E+00  0.29630612610E+03  0.29630612610E+03  0.00000000000E+00 0.  1.
          1   -1    0    0  501    0  0.00000000000E+00 -0.00000000000E+00 -0.51212008835E+02  0.51212008835E+02  0.00000000000E+00 0. -1.
         25    2    1    2    0    0  0.38342902721E+01 -0.52217021697E+02  0.10087163213E+03  0.16902089026E+03  0.12510657872E+03 0.  0.
          5    1    3    3  502    0  0.25661693347E+02 -0.70329062741E+02  0.11482303189E+03  0.13713679530E+03  0.41800000000E+01 0.  1.
         -5    1    3    3    0  502 -0.21827403074E+02  0.18112041044E+02 -0.13951399767E+02  0.31884094957E+02  0.41800000000E+01 0.  1.
        -11    1    1    2    0    0  0.31004970780E+02  0.35628285297E+02  0.12836638698E+03  0.13677942912E+03  0.00000000000E+00 0.  1.
         11    1    1    2    0    0 -0.34839261053E+02  0.16588736400E+02  0.15856098166E+02  0.41717815560E+02  0.00000000000E+00 0. -1.
</event>
<event>
 7    1  0.3001243E-009  0.1915111E+03  0.7561462E-02  0.1157105E+00
          2   -1    0    0  501    0  0.00000000000E+00  0.00000000000E+00  0.76928622912E+02  0.76928622912E+02  0.00000000000E+00 0.  1.
         -2   -1    0    0    0  501 -0.00000000000E+00 -0.00000000000E+00 -0.76596198772E+03  0.76596198772E+03  0.00000000000E+00 0. -1.
         25    2    1    2    0    0  0.82678503211E+02  0.17239175488E+03 -0.17937640565E+03  0.29047912542E+03  0.12509026884E+03 0.  0.
          5    1    3    3  502    0  0.43375437762E+02  0.10523543754E+03 -0.17946084991E+03  0.21255492223E+03  0.41800000000E+01 0. -1.
         -5    1    3    3    0  502  0.39303065449E+02  0.67156317334E+02  0.84444257127E-01  0.77924203187E+02  0.41800000000E+01 0. -1.
        -11    1    1    2    0    0 -0.68855538175E+02 -0.14468636141E+03 -0.49048301173E+03  0.51599303591E+03  0.00000000000E+00 0. -1.
         11    1    1    2    0    0 -0.13822965035E+02 -0.27705393462E+02 -0.19173947425E+02  0.36418449295E+02  0.00000000000E+00 0.  1.
</event>
<event>
 7    1  0.3001243E-009  0.1261385E+03  0.7561462E-02  0.1233301E+00
          2   -1    0    0  501    0  0.00000000000E+00  0.00000000000E+00  0.72405639120E+03  0.72405639120E+03  0.00000000000E+00 0. -1.
         -2   -1    0    0    0  501 -0.00000000000E+00 -0.00000000000E+00 -0.23145264963E+02  0.23145264963E+02  0.00000000000E+00 0.  1.
         25    2    1    2    0    0  0.69278476966E+02 -0.55355529382E+00  0.39596351978E+03  0.42098860435E+03  0.12507790450E+03 0.  0.
          5    1    3    3  502    0 -0.26170848707E+02  0.27889183986E+02  0.16509003598E+03  0.16951375249E+03  0.41800000000E+01 0.  1.
         -5    1    3    3    0  502  0.95449325673E+02 -0.28442739280E+02  0.23087348381E+03  0.25147485185E+03  0.41800000000E+01 0.  1.
        -11    1    1    2    0    0 -0.41683939767E+02  0.45292467819E+02  0.19215741509E+03  0.20177569390E+03  0.00000000000E+00 0. -1.
         11    1    1    2    0    0 -0.27594537199E+02 -0.44738912525E+02  0.11279019136E+03  0.12443735791E+03  0.00000000000E+00 0.  1.
</event>
<event>
 7    1  0.3001243E-009  0.4299969E+03  0.7561462E-02  0.1033861E+00
         -1   -1    0    0    0  501 -0.00000000000E+00  0.00000000000E+00  0.17553125749E+03  0.17553125749E+03  0.00000000000E+00 0. -1.
          1   -1    0    0  501    0  0.00000000000E+00 -0.00000000000E+00 -0.11662146130E+04  0.11662146130E+04  0.00000000000E+00 0.  1.
         25    2    1    2    0    0  0.30473859721E+03  0.29261354664E+03 -0.67865470494E+03  0.80914048674E+03  0.12509124048E+03 0.  0.
          5    1    3    3  502    0  0.70089006138E+02  0.11249042938E+02 -0.14911825941E+03  0.16520513744E+03  0.41800000000E+01 0. -1.
         -5    1    3    3    0  502  0.23464959107E+03  0.28136450370E+03 -0.52953644553E+03  0.64393534930E+03  0.41800000000E+01 0. -1.
        -11    1    1    2    0    0 -0.15562086875E+03 -0.15172795682E+03 -0.21482335767E+03  0.30559499779E+03  0.00000000000E+00 0.  1.
         11    1    1    2    0    0 -0.14911772846E+03 -0.14088558981E+03 -0.97205292860E+02  0.22701038593E+03  0.00000000000E+00 0. -1.
</event>
<event>
 7    1  0.3001243E-009  0.7464014E+02  0.7561462E-02  0.1344989E+00
         -1   -1    0    0    0  501 -0.00000000000E+00  0.00000000000E+00  0.84384150947E+02  0.84384150947E+02  0.00000000000E+00 0.  1.
          1   -1    0    0  501    0  0.00000000000E+00 -0.00000000000E+00 -0.15732814962E+03  0.15732814962E+03  0.00000000000E+00 0. -1.
         25    2    1    2    0    0  0.28974901193E+02 -0.23966514606E+02 -0.32887679337E+02  0.13469815294E+03  0.12509218294E+03 0.  0.
          5    1    3    3  502    0  0.57398294923E+02 -0.97308649403E+01  0.28867474485E+02  0.65115723721E+02  0.41800000000E+01 0.  1.
         -5    1    3    3    0  502 -0.28423393730E+02 -0.14235649666E+02 -0.61755153822E+02  0.69582429220E+02  0.41800000000E+01 0.  1.
        -11    1    1    2    0    0 -0.18619040613E+02  0.37465345560E+02  0.18713359477E+02  0.45831327869E+02  0.00000000000E+00 0.  1.
         11    1    1    2    0    0 -0.10355860580E+02 -0.13498830954E+02 -0.58769678818E+02  0.61182819761E+02  0.00000000000E+00 0. -1.
</event>
<event>
 7    1  0.3001243E-009  0.1183976E+03  0.7561462E-02  0.1245764E+00
         -2   -1    0    0    0  501 -0.00000000000E+00  0.00000000000E+00  0.16506622357E+03  0.16506622357E+03  0.00000000000E+00 0.  1.
          2   -1    0    0  501    0  0.00000000000E+00 -0.00000000000E+00 -0.16809627725E+03  0.16809627725E+03  0.00000000000E+00 0. -1.
         25    2    1    2    0    0 -0.76381006723E+01  0.69280470702E+02  0.10285184970E+03  0.17631182275E+03  0.12509688906E+03 0.  0.
          5    1    3    3  502    0 -0.30691670454E+02 -0.18907485794E+02  0.70872076519E+02  0.79622831427E+02  0.41800000000E+01 0. -1.
         -5    1    3    3    0  502  0.23053569782E+02  0.88187956497E+02  0.31979773186E+02  0.96688991327E+02  0.41800000000E+01 0. -1.
        -11    1    1    2    0    0 -0.11566103576E+02  0.17169014561E+02 -0.44562836014E+02  0.49136505437E+02  0.00000000000E+00 0. -1.
         11    1    1    2    0    0  0.19204204248E+02 -0.86449485263E+02 -0.61319067366E+02  0.10771417263E+03  0.00000000000E+00 0.  1.
</event>
<event>
 7    1  0.3001243E-009  0.1193999E+03  0.7561462E-02  0.1244090E+00
         -1   -1    0    0    0  501 -0.00000000000E+00  0.00000000000E+00  0.10361260683E+04  0.10361260683E+04  0.00000000000E+00 0.  1.
          1   -1    0    0  501    0  0.00000000000E+00 -0.00000000000E+00 -0.27337407079E+02  0.27337407079E+02  0.00000000000E+00 0. -1.
         25    2    1    2    0    0  0.77471229497E+02 -0.11038149233E+02  0.85787226171E+03  0.87046903432E+03  0.12509152714E+03 0.  0.
          5    1    3    3  502    0  0.70503046347E+02  0.40349355622E+02  0.68845410808E+03  0.69324258480E+03  0.41800000000E+01 0. -1.
         -5    1    3    3    0  502  0.69681831494E+01 -0.51387504855E+02  0.16941815363E+03  0.17722644953E+03  0.41800000000E+01 0. -1.
        -11    1    1    2    0    0 -0.84423964275E+02  0.26495928478E+02  0.15214089477E+03  0.17600082906E+03  0.00000000000E+00 0.  1.
         11    1    1    2    0    0  0.69527347786E+01 -0.15457779245E+02 -0.12244952540E+01  0.16993611998E+02  0.00000000000E+00 0. -1.
</event>
<event>
 7    1  0.3001243E-009  0.6919513E+02  0.7561462E-02  0.1362852E+00
          2   -1    0    0  501    0  0.00000000000E+00  0.00000000000E+00  0.42503432576E+02  0.42503432576E+02  0.00000000000E+00 0. -1.
         -2   -1    0    0    0  501 -0.00000000000E+00 -0.00000000000E+00 -0.30627573433E+03  0.30627573433E+03  0.00000000000E+00 0.  1.
         25    2    1    2    0    0 -0.11893722996E+02  0.11503610118E+02 -0.19306455772E+03  0.23061542117E+03  0.12504301397E+03 0.  0.
          5    1    3    3  502    0  0.23305443229E+02 -0.11224487393E+02 -0.18610051236E+03  0.18793617507E+03  0.41800000000E+01 0. -1.
         -5    1    3    3    0  502 -0.35199166225E+02  0.22728097511E+02 -0.69640453574E+01  0.42679246094E+02  0.41800000000E+01 0. -1.
        -11    1    1    2    0    0  0.29582874781E+02  0.18757121447E+02 -0.75071556234E+02  0.82841503129E+02  0.00000000000E+00 0.  1.
         11    1    1    2    0    0 -0.17689151785E+02 -0.30260731565E+02  0.43638122005E+01  0.35322242605E+02  0.00000000000E+00 0. -1.
</event>
<event>
 7    1  0.3001243E-009  0.8400552E+02  0.7561462E-02  0.1318054E+00
          1   -1    0    0  501    0  0.00000000000E+00  0.00000000000E+00  0.78805620222E+02  0.78805620222E+02  0.00000000000E+00 0.  1.
         -1   -1    0    0    0  501 -0.00000000000E+00 -0.00000000000E+00 -0.17247085511E+03  0.17247085511E+03  0.00000000000E+00 0. -1.
         25    2    1    2    0    0  0.20121250957E+02  0.17905599332E+02 -0.84559727293E+02  0.15337354748E+03  0.12509045671E+03 0.  0.
          5    1    3    3  502    0 -0.39967241003E+02  0.13145225971E+02  0.78113441516E+01  0.42996125601E+02  0.41800000000E+01 0.  1.
         -5    1    3    3    0  502  0.60088491961E+02  0.47603733605E+01 -0.92371071445E+02  0.11037742188E+03  0.41800000000E+01 0.  1.
        -11    1    1    2    0    0 -0.95502199866E+01 -0.39835418028E+02  0.30735574271E+02  0.51212720656E+02  0.00000000000E+00 0.  1.
         11    1    1    2    0    0 -0.10571030971E+02  0.21929818696E+02 -0.39841081864E+02  0.46690207195E+02  0.00000000000E+00 0. -1.
</event>
<event>
 7    1  0.3001243E-009  0.1194788E+03  0.7561462E-02  0.1243959E+00
         -2   -1    0    0    0  501 -0.00000000000E+00  0.00000000000E+00  0.43425141286E+02  0.43425141286E+02  0.00000000000E+00 0.  1.
          2   -1    0    0  501    0  0.00000000000E+00 -0.00000000000E+00 -0.56358939572E+03  0.56358939572E+03  0.00000000000E+00 0. -1.
         25    2    1    2    0    0 -0.83721734613E+02  0.49437881485E+02 -0.39029994841E+03  0.42122940446E+03  0.12508688372E+03 0.  0.
          5    1    3    3  502    0 -0.97481590516E+02  0.45452864418E+02 -0.17527786315E+03  0.20569011907E+03  0.41800000000E+01 0.  1.
         -5    1    3    3    0  502  0.13759855903E+02  0.39850170664E+01 -0.21502208526E+03  0.21553928539E+03  0.41800000000E+01 0.  1.
        -11    1    1    2    0    0 -0.96600410470E+01 -0.12910897551E+02 -0.63562029717E+02  0.65575447314E+02  0.00000000000E+00 0. -1.
         11    1    1    2    0    0  0.93381775660E+02 -0.36526983933E+02 -0.66302276308E+02  0.12020968523E+03  0.00000000000E+00 0.  1.
</event>
<event>
 7    1  0.4089182E-009  0.1287517E+03  0.7561462E-02  0.1229320E+00
          2   -1    0    0  501    0  0.00000000000E+00  0.00000000000E+00  0.43819926482E+03  0.43819926482E+03  0.00000000000E+00 0. -1.
         -2   -1    0    0    0  501 -0.00000000000E+00 -0.00000000000E+00 -0.48309262901E+02  0.48309262901E+02  0.00000000000E+00 0.  1.
         25    2    1    2    0    0  0.46048230723E+02  0.81163643755E+02  0.17193958537E+03  0.23220483504E+03  0.12509151761E+03 0.  0.
          5    1    3    3  502    0 -0.40398192738E+02  0.83060739137E+01  0.32700037062E+02  0.52799333938E+02  0.41800000000E+01 0.  1.
         -5    1    3    3    0  502  0.86446423462E+02  0.72857569841E+02  0.13923954831E+03  0.17940550110E+03  0.41800000000E+01 0.  1.
        -11    1    1    2    0    0 -0.44996526252E+02 -0.35691212507E+02  0.19514709269E+03  0.20342305132E+03  0.00000000000E+00 0. -1.
         11    1    1    2    0    0 -0.10517044714E+01 -0.45472431248E+02  0.22803323858E+02  0.50880641357E+02  0.00000000000E+00 0.  1.
</event>
<event>
 7    1  0.3001243E-009  0.1357241E+03  0.7561462E-02  0.1219201E+00
          2   -1    0    0  501    0  0.00000000000E+00  0.00000000000E+00  0.67240195833E+02  0.67240195833E+02  0.00000000000E+00 0. -1.
         -2   -1    0    0    0  501 -0.00000000000E+00 -0.00000000000E+00 -0.39348989290E+03  0.39348989290E+03  0.00000000000E+00 0.  1.
         25    2    1    2    0    0  0.10346967546E+03 -0.43670672017E+02 -0.11096478126E+03  0.20143169089E+03  0.12509373318E+03 0.  0.
          5    1    3    3  502    0  0.40909792736E+01  0.12796262552E+02 -0.82331535454E+02  0.83525053588E+02  0.41800000000E+01 0.  1.
         -5    1    3    3    0  502  0.99378696185E+02 -0.56466934569E+02 -0.28633245811E+02  0.11790663731E+03  0.41800000000E+01 0.  1.
        -11    1    1    2    0    0 -0.82444892314E+02 -0.12165991340E+02 -0.10655478898E+03  0.13527414634E+03  0.00000000000E+00 0.  1.
         11    1    1    2    0    0 -0.21024783144E+02  0.55836663356E+02 -0.10873012683E+03  0.12402425150E+03  0.00000000000E+00 0. -1.
</event>
<event>
 7    1  0.3001243E-009  0.1390075E+03  0.7561462E-02  0.1214671E+00
         -2   -1    0    0    0  501 -0.00000000000E+00  0.00000000000E+00  0.16795149838E+02  0.16795149838E+02  0.00000000000E+00 0.  1.
          2   -1    0    0  501    0  0.00000000000E+00 -0.00000000000E+00 -0.15469728857E+04  0.15469728857E+04  0.00000000000E+00 0. -1.
         25    2    1    2    0    0 -0.10686277930E+03 -0.39352976591E+02 -0.10008537341E+04  0.10150488814E+04  0.12509086416E+03 0.  0.
          5    1    3    3  502    0 -0.86904957769E+02  0.52741907540E+01 -0.88434485068E+03  0.88863016835E+03  0.41800000000E+01 0. -1.
         -5    1    3    3    0  502 -0.19957821531E+02 -0.44627167345E+02 -0.11650888341E+03  0.12641871309E+03  0.41800000000E+01 0. -1.
        -11    1    1    2    0    0  0.77891952875E+02 -0.15807121635E+02 -0.24200461027E+03  0.25472191270E+03  0.00000000000E+00 0.  1.
         11    1    1    2    0    0  0.28970826425E+02  0.55160098227E+02 -0.28731939150E+03  0.29399724141E+03  0.00000000000E+00 0. -1.
</event>
<event>
 7    1  0.3001243E-009  0.1051785E+03  0.7561462E-02  0.1269768E+00
         -2   -1    0    0    0  501 -0.00000000000E+00  0.00000000000E+00  0.12016104067E+02  0.12016104067E+02  0.00000000000E+00 0. -1.
          2   -1    0    0  501    0  0.00000000000E+00 -0.00000000000E+00 -0.12156735628E+04  0.12156735628E+04  0.00000000000E+00 0.  1.
         25    2    1    2    0    0  0.21072163750E+02  0.37146700893E+02 -0.83470979499E+03  0.84511160913E+03  0.12509706856E+03 0.  0.
          5    1    3    3  502    0  0.17358590792E+02  0.73286384271E+02 -0.73582929691E+03  0.73968536649E+03  0.41800000000E+01 0. -1.
         -5    1    3    3    0  502  0.37135729577E+01 -0.36139683378E+02 -0.98880498077E+02  0.10542624265E+03  0.41800000000E+01 0. -1.
        -11    1    1    2    0    0 -0.54138498823E+02 -0.36483961355E+02 -0.19877460716E+03  0.20922093811E+03  0.00000000000E+00 0. -1.
         11    1    1    2    0    0  0.33066335074E+02 -0.66273953825E+00 -0.17017305657E+03  0.17335711962E+03  0.00000000000E+00 0.  1.
</event>
<event>
 7    1  0.3001243E-009  0.1083420E+03  0.7561462E-02  0.1263671E+00
         -2   -1    0    0    0  501 -0.00000000000E+00  0.00000000000E+00  0.16260744025E+02  0.16260744025E+02  0.00000000000E+00 0.  1.
          2   -1    0    0  501    0  0.00000000000E+00 -0.00000000000E+00 -0.86970784084E+03  0.86970784084E+03  0.00000000000E+00 0. -1.
         25    2    1    2    0    0 -0.29105928390E+02  0.28651117447E+02 -0.57652765395E+03  0.59135357613E+03  0.12508746797E+03 0.  0.
          5    1    3    3  502    0 -0.54463048680E+01 -0.47420576067E+02 -0.15124620009E+03  0.15865452629E+03  0.41800000000E+01 0.  1.
         -5    1    3    3    0  502 -0.23659623522E+02  0.76071693514E+02 -0.42528145386E+03  0.43269904984E+03  0.41800000000E+01 0.  1.
        -11    1    1    2    0    0  0.30040799197E+02  0.22688056344E+02 -0.18973335624E+03  0.19343201386E+03  0.00000000000E+00 0. -1.
         11    1    1    2    0    0 -0.93487080721E+00 -0.51339173791E+02 -0.87186086628E+02  0.10118299487E+03  0.00000000000E+00 0.  1.
</event>
<event>
 7    1  0.3162005E-009  0.2030052E+03  0.7561462E-02  0.1147228E+00
          1   -1    0    0  501    0  0.00000000000E+00  0.00000000000E+00  0.45554364372E+03  0.45554364372E+03  0.00000000000E+00 0. -1.
         -1   -1    0    0    0  501 -0.00000000000E+00 -0.00000000000E+00 -0.95011104941E+02  0.95011104941E+02  0.00000000000E+00 0.  1.
         25    2    1    2    0    0  0.16950172372E+03 -0.49974133911E+02  0.17276329549E+03  0.27699282513E+03  0.12509844324E+03 0.  0.
          5    1    3    3  502    0  0.18336104373E+03 -0.65441736265E+02  0.16156185417E+03  0.25302884880E+03  0.41800000000E+01 0.  1.
         -5    1    3    3    0  502 -0.13859320010E+02  0.15467602354E+02  0.11201441313E+02  0.23963976323E+02  0.41800000000E+01 0.  1.
        -11    1    1    2    0    0 -0.77750658368E+02  0.59418408777E+02  0.56085865103E+02  0.11278890213E+03  0.00000000000E+00 0.  1.
         11    1    1    2    0    0 -0.91751065353E+02 -0.94442748664E+01  0.13168337819E+03  0.16077302141E+03  0.00000000000E+00 0. -1.
</event>
<event>
 7    1  0.4377062E-009  0.2347684E+03  0.7561462E-02  0.1123328E+00
          2   -1    0    0  501    0  0.00000000000E+00  0.00000000000E+00  0.17462117897E+04  0.17462117897E+04  0.00000000000E+00 0. -1.
         -2   -1    0    0    0  501 -0.00000000000E+00 -0.00000000000E+00 -0.31598742957E+02  0.31598742957E+02  0.00000000000E+00 0.  1.
         25    2    1    2    0    0  0.20768807266E+03  0.84905780971E+01  0.89622819433E+03  0.92848232957E+03  0.12509210433E+03 0.  0.
          5    1    3    3  502    0  0.12242597162E+03 -0.56899907506E+02  0.49997756811E+03  0.51790033695E+03  0.41800000000E+01 0.  1.
         -5    1    3    3    0  502  0.85262101040E+02  0.65390485603E+02  0.39625062622E+03  0.41058199262E+03  0.41800000000E+01 0.  1.
        -11    1    1    2    0    0 -0.12241964774E+03 -0.49835445665E+02  0.49529384458E+03  0.51262670071E+03  0.00000000000E+00 0. -1.
         11    1    1    2    0    0 -0.85268424919E+02  0.41344867568E+02  0.32309100779E+03  0.33670150234E+03  0.00000000000E+00 0.  1.
</event>
<event>
 7    1  0.3001243E-009  0.1236946E+03  0.7561462E-02  0.1237124E+00
         -1   -1    0    0    0  501 -0.00000000000E+00  0.00000000000E+00  0.63878193672E+02  0.63878193672E+02  0.00000000000E+00 0.  1.
          1   -1    0    0  501    0  0.00000000000E+00 -0.00000000000E+00 -0.38674682612E+03  0.38674682612E+03  0.00000000000E+00 0. -1.
         25    2    1    2    0    0  0.92137150096E+02 -0.54440290610E+02 -0.22568553129E+03  0.27934697929E+03  0.12509107137E+03 0.  0.
          5    1    3    3  502    0  0.26321774594E+01  0.89580666336E+00  0.15435263473E+02  0.16231160964E+02  0.41800000000E+01 0. -1.
         -5    1    3    3    0  502  0.89504972637E+02 -0.55336097274E+02 -0.24112079476E+03  0.26311581833E+03  0.41800000000E+01 0. -1.
        -11    1    1    2    0    0 -0.10890689863E+03  0.49038155543E+02 -0.68700723576E+02  0.13778694673E+03  0.00000000000E+00 0.  1.
         11    1    1    2    0    0  0.16769748534E+02  0.54021350669E+01 -0.28482377582E+02  0.33491093770E+02  0.00000000000E+00 0. -1.
</event>
<event>
 7    1  0.3001243E-009  0.1009416E+03  0.7561462E-02  0.1278328E+00
         -3   -1    0    0    0  501 -0.00000000000E+00  0.00000000000E+00  0.22028851983E+02  0.22028851983E+02  0.00000000000E+00 0.  1.
          3   -1    0    0  501    0  0.00000000000E+00 -0.00000000000E+00 -0.57506786205E+03  0.57506786205E+03  0.00000000000E+00 0. -1.
         25    2    1    2    0    0 -0.45293238099E+01 -0.41416681732E+02 -0.38165618473E+03  0.40378824055E+03  0.12509054146E+03 0.  0.
          5    1    3    3  502    0  0.47056245265E+02  0.10780596403E+02 -0.81988364432E+02  0.95236945454E+02  0.41800000000E+01 0. -1.
         -5    1    3    3    0  502 -0.51585569075E+02 -0.52197278135E+02 -0.29966782030E+03  0.30855129509E+03  0.41800000000E+01 0. -1.
        -11    1    1    2    0    0  0.33204299013E+02  0.38887957675E+02 -0.62856184399E+02  0.81028998774E+02  0.00000000000E+00 0.  1.
         11    1    1    2    0    0 -0.28674975204E+02  0.25287240565E+01 -0.10852664094E+03  0.11227947472E+03  0.00000000000E+00 0. -1.
</event>
<event>
 7    1  0.3001243E-009  0.8435056E+02  0.7561462E-02  0.1317140E+00
          1   -1    0    0  501    0  0.00000000000E+00  0.00000000000E+00  0.41362755947E+02  0.41362755947E+02  0.00000000000E+00 0. -1.
         -1   -1    0    0    0  501 -0.00000000000E+00 -0.00000000000E+00 -0.34269922741E+03  0.34269922741E+03  0.00000000000E+00 0.  1.
         25    2    1    2    0    0  0.24472736937E+02  0.97856206837E+01 -0.23564641740E+03  0.26808625517E+03  0.12508530270E+03 0.  0.
          5    1    3    3  502    0  0.14509813596E+02  0.51176547151E+02 -0.21320292664E+03  0.21977837473E+03  0.41800000000E+01 0.  1.
         -5    1    3    3    0  502  0.99629233408E+01 -0.41390926467E+02 -0.22443490755E+02  0.48307880440E+02  0.41800000000E+01 0.  1.
        -11    1    1    2    0    0 -0.28263255925E+02  0.24903759473E+02  0.41553129549E+01  0.37898225514E+02  0.00000000000E+00 0. -1.
         11    1    1    2    0    0  0.37905189878E+01 -0.34689380157E+02 -0.69845367021E+02  0.78077502677E+02  0.00000000000E+00 0.  1.
</event>
<event>
 7    1  0.3001243E-009  0.1134505E+03  0.7561462E-02  0.1254310E+00
         -3   -1    0    0    0  501 -0.00000000000E+00  0.00000000000E+00  0.13353494110E+03  0.13353494110E+03  0.00000000000E+00 0.  1.
          3   -1    0    0  501    0  0.00000000000E+00 -0.00000000000E+00 -0.11605876137E+03  0.11605876137E+03  0.00000000000E+00 0. -1.
         25    2    1    2    0    0  0.20867437811E+02 -0.51643139158E+02 -0.19454322542E+02  0.13830487350E+03  0.12508918253E+03 0.  0.
          5    1    3    3  502    0 -0.42314536708E+02  0.82078522992E+01  0.13176049850E+02  0.45265544798E+02  0.41800000000E+01 0. -1.
         -5    1    3    3    0  502  0.63181974519E+02 -0.59850991458E+02 -0.32630372393E+02  0.93039328700E+02  0.41800000000E+01 0. -1.
        -11    1    1    2    0    0 -0.80368069146E+01 -0.21110999475E+02 -0.89800462573E+01  0.24308553947E+02  0.00000000000E+00 0. -1.
         11    1    1    2    0    0 -0.12830630896E+02  0.72754138633E+02  0.45910548530E+02  0.86980275027E+02  0.00000000000E+00 0.  1.
</event>
<event>
 7    1  0.3001243E-009  0.8644320E+02  0.7561462E-02  0.1311701E+00
         -1   -1    0    0    0  501 -0.00000000000E+00  0.00000000000E+00  0.78326184665E+02  0.78326184665E+02  0.00000000000E+00 0.  1.
          1   -1    0    0  501    0  0.00000000000E+00 -0.00000000000E+00 -0.27096009770E+03  0.27096009770E+03  0.00000000000E+00 0. -1.
         25    2    1    2    0    0 -0.40237127971E+01 -0.57511777542E+02 -0.19892944267E+03  0.24195921329E+03  0.12509013916E+03 0.  0.
          5    1    3    3  502    0  0.34497007614E+02 -0.57082464552E+02 -0.38941825125E+02  0.77345907699E+02  0.41800000000E+01 0.  1.
         -5    1    3    3    0  502 -0.38520720411E+02 -0.42931299030E+00 -0.15998761754E+03  0.16461330559E+03  0.41800000000E+01 0.  1.
        -11    1    1    2    0    0  0.17350857223E+02  0.15609471896E+02  0.43737436854E+02  0.49574905364E+02  0.00000000000E+00 0.  1.
         11    1    1    2    0    0 -0.13327144426E+02  0.41902305646E+02 -0.37441907221E+02  0.57752163711E+02  0.00000000000E+00 0. -1.
</event>
<event>
 7    1  0.3001243E-009  0.5143376E+02  0.7561462E-02  0.1437758E+00
          2   -1    0    0  501    0  0.00000000000E+00  0.00000000000E+00  0.22882527133E+03  0.22882527133E+03  0.00000000000E+00 0. -1.
         -2   -1    0    0    0  501 -0.00000000000E+00 -0.00000000000E+00 -0.10762732410E+03  0.10762732410E+03  0.00000000000E+00 0.  1.
         25    2    1    2    0    0 -0.40959957018E+02 -0.22701374872E+02  0.17408455532E+03  0.21942404923E+03  0.12509360687E+03 0.  0.
          5    1    3    3  502    0 -0.31830936028E+02 -0.27668627064E+02  0.19291384904E+03  0.19751452343E+03  0.41800000000E+01 0.  1.
         -5    1    3    3    0  502 -0.91290209907E+01  0.49672521913E+01 -0.18829293727E+02  0.21909525801E+02  0.41800000000E+01 0.  1.
        -11    1    1    2    0    0  0.22524746585E+02  0.20956562801E+02  0.23319463277E+02  0.38604910318E+02  0.00000000000E+00 0. -1.
         11    1    1    2    0    0  0.18435210434E+02  0.17448120711E+01 -0.76206071366E+02  0.78423635888E+02  0.00000000000E+00 0.  1.
</event>
<event>
 7    1  0.3001243E-009  0.3000817E+03  0.7561462E-02  0.1085200E+00
          1   -1    0    0  501    0  0.00000000000E+00  0.00000000000E+00  0.23238625250E+04  0.23238625250E+04  0.00000000000E+00 0.  1.
         -1   -1    0    0    0  501 -0.00000000000E+00 -0.00000000000E+00 -0.50689374869E+02  0.50689374869E+02  0.00000000000E+00 0. -1.
         25    2    1    2    0    0 -0.28196261161E+03  0.85027587158E+02  0.16412202252E+04  0.16721199813E+04  0.12509516041E+03 0.  0.
          5    1    3    3  502    0 -0.27438478317E+03  0.94032444727E+02  0.16290717541E+04  0.16546967584E+04  0.41800000000E+01 0. -1.
         -5    1    3    3    0  502 -0.75778284385E+01 -0.90048575683E+01  0.12148471080E+02  0.17423222815E+02  0.41800000000E+01 0. -1.
        -11    1    1    2    0    0  0.23859201107E+03 -0.55018742328E+02  0.44195474855E+03  0.50524965068E+03  0.00000000000E+00 0.  1.
         11    1    1    2    0    0  0.43370600545E+02 -0.30008844830E+02  0.18999817638E+03  0.19718226794E+03  0.00000000000E+00 0. -1.
</event>
<event>
 7    1  0.3001243E-009  0.1050965E+03  0.7561462E-02  0.1269930E+00
          2   -1    0    0  501    0  0.00000000000E+00  0.00000000000E+00  0.38927786802E+02  0.38927786802E+02  0.00000000000E+00 0. -1.
         -2   -1    0    0    0  501 -0.00000000000E+00 -0.00000000000E+00 -0.35316300313E+03  0.35316300313E+03  0.00000000000E+00 0.  1.
         25    2    1    2    0    0  0.28769895809E+02 -0.46612049654E+01 -0.12356489858E+03  0.17822679011E+03  0.12508825212E+03 0.  0.
          5    1    3    3  502    0 -0.20672679235E+02 -0.45028449990E+02 -0.14510302744E+02  0.51797125991E+02  0.41800000000E+01 0. -1.
         -5    1    3    3    0  502  0.49442575044E+02  0.40367245024E+02 -0.10905459583E+03  0.12642966412E+03  0.41800000000E+01 0. -1.
        -11    1    1    2    0    0  0.24671509094E+02  0.28750331926E+02 -0.83993407014E+02  0.92142049948E+02  0.00000000000E+00 0.  1.
         11    1    1    2    0    0 -0.53441404902E+02 -0.24089126961E+02 -0.10667691074E+03  0.12172194987E+03  0.00000000000E+00 0. -1.
</event>
<event>
 7    1  0.3001243E-009  0.1970411E+03  0.7561462E-02  0.1152260E+00
          3   -1    0    0  501    0  0.00000000000E+00  0.00000000000E+00  0.14190140325E+03  0.14190140325E+03  0.00000000000E+00 0.  1.
         -3   -1    0    0    0  501 -0.00000000000E+00 -0.00000000000E+00 -0.32797078376E+03  0.32797078376E+03  0.00000000000E+00 0. -1.
         25    2    1    2    0    0  0.10489790825E+03 -0.15177476634E+03 -0.70213865645E+02  0.23369957306E+03  0.12508538150E+03 0.  0.
          5    1    3    3  502    0  0.61866886705E+02 -0.11898659229E+03  0.12522530399E+02  0.13475758600E+03  0.41800000000E+01 0. -1.
         -5    1    3    3    0  502  0.43031021549E+02 -0.32788174047E+02 -0.82736396044E+02  0.98941987059E+02  0.41800000000E+01 0. -1.
        -11    1    1    2    0    0 -0.58787448123E+02  0.14098381357E+02 -0.38285173191E+02  0.71557549566E+02  0.00000000000E+00 0. -1.
         11    1    1    2    0    0 -0.46110460131E+02  0.13767638498E+03 -0.77570341681E+02  0.16461506439E+03  0.00000000000E+00 0.  1.
</event>
<event>
 7    1  0.3001243E-009  0.1088557E+03  0.7561462E-02  0.1262704E+00
         -1   -1    0    0    0  501 -0.00000000000E+00  0.00000000000E+00  0.64603150964E+03  0.64603150964E+03  0.00000000000E+00 0.  1.
          1   -1    0    0  501    0  0.00000000000E+00 -0.00000000000E+00 -0.29377633459E+02  0.29377633459E+02  0.00000000000E+00 0. -1.
         25    2    1    2    0    0 -0.48820742356E+01 -0.45097829303E+02  0.51114773027E+03  0.52818194931E+03  0.12508605258E+03 0.  0.
          5    1    3    3  502    0 -0.60629441249E+02 -0.12756993564E+02  0.33177463119E+03  0.33753599561E+03  0.41800000000E+01 0. -1.
         -5    1    3    3    0  502  0.55747367013E+02 -0.32340835739E+02  0.17937309909E+03  0.19064595370E+03  0.41800000000E+01 0. -1.
        -11    1    1    2    0    0 -0.35650920197E+02  0.33373898410E+02  0.89771187899E+02  0.10219428253E+03  0.00000000000E+00 0.  1.
         11    1    1    2    0    0  0.40532994433E+02  0.11723930893E+02  0.15734958011E+02  0.45032911264E+02  0.00000000000E+00 0. -1.
</event>
<event>
 7    1  0.3001243E-009  0.2244820E+03  0.7561462E-02  0.1130585E+00
         -3   -1    0    0    0  501 -0.00000000000E+00  0.00000000000E+00  0.12115545180E+03  0.12115545180E+03  0.00000000000E+00 0.  1.
          3   -1    0    0  501    0  0.00000000000E+00 -0.00000000000E+00 -0.46533418389E+03  0.46533418389E+03  0.00000000000E+00 0. -1.
         25    2    1    2    0    0  0.21093568385E+03  0.44737418096E+01 -0.20985636057E+03  0.32280430781E+03  0.12509617093E+03 0.  0.
          5    1    3    3  502    0  0.85623152320E+02 -0.32201262283E+02 -0.15725694528E+03  0.18197654999E+03  0.41800000000E+01 0.  1.
         -5    1    3    3    0  502  0.12531253153E+03  0.36675004093E+02 -0.52599415284E+02  0.14082775782E+03  0.41800000000E+01 0. -1.
        -11    1    1    2    0    0 -0.17762859169E+03 -0.35607156985E+02 -0.11115385781E+03  0.21254403384E+03  0.00000000000E+00 0.  1.
         11    1    1    2    0    0 -0.33307092164E+02  0.31133415175E+02 -0.23168513711E+02  0.51141294044E+02  0.00000000000E+00 0. -1.
</event>
<event>
 7    1  0.3001243E-009  0.6323244E+02  0.7561462E-02  0.1384746E+00
         -2   -1    0    0    0  501 -0.00000000000E+00  0.00000000000E+00  0.38696231666E+02  0.38696231666E+02  0.00000000000E+00 0.  1.
          2   -1    0    0  501    0  0.00000000000E+00 -0.00000000000E+00 -0.31066221014E+03  0.31066221014E+03  0.00000000000E+00 0. -1.
         25    2    1    2    0    0  0.87492159575E+01 -0.13095367142E+02 -0.15041378388E+03  0.19626733653E+03  0.12509405895E+03 0.  0.
          5    1    3    3  502    0 -0.12942344121E+02  0.49681764390E+01 -0.16401712128E+03  0.16465501972E+03  0.41800000000E+01 0. -1.
         -5    1    3    3    0  502  0.21691560079E+02 -0.18063543581E+02  0.13603337394E+02  0.31612316802E+02  0.41800000000E+01 0. -1.
        -11    1    1    2    0    0  0.29471141492E+02  0.29643511840E+02 -0.94756813431E+02  0.10356707810E+03  0.00000000000E+00 0. -1.
         11    1    1    2    0    0 -0.38220357450E+02 -0.16548144698E+02 -0.26795381161E+02  0.49524027180E+02  0.00000000000E+00 0.  1.
</event>
<event>
 7    1  0.3001243E-009  0.1228361E+03  0.7561462E-02  0.1238490E+00
         -3   -1    0    0    0  501 -0.00000000000E+00  0.00000000000E+00  0.76512790094E+02  0.76512790094E+02  0.00000000000E+00 0.  1.
          3   -1    0    0  501    0  0.00000000000E+00 -0.00000000000E+00 -0.28538667316E+03  0.28538667316E+03  0.00000000000E+00 0. -1.
         25    2    1    2    0    0 -0.55961723503E+02  0.80800239321E+02 -0.89553732298E+02  0.18255814472E+03  0.12508881670E+03 0.  0.
          5    1    3    3  502    0  0.99189878733E+01 -0.15802801445E+01  0.24706474411E+02  0.26995664163E+02  0.41800000000E+01 0. -1.
         -5    1    3    3    0  502 -0.65880711377E+02  0.82380519465E+02 -0.11426020671E+03  0.15556248055E+03  0.41800000000E+01 0. -1.
        -11    1    1    2    0    0  0.14086197581E+02 -0.85894885598E+02 -0.56852865616E+02  0.10396442018E+03  0.00000000000E+00 0. -1.
         11    1    1    2    0    0  0.41875525923E+02  0.50946462772E+01 -0.62467285154E+02  0.75376898361E+02  0.00000000000E+00 0.  1.
</event>
<event>
 7    1  0.3001243E-009  0.1297971E+03  0.7561462E-02  0.1227757E+00
         -2   -1    0    0    0  501 -0.00000000000E+00  0.00000000000E+00  0.27076506974E+03  0.27076506974E+03  0.00000000000E+00 0.  1.
          2   -1    0    0  501    0  0.00000000000E+00 -0.00000000000E+00 -0.77492540205E+02  0.77492540205E+02  0.00000000000E+00 0. -1.
         25    2    1    2    0    0  0.95837176162E+02  0.16100632652E+01  0.11152042906E+03  0.19305855040E+03  0.12508973238E+03 0.  0.
          5    1    3    3  502    0  0.43366126651E+02  0.60129025177E+02  0.31018206084E+02  0.80471871595E+02  0.41800000000E+01 0. -1.
         -5    1    3    3    0  502  0.52471049511E+02 -0.58518961911E+02  0.80502222980E+02  0.11258667881E+03  0.41800000000E+01 0. -1.
        -11    1    1    2    0    0 -0.20240150855E+02 -0.20396801361E+02 -0.13834605585E+02  0.31891841026E+02  0.00000000000E+00 0. -1.
         11    1    1    2    0    0 -0.75597025307E+02  0.18786738096E+02  0.95586706052E+02  0.12330721851E+03  0.00000000000E+00 0.  1.
</event>
<event>
 7    1  0.3001243E-009  0.1404382E+03  0.7561462E-02  0.1212741E+00
          1   -1    0    0  501    0  0.00000000000E+00  0.00000000000E+00  0.28544798788E+03  0.28544798788E+03  0.00000000000E+00 0. -1.
         -1   -1    0    0    0  501 -0.00000000000E+00 -0.00000000000E+00 -0.95604158883E+02  0.95604158883E+02  0.00000000000E+00 0.  1.
         25    2    1    2    0    0 -0.16164005841E+01  0.12282929938E+03  0.81511702259E+02  0.19333920485E+03  0.12508493511E+03 0.  0.
          5    1    3    3  502    0  0.16762528255E+02  0.82768891725E+02 -0.16177100667E+02  0.86086251962E+02  0.41800000000E+01 0.  1.
         -5    1    3    3    0  502 -0.18378928840E+02  0.40060407658E+02  0.97688802925E+02  0.10725295289E+03  0.41800000000E+01 0.  1.
        -11    1    1    2    0    0 -0.33080759734E+02 -0.11031119458E+03  0.71327050817E+02  0.13546381248E+03  0.00000000000E+00 0.  1.
         11    1    1    2    0    0  0.34697160318E+02 -0.12518104808E+02  0.37005075921E+02  0.52249129428E+02  0.00000000000E+00 0. -1.
</event>
<event>
 7    1  0.3001243E-009  0.1138225E+03  0.7561462E-02  0.1253651E+00
         -3   -1    0    0    0  501 -0.00000000000E+00  0.00000000000E+00  0.45213139161E+03  0.45213139161E+03  0.00000000000E+00 0.  1.
          3   -1    0    0  501    0  0.00000000000E+00 -0.00000000000E+00 -0.39544022596E+02  0.39544022596E+02  0.00000000000E+00 0. -1.
         25    2    1    2    0    0  0.76538609771E+02  0.34175793732E+01  0.20632637638E+03  0.25315534473E+03  0.12508883379E+03 0.  0.
          5    1    3    3  502    0 -0.26262845291E+02 -0.27000567425E+02  0.38950805844E+02  0.54345242294E+02  0.41800000000E+01 0. -1.
         -5    1    3    3    0  502  0.10280145506E+03  0.30418146799E+02  0.16737557054E+03  0.19881010244E+03  0.41800000000E+01 0. -1.
        -11    1    1    2    0    0 -0.64835336547E+02  0.89282523779E+01  0.21095412015E+03  0.22087321106E+03  0.00000000000E+00 0.  1.
         11    1    1    2    0    0 -0.11703273224E+02 -0.12345831751E+02 -0.46931275240E+01  0.17646858410E+02  0.00000000000E+00 0. -1.
</event>
<event>
 7    1  0.3001243E-009  0.1118904E+03  0.7561462E-02  0.1257109E+00
          2   -1    0    0  501    0  0.00000000000E+00  0.00000000000E+00  0.11429055414E+04  0.11429055414E+04  0.00000000000E+00 0. -1.
         -2   -1    0    0    0  501 -0.00000000000E+00 -0.00000000000E+00 -0.14235011800E+02  0.14235011800E+02  0.00000000000E+00 0.  1.
         25    2    1    2    0    0  0.39738679085E+02  0.26372306717E+02  0.82911867750E+03  0.83985685845E+03  0.12508836928E+03 0.  0.
          5    1    3    3  502    0  0.66481876007E+02 -0.16581504258E+02  0.27583049740E+03  0.28424412363E+03  0.41800000000E+01 0. -1.
         -5    1    3    3    0  502 -0.26743196921E+02  0.42953810975E+02  0.55328818010E+03  0.55561273483E+03  0.41800000000E+01 0. -1.
        -11    1    1    2    0    0 -0.13089479604E+02 -0.60026016522E+02  0.18633248261E+03  0.19619951889E+03  0.00000000000E+00 0.  1.
         11    1    1    2    0    0 -0.26649199481E+02  0.33653709805E+02  0.11321936948E+03  0.12108417585E+03  0.00000000000E+00 0. -1.
</event>
<event>
 7    1  0.3001243E-009  0.8106933E+02  0.7561462E-02  0.1326044E+00
         -2   -1    0    0    0  501 -0.00000000000E+00  0.00000000000E+00  0.31285435211E+03  0.31285435211E+03  0.00000000000E+00 0.  1.
          2   -1    0    0  501    0  0.00000000000E+00 -0.00000000000E+00 -0.96167744896E+02  0.96167744896E+02  0.00000000000E+00 0. -1.
         25    2    1    2    0    0 -0.71520465528E+02  0.37086874403E+02  0.24285573640E+03  0.28480856057E+03  0.12508554764E+03 0.  0.
          5    1    3    3  502    0 -0.10704429513E+02  0.79394552578E+01 -0.13663543931E+02  0.19539308937E+02  0.41800000000E+01 0. -1.
         -5    1    3    3    0  502 -0.60816036015E+02  0.29147419145E+02  0.25651928033E+03  0.26526925163E+03  0.41800000000E+01 0. -1.
        -11    1    1    2    0    0  0.14557610186E+02 -0.86738770869E+01  0.33132774761E+02  0.37214794389E+02  0.00000000000E+00 0.  1.
         11    1    1    2    0    0  0.56962855343E+02 -0.28412997316E+02 -0.59301903950E+02  0.86998742045E+02  0.00000000000E+00 0. -1.
</event>
<event>
 7    1  0.3001243E-009  0.1814592E+03  0.7561462E-02  0.1166398E+00
          1   -1    0    0  501    0  0.00000000000E+00  0.00000000000E+00  0.59416541651E+02  0.59416541651E+02  0.00000000000E+00 0. -1.
         -1   -1    0    0    0  501 -0.00000000000E+00 -0.00000000000E+00 -0.59909973424E+03  0.59909973424E+03  0.00000000000E+00 0.  1.
         25    2    1    2    0    0  0.46342847656E+02 -0.14598105738E+03 -0.31097857807E+03  0.36854233440E+03  0.12513052218E+03 0.  0.
          5    1    3    3  502    0 -0.10192301088E+02  0.14102930693E+02 -0.79258572172E+02  0.81253734181E+02  0.41800000000E+01 0. -1.
         -5    1    3    3    0  502  0.56535148744E+02 -0.16008398807E+03 -0.23172000590E+03  0.28728860022E+03  0.41800000000E+01 0. -1.
        -11    1    1    2    0    0 -0.69292716113E+02  0.82750610887E+02 -0.11390644142E+03  0.15691979322E+03  0.00000000000E+00 0.  1.
         11    1    1    2    0    0  0.22949868457E+02  0.63230446491E+02 -0.11479817310E+03  0.13305414827E+03  0.00000000000E+00 0. -1.
</event>
<event>
 7    1  0.3001243E-009  0.2380883E+03  0.7561462E-02  0.1121073E+00
          1   -1    0    0  501    0  0.00000000000E+00  0.00000000000E+00  0.21807666345E+03  0.21807666345E+03  0.00000000000E+00 0. -1.
         -1   -1    0    0    0  501 -0.00000000000E+00 -0.00000000000E+00 -0.28770809405E+03  0.28770809405E+03  0.00000000000E+00 0.  1.
         25    2    1    2    0    0 -0.20732558262E+03 -0.81888031634E+02 -0.68827697501E+02  0.26471604233E+03  0.12509110356E+03 0.  0.
          5    1    3    3  502    0 -0.81440285025E+01 -0.31504824748E+02  0.22558024207E+02  0.39814771615E+02  0.41800000000E+01 0.  1.
         -5    1    3    3    0  502 -0.19918155412E+03 -0.50383206886E+02 -0.91385721707E+02  0.22490127072E+03  0.41800000000E+01 0.  1.
        -11    1    1    2    0    0  0.72955596588E+02 -0.12019009373E+02 -0.18401706072E+02  0.76194477793E+02  0.00000000000E+00 0.  1.
         11    1    1    2    0    0  0.13436998603E+03  0.93907041008E+02  0.17597972973E+02  0.16487423738E+03  0.00000000000E+00 0. -1.
</event>
<event>
 7    1  0.3001243E-009  0.9241427E+02  0.7561462E-02  0.1297108E+00
          4   -1    0    0  501    0  0.00000000000E+00  0.00000000000E+00  0.15509749802E+02  0.15509749802E+02  0.00000000000E+00 0. -1.
         -4   -1    0    0    0  501 -0.00000000000E+00 -0.00000000000E+00 -0.98012732989E+03  0.98012732989E+03  0.00000000000E+00 0.  1.
         25    2    1    2    0    0  0.10630972288E+02  0.12173735248E+02 -0.75696364707E+03  0.76739881004E+03  0.12508298553E+03 0.  0.
          5    1    3    3  502    0  0.41982921363E+02  0.57169275244E+02 -0.43937952927E+03  0.44508733397E+03  0.41800000000E+01 0. -1.
         -5    1    3    3    0  502 -0.31351949075E+02 -0.44995539995E+02 -0.31758411780E+03  0.32231147607E+03  0.41800000000E+01 0. -1.
        -11    1    1    2    0    0 -0.30794526358E+02 -0.20465296490E+02 -0.20248352869E+03  0.20583175315E+03  0.00000000000E+00 0.  1.
         11    1    1    2    0    0  0.20163554071E+02  0.82915612412E+01 -0.51704043256E+01  0.22406516496E+02  0.00000000000E+00 0. -1.
</event>
<event>
 7    1  0.3001243E-009  0.9163295E+02  0.7561462E-02  0.1298945E+00
          1   -1    0    0  501    0  0.00000000000E+00  0.00000000000E+00  0.11840340687E+04  0.11840340687E+04  0.00000000000E+00 0. -1.
         -1   -1    0    0    0  501 -0.00000000000E+00 -0.00000000000E+00 -0.11096669963E+02  0.11096669963E+02  0.00000000000E+00 0.  1.
         25    2    1    2    0    0 -0.39155705891E+02  0.51053256299E+02  0.82346048558E+03  0.83538847555E+03  0.12508848663E+03 0.  0.
          5    1    3    3  502    0 -0.21281724974E+02 -0.20418160429E+02  0.58531894552E+03  0.58607640584E+03  0.41800000000E+01 0.  1.
         -5    1    3    3    0  502 -0.17873980918E+02  0.71471416729E+02  0.23814154006E+03  0.24931206971E+03  0.41800000000E+01 0.  1.
        -11    1    1    2    0    0  0.27735251032E+02 -0.59390600043E+02  0.32437794912E+03  0.33093434605E+03  0.00000000000E+00 0. -1.
         11    1    1    2    0    0  0.11420454859E+02  0.83373437434E+01  0.25098964082E+02  0.28807917104E+02  0.00000000000E+00 0.  1.
</event>
<event>
 7    1  0.3001243E-009  0.1421069E+03  0.7561462E-02  0.1210522E+00
         -1   -1    0    0    0  501 -0.00000000000E+00  0.00000000000E+00  0.13712346526E+03  0.13712346526E+03  0.00000000000E+00 0.  1.
          1   -1    0    0  501    0  0.00000000000E+00 -0.00000000000E+00 -0.22479107779E+03  0.22479107779E+03  0.00000000000E+00 0. -1.
         25    2    1    2    0    0  0.12019338328E+03 -0.62985907294E+02 -0.67425205635E+02  0.19648743974E+03  0.12508989454E+03 0.  0.
          5    1    3    3  502    0  0.12631787372E+03 -0.59824531274E+02 -0.94150262253E+02  0.16857320085E+03  0.41800000000E+01 0.  1.
         -5    1    3    3    0  502 -0.61244904336E+01 -0.31613760194E+01  0.26725056618E+02  0.27914238887E+02  0.41800000000E+01 0.  1.
        -11    1    1    2    0    0 -0.99440300759E+02  0.57452719099E+02  0.23018133253E+02  0.11712823232E+03  0.00000000000E+00 0.  1.
         11    1    1    2    0    0 -0.20753082526E+02  0.55331881950E+01 -0.43260540149E+02  0.48298871000E+02  0.00000000000E+00 0. -1.
</event>
<event>
 7    1  0.3001243E-009  0.1908020E+03  0.7561462E-02  0.1157740E+00
          1   -1    0    0  501    0  0.00000000000E+00  0.00000000000E+00  0.14317928821E+03  0.14317928821E+03  0.00000000000E+00 0. -1.
         -1   -1    0    0    0  501 -0.00000000000E+00 -0.00000000000E+00 -0.47292633409E+03  0.47292633409E+03  0.00000000000E+00 0.  1.
         25    2    1    2    0    0 -0.17916745239E+03  0.12712075655E+01  0.12895706651E+02  0.21889361292E+03  0.12508206332E+03 0.  0.
          5    1    3    3  502    0 -0.15476868528E+03 -0.17869136157E+02 -0.36826621883E+02  0.16014469847E+03  0.41800000000E+01 0. -1.
         -5    1    3    3    0  502 -0.24398767108E+02  0.19140343722E+02  0.49722328534E+02  0.58748914450E+02  0.41800000000E+01 0. -1.
        -11    1    1    2    0    0  0.17924949347E+03 -0.15787773246E+02 -0.33620632284E+03  0.38133230418E+03  0.00000000000E+00 0.  1.
         11    1    1    2    0    0 -0.82041085287E-01  0.14516565681E+02 -0.64364296890E+01  0.15879705194E+02  0.00000000000E+00 0. -1.
</event>
<event>
 7    1  0.3001243E-009  0.1092242E+03  0.7561462E-02  0.1262013E+00
          2   -1    0    0  501    0  0.00000000000E+00  0.00000000000E+00  0.10910405992E+03  0.10910405992E+03  0.00000000000E+00 0. -1.
         -2   -1    0    0    0  501 -0.00000000000E+00 -0.00000000000E+00 -0.20678564050E+03  0.20678564050E+03  0.00000000000E+00 0.  1.
         25    2    1    2    0    0 -0.37071400630E+02 -0.76833903210E+02 -0.10591638146E+03  0.18477977479E+03  0.12509015902E+03 0.  0.
          5    1    3    3  502    0  0.22191496504E+02  0.97167964654E+01 -0.69409116111E+02  0.73634071257E+02  0.41800000000E+01 0. -1.
         -5    1    3    3    0  502 -0.59262897134E+02 -0.86550699675E+02 -0.36507265346E+02  0.11114570353E+03  0.41800000000E+01 0. -1.
        -11    1    1    2    0    0  0.29707532521E+01  0.34027909843E+02 -0.43832888493E+02  0.55570191081E+02  0.00000000000E+00 0.  1.
         11    1    1    2    0    0  0.34100647378E+02  0.42805993367E+02  0.52067689367E+02  0.75539734549E+02  0.00000000000E+00 0. -1.
</event>
<event>
 7    1  0.3001243E-009  0.1247535E+03  0.7561462E-02  0.1235455E+00
          3   -1    0    0  501    0  0.00000000000E+00  0.00000000000E+00  0.33592649282E+02  0.33592649282E+02  0.00000000000E+00 0. -1.
         -3   -1    0    0    0  501 -0.00000000000E+00 -0.00000000000E+00 -0.57748215209E+03  0.57748215209E+03  0.00000000000E+00 0.  1.
         25    2    1    2    0    0 -0.19414832223E+02 -0.64649226420E+02 -0.17901533885E+03  0.22858360707E+03  0.12509003034E+03 0.  0.
          5    1    3    3  502    0 -0.67563814336E+02 -0.24199309553E+02 -0.13071932692E+03  0.14918274170E+03  0.41800000000E+01 0.  1.
         -5    1    3    3    0  502  0.48148982113E+02 -0.40449916867E+02 -0.48296011929E+02  0.79400865369E+02  0.41800000000E+01 0.  1.
        -11    1    1    2    0    0 -0.36651081618E+02  0.37007794543E+02 -0.17561907913E+03  0.18318007423E+03  0.00000000000E+00 0.  1.
         11    1    1    2    0    0  0.56065913841E+02  0.27641431878E+02 -0.18925508483E+03  0.19931112007E+03  0.00000000000E+00 0. -1.
</event>
<event>
 7    1  0.3001243E-009  0.1047766E+03  0.7561462E-02  0.1270560E+00
          2   -1    0    0  501    0  0.00000000000E+00  0.00000000000E+00  0.54065584900E+03  0.54065584900E+03  0.00000000000E+00 0. -1.
         -2   -1    0    0    0  501 -0.00000000000E+00 -0.00000000000E+00 -0.54751130647E+02  0.54751130647E+02  0.00000000000E+00 0.  1.
         25    2    1    2    0    0  0.80514968986E+02  0.46524123295E+02  0.42382450025E+03  0.45157901749E+03  0.12509695340E+03 0.  0.
          5    1    3    3  502    0 -0.64514733701E+01  0.19017892899E+02  0.27239661055E+01  0.20692852639E+02  0.41800000000E+01 0. -1.
         -5    1    3    3    0  502  0.86966442356E+02  0.27506230395E+02  0.42110053414E+03  0.43088616485E+03  0.41800000000E+01 0. -1.
        -11    1    1    2    0    0 -0.72888535208E+02 -0.28682948517E+02 -0.47726452120E+00  0.78330567991E+02  0.00000000000E+00 0.  1.
         11    1    1    2    0    0 -0.76264337778E+01 -0.17841174778E+02  0.62557482621E+02  0.65497394158E+02  0.00000000000E+00 0. -1.
</event>
<event>
 7    1  0.3001243E-009  0.1333410E+03  0.7561462E-02  0.1222581E+00
          1   -1    0    0  501    0  0.00000000000E+00  0.00000000000E+00  0.12274995984E+03  0.12274995984E+03  0.00000000000E+00 0. -1.
         -1   -1    0    0    0  501 -0.00000000000E+00 -0.00000000000E+00 -0.23073051707E+03  0.23073051707E+03  0.00000000000E+00 0.  1.
         25    2    1    2    0    0  0.12531016875E+03  0.46561897899E+01 -0.31880968551E+02  0.17996633925E+03  0.12508864303E+03 0.  0.
          5    1    3    3  502    0  0.73453543097E+02 -0.92452539182E+01 -0.79045783447E+02  0.10838176043E+03  0.41800000000E+01 0. -1.
         -5    1    3    3    0  502  0.51856625649E+02  0.13901443708E+02  0.47164814896E+02  0.71584578822E+02  0.41800000000E+01 0. -1.
        -11    1    1    2    0    0 -0.12581359385E+03  0.79501519867E+01 -0.89884527104E+02  0.15482730227E+03  0.00000000000E+00 0.  1.
         11    1    1    2    0    0  0.50342510371E+00 -0.12606341777E+02  0.13784938416E+02  0.18686835391E+02  0.00000000000E+00 0. -1.
</event>
<event>
 7    1  0.3001243E-009  0.1692099E+03  0.7561462E-02  0.1178674E+00
          1   -1    0    0  501    0  0.00000000000E+00  0.00000000000E+00  0.36799362437E+03  0.36799362437E+03  0.00000000000E+00 0. -1.
         -1   -1    0    0    0  501 -0.00000000000E+00 -0.00000000000E+00 -0.88141430272E+02  0.88141430272E+02  0.00000000000E+00 0.  1.
         25    2    1    2    0    0 -0.42290807126E+02 -0.13628046740E+03  0.16470792945E+03  0.25126425190E+03  0.12507655294E+03 0.  0.
          5    1    3    3  502    0  0.97961224130E+01  0.10037604605E+02 -0.98003777351E+01  0.17613555129E+02  0.41800000000E+01 0. -1.
         -5    1    3    3    0  502 -0.52086929539E+02 -0.14631807201E+03  0.17450830719E+03  0.23365069677E+03  0.41800000000E+01 0. -1.
        -11    1    1    2    0    0  0.53440849312E+02  0.29475933468E+02  0.52797020424E+02  0.80698701320E+02  0.00000000000E+00 0. -1.
         11    1    1    2    0    0 -0.11150042186E+02  0.10680453393E+03  0.62347244221E+02  0.12417210142E+03  0.00000000000E+00 0.  1.
</event>
<event>
 7    1  0.3001243E-009  0.9402543E+02  0.7561462E-02  0.1293386E+00
         -4   -1    0    0    0  501 -0.00000000000E+00  0.00000000000E+00  0.36791743903E+02  0.36791743903E+02  0.00000000000E+00 0.  1.
          4   -1    0    0  501    0  0.00000000000E+00 -0.00000000000E+00 -0.33872471262E+03  0.33872471262E+03  0.00000000000E+00 0. -1.
         25    2    1    2    0    0  0.63010592769E+00 -0.30811567107E+02 -0.17198453436E+03  0.21488545239E+03  0.12508927968E+03 0.  0.
          5    1    3    3  502    0  0.40496208348E+02  0.93822301172E+01 -0.14707740572E+03  0.15289605883E+03  0.41800000000E+01 0.  1.
         -5    1    3    3    0  502 -0.39866102420E+02 -0.40193797224E+02 -0.24907128636E+02  0.61989393564E+02  0.41800000000E+01 0.  1.
        -11    1    1    2    0    0  0.15446092867E+02  0.56846993975E+02 -0.10784121333E+03  0.12288160888E+03  0.00000000000E+00 0. -1.
         11    1    1    2    0    0 -0.16076198795E+02 -0.26035426868E+02 -0.22107221035E+02  0.37749395251E+02  0.00000000000E+00 0.  1.
</event>
<event>
 7    1  0.3001243E-009  0.2802223E+03  0.7561462E-02  0.1095568E+00
         -1   -1    0    0    0  501 -0.00000000000E+00  0.00000000000E+00  0.90613772050E+02  0.90613772050E+02  0.00000000000E+00 0.  1.
          1   -1    0    0  501    0  0.00000000000E+00 -0.00000000000E+00 -0.11152387785E+04  0.11152387785E+04  0.00000000000E+00 0. -1.
         25    2    1    2    0    0 -0.18785549929E+03 -0.19049362298E+03 -0.77265157091E+03  0.82717234861E+03  0.12508451249E+03 0.  0.
          5    1    3    3  502    0 -0.74387088086E+02 -0.43739467168E+01 -0.15183986391E+03  0.16919038671E+03  0.41800000000E+01 0. -1.
         -5    1    3    3    0  502 -0.11346841121E+03 -0.18611967627E+03 -0.62081170700E+03  0.65798196190E+03  0.41800000000E+01 0. -1.
        -11    1    1    2    0    0  0.56791114305E+02  0.50150178408E+02 -0.13217219578E+03  0.15234749881E+03  0.00000000000E+00 0. -1.
         11    1    1    2    0    0  0.13106438499E+03  0.14034344458E+03 -0.11980123973E+03  0.22633270309E+03  0.00000000000E+00 0.  1.
</event>
<event>
 7    1  0.3001243E-009  0.8197008E+02  0.7561462E-02  0.1323552E+00
         -1   -1    0    0    0  501 -0.00000000000E+00  0.00000000000E+00  0.12739431758E+03  0.12739431758E+03  0.00000000000E+00 0.  1.
          1   -1    0    0  501    0  0.00000000000E+00 -0.00000000000E+00 -0.15696543755E+03  0.15696543755E+03  0.00000000000E+00 0. -1.
         25    2    1    2    0    0 -0.40582356278E+02  0.77680052184E+01 -0.90413849454E+02  0.15977942064E+03  0.12509008571E+03 0.  0.
          5    1    3    3  502    0 -0.56812052310E+02 -0.15850669288E+02 -0.10995298280E+03  0.12484383777E+03  0.41800000000E+01 0. -1.
         -5    1    3    3    0  502  0.16229696032E+02  0.23618674507E+02  0.19539133342E+02  0.34935582870E+02  0.41800000000E+01 0. -1.
        -11    1    1    2    0    0  0.43425213653E+02  0.20089925546E+02  0.78169576773E+02  0.91650624777E+02  0.00000000000E+00 0.  1.
         11    1    1    2    0    0 -0.28428573749E+01 -0.27857930765E+02 -0.17326847286E+02  0.32929709708E+02  0.00000000000E+00 0. -1.
</event>
<event>
 7    1  0.3001243E-009  0.9763408E+02  0.7561462E-02  0.1285351E+00
         -2   -1    0    0    0  501 -0.00000000000E+00  0.00000000000E+00  0.21354083796E+02  0.21354083796E+02  0.00000000000E+00 0.  1.
          2   -1    0    0  501    0  0.00000000000E+00 -0.00000000000E+00 -0.58759744427E+03  0.58759744427E+03  0.00000000000E+00 0. -1.
         25    2    1    2    0    0 -0.20746758819E+02 -0.18958925544E+02 -0.38461461194E+03  0.40542007769E+03  0.12508865185E+03 0.  0.
          5    1    3    3  502    0 -0.64181914162E+02 -0.34458411669E+02 -0.15679254338E+03  0.17293951052E+03  0.41800000000E+01 0. -1.
         -5    1    3    3    0  502  0.43435155343E+02  0.15499486125E+02 -0.22782206856E+03  0.23248056717E+03  0.41800000000E+01 0. -1.
        -11    1    1    2    0    0  0.19784548853E+02 -0.25080423642E+02 -0.13756657460E+03  0.14122683339E+03  0.00000000000E+00 0. -1.
         11    1    1    2    0    0  0.96220996616E+00  0.44039349186E+02 -0.44062173933E+02  0.62304616976E+02  0.00000000000E+00 0.  1.
</event>
<event>
 7    1  0.3001243E-009  0.1203494E+03  0.7561462E-02  0.1242522E+00
          2   -1    0    0  501    0  0.00000000000E+00  0.00000000000E+00  0.11398064485E+04  0.11398064485E+04  0.00000000000E+00 0. -1.
         -2   -1    0    0    0  501 -0.00000000000E+00 -0.00000000000E+00 -0.14434757079E+02  0.14434757079E+02  0.00000000000E+00 0.  1.
         25    2    1    2    0    0 -0.69025096249E+02  0.32784465858E+01  0.62897134463E+03  0.64500601095E+03  0.12511030999E+03 0.  0.
          5    1    3    3  502    0 -0.32759194748E+02 -0.52778849984E+02  0.16722370024E+03  0.17843769267E+03  0.41800000000E+01 0.  1.
         -5    1    3    3    0  502 -0.36265901501E+02  0.56057296570E+02  0.46174764440E+03  0.46656831827E+03  0.41800000000E+01 0.  1.
        -11    1    1    2    0    0  0.64555685129E+02  0.34708032440E+02  0.27738357044E+03  0.28690369316E+03  0.00000000000E+00 0.  1.
         11    1    1    2    0    0  0.44694111200E+01 -0.37986479026E+02  0.21901677634E+03  0.22233150146E+03  0.00000000000E+00 0. -1.
</event>
<event>
 7    1  0.3001243E-009  0.1587998E+03  0.7561462E-02  0.1190058E+00
         -2   -1    0    0    0  501 -0.00000000000E+00  0.00000000000E+00  0.70553844861E+03  0.70553844861E+03  0.00000000000E+00 0.  1.
          2   -1    0    0  501    0  0.00000000000E+00 -0.00000000000E+00 -0.39679317897E+02  0.39679317897E+02  0.00000000000E+00 0. -1.
         25    2    1    2    0    0 -0.12422629206E+03  0.10335352118E+02  0.40496491638E+03  0.44179592492E+03  0.12509222449E+03 0.  0.
          5    1    3    3  502    0  0.22266682165E+02 -0.15890356484E+02  0.59911708936E+02  0.65993892380E+02  0.41800000000E+01 0.  1.
         -5    1    3    3    0  502 -0.14649297422E+03  0.26225708602E+02  0.34505320745E+03  0.37580203254E+03  0.41800000000E+01 0.  1.
        -11    1    1    2    0    0  0.12421760473E+03  0.63319337726E+01  0.25812160735E+03  0.28652551525E+03  0.00000000000E+00 0.  1.
         11    1    1    2    0    0  0.86873295547E-02 -0.16667285891E+02  0.27726069849E+01  0.16896326344E+02  0.00000000000E+00 0. -1.
</event>
<event>
 6    1  0.3001243E-009  0.9815889E+02  0.7561462E-02  0.1284216E+00
          1   -1    0    0  501    0  0.00000000000E+00  0.00000000000E+00  0.50268962951E+03  0.50268962951E+03  0.00000000000E+00 0. -1.
         -1   -1    0    0    0  501 -0.00000000000E+00 -0.00000000000E+00 -0.30846608328E+02  0.30846608328E+02  0.00000000000E+00 0.  1.
          5    1    1    2  502    0 -0.45947843735E+01  0.22319567916E+02  0.15429533250E+03  0.15602498898E+03  0.41800000000E+01 0. -1.
         -5    1    1    2    0  502  0.37175498124E+02 -0.58418537236E+02  0.39514018803E+02  0.79834661868E+02  0.41800000000E+01 0. -1.
        -11    1    1    2    0    0  0.25077981502E+02 -0.12820237988E+02  0.10754494197E+03  0.11117184087E+03  0.00000000000E+00 0.  1.
         11    1    1    2    0    0 -0.57658695253E+02  0.48919207309E+02  0.17048872791E+03  0.18650474612E+03  0.00000000000E+00 0. -1.
</event>
<event>
 7    1  0.3001243E-009  0.7077861E+02  0.7561462E-02  0.1357465E+00
          1   -1    0    0  501    0  0.00000000000E+00  0.00000000000E+00  0.16426392981E+03  0.16426392981E+03  0.00000000000E+00 0. -1.
         -1   -1    0    0    0  501 -0.00000000000E+00 -0.00000000000E+00 -0.10455867106E+03  0.10455867106E+03  0.00000000000E+00 0.  1.
         25    2    1    2    0    0 -0.31956780979E+02  0.21907042889E+02 -0.28039609158E+02  0.13392238327E+03  0.12509128939E+03 0.  0.
          5    1    3    3  502    0 -0.76823288717E+01 -0.26368468404E+02 -0.63393935984E+02  0.69214000191E+02  0.41800000000E+01 0. -1.
         -5    1    3    3    0  502 -0.24274452107E+02  0.48275511294E+02  0.35354326826E+02  0.64708383082E+02  0.41800000000E+01 0. -1.
        -11    1    1    2    0    0  0.36008169913E+02  0.12903490124E+01 -0.74862566980E+01  0.36800779073E+02  0.00000000000E+00 0.  1.
         11    1    1    2    0    0 -0.40513889341E+01 -0.23197391902E+02  0.95231124613E+02  0.98099438523E+02  0.00000000000E+00 0. -1.
</event>
<event>
 7    1  0.3001243E-009  0.1861541E+03  0.7561462E-02  0.1161977E+00
         -2   -1    0    0    0  501 -0.00000000000E+00  0.00000000000E+00  0.42026513782E+03  0.42026513782E+03  0.00000000000E+00 0.  1.
          2   -1    0    0  501    0  0.00000000000E+00 -0.00000000000E+00 -0.99427599157E+02  0.99427599157E+02  0.00000000000E+00 0. -1.
         25    2    1    2    0    0 -0.30340648122E+02  0.16958105666E+03  0.15261858068E+03  0.26194961914E+03  0.12508749774E+03 0.  0.
          5    1    3    3  502    0 -0.56369062363E+02  0.14894330396E+03  0.16197314873E+03  0.22718792286E+03  0.41800000000E+01 0.  1.
         -5    1    3    3    0  502  0.26028414242E+02  0.20637752706E+02 -0.93545680461E+01  0.34761696277E+02  0.41800000000E+01 0.  1.
        -11    1    1    2    0    0  0.38730166158E+02 -0.73551483125E+02  0.12945503872E+03  0.15384555077E+03  0.00000000000E+00 0.  1.
         11    1    1    2    0    0 -0.83895180357E+01 -0.96029573537E+02  0.38763919256E+02  0.10389756707E+03  0.00000000000E+00 0. -1.
</event>
<event>
 7    1  0.3001243E-009  0.2216842E+03  0.7561462E-02  0.1132634E+00
         -1   -1    0    0    0  501 -0.00000000000E+00  0.00000000000E+00  0.60979267810E+02  0.60979267810E+02  0.00000000000E+00 0.  1.
          1   -1    0    0  501    0  0.00000000000E+00 -0.00000000000E+00 -0.93682087396E+03  0.93682087396E+03  0.00000000000E+00 0. -1.
         25    2    1    2    0    0 -0.92139099041E+02 -0.18986668819E+03 -0.40454874549E+03  0.47312393332E+03  0.12509035114E+03 0.  0.
          5    1    3    3  502    0 -0.10263601722E+03 -0.18028137510E+03 -0.28429672631E+03  0.35196253669E+03  0.41800000000E+01 0.  1.
         -5    1    3    3    0  502  0.10496918180E+02 -0.95853130911E+01 -0.12025201918E+03  0.12116139663E+03  0.41800000000E+01 0.  1.
        -11    1    1    2    0    0 -0.10538513329E+02  0.17784838164E+02 -0.12822674565E+02  0.24326563972E+02  0.00000000000E+00 0.  1.
         11    1    1    2    0    0  0.10267761237E+03  0.17208185002E+03 -0.45847018610E+03  0.50034964448E+03  0.00000000000E+00 0. -1.
</event>
<event>
 7    1  0.3001243E-009  0.7985534E+02  0.7561462E-02  0.1329462E+00
          2   -1    0    0  501    0  0.00000000000E+00  0.00000000000E+00  0.13957191527E+03  0.13957191527E+03  0.00000000000E+00 0. -1.
         -2   -1    0    0    0  501 -0.00000000000E+00 -0.00000000000E+00 -0.10444715459E+03  0.10444715459E+03  0.00000000000E+00 0.  1.
         25    2    1    2    0    0 -0.33811699502E+02 -0.41923165404E+00  0.62546337415E+02  0.14388918001E+03  0.12509454433E+03 0.  0.
          5    1    3    3  502    0  0.39879519699E+02 -0.23497590642E+02  0.35306986950E+01  0.46609560078E+02  0.41800000000E+01 0.  1.
         -5    1    3    3    0  502 -0.73691219201E+02  0.23078358988E+02  0.59015638720E+02  0.97279619934E+02  0.41800000000E+01 0.  1.
        -11    1    1    2    0    0  0.15773865224E+02 -0.58225956951E+01  0.32852737507E+02  0.36905552515E+02  0.00000000000E+00 0. -1.
         11    1    1    2    0    0  0.18037834278E+02  0.62418273491E+01 -0.60274314239E+02  0.63224337332E+02  0.00000000000E+00 0.  1.
</event>
<event>
 7    1  0.3001243E-009  0.9068811E+02  0.7561462E-02  0.1301194E+00
         -1   -1    0    0    0  501 -0.00000000000E+00  0.00000000000E+00  0.40912868351E+02  0.40912868351E+02  0.00000000000E+00 0.  1.
          1   -1    0    0  501    0  0.00000000000E+00 -0.00000000000E+00 -0.41305298351E+03  0.41305298351E+03  0.00000000000E+00 0. -1.
         25    2    1    2    0    0 -0.34388272201E+02  0.53009356500E+02 -0.14477141037E+03  0.20149006976E+03  0.12508773644E+03 0.  0.
          5    1    3    3  502    0 -0.34612888630E+02  0.81701704980E+02 -0.14769186950E+03  0.17234726970E+03  0.41800000000E+01 0.  1.
         -5    1    3    3    0  502  0.22461642938E+00 -0.28692348480E+02  0.29204591222E+01  0.29142800060E+02  0.41800000000E+01 0.  1.
        -11    1    1    2    0    0  0.21586825512E+02 -0.38981942802E+02 -0.22911225632E+03  0.23340524607E+03  0.00000000000E+00 0. -1.
         11    1    1    2    0    0  0.12801446689E+02 -0.14027413698E+02  0.17435515375E+01  0.19070536027E+02  0.00000000000E+00 0.  1.
</event>
<event>
 7    1  0.3001243E-009  0.1161175E+03  0.7561462E-02  0.1249643E+00
          1   -1    0    0  501    0  0.00000000000E+00  0.00000000000E+00  0.43779562222E+02  0.43779562222E+02  0.00000000000E+00 0. -1.
         -1   -1    0    0    0  501 -0.00000000000E+00 -0.00000000000E+00 -0.44189329502E+03  0.44189329502E+03  0.00000000000E+00 0.  1.
         25    2    1    2    0    0  0.22763588136E+01 -0.51335523404E+02 -0.95968541223E+02  0.16582525079E+03  0.12509010801E+03 0.  0.
          5    1    3    3  502    0  0.11284614640E+02  0.38382787011E+02 -0.10631992339E+02  0.41606400077E+02  0.41800000000E+01 0.  1.
         -5    1    3    3    0  502 -0.90082558268E+01 -0.89718310414E+02 -0.85336548885E+02  0.12421885071E+03  0.41800000000E+01 0.  1.
        -11    1    1    2    0    0  0.34188693869E+02 -0.50851808580E+01 -0.14273123361E+03  0.14685683811E+03  0.00000000000E+00 0. -1.
         11    1    1    2    0    0 -0.36465052683E+02  0.56420704262E+02 -0.15941395796E+03  0.17299076834E+03  0.00000000000E+00 0.  1.
</event>
<event>
 7    1  0.3001243E-009  0.1461792E+03  0.7561462E-02  0.1205248E+00
          2   -1    0    0  501    0  0.00000000000E+00  0.00000000000E+00  0.75635337044E+03  0.75635337044E+03  0.00000000000E+00 0. -1.
         -2   -1    0    0    0  501 -0.00000000000E+00 -0.00000000000E+00 -0.45553772205E+02  0.45553772205E+02  0.00000000000E+00 0.  1.
         25    2    1    2    0    0  0.11314632060E+03  0.91169971528E+02  0.45463204769E+03  0.49340760566E+03  0.12508682171E+03 0.  0.
          5    1    3    3  502    0  0.51404837126E+02  0.28688716062E+02  0.44393779219E+02  0.73849710511E+02  0.41800000000E+01 0.  1.
         -5    1    3    3    0  502  0.61741483469E+02  0.62481255466E+02  0.41023826847E+03  0.41955789515E+03  0.41800000000E+01 0.  1.
        -11    1    1    2    0    0 -0.73284497233E+02 -0.62249458544E+02  0.23680472195E+03  0.25558186353E+03  0.00000000000E+00 0. -1.
         11    1    1    2    0    0 -0.39861823363E+02 -0.28920512983E+02  0.19362828593E+02  0.52917673457E+02  0.00000000000E+00 0.  1.
</event>
<event>
 7    1  0.3001243E-009  0.9933119E+02  0.7561462E-02  0.1281709E+00
          2   -1    0    0  501    0  0.00000000000E+00  0.00000000000E+00  0.79153482188E+03  0.79153482188E+03  0.00000000000E+00 0.  1.
         -2   -1    0    0    0  501 -0.00000000000E+00 -0.00000000000E+00 -0.20356165530E+02  0.20356165530E+02  0.00000000000E+00 0. -1.
         25    2    1    2    0    0 -0.93345475923E+01 -0.56500356374E+02  0.62406392732E+03  0.63904837946E+03  0.12509045471E+03 0.  0.
          5    1    3    3  502    0 -0.51416726333E+02 -0.28883781395E+02  0.13493956606E+03  0.14732315318E+03  0.41800000000E+01 0. -1.
         -5    1    3    3    0  502  0.42082178741E+02 -0.27616574979E+02  0.48912436127E+03  0.49172522628E+03  0.41800000000E+01 0. -1.
        -11    1    1    2    0    0 -0.75828630342E+01 -0.14328390435E+02  0.15518885399E+02  0.22441889143E+02  0.00000000000E+00 0.  1.
         11    1    1    2    0    0  0.16917410626E+02  0.70828746809E+02  0.13159584362E+03  0.15040071880E+03  0.00000000000E+00 0. -1.
</event>
<event>
 7    1  0.3001243E-009  0.6900436E+02  0.7561462E-02  0.1363512E+00
         -2   -1    0    0    0  501 -0.00000000000E+00  0.00000000000E+00  0.78919168615E+02  0.78919168615E+02  0.00000000000E+00 0.  1.
          2   -1    0    0  501    0  0.00000000000E+00 -0.00000000000E+00 -0.16896060350E+03  0.16896060350E+03  0.00000000000E+00 0. -1.
         25    2    1    2    0    0 -0.10056674123E+02 -0.27828876840E+02 -0.10977560040E+02  0.12901096779E+03  0.12509092655E+03 0.  0.
          5    1    3    3  502    0  0.25693905729E+01  0.15658680419E+02  0.50182190125E+02  0.52796975729E+02  0.41800000000E+01 0.  1.
         -5    1    3    3    0  502 -0.12626064696E+02 -0.43487557259E+02 -0.61159750165E+02  0.76213992064E+02  0.41800000000E+01 0.  1.
        -11    1    1    2    0    0  0.18988229922E+02  0.49320669544E+02 -0.79648719895E+02  0.95587655588E+02  0.00000000000E+00 0. -1.
         11    1    1    2    0    0 -0.89315557988E+01 -0.21491792704E+02  0.58484505097E+00  0.23281148734E+02  0.00000000000E+00 0.  1.
</event>
<event>
 7    1  0.3001243E-009  0.1361362E+03  0.7561462E-02  0.1218625E+00
          2   -1    0    0  501    0  0.00000000000E+00  0.00000000000E+00  0.72640947971E+03  0.72640947971E+03  0.00000000000E+00 0. -1.
         -2   -1    0    0    0  501 -0.00000000000E+00 -0.00000000000E+00 -0.32877046750E+02  0.32877046750E+02  0.00000000000E+00 0.  1.
         25    2    1    2    0    0 -0.26548666572E+02  0.96150987125E+02  0.49232879911E+03  0.51767273987E+03  0.12509026798E+03 0.  0.
          5    1    3    3  502    0 -0.64501680458E+02  0.10922536922E+02  0.17448755591E+03  0.18639513985E+03  0.41800000000E+01 0.  1.
         -5    1    3    3    0  502  0.37953013887E+02  0.85228450204E+02  0.31784124321E+03  0.33127760001E+03  0.41800000000E+01 0.  1.
        -11    1    1    2    0    0  0.36326977023E+02 -0.31922764035E+02  0.15370686388E+03  0.16113507417E+03  0.00000000000E+00 0. -1.
         11    1    1    2    0    0 -0.97783104515E+01 -0.64228223090E+02  0.47496769968E+02  0.80478712427E+02  0.00000000000E+00 0.  1.
</event>
<event>
 7    1  0.3001243E-009  0.1121639E+03  0.7561462E-02  0.1256614E+00
          2   -1    0    0  501    0  0.00000000000E+00  0.00000000000E+00  0.27553275056E+03  0.27553275056E+03  0.00000000000E+00 0. -1.
         -2   -1    0    0    0  501 -0.00000000000E+00 -0.00000000000E+00 -0.48888572260E+02  0.48888572260E+02  0.00000000000E+00 0.  1.
         25    2    1    2    0    0  0.31032770842E+02 -0.21649372876E+02  0.15137140191E+03  0.19998171434E+03  0.12509059335E+03 0.  0.
          5    1    3    3  502    0  0.28702656557E+02 -0.72696989354E+02  0.10411664289E+03  0.13025529733E+03  0.41800000000E+01 0.  1.
         -5    1    3    3    0  502  0.23301142859E+01  0.51047616478E+02  0.47254759015E+02  0.69726417019E+02  0.41800000000E+01 0.  1.
        -11    1    1    2    0    0  0.30406604244E+02  0.11530555566E+02  0.95243512025E+01  0.33885521379E+02  0.00000000000E+00 0.  1.
         11    1    1    2    0    0 -0.61439375086E+02  0.10118817310E+02  0.65748425187E+02  0.90554087093E+02  0.00000000000E+00 0. -1.
</event>
<event>
 7    1  0.3001243E-009  0.1343034E+03  0.7561462E-02  0.1221206E+00
          1   -1    0    0  501    0  0.00000000000E+00  0.00000000000E+00  0.14017520854E+04  0.14017520854E+04  0.00000000000E+00 0. -1.
         -1   -1    0    0    0  501 -0.00000000000E+00 -0.00000000000E+00 -0.15200477435E+02  0.15200477435E+02  0.00000000000E+00 0.  1.
         25    2    1    2    0    0  0.20561951677E+02 -0.94378179300E+02  0.81968471995E+03  0.83478201205E+03  0.12509169813E+03 0.  0.
          5    1    3    3  502    0 -0.30738994464E+01 -0.10939308288E+03  0.41825700007E+03  0.43235712778E+03  0.41800000000E+01 0. -1.
         -5    1    3    3    0  502  0.23635851124E+02  0.15014903582E+02  0.40142771988E+03  0.40242488427E+03  0.41800000000E+01 0. -1.
        -11    1    1    2    0    0 -0.18647745392E+02 -0.13412974644E+02  0.67584219624E+02  0.71381181268E+02  0.00000000000E+00 0.  1.
         11    1    1    2    0    0 -0.19142062852E+01  0.10779115394E+03  0.49928266835E+03  0.51078936948E+03  0.00000000000E+00 0. -1.
</event>
<event>
 7    1  0.3001243E-009  0.1410483E+03  0.7561462E-02  0.1211925E+00
         -2   -1    0    0    0  501 -0.00000000000E+00  0.00000000000E+00  0.35729414691E+03  0.35729414691E+03  0.00000000000E+00 0.  1.
          2   -1    0    0  501    0  0.00000000000E+00 -0.00000000000E+00 -0.83258953522E+02  0.83258953522E+02  0.00000000000E+00 0. -1.
         25    2    1    2    0    0 -0.58070893917E+02  0.94606828069E+02  0.53791917190E+02  0.17567539644E+03  0.12508234856E+03 0.  0.
          5    1    3    3  502    0 -0.94608388378E+02  0.53122681960E+02  0.19023852633E+02  0.11023677181E+03  0.41800000000E+01 0. -1.
         -5    1    3    3    0  502  0.36537494461E+02  0.41484146108E+02  0.34768064557E+02  0.65438624625E+02  0.41800000000E+01 0. -1.
        -11    1    1    2    0    0  0.35478812983E+02 -0.21334610617E+02  0.16566812644E+03  0.17076252487E+03  0.00000000000E+00 0.  1.
         11    1    1    2    0    0  0.22592080934E+02 -0.73272217452E+02  0.54575149754E+02  0.94115179126E+02  0.00000000000E+00 0. -1.
</event>
<event>
 7    1  0.3001243E-009  0.1635377E+03  0.7561462E-02  0.1184760E+00
         -1   -1    0    0    0  501 -0.00000000000E+00  0.00000000000E+00  0.11534173293E+03  0.11534173293E+03  0.00000000000E+00 0.  1.
          1   -1    0    0  501    0  0.00000000000E+00 -0.00000000000E+00 -0.30081481346E+03  0.30081481346E+03  0.00000000000E+00 0. -1.
         25    2    1    2    0    0 -0.14014919409E+03  0.14830327956E+02 -0.15145613016E+03  0.24176491571E+03  0.12509828087E+03 0.  0.
          5    1    3    3  502    0  0.10948238501E+02  0.29151490731E+02 -0.50352085811E+02  0.59350469952E+02  0.41800000000E+01 0.  1.
         -5    1    3    3    0  502 -0.15109743259E+03 -0.14321162775E+02 -0.10110404435E+03  0.18241444576E+03  0.41800000000E+01 0.  1.
        -11    1    1    2    0    0  0.86463197152E+02  0.49639792677E+01  0.27025711562E+02  0.90724388327E+02  0.00000000000E+00 0.  1.
         11    1    1    2    0    0  0.53685996937E+02 -0.19794307224E+02 -0.61042661942E+02  0.83667242350E+02  0.00000000000E+00 0. -1.
</event>
<event>
 7    1  0.3660682E-009  0.1461526E+03  0.7561462E-02  0.1205282E+00
          2   -1    0    0  501    0  0.00000000000E+00  0.00000000000E+00  0.48058921246E+03  0.48058921246E+03  0.00000000000E+00 0. -1.
         -2   -1    0    0    0  501 -0.00000000000E+00 -0.00000000000E+00 -0.63502855712E+02  0.63502855712E+02  0.00000000000E+00 0.  1.
         25    2    1    2    0    0  0.12134514831E+03  0.51422648195E+02  0.16445666126E+03  0.24507701652E+03  0.12509123403E+03 0.  0.
          5    1    3    3  502    0  0.60220367487E+02 -0.17165851301E+02  0.13438573541E+03  0.14831775818E+03  0.41800000000E+01 0. -1.
         -5    1    3    3    0  502  0.61124780819E+02  0.68588499496E+02  0.30070925848E+02  0.96759258341E+02  0.41800000000E+01 0. -1.
        -11    1    1    2    0    0 -0.73155177914E+02 -0.51367993910E+02  0.22799820059E+03  0.24489493732E+03  0.00000000000E+00 0. -1.
         11    1    1    2    0    0 -0.48189970393E+02 -0.54654284892E-01  0.24631494901E+02  0.54120114326E+02  0.00000000000E+00 0.  1.
</event>
<event>
 7    1  0.3001243E-009  0.1783450E+03  0.7561462E-02  0.1169414E+00
          2   -1    0    0  501    0  0.00000000000E+00  0.00000000000E+00  0.11442067552E+03  0.11442067552E+03  0.00000000000E+00 0. -1.
         -2   -1    0    0    0  501 -0.00000000000E+00 -0.00000000000E+00 -0.34478283997E+03  0.34478283997E+03  0.00000000000E+00 0.  1.
         25    2    1    2    0    0 -0.89595005143E+02  0.12901598506E+03 -0.18121053857E+03  0.27047625435E+03  0.12509098900E+03 0.  0.
          5    1    3    3  502    0 -0.99862162454E+02  0.13822082198E+03 -0.18859177009E+03  0.25428679726E+03  0.41800000000E+01 0.  1.
         -5    1    3    3    0  502  0.10267157311E+02 -0.92048369177E+01  0.73812315151E+01  0.16189457082E+02  0.41800000000E+01 0.  1.
        -11    1    1    2    0    0  0.76049170816E+02 -0.48806478595E+02  0.58176482301E+01  0.90550503950E+02  0.00000000000E+00 0.  1.
         11    1    1    2    0    0  0.13545834327E+02 -0.80209506468E+02 -0.54969274115E+02  0.98176757189E+02  0.00000000000E+00 0. -1.
</event>
<event>
 7    1  0.3001243E-009  0.1336231E+03  0.7561462E-02  0.1222177E+00
          2   -1    0    0  501    0  0.00000000000E+00  0.00000000000E+00  0.31760751261E+03  0.31760751261E+03  0.00000000000E+00 0. -1.
         -2   -1    0    0    0  501 -0.00000000000E+00 -0.00000000000E+00 -0.72867954290E+02  0.72867954290E+02  0.00000000000E+00 0.  1.
         25    2    1    2    0    0 -0.10496621668E+03  0.13193813196E+02  0.14482597920E+03  0.21866326092E+03  0.12508826513E+03 0.  0.
          5    1    3    3  502    0 -0.96577067849E+02 -0.41768574831E+02  0.11301044779E+03  0.15446869452E+03  0.41800000000E+01 0. -1.
         -5    1    3    3    0  502 -0.83891488273E+01  0.54962388027E+02  0.31815531406E+02  0.64194566393E+02  0.41800000000E+01 0. -1.
        -11    1    1    2    0    0  0.34599187958E+02 -0.86905809810E+01  0.94598179572E+02  0.10110116509E+03  0.00000000000E+00 0. -1.
         11    1    1    2    0    0  0.70367028718E+02 -0.45032322153E+01  0.53153995487E+01  0.70711040887E+02  0.00000000000E+00 0.  1.
</event>
<event>
 7    1  0.3001243E-009  0.2159830E+03  0.7561462E-02  0.1136914E+00
         -2   -1    0    0    0  501 -0.00000000000E+00  0.00000000000E+00  0.86109448519E+03  0.86109448519E+03  0.00000000000E+00 0.  1.
          2   -1    0    0  501    0  0.00000000000E+00 -0.00000000000E+00 -0.10634003391E+03  0.10634003391E+03  0.00000000000E+00 0. -1.
         25    2    1    2    0    0  0.63127768572E+02 -0.17696971560E+03  0.48333061523E+02  0.23083709247E+03  0.12508510312E+03 0.  0.
          5    1    3    3  502    0 -0.29122400588E+02 -0.10312763379E+03  0.28306899011E+02  0.11091517479E+03  0.41800000000E+01 0.  1.
         -5    1    3    3    0  502  0.92250169160E+02 -0.73842081808E+02  0.20026162512E+02  0.11992191768E+03  0.41800000000E+01 0.  1.
        -11    1    1    2    0    0 -0.16353595791E+00  0.12456902046E+03  0.47671695608E+03  0.49272357749E+03  0.00000000000E+00 0. -1.
         11    1    1    2    0    0 -0.62964232614E+02  0.52400695144E+02  0.22970443368E+03  0.24387384913E+03  0.00000000000E+00 0.  1.
</event>
<event>
 7    1  0.3001243E-009  0.1222037E+03  0.7561462E-02  0.1239505E+00
         -4   -1    0    0    0  501 -0.00000000000E+00  0.00000000000E+00  0.65600464218E+02  0.65600464218E+02  0.00000000000E+00 0.  1.
          4   -1    0    0  501    0  0.00000000000E+00 -0.00000000000E+00 -0.31400646882E+03  0.31400646882E+03  0.00000000000E+00 0. -1.
         25    2    1    2    0    0  0.83431343777E+02  0.15438688562E+02 -0.18356344952E+03  0.23778935343E+03  0.12509634038E+03 0.  0.
          5    1    3    3  502    0  0.96748432673E+02  0.49758094577E+02 -0.10659563375E+03  0.15236872624E+03  0.41800000000E+01 0.  1.
         -5    1    3    3    0  502 -0.13317088897E+02 -0.34319406015E+02 -0.76967815763E+02  0.85420627188E+02  0.41800000000E+01 0.  1.
        -11    1    1    2    0    0 -0.58581427087E+02 -0.33757484876E+02  0.25821646529E+01  0.67661059399E+02  0.00000000000E+00 0.  1.
         11    1    1    2    0    0 -0.24849916689E+02  0.18318796314E+02 -0.67424719737E+02  0.74156520209E+02  0.00000000000E+00 0. -1.
</event>
<event>
 7    1  0.3001243E-009  0.1048709E+03  0.7561462E-02  0.1270374E+00
         -1   -1    0    0    0  501 -0.00000000000E+00  0.00000000000E+00  0.78244266165E+02  0.78244266165E+02  0.00000000000E+00 0.  1.
          1   -1    0    0  501    0  0.00000000000E+00 -0.00000000000E+00 -0.24304079645E+03  0.24304079645E+03  0.00000000000E+00 0. -1.
         25    2    1    2    0    0  0.39388063403E+02 -0.48410517688E+02 -0.22890487887E+02  0.14166058621E+03  0.12509496188E+03 0.  0.
          5    1    3    3  502    0  0.17914598180E+02  0.35691484561E+02 -0.35813555781E+02  0.53804257042E+02  0.41800000000E+01 0.  1.
         -5    1    3    3    0  502  0.21473465223E+02 -0.84102002249E+02  0.12923067894E+02  0.87856329167E+02  0.41800000000E+01 0.  1.
        -11    1    1    2    0    0 -0.44920678994E+02  0.12882208250E+02 -0.17131717887E+02  0.49772627502E+02  0.00000000000E+00 0.  1.
         11    1    1    2    0    0  0.55326155910E+01  0.35528309437E+02 -0.12477432451E+03  0.12985184891E+03  0.00000000000E+00 0. -1.
</event>
<event>
 7    1  0.3001243E-009  0.1623669E+03  0.7561462E-02  0.1186050E+00
         -1   -1    0    0    0  501 -0.00000000000E+00  0.00000000000E+00  0.23490040068E+02  0.23490040068E+02  0.00000000000E+00 0.  1.
          1   -1    0    0  501    0  0.00000000000E+00 -0.00000000000E+00 -0.14330192465E+04  0.14330192465E+04  0.00000000000E+00 0. -1.
         25    2    1    2    0    0  0.11636094444E+03 -0.85014665235E+02 -0.85891802844E+03  0.87986048211E+03  0.12508767202E+03 0.  0.
          5    1    3    3  502    0  0.17589501772E+02 -0.75425923093E+02 -0.22008749809E+03  0.23335475068E+03  0.41800000000E+01 0. -1.
         -5    1    3    3    0  502  0.98771442664E+02 -0.95887421421E+01 -0.63883053035E+03  0.64650573143E+03  0.41800000000E+01 0. -1.
        -11    1    1    2    0    0 -0.99373655715E+02  0.85142088564E+02 -0.54205675769E+03  0.55762875397E+03  0.00000000000E+00 0. -1.
         11    1    1    2    0    0 -0.16987288722E+02 -0.12742332802E+00 -0.85544203332E+01  0.19020050527E+02  0.00000000000E+00 0.  1.
</event>
<event>
 7    1  0.3001243E-009  0.4192220E+03  0.7561462E-02  0.1037320E+00
          2   -1    0    0  501    0  0.00000000000E+00  0.00000000000E+00  0.12367547766E+04  0.12367547766E+04  0.00000000000E+00 0. -1.
         -2   -1    0    0    0  501 -0.00000000000E+00 -0.00000000000E+00 -0.19663950873E+03  0.19663950873E+03  0.00000000000E+00 0.  1.
         25    2    1    2    0    0  0.72704590738E+02 -0.39831669637E+03  0.90077436771E+03  0.99548052337E+03  0.12507942580E+03 0.  0.
          5    1    3    3  502    0  0.74144592003E+02 -0.40696371019E+03  0.88571908595E+03  0.97756465441E+03  0.41800000000E+01 0. -1.
         -5    1    3    3    0  502 -0.14400012650E+01  0.86470138195E+01  0.15055281763E+02  0.17915868960E+02  0.41800000000E+01 0. -1.
        -11    1    1    2    0    0  0.99907864881E+01  0.19909303149E+03  0.61999161696E+02  0.20876241772E+03  0.00000000000E+00 0.  1.
         11    1    1    2    0    0 -0.82695377226E+02  0.19922366488E+03  0.77341738475E+02  0.22915134426E+03  0.00000000000E+00 0. -1.
</event>
<event>
 7    1  0.3001243E-009  0.1496724E+03  0.7561462E-02  0.1200876E+00
          2   -1    0    0  501    0  0.00000000000E+00  0.00000000000E+00  0.13893073904E+03  0.13893073904E+03  0.00000000000E+00 0.  1.
         -2   -1    0    0    0  501 -0.00000000000E+00 -0.00000000000E+00 -0.20796471477E+03  0.20796471477E+03  0.00000000000E+00 0. -1.
         25    2    1    2    0    0 -0.18194812431E+02 -0.12773723916E+03 -0.51961584900E+02  0.18707145959E+03  0.12509145142E+03 0.  0.
          5    1    3    3  502    0  0.10976265268E+02  0.41488974765E+01 -0.50407884060E+02  0.51924165134E+02  0.41800000000E+01 0. -1.
         -5    1    3    3    0  502 -0.29171077699E+02 -0.13188613664E+03 -0.15537008398E+01  0.13514729445E+03  0.41800000000E+01 0. -1.
        -11    1    1    2    0    0  0.22986247456E+02  0.13827582361E+03 -0.12002175784E+01  0.14017849867E+03  0.00000000000E+00 0.  1.
         11    1    1    2    0    0 -0.47914350247E+01 -0.10538584445E+02 -0.15872173260E+02  0.19645495558E+02  0.00000000000E+00 0. -1.
</event>
<event>
 7    1  0.3001243E-009  0.9327242E+02  0.7561462E-02  0.1295115E+00
          3   -1    0    0  501    0  0.00000000000E+00  0.00000000000E+00  0.59684555699E+02  0.59684555699E+02  0.00000000000E+00 0. -1.
         -3   -1    0    0    0  501 -0.00000000000E+00 -0.00000000000E+00 -0.24145958286E+03  0.24145958286E+03  0.00000000000E+00 0.  1.
         25    2    1    2    0    0  0.33815231620E+02  0.37090306664E+02 -0.91266677522E+02  0.16277497951E+03  0.12508767641E+03 0.  0.
          5    1    3    3  502    0 -0.15720304468E+02  0.26488249731E+02  0.22364306460E+02  0.38293471373E+02  0.41800000000E+01 0. -1.
         -5    1    3    3    0  502  0.49535536088E+02  0.10602056932E+02 -0.11363098398E+03  0.12448150813E+03  0.41800000000E+01 0. -1.
        -11    1    1    2    0    0 -0.47593806930E+02  0.15665463394E+02 -0.41646814275E+02  0.65153928052E+02  0.00000000000E+00 0. -1.
         11    1    1    2    0    0  0.13778575310E+02 -0.52755770057E+02 -0.48861535359E+02  0.73215230994E+02  0.00000000000E+00 0.  1.
</event>
<event>
 7    1  0.3001243E-009  0.1490426E+03  0.7561462E-02  0.1201654E+00
          1   -1    0    0  501    0  0.00000000000E+00  0.00000000000E+00  0.11344336747E+04  0.11344336747E+04  0.00000000000E+00 0. -1.
         -1   -1    0    0    0  501 -0.00000000000E+00 -0.00000000000E+00 -0.24646336525E+02  0.24646336525E+02  0.00000000000E+00 0.  1.
         25    2    1    2    0    0 -0.12134791107E+03  0.47559168804E+02  0.59615574805E+03  0.62292452314E+03  0.12508435369E+03 0.  0.
          5    1    3    3  502    0 -0.62410960463E+02 -0.30666733298E+02  0.14025630840E+03  0.15660421758E+03  0.41800000000E+01 0.  1.
         -5    1    3    3    0  502 -0.58936950608E+02  0.78225902102E+02  0.45589943965E+03  0.46632030556E+03  0.41800000000E+01 0.  1.
        -11    1    1    2    0    0  0.79466822538E+02 -0.29217787476E+02  0.44944043041E+03  0.45734599099E+03  0.00000000000E+00 0. -1.
         11    1    1    2    0    0  0.41881088533E+02 -0.18341381328E+02  0.64191159684E+02  0.78809497063E+02  0.00000000000E+00 0.  1.
</event>
<event>
 7    1  0.3047898E-009  0.1036296E+03  0.7561462E-02  0.1272843E+00
         -1   -1    0    0    0  501 -0.00000000000E+00  0.00000000000E+00  0.17525835811E+03  0.17525835811E+03  0.00000000000E+00 0.  1.
          1   -1    0    0  501    0  0.00000000000E+00 -0.00000000000E+00 -0.11817203433E+03  0.11817203433E+03  0.00000000000E+00 0. -1.
         25    2    1    2    0    0 -0.51545164253E+02  0.45066359926E+02 -0.34755426826E+02  0.14677592001E+03  0.12508936904E+03 0.  0.
          5    1    3    3  502    0 -0.34371047094E+01  0.75811317708E+02  0.63973791323E+01  0.76272986313E+02  0.41800000000E+01 0.  1.
         -5    1    3    3    0  502 -0.48108059543E+02 -0.30744957782E+02 -0.41152805959E+02  0.70502933700E+02  0.41800000000E+01 0.  1.
        -11    1    1    2    0    0  0.49138748397E+02 -0.27563486861E+02  0.10857346266E+03  0.12232154020E+03  0.00000000000E+00 0.  1.
         11    1    1    2    0    0  0.24064158560E+01 -0.17502873065E+02 -0.16731712059E+02  0.24332932236E+02  0.00000000000E+00 0. -1.
</event>
<event>
 7    1  0.3001243E-009  0.9819584E+02  0.7561462E-02  0.1284136E+00
         -2   -1    0    0    0  501 -0.00000000000E+00  0.00000000000E+00  0.25638057868E+03  0.25638057868E+03  0.00000000000E+00 0.  1.
          2   -1    0    0  501    0  0.00000000000E+00 -0.00000000000E+00 -0.64805490391E+02  0.64805490391E+02  0.00000000000E+00 0. -1.
         25    2    1    2    0    0  0.54261643680E+02 -0.18805839605E+02  0.57548971375E+02  0.14918581719E+03  0.12508612379E+03 0.  0.
          5    1    3    3  502    0  0.20393290633E+02  0.33563255123E+02 -0.24168760304E+02  0.46303129181E+02  0.41800000000E+01 0.  1.
         -5    1    3    3    0  502  0.33868353047E+02 -0.52369094728E+02  0.81717731680E+02  0.10288268801E+03  0.41800000000E+01 0.  1.
        -11    1    1    2    0    0 -0.19791484963E+02  0.46264606620E+02  0.11188691496E+03  0.12268169562E+03  0.00000000000E+00 0.  1.
         11    1    1    2    0    0 -0.34470158717E+02 -0.27458767015E+02  0.22139201955E+02  0.49318556256E+02  0.00000000000E+00 0. -1.
</event>
<event>
 7    1  0.3001243E-009  0.9126436E+02  0.7561462E-02  0.1299818E+00
          1   -1    0    0  501    0  0.00000000000E+00  0.00000000000E+00  0.27155409772E+02  0.27155409772E+02  0.00000000000E+00 0. -1.
         -1   -1    0    0    0  501 -0.00000000000E+00 -0.00000000000E+00 -0.48153093092E+03  0.48153093092E+03  0.00000000000E+00 0.  1.
         25    2    1    2    0    0 -0.29127181131E+02 -0.77727944867E-01 -0.31075774849E+03  0.33625242147E+03  0.12508762517E+03 0.  0.
          5    1    3    3  502    0  0.21232810355E+01 -0.49479700932E+02 -0.56150699134E+02  0.74987482555E+02  0.41800000000E+01 0. -1.
         -5    1    3    3    0  502 -0.31250462166E+02  0.49401972987E+02 -0.25460704936E+03  0.26126493891E+03  0.41800000000E+01 0. -1.
        -11    1    1    2    0    0 -0.21916729862E+02 -0.62416544271E+01 -0.33494068128E+01  0.23033015952E+02  0.00000000000E+00 0. -1.
         11    1    1    2    0    0  0.51043910993E+02  0.63193823720E+01 -0.14026836584E+03  0.14940090328E+03  0.00000000000E+00 0.  1.
</event>
<event>
 7    1  0.3001243E-009  0.2083829E+03  0.7561462E-02  0.1142853E+00
          2   -1    0    0  501    0  0.00000000000E+00  0.00000000000E+00  0.14849339019E+04  0.14849339019E+04  0.00000000000E+00 0.  1.
         -2   -1    0    0    0  501 -0.00000000000E+00 -0.00000000000E+00 -0.38180597961E+02  0.38180597961E+02  0.00000000000E+00 0. -1.
         25    2    1    2    0    0 -0.20039162744E+03 -0.26622020167E+01  0.96534745287E+03  0.99383452878E+03  0.12508986439E+03 0.  0.
          5    1    3    3  502    0 -0.44531711109E+02  0.20782594794E+02  0.75873893142E+02  0.90494804277E+02  0.41800000000E+01 0. -1.
         -5    1    3    3    0  502 -0.15585991633E+03 -0.23444796811E+02  0.88947355972E+03  0.90333972450E+03  0.41800000000E+01 0. -1.
        -11    1    1    2    0    0  0.14317252596E+02 -0.17503420290E+02  0.16147667959E+02  0.27786698693E+02  0.00000000000E+00 0. -1.
         11    1    1    2    0    0  0.18607437485E+03  0.20165622306E+02  0.46525818314E+03  0.50149327242E+03  0.00000000000E+00 0.  1.
</event>
<event>
 7    1  0.3001243E-009  0.1323464E+03  0.7561462E-02  0.1224015E+00
         -1   -1    0    0    0  501 -0.00000000000E+00  0.00000000000E+00  0.81173356770E+02  0.81173356770E+02  0.00000000000E+00 0.  1.
          1   -1    0    0  501    0  0.00000000000E+00 -0.00000000000E+00 -0.33638468261E+03  0.33638468261E+03  0.00000000000E+00 0. -1.
         25    2    1    2    0    0 -0.61625470862E+02 -0.50001727464E+02 -0.26111763709E+03  0.30020993041E+03  0.12508281460E+03 0.  0.
          5    1    3    3  502    0 -0.10020806331E+03 -0.31402578604E+02 -0.18600032377E+03  0.21363841120E+03  0.41800000000E+01 0.  1.
         -5    1    3    3    0  502  0.38582592449E+02 -0.18599148860E+02 -0.75117313318E+02  0.86571519211E+02  0.41800000000E+01 0.  1.
        -11    1    1    2    0    0 -0.13482523324E+02  0.38228203060E+02  0.78911884535E+01  0.41297031365E+02  0.00000000000E+00 0.  1.
         11    1    1    2    0    0  0.75107994185E+02  0.11773524405E+02 -0.19848772025E+01  0.76051077606E+02  0.00000000000E+00 0. -1.
</event>
<event>
 7    1  0.3001243E-009  0.1043942E+03  0.7561462E-02  0.1271318E+00
          2   -1    0    0  501    0  0.00000000000E+00  0.00000000000E+00  0.45536452398E+03  0.45536452398E+03  0.00000000000E+00 0. -1.
         -2   -1    0    0    0  501 -0.00000000000E+00 -0.00000000000E+00 -0.62071052373E+02  0.62071052373E+02  0.00000000000E+00 0.  1.
         25    2    1    2    0    0  0.26128217746E+02 -0.86852947635E+01  0.40153755120E+03  0.42147832030E+03  0.12511375366E+03 0.  0.
          5    1    3    3  502    0 -0.45093882430E+02  0.20865402950E+02  0.18419226149E+03  0.19082212887E+03  0.41800000000E+01 0. -1.
         -5    1    3    3    0  502  0.71222100176E+02 -0.29550697713E+02  0.21734528971E+03  0.23065619144E+03  0.41800000000E+01 0. -1.
        -11    1    1    2    0    0 -0.51108282918E+02 -0.79047136570E+01 -0.29184278127E+02  0.59382347298E+02  0.00000000000E+00 0.  1.
         11    1    1    2    0    0  0.24980065172E+02  0.16590008421E+02  0.20940198535E+02  0.36574908750E+02  0.00000000000E+00 0. -1.
</event>
<event>
 7    1  0.3001243E-009  0.1724656E+03  0.7561462E-02  0.1175301E+00
          2   -1    0    0  501    0  0.00000000000E+00  0.00000000000E+00  0.18978863913E+03  0.18978863913E+03  0.00000000000E+00 0. -1.
         -2   -1    0    0    0  501 -0.00000000000E+00 -0.00000000000E+00 -0.27427385104E+03  0.27427385104E+03  0.00000000000E+00 0.  1.
         25    2    1    2    0    0 -0.14040971657E+03 -0.78163650997E+01  0.10088212888E+03  0.21352871773E+03  0.12506528415E+03 0.  0.
          5    1    3    3  502    0 -0.99992388289E+02 -0.61900719591E+02  0.45734424634E+02  0.12625088831E+03  0.41800000000E+01 0.  1.
         -5    1    3    3    0  502 -0.40417328284E+02  0.54084354491E+02  0.55147704244E+02  0.87277829428E+02  0.41800000000E+01 0.  1.
        -11    1    1    2    0    0  0.10094496607E+03 -0.29631070878E+02 -0.15750868794E+03  0.18941191439E+03  0.00000000000E+00 0.  1.
         11    1    1    2    0    0  0.39464750503E+02  0.37447435978E+02 -0.27858652849E+02  0.61121858056E+02  0.00000000000E+00 0. -1.
</event>
<event>
 7    1  0.3001243E-009  0.1356241E+03  0.7561462E-02  0.1219341E+00
          2   -1    0    0  501    0  0.00000000000E+00  0.00000000000E+00  0.75249392839E+03  0.75249392839E+03  0.00000000000E+00 0. -1.
         -2   -1    0    0    0  501 -0.00000000000E+00 -0.00000000000E+00 -0.28613575690E+02  0.28613575690E+02  0.00000000000E+00 0.  1.
         25    2    1    2    0    0 -0.25935661048E+02 -0.82481636719E+02  0.27165067619E+03  0.31131528739E+03  0.12508892589E+03 0.  0.
          5    1    3    3  502    0  0.19519359045E+02  0.22361271595E+02  0.10508257653E+03  0.10927420618E+03  0.41800000000E+01 0.  1.
         -5    1    3    3    0  502 -0.45455020092E+02 -0.10484290831E+03  0.16656809965E+03  0.20204108121E+03  0.41800000000E+01 0.  1.
        -11    1    1    2    0    0  0.61165566810E+02  0.49911332629E+02  0.29733797880E+03  0.30763979152E+03  0.00000000000E+00 0. -1.
         11    1    1    2    0    0 -0.35229905762E+02  0.32570304090E+02  0.15489169772E+03  0.16215242518E+03  0.00000000000E+00 0.  1.
</event>
<event>
 7    1  0.3001243E-009  0.8869822E+02  0.7561462E-02  0.1306035E+00
         -2   -1    0    0    0  501 -0.00000000000E+00  0.00000000000E+00  0.51835166184E+02  0.51835166184E+02  0.00000000000E+00 0. -1.
          2   -1    0    0  501    0  0.00000000000E+00 -0.00000000000E+00 -0.28533595761E+03  0.28533595761E+03  0.00000000000E+00 0.  1.
         25    2    1    2    0    0 -0.44771956550E+02 -0.20722755387E+02 -0.16303614113E+03  0.21132263069E+03  0.12507002135E+03 0.  0.
          5    1    3    3  502    0 -0.10203203986E+02  0.42321472493E+02 -0.11929544355E+03  0.12705938634E+03  0.41800000000E+01 0. -1.
         -5    1    3    3    0  502 -0.34568752564E+02 -0.63044227880E+02 -0.43740697581E+02  0.84263244346E+02  0.41800000000E+01 0. -1.
        -11    1    1    2    0    0  0.40517233909E+02  0.30673790151E+02 -0.90091255766E+02  0.10343578690E+03  0.00000000000E+00 0.  1.
         11    1    1    2    0    0  0.42547226410E+01 -0.99510347640E+01  0.19626605467E+02  0.22412706213E+02  0.00000000000E+00 0. -1.
</event>
<event>
 7    1  0.3001243E-009  0.1148821E+03  0.7561462E-02  0.1251787E+00
          2   -1    0    0  501    0  0.00000000000E+00  0.00000000000E+00  0.10762972039E+03  0.10762972039E+03  0.00000000000E+00 0. -1.
         -2   -1    0    0    0  501 -0.00000000000E+00 -0.00000000000E+00 -0.20773856726E+03  0.20773856726E+03  0.00000000000E+00 0.  1.
         25    2    1    2    0    0  0.52417645992E+02  0.80184721917E+02 -0.93454347003E+02  0.18318843072E+03  0.12508831654E+03 0.  0.
          5    1    3    3  502    0  0.67087937375E+02  0.34996296255E+02 -0.10923800763E+03  0.13295091878E+03  0.41800000000E+01 0.  1.
         -5    1    3    3    0  502 -0.14670291383E+02  0.45188425662E+02  0.15783660626E+02  0.50237511939E+02  0.41800000000E+01 0.  1.
        -11    1    1    2    0    0 -0.27481016297E+02 -0.76239505350E+02  0.31064762505E+02  0.86791058884E+02  0.00000000000E+00 0. -1.
         11    1    1    2    0    0 -0.24936629695E+02 -0.39452165676E+01 -0.37719262376E+02  0.45388798051E+02  0.00000000000E+00 0.  1.
</event>
<event>
 7    1  0.3001243E-009  0.6411724E+02  0.7561462E-02  0.1381323E+00
         -2   -1    0    0    0  501 -0.00000000000E+00  0.00000000000E+00  0.37143515521E+02  0.37143515521E+02  0.00000000000E+00 0.  1.
          2   -1    0    0  501    0  0.00000000000E+00 -0.00000000000E+00 -0.36452716822E+03  0.36452716822E+03  0.00000000000E+00 0. -1.
         25    2    1    2    0    0  0.12616948288E+02 -0.26075539698E+02 -0.23116450823E+03  0.26443220985E+03  0.12509293581E+03 0.  0.
          5    1    3    3  502    0  0.42582265279E+02 -0.20573999895E+02 -0.20801704020E+02  0.51833599895E+02  0.41800000000E+01 0. -1.
         -5    1    3    3    0  502 -0.29965316991E+02 -0.55015398036E+01 -0.21036280421E+03  0.21259860996E+03  0.41800000000E+01 0. -1.
        -11    1    1    2    0    0 -0.26778422983E+02  0.10004494889E+02  0.89152242515E+01  0.29944199419E+02  0.00000000000E+00 0.  1.
         11    1    1    2    0    0  0.14161474695E+02  0.16071044810E+02 -0.10513436873E+03  0.10729427447E+03  0.00000000000E+00 0. -1.
</event>
<event>
 7    1  0.3001243E-009  0.5381593E+02  0.7561462E-02  0.1425783E+00
         -2   -1    0    0    0  501 -0.00000000000E+00  0.00000000000E+00  0.65141721788E+02  0.65141721788E+02  0.00000000000E+00 0.  1.
          2   -1    0    0  501    0  0.00000000000E+00 -0.00000000000E+00 -0.26116407959E+03  0.26116407959E+03  0.00000000000E+00 0. -1.
         25    2    1    2    0    0 -0.23956540601E+02  0.79190218242E+01 -0.19040162064E+03  0.22920750092E+03  0.12508666831E+03 0.  0.
          5    1    3    3  502    0  0.95375088260E+01 -0.73644308339E+01  0.15457658270E+02  0.20040222436E+02  0.41800000000E+01 0. -1.
         -5    1    3    3    0  502 -0.33494049427E+02  0.15283452658E+02 -0.20585927891E+03  0.20916727848E+03  0.41800000000E+01 0. -1.
        -11    1    1    2    0    0  0.40610546678E+02 -0.62252321241E+01 -0.40947674727E+02  0.58005879719E+02  0.00000000000E+00 0. -1.
         11    1    1    2    0    0 -0.16654006077E+02 -0.16937897001E+01  0.35326937565E+02  0.39092420745E+02  0.00000000000E+00 0.  1.
</event>
<event>
 7    1  0.3001243E-009  0.1474450E+03  0.7561462E-02  0.1203648E+00
          4   -1    0    0  501    0  0.00000000000E+00  0.00000000000E+00  0.73624423229E+03  0.73624423229E+03  0.00000000000E+00 0.  1.
         -4   -1    0    0    0  501 -0.00000000000E+00 -0.00000000000E+00 -0.39651737212E+02  0.39651737212E+02  0.00000000000E+00 0. -1.
         25    2    1    2    0    0  0.86230570774E+02  0.90027478866E+02  0.27758729638E+03  0.32900196015E+03  0.12508766679E+03 0.  0.
          5    1    3    3  502    0  0.17552230774E+02 -0.22343713519E+02  0.94408806472E+01  0.30231191944E+02  0.41800000000E+01 0.  1.
         -5    1    3    3    0  502  0.68678339999E+02  0.11237119238E+03  0.26814641574E+03  0.29877076821E+03  0.41800000000E+01 0.  1.
        -11    1    1    2    0    0 -0.77602572035E+02 -0.47438422926E+02  0.37167195690E+03  0.38263900311E+03  0.00000000000E+00 0.  1.
         11    1    1    2    0    0 -0.86279987381E+01 -0.42589055939E+02  0.47333241797E+02  0.64255006241E+02  0.00000000000E+00 0. -1.
</event>
<event>
 7    1  0.3001243E-009  0.1971560E+03  0.7561462E-02  0.1152161E+00
          2   -1    0    0  501    0  0.00000000000E+00  0.00000000000E+00  0.19886653662E+03  0.19886653662E+03  0.00000000000E+00 0. -1.
         -2   -1    0    0    0  501 -0.00000000000E+00 -0.00000000000E+00 -0.21065762716E+03  0.21065762716E+03  0.00000000000E+00 0.  1.
         25    2    1    2    0    0  0.32716383930E+02  0.16911845315E+03 -0.74779320061E+01  0.21301166788E+03  0.12508652290E+03 0.  0.
          5    1    3    3  502    0 -0.45031190128E+02  0.94353158245E+02 -0.93716867194E+01  0.10505059480E+03  0.41800000000E+01 0.  1.
         -5    1    3    3    0  502  0.77747574058E+02  0.74765294900E+02  0.18937547133E+01  0.10796107308E+03  0.41800000000E+01 0.  1.
        -11    1    1    2    0    0  0.16838028395E+02 -0.48236017270E+02  0.32781459260E+02  0.60703019970E+02  0.00000000000E+00 0. -1.
         11    1    1    2    0    0 -0.49554412325E+02 -0.12088243588E+03 -0.37094617788E+02  0.13580947593E+03  0.00000000000E+00 0.  1.
</event>
<event>
 7    1  0.3001243E-009  0.8984568E+02  0.7561462E-02  0.1303226E+00
          3   -1    0    0  501    0  0.00000000000E+00  0.00000000000E+00  0.59919251335E+02  0.59919251335E+02  0.00000000000E+00 0. -1.
         -3   -1    0    0    0  501 -0.00000000000E+00 -0.00000000000E+00 -0.21874671493E+03  0.21874671493E+03  0.00000000000E+00 0.  1.
         25    2    1    2    0    0  0.26035062832E+02  0.10696592388E+02 -0.72573062302E+02  0.14733184813E+03  0.12509029745E+03 0.  0.
          5    1    3    3  502    0  0.60901826448E+02  0.42897623134E+02 -0.65269012347E+02  0.99129989953E+02  0.41800000000E+01 0. -1.
         -5    1    3    3    0  502 -0.34866763615E+02 -0.32201030746E+02 -0.73040499550E+01  0.48201858178E+02  0.41800000000E+01 0. -1.
        -11    1    1    2    0    0 -0.13032224512E+01  0.18855311985E+02  0.14266273018E+02  0.23680112428E+02  0.00000000000E+00 0. -1.
         11    1    1    2    0    0 -0.24731840381E+02 -0.29551904373E+02 -0.10052067431E+03  0.10765400570E+03  0.00000000000E+00 0.  1.
</event>
<event>
 7    1  0.3001243E-009  0.9185829E+02  0.7561462E-02  0.1298413E+00
         -1   -1    0    0    0  501 -0.00000000000E+00  0.00000000000E+00  0.34781570473E+02  0.34781570473E+02  0.00000000000E+00 0.  1.
          1   -1    0    0  501    0  0.00000000000E+00 -0.00000000000E+00 -0.40053456231E+03  0.40053456231E+03  0.00000000000E+00 0. -1.
         25    2    1    2    0    0 -0.42216762698E+02 -0.18526206282E+02 -0.23937948788E+03  0.27399818983E+03  0.12508794282E+03 0.  0.
          5    1    3    3  502    0 -0.87905122430E+00 -0.67101612785E+02 -0.98091674798E+02  0.11892370762E+03  0.41800000000E+01 0.  1.
         -5    1    3    3    0  502 -0.41337711474E+02  0.48575406503E+02 -0.14128781309E+03  0.15507448221E+03  0.41800000000E+01 0.  1.
        -11    1    1    2    0    0  0.17507313886E+02 -0.52398788325E+01  0.99097249012E+01  0.20788579011E+02  0.00000000000E+00 0.  1.
         11    1    1    2    0    0  0.24709448812E+02  0.23766085115E+02 -0.13628322885E+03  0.14052936394E+03  0.00000000000E+00 0. -1.
</event>
<event>
 7    1  0.3001243E-009  0.1155914E+03  0.7561462E-02  0.1250552E+00
         -2   -1    0    0    0  501 -0.00000000000E+00  0.00000000000E+00  0.49789164247E+02  0.49789164247E+02  0.00000000000E+00 0.  1.
          2   -1    0    0  501    0  0.00000000000E+00 -0.00000000000E+00 -0.31308256863E+03  0.31308256863E+03  0.00000000000E+00 0. -1.
         25    2    1    2    0    0  0.59387733884E+02 -0.11560875544E+02 -0.15901848724E+03  0.21117591885E+03  0.12509129721E+03 0.  0.
          5    1    3    3  502    0  0.95399619169E+02 -0.59477006334E+01 -0.82564035678E+02  0.12637545200E+03  0.41800000000E+01 0. -1.
         -5    1    3    3    0  502 -0.36011885285E+02 -0.56131749106E+01 -0.76454451561E+02  0.84800466849E+02  0.41800000000E+01 0. -1.
        -11    1    1    2    0    0 -0.33925212521E+01 -0.29304097924E+02 -0.66502423197E+02  0.72751712328E+02  0.00000000000E+00 0. -1.
         11    1    1    2    0    0 -0.55995212632E+02  0.40864973468E+02 -0.37772493947E+02  0.78944101700E+02  0.00000000000E+00 0.  1.
</event>
<event>
 7    1  0.3001243E-009  0.1634892E+03  0.7561462E-02  0.1184813E+00
         -3   -1    0    0    0  501 -0.00000000000E+00  0.00000000000E+00  0.19319204981E+03  0.19319204981E+03  0.00000000000E+00 0.  1.
          3   -1    0    0  501    0  0.00000000000E+00 -0.00000000000E+00 -0.17754082078E+03  0.17754082078E+03  0.00000000000E+00 0. -1.
         25    2    1    2    0    0  0.14032273250E+03  0.44511830640E+02  0.37378188360E+02  0.19676652566E+03  0.12509262302E+03 0.  0.
          5    1    3    3  502    0  0.19313410929E+02  0.29094396077E+02  0.62902474259E+02  0.72067228285E+02  0.41800000000E+01 0.  1.
         -5    1    3    3    0  502  0.12100932157E+03  0.15417434563E+02 -0.25524285899E+02  0.12469929738E+03  0.41800000000E+01 0.  1.
        -11    1    1    2    0    0 -0.91003935812E+02  0.15241064911E+02 -0.27477645109E+02  0.96275788096E+02  0.00000000000E+00 0.  1.
         11    1    1    2    0    0 -0.49318796689E+02 -0.59752895551E+02  0.57506857869E+01  0.77690556830E+02  0.00000000000E+00 0. -1.
</event>
<event>
 7    1  0.3001243E-009  0.1018595E+03  0.7561462E-02  0.1276434E+00
         -1   -1    0    0    0  501 -0.00000000000E+00  0.00000000000E+00  0.32773900001E+02  0.32773900001E+02  0.00000000000E+00 0.  1.
          1   -1    0    0  501    0  0.00000000000E+00 -0.00000000000E+00 -0.62792564374E+03  0.62792564374E+03  0.00000000000E+00 0. -1.
         25    2    1    2    0    0  0.52706901839E+02  0.61015906389E+02 -0.21379493251E+03  0.26049116445E+03  0.12508563169E+03 0.  0.
          5    1    3    3  502    0  0.44638385424E+01  0.40717459693E+02 -0.20268198787E+03  0.20682189920E+03  0.41800000000E+01 0.  1.
         -5    1    3    3    0  502  0.48243063296E+02  0.20298446696E+02 -0.11112944639E+02  0.53669265255E+02  0.41800000000E+01 0.  1.
        -11    1    1    2    0    0 -0.49825332325E+02 -0.87922947726E+00 -0.26006386531E+03  0.26479529986E+03  0.00000000000E+00 0. -1.
         11    1    1    2    0    0 -0.28815695140E+01 -0.60136676912E+02 -0.12129294591E+03  0.13541307943E+03  0.00000000000E+00 0.  1.
</event>
<event>
 7    1  0.3001243E-009  0.1013716E+03  0.7561462E-02  0.1277438E+00
         -2   -1    0    0    0  501 -0.00000000000E+00  0.00000000000E+00  0.10409290723E+03  0.10409290723E+03  0.00000000000E+00 0.  1.
          2   -1    0    0  501    0  0.00000000000E+00 -0.00000000000E+00 -0.12574471284E+03  0.12574471284E+03  0.00000000000E+00 0. -1.
         25    2    1    2    0    0  0.31223646016E+02  0.56226546481E+01  0.11797270732E+02  0.12959053537E+03  0.12509196994E+03 0.  0.
          5    1    3    3  502    0 -0.36591221229E+02 -0.24095906143E+02  0.29958733936E+02  0.53240288344E+02  0.41800000000E+01 0. -1.
         -5    1    3    3    0  502  0.67814867245E+02  0.29718560792E+02 -0.18161463205E+02  0.76350247025E+02  0.41800000000E+01 0. -1.
        -11    1    1    2    0    0  0.12844955696E+02  0.26895710604E+02  0.87996664194E+01  0.31077423716E+02  0.00000000000E+00 0.  1.
         11    1    1    2    0    0 -0.44068601713E+02 -0.32518365252E+02 -0.42248742758E+02  0.69169660981E+02  0.00000000000E+00 0. -1.
</event>
<event>
 7    1  0.3001243E-009  0.1044835E+03  0.7561462E-02  0.1271141E+00
          1   -1    0    0  501    0  0.00000000000E+00  0.00000000000E+00  0.65281445722E+02  0.65281445722E+02  0.00000000000E+00 0. -1.
         -1   -1    0    0    0  501 -0.00000000000E+00 -0.00000000000E+00 -0.19781745769E+03  0.19781745769E+03  0.00000000000E+00 0.  1.
         25    2    1    2    0    0 -0.33516843035E+02  0.63883046638E+01 -0.57282944204E+02  0.14174718849E+03  0.12508693195E+03 0.  0.
          5    1    3    3  502    0 -0.78223393092E+02  0.50009244549E+01 -0.56681294216E+02  0.96820194104E+02  0.41800000000E+01 0. -1.
         -5    1    3    3    0  502  0.44706550057E+02  0.13873802089E+01 -0.60164998819E+00  0.44926994386E+02  0.41800000000E+01 0. -1.
        -11    1    1    2    0    0  0.28570655956E+02  0.34255222922E+02 -0.65527837312E+02  0.79269162617E+02  0.00000000000E+00 0.  1.
         11    1    1    2    0    0  0.49461870787E+01 -0.40643527586E+02 -0.97252304533E+01  0.42082552307E+02  0.00000000000E+00 0. -1.
</event>
<event>
 7    1  0.3001243E-009  0.9712698E+02  0.7561462E-02  0.1286456E+00
         -2   -1    0    0    0  501 -0.00000000000E+00  0.00000000000E+00  0.19726620876E+02  0.19726620876E+02  0.00000000000E+00 0. -1.
          2   -1    0    0  501    0  0.00000000000E+00 -0.00000000000E+00 -0.68534757439E+03  0.68534757439E+03  0.00000000000E+00 0.  1.
         25    2    1    2    0    0  0.93237707180E+01 -0.11534400297E+02 -0.50128905539E+03  0.51687428282E+03  0.12509329357E+03 0.  0.
          5    1    3    3  502    0 -0.23280570080E+02  0.42962961470E+02 -0.10992731336E+03  0.12037145685E+03  0.41800000000E+01 0.  1.
         -5    1    3    3    0  502  0.32604340798E+02 -0.54497361767E+02 -0.39136174202E+03  0.39650282597E+03  0.41800000000E+01 0.  1.
        -11    1    1    2    0    0  0.31440837534E+02  0.23305875032E+02 -0.36520902671E+02  0.53530051445E+02  0.00000000000E+00 0. -1.
         11    1    1    2    0    0 -0.40764608252E+02 -0.11771474735E+02 -0.12781099546E+03  0.13466986100E+03  0.00000000000E+00 0.  1.
</event>
<event>
 7    1  0.3001243E-009  0.8445366E+02  0.7561462E-02  0.1316867E+00
         -3   -1    0    0    0  501 -0.00000000000E+00  0.00000000000E+00  0.20473322229E+03  0.20473322229E+03  0.00000000000E+00 0.  1.
          3   -1    0    0  501    0  0.00000000000E+00 -0.00000000000E+00 -0.96280826462E+02  0.96280826462E+02  0.00000000000E+00 0. -1.
         25    2    1    2    0    0 -0.47082839834E+02 -0.33986900493E+02 -0.13910139352E+02  0.13861059082E+03  0.12508997042E+03 0.  0.
          5    1    3    3  502    0 -0.46813092860E+02 -0.34992168978E+02  0.48493012726E+02  0.76058939226E+02  0.41800000000E+01 0. -1.
         -5    1    3    3    0  502 -0.26974697450E+00  0.10052684849E+01 -0.62403152078E+02  0.62551651596E+02  0.41800000000E+01 0. -1.
        -11    1    1    2    0    0 -0.22930730384E+02 -0.80947446102E+01  0.20303366741E+02  0.31679172768E+02  0.00000000000E+00 0.  1.
         11    1    1    2    0    0  0.70013570218E+02  0.42081645103E+02  0.10205916844E+03  0.13072428517E+03  0.00000000000E+00 0. -1.
</event>
<event>
 7    1  0.3001243E-009  0.1142314E+03  0.7561462E-02  0.1252929E+00
         -2   -1    0    0    0  501 -0.00000000000E+00  0.00000000000E+00  0.58692444939E+02  0.58692444939E+02  0.00000000000E+00 0.  1.
          2   -1    0    0  501    0  0.00000000000E+00 -0.00000000000E+00 -0.60247717996E+03  0.60247717996E+03  0.00000000000E+00 0. -1.
         25    2    1    2    0    0  0.10952949477E+02  0.56464040280E+02 -0.53450714591E+03  0.55195418835E+03  0.12508949619E+03 0.  0.
          5    1    3    3  502    0 -0.13957245988E+02 -0.37448741212E+02 -0.14167670526E+03  0.14726497936E+03  0.41800000000E+01 0. -1.
         -5    1    3    3    0  502  0.24910195465E+02  0.93912781492E+02 -0.39283044065E+03  0.40468920899E+03  0.41800000000E+01 0. -1.
        -11    1    1    2    0    0  0.30223175851E+02 -0.24248166903E+02  0.25534015342E+02  0.46404740018E+02  0.00000000000E+00 0.  1.
         11    1    1    2    0    0 -0.41176125328E+02 -0.32215873377E+02 -0.34811604453E+02  0.62810696534E+02  0.00000000000E+00 0. -1.
</event>
<event>
 7    1  0.3001243E-009  0.1703428E+03  0.7561462E-02  0.1177491E+00
         -1   -1    0    0    0  501 -0.00000000000E+00  0.00000000000E+00  0.12746611938E+03  0.12746611938E+03  0.00000000000E+00 0.  1.
          1   -1    0    0  501    0  0.00000000000E+00 -0.00000000000E+00 -0.30871167041E+03  0.30871167041E+03  0.00000000000E+00 0. -1.
         25    2    1    2    0    0  0.11433455669E+03  0.12002624945E+03 -0.83058938427E+02  0.22366382437E+03  0.12509207676E+03 0.  0.
          5    1    3    3  502    0 -0.12831890573E+01  0.20501201231E+02 -0.67008659029E+02  0.70210957912E+02  0.41800000000E+01 0. -1.
         -5    1    3    3    0  502  0.11561774575E+03  0.99525048218E+02 -0.16050279398E+02  0.15345286646E+03  0.41800000000E+01 0. -1.
        -11    1    1    2    0    0 -0.10652803801E+03 -0.10208123556E+03 -0.11472075982E+03  0.18689476790E+03  0.00000000000E+00 0. -1.
         11    1    1    2    0    0 -0.78065186844E+01 -0.17945013891E+02  0.16534147217E+02  0.25619197522E+02  0.00000000000E+00 0.  1.
</event>
<event>
 7    1  0.3001243E-009  0.7740086E+02  0.7561462E-02  0.1336594E+00
          2   -1    0    0  501    0  0.00000000000E+00  0.00000000000E+00  0.14873609282E+03  0.14873609282E+03  0.00000000000E+00 0. -1.
         -2   -1    0    0    0  501 -0.00000000000E+00 -0.00000000000E+00 -0.80478388127E+02  0.80478388127E+02  0.00000000000E+00 0.  1.
         25    2    1    2    0    0 -0.30318651837E+02 -0.90546780389E+01  0.28990867637E+02  0.13224826045E+03  0.12509166296E+03 0.  0.
          5    1    3    3  502    0 -0.43990689081E+02  0.19285704875E+02  0.67116075952E+02  0.82638726935E+02  0.41800000000E+01 0. -1.
         -5    1    3    3    0  502  0.13672037244E+02 -0.28340382914E+02 -0.38125208314E+02  0.49609533510E+02  0.41800000000E+01 0. -1.
        -11    1    1    2    0    0  0.16775997734E+02 -0.29524780103E+02 -0.75718456352E+01  0.34791947149E+02  0.00000000000E+00 0.  1.
         11    1    1    2    0    0  0.13542654103E+02  0.38579458142E+02  0.46838682687E+02  0.62174273350E+02  0.00000000000E+00 0. -1.
</event>
<event>
 7    1  0.3001243E-009  0.1301830E+03  0.7561462E-02  0.1227184E+00
          1   -1    0    0  501    0  0.00000000000E+00  0.00000000000E+00  0.75202529311E+02  0.75202529311E+02  0.00000000000E+00 0. -1.
         -1   -1    0    0    0  501 -0.00000000000E+00 -0.00000000000E+00 -0.30484661044E+03  0.30484661044E+03  0.00000000000E+00 0.  1.
         25    2    1    2    0    0  0.79298222831E+02  0.28517833259E+02 -0.60204384669E+02  0.16239864823E+03  0.12508908048E+03 0.  0.
          5    1    3    3  502    0 -0.11292983506E+02  0.52343866077E+02 -0.38694636068E+02  0.66197878009E+02  0.41800000000E+01 0.  1.
         -5    1    3    3    0  502  0.90591206337E+02 -0.23826032819E+02 -0.21509748601E+02  0.96200770217E+02  0.41800000000E+01 0.  1.
        -11    1    1    2    0    0  0.14826776302E+02 -0.66933324056E+01 -0.93098573598E+02  0.94509144533E+02  0.00000000000E+00 0. -1.
         11    1    1    2    0    0 -0.94124999133E+02 -0.21824500853E+02 -0.76341122860E+02  0.12314134699E+03  0.00000000000E+00 0.  1.
</event>
<event>
 7    1  0.3001243E-009  0.1114253E+03  0.7561462E-02  0.1257953E+00
          1   -1    0    0  501    0  0.00000000000E+00  0.00000000000E+00  0.74764845403E+03  0.74764845403E+03  0.00000000000E+00 0. -1.
         -1   -1    0    0    0  501 -0.00000000000E+00 -0.00000000000E+00 -0.20796790202E+02  0.20796790202E+02  0.00000000000E+00 0.  1.
         25    2    1    2    0    0  0.15572120901E+01  0.35914646289E+02  0.52108603272E+03  0.53709543530E+03  0.12509423008E+03 0.  0.
          5    1    3    3  502    0  0.53123683751E+02 -0.17201670670E+02  0.22805398388E+03  0.23482784165E+03  0.41800000000E+01 0. -1.
         -5    1    3    3    0  502 -0.51566471661E+02  0.53116316959E+02  0.29303204884E+03  0.30226759366E+03  0.41800000000E+01 0. -1.
        -11    1    1    2    0    0  0.40555297089E+02 -0.29406817271E+02  0.53750943021E+02  0.73475553074E+02  0.00000000000E+00 0.  1.
         11    1    1    2    0    0 -0.42112509179E+02 -0.65078290180E+01  0.15201468809E+03  0.15787425585E+03  0.00000000000E+00 0. -1.
</event>
<event>
 7    1  0.3001243E-009  0.8329702E+02  0.7561462E-02  0.1319947E+00
          1   -1    0    0  501    0  0.00000000000E+00  0.00000000000E+00  0.29477568358E+03  0.29477568358E+03  0.00000000000E+00 0. -1.
         -1   -1    0    0    0  501 -0.00000000000E+00 -0.00000000000E+00 -0.42873517613E+02  0.42873517613E+02  0.00000000000E+00 0.  1.
         25    2    1    2    0    0  0.20410340848E+02  0.20877071385E+02  0.13972250296E+03  0.18979601818E+03  0.12509083323E+03 0.  0.
          5    1    3    3  502    0  0.60955869871E+02  0.36506464549E+02  0.41696036152E+02  0.82488616526E+02  0.41800000000E+01 0. -1.
         -5    1    3    3    0  502 -0.40545529023E+02 -0.15629393164E+02  0.98026466806E+02  0.10730740165E+03  0.41800000000E+01 0. -1.
        -11    1    1    2    0    0  0.29132433176E+01 -0.27393927553E+02 -0.51712697697E+01  0.28029560904E+02  0.00000000000E+00 0.  1.
         11    1    1    2    0    0 -0.23323584165E+02  0.65168561686E+01  0.11735093278E+03  0.11982362212E+03  0.00000000000E+00 0. -1.
</event>
<event>
 7    1  0.3001243E-009  0.9862483E+02  0.7561462E-02  0.1283215E+00
          2   -1    0    0  501    0  0.00000000000E+00  0.00000000000E+00  0.82044954684E+02  0.82044954684E+02  0.00000000000E+00 0. -1.
         -2   -1    0    0    0  501 -0.00000000000E+00 -0.00000000000E+00 -0.17131062073E+03  0.17131062073E+03  0.00000000000E+00 0.  1.
         25    2    1    2    0    0 -0.26459740754E+02  0.74372137547E+00 -0.89873815849E+01  0.12817994585E+03  0.12509458217E+03 0.  0.
          5    1    3    3  502    0  0.20605567078E+02  0.46576485930E+02 -0.29780538864E+02  0.59146524253E+02  0.41800000000E+01 0.  1.
         -5    1    3    3    0  502 -0.47065307832E+02 -0.45832764555E+02  0.20793157279E+02  0.69033421599E+02  0.41800000000E+01 0.  1.
        -11    1    1    2    0    0  0.39182394858E+02 -0.29387121416E+02 -0.80035886354E+02  0.93832862455E+02  0.00000000000E+00 0.  1.
         11    1    1    2    0    0 -0.12722654104E+02  0.28643400041E+02 -0.24239811215E+00  0.31342767111E+02  0.00000000000E+00 0. -1.
</event>
<event>
 7    1  0.3001243E-009  0.9727216E+02  0.7561462E-02  0.1286139E+00
         -2   -1    0    0    0  501 -0.00000000000E+00  0.00000000000E+00  0.15742536431E+03  0.15742536431E+03  0.00000000000E+00 0.  1.
          2   -1    0    0  501    0  0.00000000000E+00 -0.00000000000E+00 -0.93888465472E+02  0.93888465472E+02  0.00000000000E+00 0. -1.
         25    2    1    2    0    0 -0.47584387663E+01  0.40054569317E+02  0.72016871291E+02  0.14986728987E+03  0.12508702395E+03 0.  0.
          5    1    3    3  502    0 -0.12974168634E+02 -0.31340843927E+02  0.69946365655E+02  0.77849495941E+02  0.41800000000E+01 0.  1.
         -5    1    3    3    0  502  0.82157298673E+01  0.71395413244E+02  0.20705056356E+01  0.72017793934E+02  0.41800000000E+01 0.  1.
        -11    1    1    2    0    0  0.10689664167E+02 -0.63398762386E+02 -0.28307441320E+02  0.70249435771E+02  0.00000000000E+00 0. -1.
         11    1    1    2    0    0 -0.59312254004E+01  0.23344193069E+02  0.19827468865E+02  0.31197104134E+02  0.00000000000E+00 0.  1.
</event>
<event>
 7    1  0.3001243E-009  0.1065628E+03  0.7561462E-02  0.1267071E+00
          1   -1    0    0  501    0  0.00000000000E+00  0.00000000000E+00  0.33667605934E+03  0.33667605934E+03  0.00000000000E+00 0. -1.
         -1   -1    0    0    0  501 -0.00000000000E+00 -0.00000000000E+00 -0.35866027375E+02  0.35866027375E+02  0.00000000000E+00 0.  1.
         25    2    1    2    0    0  0.49994063701E+02 -0.15145807582E+02  0.22164453587E+03  0.25981345775E+03  0.12509168897E+03 0.  0.
          5    1    3    3  502    0  0.75594445812E+02  0.29916640339E+02  0.11193855170E+03  0.13840967222E+03  0.41800000000E+01 0.  1.
         -5    1    3    3    0  502 -0.25600382111E+02 -0.45062447922E+02  0.10970598418E+03  0.12140378553E+03  0.41800000000E+01 0.  1.
        -11    1    1    2    0    0  0.96418125924E+01 -0.10983686984E+02  0.98210429768E+01  0.17608487016E+02  0.00000000000E+00 0.  1.
         11    1    1    2    0    0 -0.59635876293E+02  0.26129494567E+02  0.69344453115E+02  0.95120141954E+02  0.00000000000E+00 0. -1.
</event>
<event>
 7    1  0.3001243E-009  0.1365108E+03  0.7561462E-02  0.1218102E+00
          2   -1    0    0  501    0  0.00000000000E+00  0.00000000000E+00  0.55516088551E+03  0.55516088551E+03  0.00000000000E+00 0. -1.
         -2   -1    0    0    0  501 -0.00000000000E+00 -0.00000000000E+00 -0.42290949818E+02  0.42290949818E+02  0.00000000000E+00 0.  1.
         25    2    1    2    0    0 -0.22005362947E+02 -0.96905101900E+02  0.19552528492E+03  0.25249190070E+03  0.12508872093E+03 0.  0.
          5    1    3    3  502    0 -0.15143329650E+02  0.22934732356E+02  0.84403641515E+02  0.88863769232E+02  0.41800000000E+01 0.  1.
         -5    1    3    3    0  502 -0.68620332977E+01 -0.11983983426E+03  0.11112164340E+03  0.16362813147E+03  0.41800000000E+01 0.  1.
        -11    1    1    2    0    0  0.43046027384E+02  0.24108810939E+02  0.19419565517E+03  0.20036503618E+03  0.00000000000E+00 0. -1.
         11    1    1    2    0    0 -0.21040664436E+02  0.72796290961E+02  0.12314899561E+03  0.14459489845E+03  0.00000000000E+00 0.  1.
</event>
<event>
 7    1  0.3001243E-009  0.9870631E+02  0.7561462E-02  0.1283040E+00
          2   -1    0    0  501    0  0.00000000000E+00  0.00000000000E+00  0.70428208141E+02  0.70428208141E+02  0.00000000000E+00 0.  1.
         -2   -1    0    0    0  501 -0.00000000000E+00 -0.00000000000E+00 -0.19134928884E+03  0.19134928884E+03  0.00000000000E+00 0. -1.
         25    2    1    2    0    0  0.27507880772E+02 -0.16049206315E+02 -0.51268150215E+02  0.13888412350E+03  0.12508443551E+03 0.  0.
          5    1    3    3  502    0 -0.43312243702E+02 -0.12106648228E+02  0.85928274308E+01  0.45976412095E+02  0.41800000000E+01 0.  1.
         -5    1    3    3    0  502  0.70820124474E+02 -0.39425580872E+01 -0.59860977646E+02  0.92907711410E+02  0.41800000000E+01 0.  1.
        -11    1    1    2    0    0  0.13331198496E+02 -0.21773388181E+02 -0.61561221774E+02  0.66645219728E+02  0.00000000000E+00 0. -1.
         11    1    1    2    0    0 -0.40839079268E+02  0.37822594496E+02 -0.80917087065E+01  0.56248153744E+02  0.00000000000E+00 0.  1.
</event>
<event>
 7    1  0.3001243E-009  0.7361689E+02  0.7561462E-02  0.1348208E+00
         -1   -1    0    0    0  501 -0.00000000000E+00  0.00000000000E+00  0.73699851891E+02  0.73699851891E+02  0.00000000000E+00 0.  1.
          1   -1    0    0  501    0  0.00000000000E+00 -0.00000000000E+00 -0.19526835910E+03  0.19526835910E+03  0.00000000000E+00 0. -1.
         25    2    1    2    0    0  0.68827792485E+01 -0.34298083242E+02 -0.68675503421E+02  0.14692587344E+03  0.12508859401E+03 0.  0.
          5    1    3    3  502    0  0.57215902208E+00 -0.24551349577E+02  0.34755575547E+02  0.42761180568E+02  0.41800000000E+01 0.  1.
         -5    1    3    3    0  502  0.63106202264E+01 -0.97467336654E+01 -0.10343107897E+03  0.10416469287E+03  0.41800000000E+01 0.  1.
        -11    1    1    2    0    0 -0.46069556182E+02  0.49798988664E+02 -0.33067420385E+02  0.75470507946E+02  0.00000000000E+00 0.  1.
         11    1    1    2    0    0  0.39186776933E+02 -0.15500905421E+02 -0.19825583403E+02  0.46571829603E+02  0.00000000000E+00 0. -1.
</event>
<event>
 7    1  0.3001243E-009  0.3210699E+03  0.7561462E-02  0.1075158E+00
          2   -1    0    0  501    0  0.00000000000E+00  0.00000000000E+00  0.10096098343E+04  0.10096098343E+04  0.00000000000E+00 0.  1.
         -2   -1    0    0    0  501 -0.00000000000E+00 -0.00000000000E+00 -0.13573841134E+03  0.13573841134E+03  0.00000000000E+00 0. -1.
         25    2    1    2    0    0  0.11402358489E+03 -0.28541228495E+03  0.16706800188E+03  0.37151148797E+03  0.12509004009E+03 0.  0.
          5    1    3    3  502    0  0.39160257243E+02 -0.23529729229E+03  0.14309323943E+03  0.27819325851E+03  0.41800000000E+01 0.  1.
         -5    1    3    3    0  502  0.74863327649E+02 -0.50114992655E+02  0.23974762450E+02  0.93318229462E+02  0.41800000000E+01 0.  1.
        -11    1    1    2    0    0 -0.38562619582E+02  0.17790154524E+03  0.44910428621E+03  0.48459332984E+03  0.00000000000E+00 0.  1.
         11    1    1    2    0    0 -0.75460965310E+02  0.10751073971E+03  0.25769913488E+03  0.28924342786E+03  0.00000000000E+00 0. -1.
</event>
<event>
 7    1  0.3001243E-009  0.1220925E+03  0.7561462E-02  0.1239684E+00
         -2   -1    0    0    0  501 -0.00000000000E+00  0.00000000000E+00  0.96512757373E+02  0.96512757373E+02  0.00000000000E+00 0.  1.
          2   -1    0    0  501    0  0.00000000000E+00 -0.00000000000E+00 -0.22727221751E+03  0.22727221751E+03  0.00000000000E+00 0. -1.
         25    2    1    2    0    0 -0.66706696915E+02  0.31249092379E+02  0.47794366593E+01  0.14524760386E+03  0.12509090385E+03 0.  0.
          5    1    3    3  502    0 -0.89132601517E+02  0.58470057615E+02 -0.92057046907E+01  0.10707747517E+03  0.41800000000E+01 0.  1.
         -5    1    3    3    0  502  0.22425904602E+02 -0.27220965236E+02  0.13985141350E+02  0.38170128689E+02  0.41800000000E+01 0.  1.
        -11    1    1    2    0    0 -0.58630180457E+01 -0.28785689826E+02 -0.59220725932E+01  0.29967680310E+02  0.00000000000E+00 0.  1.
         11    1    1    2    0    0  0.72569714961E+02 -0.24634025527E+01 -0.12961682421E+03  0.14856969071E+03  0.00000000000E+00 0. -1.
</event>
<event>
 7    1  0.3001243E-009  0.2524573E+03  0.7561462E-02  0.1111762E+00
         -2   -1    0    0    0  501 -0.00000000000E+00  0.00000000000E+00  0.36066634264E+03  0.36066634264E+03  0.00000000000E+00 0.  1.
          2   -1    0    0  501    0  0.00000000000E+00 -0.00000000000E+00 -0.20864341810E+03  0.20864341810E+03  0.00000000000E+00 0. -1.
         25    2    1    2    0    0 -0.16195678548E+03 -0.18873248791E+03  0.43166682707E+02  0.28169895990E+03  0.12506394027E+03 0.  0.
          5    1    3    3  502    0 -0.69768981525E+02 -0.10152535784E+03  0.83034290482E+02  0.14861788205E+03  0.41800000000E+01 0.  1.
         -5    1    3    3    0  502 -0.92187803956E+02 -0.87207130072E+02 -0.39867607776E+02  0.13308107786E+03  0.41800000000E+01 0.  1.
        -11    1    1    2    0    0  0.41541412347E+02  0.89431561414E+02  0.84058761341E+02  0.12957456724E+03  0.00000000000E+00 0.  1.
         11    1    1    2    0    0  0.12041537313E+03  0.99300926501E+02  0.24797480493E+02  0.15803623360E+03  0.00000000000E+00 0. -1.
</event>
<event>
 7    1  0.3001243E-009  0.9057904E+02  0.7561462E-02  0.1301455E+00
         -1   -1    0    0    0  501 -0.00000000000E+00  0.00000000000E+00  0.11932761093E+03  0.11932761093E+03  0.00000000000E+00 0.  1.
          1   -1    0    0  501    0  0.00000000000E+00 -0.00000000000E+00 -0.12784973067E+03  0.12784973067E+03  0.00000000000E+00 0. -1.
         25    2    1    2    0    0 -0.92925584767E+01 -0.44650124488E+02 -0.40493707591E+02  0.13916855963E+03  0.12509261519E+03 0.  0.
          5    1    3    3  502    0  0.39044428879E+02 -0.29600042789E+02  0.25894390385E+02  0.55575370561E+02  0.41800000000E+01 0. -1.
         -5    1    3    3    0  502 -0.48336987356E+02 -0.15050081699E+02 -0.66388097976E+02  0.83593189069E+02  0.41800000000E+01 0. -1.
        -11    1    1    2    0    0  0.57885028982E+00 -0.17961468703E+02  0.40416948801E+02  0.44232105715E+02  0.00000000000E+00 0.  1.
         11    1    1    2    0    0  0.87137081869E+01  0.62611593191E+02 -0.84453609442E+01  0.63776676252E+02  0.00000000000E+00 0. -1.
</event>
<event>
 7    1  0.3001243E-009  0.1097385E+03  0.7561462E-02  0.1261055E+00
          1   -1    0    0  501    0  0.00000000000E+00  0.00000000000E+00  0.82443824114E+02  0.82443824114E+02  0.00000000000E+00 0. -1.
         -1   -1    0    0    0  501 -0.00000000000E+00 -0.00000000000E+00 -0.18755133326E+03  0.18755133326E+03  0.00000000000E+00 0.  1.
         25    2    1    2    0    0 -0.14880086891E+02  0.58093696675E+02 -0.51581786818E+02  0.14799566121E+03  0.12508293419E+03 0.  0.
          5    1    3    3  502    0  0.40936279271E+02 -0.15656933544E+02 -0.28923256132E+02  0.52677753121E+02  0.41800000000E+01 0.  1.
         -5    1    3    3    0  502 -0.55816366163E+02  0.73750630219E+02 -0.22658530686E+02  0.95317908087E+02  0.41800000000E+01 0.  1.
        -11    1    1    2    0    0  0.99574898864E+01  0.10281032714E+02 -0.51463598221E+02  0.53416787440E+02  0.00000000000E+00 0.  1.
         11    1    1    2    0    0  0.49225970051E+01 -0.68374729389E+02 -0.20621241069E+01  0.68582708726E+02  0.00000000000E+00 0. -1.
</event>
<event>
 7    1  0.3001243E-009  0.1565270E+03  0.7561462E-02  0.1192675E+00
          1   -1    0    0  501    0  0.00000000000E+00  0.00000000000E+00  0.40091201279E+02  0.40091201279E+02  0.00000000000E+00 0. -1.
         -1   -1    0    0    0  501 -0.00000000000E+00 -0.00000000000E+00 -0.89514168724E+03  0.89514168724E+03  0.00000000000E+00 0.  1.
         25    2    1    2    0    0  0.70502680155E+02  0.10689685179E+03 -0.66377375685E+03  0.68748397990E+03  0.12506421356E+03 0.  0.
          5    1    3    3  502    0  0.15178975527E+02 -0.28539613616E+02 -0.12654666926E+03  0.13067686384E+03  0.41800000000E+01 0. -1.
         -5    1    3    3    0  502  0.55323704629E+02  0.13543646541E+03 -0.53722708759E+03  0.55680711606E+03  0.41800000000E+01 0. -1.
        -11    1    1    2    0    0 -0.20309958063E+02 -0.56290479547E+01 -0.10077662410E+03  0.10295682854E+03  0.00000000000E+00 0.  1.
         11    1    1    2    0    0 -0.50192722092E+02 -0.10126780384E+03 -0.90500105008E+02  0.14479208007E+03  0.00000000000E+00 0. -1.
</event>
<event>
 7    1  0.3001243E-009  0.1172970E+03  0.7561462E-02  0.1247624E+00
          2   -1    0    0  501    0  0.00000000000E+00  0.00000000000E+00  0.34268556200E+02  0.34268556200E+02  0.00000000000E+00 0. -1.
         -2   -1    0    0    0  501 -0.00000000000E+00 -0.00000000000E+00 -0.47245818368E+03  0.47245818368E+03  0.00000000000E+00 0.  1.
         25    2    1    2    0    0  0.25108530312E+02  0.61688596235E+02 -0.24013200502E+03  0.27882976874E+03  0.12508692539E+03 0.  0.
          5    1    3    3  502    0 -0.75534923983E+01 -0.33755918802E+02 -0.10160544263E+03  0.10741347994E+03  0.41800000000E+01 0.  1.
         -5    1    3    3    0  502  0.32662022710E+02  0.95444515037E+02 -0.13852656239E+03  0.17141628880E+03  0.41800000000E+01 0.  1.
        -11    1    1    2    0    0  0.19602922060E+02 -0.48280134365E+02 -0.48362068208E+02  0.71092443825E+02  0.00000000000E+00 0. -1.
         11    1    1    2    0    0 -0.44711452372E+02 -0.13408461870E+02 -0.14969555425E+03  0.15680452731E+03  0.00000000000E+00 0.  1.
</event>
<event>
 7    1  0.3001243E-009  0.8359420E+02  0.7561462E-02  0.1319150E+00
          2   -1    0    0  501    0  0.00000000000E+00  0.00000000000E+00  0.16005852878E+03  0.16005852878E+03  0.00000000000E+00 0. -1.
         -2   -1    0    0    0  501 -0.00000000000E+00 -0.00000000000E+00 -0.73547043548E+02  0.73547043548E+02  0.00000000000E+00 0.  1.
         25    2    1    2    0    0 -0.12655249291E+02 -0.11906469978E+01  0.58485539844E+02  0.13866878375E+03  0.12508757029E+03 0.  0.
          5    1    3    3  502    0  0.34783584179E+02 -0.37210786992E+02  0.60155484479E+02  0.78934752231E+02  0.41800000000E+01 0.  1.
         -5    1    3    3    0  502 -0.47438833470E+02  0.36020139994E+02 -0.16699446347E+01  0.59734031517E+02  0.41800000000E+01 0.  1.
        -11    1    1    2    0    0  0.15687513685E+02  0.26545449251E+02 -0.22603764470E+02  0.38232043233E+02  0.00000000000E+00 0.  1.
         11    1    1    2    0    0 -0.30322643941E+01 -0.25354802253E+02  0.50629709863E+02  0.56704745352E+02  0.00000000000E+00 0. -1.
</event>
<event>
 7    1  0.3001243E-009  0.9093217E+02  0.7561462E-02  0.1300610E+00
         -2   -1    0    0    0  501 -0.00000000000E+00  0.00000000000E+00  0.12292308494E+03  0.12292308494E+03  0.00000000000E+00 0.  1.
          2   -1    0    0  501    0  0.00000000000E+00 -0.00000000000E+00 -0.11411794149E+03  0.11411794149E+03  0.00000000000E+00 0. -1.
         25    2    1    2    0    0  0.19335653426E+02  0.20025278668E+02 -0.39738976675E+02  0.13417013390E+03  0.12509020459E+03 0.  0.
          5    1    3    3  502    0  0.31646209119E+01  0.65283571979E+02 -0.52872854717E+02  0.84172268365E+02  0.41800000000E+01 0. -1.
         -5    1    3    3    0  502  0.16171032515E+02 -0.45258293311E+02  0.13133878041E+02  0.49997865538E+02  0.41800000000E+01 0. -1.
        -11    1    1    2    0    0 -0.37616723462E+02 -0.29251284902E+02  0.62127982721E+02  0.78297776401E+02  0.00000000000E+00 0.  1.
         11    1    1    2    0    0  0.18281070035E+02  0.92260062336E+01 -0.13583862595E+02  0.24573116116E+02  0.00000000000E+00 0. -1.
</event>
<event>
 7    1  0.3001243E-009  0.1498648E+03  0.7561462E-02  0.1200639E+00
          3   -1    0    0  501    0  0.00000000000E+00  0.00000000000E+00  0.12779376688E+03  0.12779376688E+03  0.00000000000E+00 0. -1.
         -3   -1    0    0    0  501 -0.00000000000E+00 -0.00000000000E+00 -0.27377084716E+03  0.27377084716E+03  0.00000000000E+00 0.  1.
         25    2    1    2    0    0 -0.69943940633E+02  0.10954983075E+03  0.96670333280E+01  0.18066502015E+03  0.12511226049E+03 0.  0.
          5    1    3    3  502    0 -0.84358613151E+02  0.11100214467E+03  0.41429534377E+02  0.14550508738E+03  0.41800000000E+01 0.  1.
         -5    1    3    3    0  502  0.14414672518E+02 -0.14523139268E+01 -0.31762501049E+02  0.35159932771E+02  0.41800000000E+01 0.  1.
        -11    1    1    2    0    0  0.61414381827E+02 -0.36127342439E+02 -0.11826217660E+03  0.13806829318E+03  0.00000000000E+00 0.  1.
         11    1    1    2    0    0  0.85295588055E+01 -0.73422488309E+02 -0.37381937018E+02  0.82831300714E+02  0.00000000000E+00 0. -1.
</event>
<event>
 7    1  0.3001243E-009  0.1130350E+03  0.7561462E-02  0.1255051E+00
          1   -1    0    0  501    0  0.00000000000E+00  0.00000000000E+00  0.18257798438E+03  0.18257798438E+03  0.00000000000E+00 0. -1.
         -1   -1    0    0    0  501 -0.00000000000E+00 -0.00000000000E+00 -0.77308389178E+02  0.77308389178E+02  0.00000000000E+00 0.  1.
         25    2    1    2    0    0  0.37054176033E+02  0.28488780929E+02  0.76770150084E+02  0.15403341727E+03  0.12509202649E+03 0.  0.
          5    1    3    3  502    0  0.72774427571E+02 -0.17409944647E+02  0.38176168974E+02  0.84107762772E+02  0.41800000000E+01 0. -1.
         -5    1    3    3    0  502 -0.35720251538E+02  0.45898725575E+02  0.38593981110E+02  0.69925654500E+02  0.41800000000E+01 0. -1.
        -11    1    1    2    0    0  0.18728875003E+02 -0.31830705738E+02  0.33347981421E+02  0.49759948267E+02  0.00000000000E+00 0. -1.
         11    1    1    2    0    0 -0.55783051036E+02  0.33419248096E+01 -0.48485363027E+01  0.56093008019E+02  0.00000000000E+00 0.  1.
</event>
<event>
 7    1  0.3001243E-009  0.1524730E+03  0.7561462E-02  0.1197467E+00
          2   -1    0    0  501    0  0.00000000000E+00  0.00000000000E+00  0.10840109934E+04  0.10840109934E+04  0.00000000000E+00 0. -1.
         -2   -1    0    0    0  501 -0.00000000000E+00 -0.00000000000E+00 -0.45577622506E+02  0.45577622506E+02  0.00000000000E+00 0.  1.
         25    2    1    2    0    0  0.67904487724E+02 -0.12873941315E+03  0.86324333577E+03  0.88432042355E+03  0.12509475931E+03 0.  0.
          5    1    3    3  502    0  0.66482515278E+02 -0.58764206187E+02  0.21984109365E+03  0.23710912176E+03  0.41800000000E+01 0.  1.
         -5    1    3    3    0  502  0.14219724457E+01 -0.69975206962E+02  0.64340224213E+03  0.64721130179E+03  0.41800000000E+01 0.  1.
        -11    1    1    2    0    0 -0.50375589121E+02  0.10533960571E+03  0.70110402903E+02  0.13619692033E+03  0.00000000000E+00 0.  1.
         11    1    1    2    0    0 -0.17528898603E+02  0.23399807437E+02  0.10507963219E+03  0.10907127200E+03  0.00000000000E+00 0. -1.
</event>
<event>
 7    1  0.3001243E-009  0.1071547E+03  0.7561462E-02  0.1265931E+00
          2   -1    0    0  501    0  0.00000000000E+00  0.00000000000E+00  0.12710161395E+03  0.12710161395E+03  0.00000000000E+00 0.  1.
         -2   -1    0    0    0  501 -0.00000000000E+00 -0.00000000000E+00 -0.18204975846E+03  0.18204975846E+03  0.00000000000E+00 0. -1.
         25    2    1    2    0    0 -0.51844948106E+01 -0.33368195585E+01 -0.13639377834E+03  0.18517190611E+03  0.12508940280E+03 0.  0.
          5    1    3    3  502    0  0.56437653409E+02 -0.16044746531E+02 -0.87245844986E+02  0.10522334570E+03  0.41800000000E+01 0.  1.
         -5    1    3    3    0  502 -0.61622148219E+02  0.12707926973E+02 -0.49147933349E+02  0.79948560410E+02  0.41800000000E+01 0.  1.
        -11    1    1    2    0    0  0.44279091426E+02  0.21614445203E+02  0.34131935911E+02  0.59940063630E+02  0.00000000000E+00 0. -1.
         11    1    1    2    0    0 -0.39094596615E+02 -0.18277625645E+02  0.47313697916E+02  0.64039402669E+02  0.00000000000E+00 0.  1.
</event>
<event>
 7    1  0.3001243E-009  0.1069331E+03  0.7561462E-02  0.1266357E+00
          1   -1    0    0  501    0  0.00000000000E+00  0.00000000000E+00  0.30981480359E+02  0.30981480359E+02  0.00000000000E+00 0. -1.
         -1   -1    0    0    0  501 -0.00000000000E+00 -0.00000000000E+00 -0.53725475141E+03  0.53725475141E+03  0.00000000000E+00 0.  1.
         25    2    1    2    0    0  0.56712654732E+02 -0.38165251841E+02 -0.31071970526E+03  0.34185717117E+03  0.12508668429E+03 0.  0.
          5    1    3    3  502    0  0.21460908648E+02 -0.57777028347E+02 -0.54293381139E+02  0.82243536161E+02  0.41800000000E+01 0. -1.
         -5    1    3    3    0  502  0.35251746084E+02  0.19611776506E+02 -0.25642632412E+03  0.25961363501E+03  0.41800000000E+01 0. -1.
        -11    1    1    2    0    0 -0.80539979441E+02  0.25100583399E+02 -0.16616107442E+03  0.18634975242E+03  0.00000000000E+00 0.  1.
         11    1    1    2    0    0  0.23827324709E+02  0.13064668442E+02 -0.29392491370E+02  0.40029308178E+02  0.00000000000E+00 0. -1.
</event>
<event>
 7    1  0.3001243E-009  0.9743773E+02  0.7561462E-02  0.1285778E+00
          3   -1    0    0  501    0  0.00000000000E+00  0.00000000000E+00  0.16065438722E+03  0.16065438722E+03  0.00000000000E+00 0. -1.
         -3   -1    0    0    0  501 -0.00000000000E+00 -0.00000000000E+00 -0.82408549409E+02  0.82408549409E+02  0.00000000000E+00 0.  1.
         25    2    1    2    0    0 -0.38258046790E+02  0.22458188826E+01  0.42626298887E+02  0.13760080756E+03  0.12509300155E+03 0.  0.
          5    1    3    3  502    0  0.18936870211E+02 -0.48466400980E+02  0.54146558217E+01  0.52482263433E+02  0.41800000000E+01 0.  1.
         -5    1    3    3    0  502 -0.57194917000E+02  0.50712219863E+02  0.37211643065E+02  0.85118544123E+02  0.41800000000E+01 0.  1.
        -11    1    1    2    0    0  0.68464952069E+01  0.24142722257E+02  0.54726673887E+02  0.60205933008E+02  0.00000000000E+00 0. -1.
         11    1    1    2    0    0  0.31411551583E+02 -0.26388541140E+02 -0.19107134958E+02  0.45256196069E+02  0.00000000000E+00 0.  1.
</event>
<event>
 7    1  0.3001243E-009  0.7595603E+02  0.7561462E-02  0.1340936E+00
         -2   -1    0    0    0  501 -0.00000000000E+00  0.00000000000E+00  0.19674822613E+03  0.19674822613E+03  0.00000000000E+00 0. -1.
          2   -1    0    0  501    0  0.00000000000E+00 -0.00000000000E+00 -0.62419855443E+02  0.62419855443E+02  0.00000000000E+00 0.  1.
         25    2    1    2    0    0  0.57613666338E+01 -0.27437900340E+01  0.10850522110E+03  0.16572596216E+03  0.12510391601E+03 0.  0.
          5    1    3    3  502    0 -0.31241949213E+02  0.14504891871E+02  0.11850969301E+03  0.12348469952E+03  0.41800000000E+01 0. -1.
         -5    1    3    3    0  502  0.37003315847E+02 -0.17248681906E+02 -0.10004471912E+02  0.42241262640E+02  0.41800000000E+01 0. -1.
        -11    1    1    2    0    0  0.32290351126E+02 -0.13244219783E+02 -0.12546944587E+02  0.37087760136E+02  0.00000000000E+00 0.  1.
         11    1    1    2    0    0 -0.38051717759E+02  0.15988009817E+02  0.38370094180E+02  0.56354359279E+02  0.00000000000E+00 0. -1.
</event>
<event>
 7    1  0.3001243E-009  0.1098881E+03  0.7561462E-02  0.1260777E+00
          1   -1    0    0  501    0  0.00000000000E+00  0.00000000000E+00  0.30280977920E+03  0.30280977920E+03  0.00000000000E+00 0. -1.
         -1   -1    0    0    0  501 -0.00000000000E+00 -0.00000000000E+00 -0.48554016300E+02  0.48554016300E+02  0.00000000000E+00 0.  1.
         25    2    1    2    0    0 -0.67929424547E+00  0.53585468271E+02  0.15488755787E+03  0.20618005425E+03  0.12509274694E+03 0.  0.
          5    1    3    3  502    0  0.48463878971E+02 -0.82723487781E+01  0.94667722794E+02  0.10675499735E+03  0.41800000000E+01 0. -1.
         -5    1    3    3    0  502 -0.49143173216E+02  0.61857817049E+02  0.60219835076E+02  0.99425056905E+02  0.41800000000E+01 0. -1.
        -11    1    1    2    0    0  0.29461254482E+02  0.11450937385E+01  0.16325332177E+01  0.29528662686E+02  0.00000000000E+00 0.  1.
         11    1    1    2    0    0 -0.28781960237E+02 -0.54730562010E+02  0.97735671806E+02  0.11565507856E+03  0.00000000000E+00 0. -1.
</event>
<event>
 7    1  0.3001243E-009  0.1441683E+03  0.7561462E-02  0.1207828E+00
          3   -1    0    0  501    0  0.00000000000E+00  0.00000000000E+00  0.45068049879E+03  0.45068049879E+03  0.00000000000E+00 0. -1.
         -3   -1    0    0    0  501 -0.00000000000E+00 -0.00000000000E+00 -0.55570574511E+02  0.55570574511E+02  0.00000000000E+00 0.  1.
         25    2    1    2    0    0  0.94145745301E+02 -0.39403469422E+02  0.12917242757E+03  0.20675589060E+03  0.12508568060E+03 0.  0.
          5    1    3    3  502    0  0.10349361346E+02 -0.70905535192E+02  0.59750194170E+02  0.93393052764E+02  0.41800000000E+01 0. -1.
         -5    1    3    3    0  502  0.83796383956E+02  0.31502065770E+02  0.69422233397E+02  0.11336283783E+03  0.41800000000E+01 0. -1.
        -11    1    1    2    0    0 -0.58765693758E+02 -0.16267908452E+02  0.18664522121E+03  0.19635297351E+03  0.00000000000E+00 0. -1.
         11    1    1    2    0    0 -0.35380051544E+02  0.55671377874E+02  0.79292275502E+02  0.10314220919E+03  0.00000000000E+00 0.  1.
</event>
<event>
 7    1  0.3001243E-009  0.3020036E+03  0.7561462E-02  0.1084243E+00
          2   -1    0    0  501    0  0.00000000000E+00  0.00000000000E+00  0.12078744611E+04  0.12078744611E+04  0.00000000000E+00 0. -1.
         -2   -1    0    0    0  501 -0.00000000000E+00 -0.00000000000E+00 -0.87063952275E+02  0.87063952275E+02  0.00000000000E+00 0.  1.
         25    2    1    2    0    0  0.20489553995E+03  0.21252768386E+03  0.41021535484E+03  0.52064622039E+03  0.12508257578E+03 0.  0.
          5    1    3    3  502    0  0.10953976721E+03  0.13340686400E+03  0.33155243965E+03  0.37381926729E+03  0.41800000000E+01 0.  1.
         -5    1    3    3    0  502  0.95355772740E+02  0.79120819851E+02  0.78662915191E+02  0.14682695309E+03  0.41800000000E+01 0.  1.
        -11    1    1    2    0    0 -0.19733219164E+03 -0.15931616449E+03  0.59613185224E+03  0.64783857509E+03  0.00000000000E+00 0.  1.
         11    1    1    2    0    0 -0.75633483127E+01 -0.53211519370E+02  0.11446330174E+03  0.12645361789E+03  0.00000000000E+00 0. -1.
</event>
<event>
 7    1  0.3001243E-009  0.1311403E+03  0.7561462E-02  0.1225773E+00
          3   -1    0    0  501    0  0.00000000000E+00  0.00000000000E+00  0.59708064611E+02  0.59708064611E+02  0.00000000000E+00 0. -1.
         -3   -1    0    0    0  501 -0.00000000000E+00 -0.00000000000E+00 -0.37189804691E+03  0.37189804691E+03  0.00000000000E+00 0.  1.
         25    2    1    2    0    0 -0.58847797781E+02  0.45826348209E+02 -0.26794378436E+03  0.30496822505E+03  0.12509448118E+03 0.  0.
          5    1    3    3  502    0 -0.89159248786E+02  0.63186740263E+02 -0.18556790061E+03  0.21539464693E+03  0.41800000000E+01 0.  1.
         -5    1    3    3    0  502  0.30311451006E+02 -0.17360392055E+02 -0.82375883746E+02  0.89573578120E+02  0.41800000000E+01 0.  1.
        -11    1    1    2    0    0 -0.56149863412E+01  0.22862338764E+02 -0.15356863488E+02  0.28107790051E+02  0.00000000000E+00 0.  1.
         11    1    1    2    0    0  0.64462784122E+02 -0.68688686973E+02 -0.28889334452E+02  0.98530096417E+02  0.00000000000E+00 0. -1.
</event>
<event>
 7    1  0.3001243E-009  0.7364067E+02  0.7561462E-02  0.1348133E+00
         -1   -1    0    0    0  501 -0.00000000000E+00  0.00000000000E+00  0.16464151532E+03  0.16464151532E+03  0.00000000000E+00 0.  1.
          1   -1    0    0  501    0  0.00000000000E+00 -0.00000000000E+00 -0.91158522821E+02  0.91158522821E+02  0.00000000000E+00 0. -1.
         25    2    1    2    0    0 -0.50037983730E+02 -0.22987459890E+02  0.48868515288E+02  0.14515321735E+03  0.12509636923E+03 0.  0.
          5    1    3    3  502    0 -0.19211897644E+02 -0.47713579108E+02 -0.27932778045E+02  0.58680449314E+02  0.41800000000E+01 0.  1.
         -5    1    3    3    0  502 -0.30826086086E+02  0.24726119218E+02  0.76801293333E+02  0.86472768040E+02  0.41800000000E+01 0.  1.
        -11    1    1    2    0    0  0.34557491905E+02  0.20716847765E+02  0.59818467091E+02  0.72122514052E+02  0.00000000000E+00 0.  1.
         11    1    1    2    0    0  0.15480491825E+02  0.22706121252E+01 -0.35203989875E+02  0.38524306739E+02  0.00000000000E+00 0. -1.
</event>
<event>
 7    1  0.3001243E-009  0.1196061E+03  0.7561462E-02  0.1243748E+00
          1   -1    0    0  501    0  0.00000000000E+00  0.00000000000E+00  0.34361458065E+03  0.34361458065E+03  0.00000000000E+00 0. -1.
         -1   -1    0    0    0  501 -0.00000000000E+00 -0.00000000000E+00 -0.77734835754E+02  0.77734835754E+02  0.00000000000E+00 0.  1.
         25    2    1    2    0    0  0.81661005387E+02 -0.69058074207E+02  0.21694602688E+03  0.27230626625E+03  0.12509031397E+03 0.  0.
          5    1    3    3  502    0  0.33191247643E+02 -0.70934926892E+02  0.38557223772E+02  0.87393104295E+02  0.41800000000E+01 0. -1.
         -5    1    3    3    0  502  0.48469757745E+02  0.18768526856E+01  0.17838880310E+03  0.18491316196E+03  0.41800000000E+01 0. -1.
        -11    1    1    2    0    0 -0.76258034738E+02  0.47427267696E+02  0.73369715002E+02  0.11596442844E+03  0.00000000000E+00 0. -1.
         11    1    1    2    0    0 -0.54029706491E+01  0.21630806511E+02 -0.24435996980E+02  0.33078721719E+02  0.00000000000E+00 0.  1.
</event>
<event>
 7    1  0.3001243E-009  0.9303490E+02  0.7561462E-02  0.1295664E+00
         -1   -1    0    0    0  501 -0.00000000000E+00  0.00000000000E+00  0.20062165487E+02  0.20062165487E+02  0.00000000000E+00 0.  1.
          1   -1    0    0  501    0  0.00000000000E+00 -0.00000000000E+00 -0.72693583527E+03  0.72693583527E+03  0.00000000000E+00 0. -1.
         25    2    1    2    0    0 -0.60851565231E+02 -0.53255710232E+01 -0.37248872912E+03  0.39764954508E+03  0.12508410245E+03 0.  0.
          5    1    3    3  502    0  0.15594920941E+02  0.13338412391E+02 -0.46342807068E+01  0.21449096995E+02  0.41800000000E+01 0. -1.
         -5    1    3    3    0  502 -0.76446486171E+02 -0.18663983414E+02 -0.36785444841E+03  0.37620044808E+03  0.41800000000E+01 0. -1.
        -11    1    1    2    0    0  0.28109308197E+02  0.33074222516E+02 -0.25891575873E+03  0.26252886989E+03  0.00000000000E+00 0. -1.
         11    1    1    2    0    0  0.32742257034E+02 -0.27748651493E+02 -0.75469181932E+02  0.86819585790E+02  0.00000000000E+00 0.  1.
</event>
<event>
 7    1  0.3001243E-009  0.7126349E+02  0.7561462E-02  0.1355848E+00
          1   -1    0    0  501    0  0.00000000000E+00  0.00000000000E+00  0.70443300555E+02  0.70443300555E+02  0.00000000000E+00 0. -1.
         -1   -1    0    0    0  501 -0.00000000000E+00 -0.00000000000E+00 -0.20555971582E+03  0.20555971582E+03  0.00000000000E+00 0.  1.
         25    2    1    2    0    0 -0.14407766672E+02  0.24414602162E+02 -0.12413271140E+03  0.17849372960E+03  0.12508966755E+03 0.  0.
          5    1    3    3  502    0 -0.48901597011E+02  0.45684730426E+02 -0.25426821013E+02  0.71710922537E+02  0.41800000000E+01 0. -1.
         -5    1    3    3    0  502  0.34493830339E+02 -0.21270128264E+02 -0.98705890382E+02  0.10678280706E+03  0.41800000000E+01 0. -1.
        -11    1    1    2    0    0 -0.44209351906E+01 -0.10285073792E+02 -0.50383680192E+02  0.51612427191E+02  0.00000000000E+00 0.  1.
         11    1    1    2    0    0  0.18828701862E+02 -0.14129528370E+02  0.39399976320E+02  0.45896859586E+02  0.00000000000E+00 0. -1.
</event>
<event>
 7    1  0.3001243E-009  0.1726998E+03  0.7561462E-02  0.1175061E+00
         -2   -1    0    0    0  501 -0.00000000000E+00  0.00000000000E+00  0.41864402086E+03  0.41864402086E+03  0.00000000000E+00 0.  1.
          2   -1    0    0  501    0  0.00000000000E+00 -0.00000000000E+00 -0.10491120097E+03  0.10491120097E+03  0.00000000000E+00 0. -1.
         25    2    1    2    0    0 -0.10027452123E+03 -0.11149987960E+03  0.41716430901E+02  0.19969449912E+03  0.12510167711E+03 0.  0.
          5    1    3    3  502    0 -0.84724031690E+02 -0.33477030252E+01  0.28524934117E+02  0.89557316439E+02  0.41800000000E+01 0. -1.
         -5    1    3    3    0  502 -0.15550489539E+02 -0.10815217657E+03  0.13191496784E+02  0.11013718268E+03  0.41800000000E+01 0. -1.
        -11    1    1    2    0    0  0.70911331326E+02  0.65162095524E+02  0.24388453887E+03  0.26221019031E+03  0.00000000000E+00 0.  1.
         11    1    1    2    0    0  0.29363189902E+02  0.46337784074E+02  0.28131850114E+02  0.61650532398E+02  0.00000000000E+00 0. -1.
</event>
<event>
 7    1  0.3001243E-009  0.1026024E+03  0.7561462E-02  0.1274917E+00
         -1   -1    0    0    0  501 -0.00000000000E+00  0.00000000000E+00  0.11383265226E+03  0.11383265226E+03  0.00000000000E+00 0.  1.
          1   -1    0    0  501    0  0.00000000000E+00 -0.00000000000E+00 -0.11196061432E+03  0.11196061432E+03  0.00000000000E+00 0. -1.
         25    2    1    2    0    0 -0.27360843937E+02  0.46736987788E+01 -0.21563996667E+01  0.12815609181E+03  0.12509546181E+03 0.  0.
          5    1    3    3  502    0 -0.57398967717E+02  0.39638929739E+02  0.25323495059E+02  0.74327908943E+02  0.41800000000E+01 0. -1.
         -5    1    3    3    0  502  0.30038123780E+02 -0.34965230960E+02 -0.27479894725E+02  0.53828182864E+02  0.41800000000E+01 0. -1.
        -11    1    1    2    0    0 -0.13183481967E+02  0.31848932780E+02  0.21155314810E+02  0.40443863078E+02  0.00000000000E+00 0.  1.
         11    1    1    2    0    0  0.40544325904E+02 -0.36522631558E+02 -0.17126877205E+02  0.57193311687E+02  0.00000000000E+00 0. -1.
</event>
<event>
 7    1  0.3001243E-009  0.1135423E+03  0.7561462E-02  0.1254147E+00
          2   -1    0    0  501    0  0.00000000000E+00  0.00000000000E+00  0.10577313429E+04  0.10577313429E+04  0.00000000000E+00 0. -1.
         -2   -1    0    0    0  501 -0.00000000000E+00 -0.00000000000E+00 -0.12445178374E+02  0.12445178374E+02  0.00000000000E+00 0.  1.
         25    2    1    2    0    0  0.36758806971E+02 -0.12257811436E+01  0.61261423212E+03  0.62633627763E+03  0.12509285691E+03 0.  0.
          5    1    3    3  502    0 -0.24265227823E+02  0.46370390684E+02  0.27125066591E+03  0.27628501691E+03  0.41800000000E+01 0.  1.
         -5    1    3    3    0  502  0.61024034794E+02 -0.47596171827E+02  0.34136356621E+03  0.35005126072E+03  0.41800000000E+01 0.  1.
        -11    1    1    2    0    0 -0.61768801416E+02  0.20952161860E+02  0.24760004546E+03  0.25604718399E+03  0.00000000000E+00 0.  1.
         11    1    1    2    0    0  0.25009994444E+02 -0.19726380717E+02  0.18507188697E+03  0.18779305968E+03  0.00000000000E+00 0. -1.
</event>
<event>
 7    1  0.3001243E-009  0.1509941E+03  0.7561462E-02  0.1199257E+00
         -1   -1    0    0    0  501 -0.00000000000E+00  0.00000000000E+00  0.48033543551E+02  0.48033543551E+02  0.00000000000E+00 0.  1.
          1   -1    0    0  501    0  0.00000000000E+00 -0.00000000000E+00 -0.89307539231E+03  0.89307539231E+03  0.00000000000E+00 0. -1.
         25    2    1    2    0    0  0.69777786698E+02 -0.11892084792E+03 -0.69049859539E+03  0.71515509155E+03  0.12508951651E+03 0.  0.
          5    1    3    3  502    0 -0.20720148567E+02 -0.27702035191E+02 -0.34073510986E+03  0.34251221117E+03  0.41800000000E+01 0. -1.
         -5    1    3    3    0  502  0.90497935265E+02 -0.91218812733E+02 -0.34976348553E+03  0.37264288037E+03  0.41800000000E+01 0. -1.
        -11    1    1    2    0    0 -0.19096996482E+02  0.45713496872E+02 -0.23124453146E+01  0.49596032847E+02  0.00000000000E+00 0.  1.
         11    1    1    2    0    0 -0.50680790217E+02  0.73207351052E+02 -0.15223080806E+03  0.17635781147E+03  0.00000000000E+00 0. -1.
</event>
<event>
 7    1  0.3001243E-009  0.1030966E+03  0.7561462E-02  0.1273916E+00
         -2   -1    0    0    0  501 -0.00000000000E+00  0.00000000000E+00  0.37899702436E+02  0.37899702436E+02  0.00000000000E+00 0.  1.
          2   -1    0    0  501    0  0.00000000000E+00 -0.00000000000E+00 -0.41843936694E+03  0.41843936694E+03  0.00000000000E+00 0. -1.
         25    2    1    2    0    0  0.30701243884E+02  0.10123987341E+02 -0.11060134710E+03  0.17007190224E+03  0.12508689961E+03 0.  0.
          5    1    3    3  502    0  0.35361046067E+02  0.58718341310E+02 -0.97675937292E+02  0.11939978355E+03  0.41800000000E+01 0.  1.
         -5    1    3    3    0  502 -0.46598021830E+01 -0.48594353969E+02 -0.12925409811E+02  0.50672118693E+02  0.41800000000E+01 0.  1.
        -11    1    1    2    0    0  0.27522518090E+02 -0.12556791309E+02 -0.47445038306E+02  0.56268940543E+02  0.00000000000E+00 0.  1.
         11    1    1    2    0    0 -0.58223761973E+02  0.24328039673E+01 -0.22249327910E+03  0.22999822660E+03  0.00000000000E+00 0. -1.
</event>
<event>
 7    1  0.3001243E-009  0.1245766E+03  0.7561462E-02  0.1235732E+00
          1   -1    0    0  501    0  0.00000000000E+00  0.00000000000E+00  0.24369170650E+03  0.24369170650E+03  0.00000000000E+00 0.  1.
         -1   -1    0    0    0  501 -0.00000000000E+00 -0.00000000000E+00 -0.87082612098E+02  0.87082612098E+02  0.00000000000E+00 0. -1.
         25    2    1    2    0    0 -0.71266220343E+02  0.53893344882E+02  0.39715870552E+02  0.15879003771E+03  0.12511418351E+03 0.  0.
          5    1    3    3  502    0  0.28528679521E+02  0.44959487263E+02  0.15755546203E+02  0.55686180389E+02  0.41800000000E+01 0.  1.
         -5    1    3    3    0  502 -0.99794899864E+02  0.89338576189E+01  0.23960324349E+02  0.10310385732E+03  0.41800000000E+01 0.  1.
        -11    1    1    2    0    0  0.22277547092E+02 -0.37837505441E+02 -0.34732307523E+00  0.43909982416E+02  0.00000000000E+00 0. -1.
         11    1    1    2    0    0  0.48988673251E+02 -0.16055839441E+02  0.11724054692E+03  0.12807429847E+03  0.00000000000E+00 0.  1.
</event>
<event>
 7    1  0.3001243E-009  0.7545455E+02  0.7561462E-02  0.1342469E+00
          2   -1    0    0  501    0  0.00000000000E+00  0.00000000000E+00  0.79683311846E+02  0.79683311846E+02  0.00000000000E+00 0. -1.
         -2   -1    0    0    0  501 -0.00000000000E+00 -0.00000000000E+00 -0.25891381385E+03  0.25891381385E+03  0.00000000000E+00 0.  1.
         25    2    1    2    0    0 -0.17425953825E+02  0.66698538867E+02 -0.19597097338E+02  0.14416702814E+03  0.12509087427E+03 0.  0.
          5    1    3    3  502    0 -0.32001763145E+02  0.41780254889E+02 -0.68948793236E+02  0.86839570655E+02  0.41800000000E+01 0.  1.
         -5    1    3    3    0  502  0.14575809320E+02  0.24918283978E+02  0.49351695897E+02  0.57327457485E+02  0.41800000000E+01 0.  1.
        -11    1    1    2    0    0  0.13811118895E+02 -0.51023635558E+02 -0.16812578080E+03  0.17623971334E+03  0.00000000000E+00 0.  1.
         11    1    1    2    0    0  0.36148349295E+01 -0.15674903309E+02  0.84923761333E+01  0.18190384210E+02  0.00000000000E+00 0. -1.
</event>
<event>
 7    1  0.3001243E-009  0.1206137E+03  0.7561462E-02  0.1242088E+00
          1   -1    0    0  501    0  0.00000000000E+00  0.00000000000E+00  0.70205330294E+02  0.70205330294E+02  0.00000000000E+00 0. -1.
         -1   -1    0    0    0  501 -0.00000000000E+00 -0.00000000000E+00 -0.35046170194E+03  0.35046170194E+03  0.00000000000E+00 0.  1.
         25    2    1    2    0    0  0.71914024860E+02  0.86038283223E+02 -0.14175390339E+03  0.21981063043E+03  0.12509328908E+03 0.  0.
          5    1    3    3  502    0 -0.85900382708E+00  0.35239240114E+02 -0.12429424065E+03  0.12926357798E+03  0.41800000000E+01 0. -1.
         -5    1    3    3    0  502  0.72773028687E+02  0.50799043109E+02 -0.17459662737E+02  0.90547052453E+02  0.41800000000E+01 0. -1.
        -11    1    1    2    0    0 -0.18143270077E+02 -0.36599562992E+01 -0.88668935397E+02  0.90580095130E+02  0.00000000000E+00 0.  1.
         11    1    1    2    0    0 -0.53770754783E+02 -0.82378326924E+02 -0.49833532858E+02  0.11027630667E+03  0.00000000000E+00 0. -1.
</event>
<event>
 7    1  0.3001243E-009  0.2235101E+03  0.7561462E-02  0.1131293E+00
         -1   -1    0    0    0  501 -0.00000000000E+00  0.00000000000E+00  0.68086514076E+02  0.68086514076E+02  0.00000000000E+00 0.  1.
          1   -1    0    0  501    0  0.00000000000E+00 -0.00000000000E+00 -0.88879548740E+03  0.88879548740E+03  0.00000000000E+00 0. -1.
         25    2    1    2    0    0  0.19923314734E+03  0.77431051509E+02 -0.52278902914E+03  0.57848685262E+03  0.12509698208E+03 0.  0.
          5    1    3    3  502    0  0.10463678828E+03  0.38123502292E+02 -0.12395788337E+03  0.16668919622E+03  0.41800000000E+01 0.  1.
         -5    1    3    3    0  502  0.94596359055E+02  0.39307549217E+02 -0.39883114578E+03  0.41179765639E+03  0.41800000000E+01 0.  1.
        -11    1    1    2    0    0 -0.12296204443E+03  0.19377551184E+01 -0.16579017043E+03  0.20642141332E+03  0.00000000000E+00 0.  1.
         11    1    1    2    0    0 -0.76271102905E+02 -0.79368806627E+02 -0.13212977375E+03  0.17197373554E+03  0.00000000000E+00 0. -1.
</event>
<event>
 7    1  0.3001243E-009  0.1359847E+03  0.7561462E-02  0.1218836E+00
          2   -1    0    0  501    0  0.00000000000E+00  0.00000000000E+00  0.34517752860E+03  0.34517752860E+03  0.00000000000E+00 0.  1.
         -2   -1    0    0    0  501 -0.00000000000E+00 -0.00000000000E+00 -0.97388763169E+02  0.97388763169E+02  0.00000000000E+00 0. -1.
         25    2    1    2    0    0 -0.25951475585E+02  0.12259847020E+03  0.57389633261E+02  0.18613266579E+03  0.12509170752E+03 0.  0.
          5    1    3    3  502    0 -0.18212474408E+02  0.47376653468E+02  0.90209499344E+02  0.10359279748E+03  0.41800000000E+01 0.  1.
         -5    1    3    3    0  502 -0.77390011776E+01  0.75221816727E+02 -0.32819866084E+02  0.82539868310E+02  0.41800000000E+01 0.  1.
        -11    1    1    2    0    0 -0.21177615219E+02 -0.76513530403E+02  0.16968562547E+03  0.18733932639E+03  0.00000000000E+00 0.  1.
         11    1    1    2    0    0  0.47129090805E+02 -0.46084939792E+02  0.20713506699E+02  0.69094299587E+02  0.00000000000E+00 0. -1.
</event>
<event>
 7    1  0.3001243E-009  0.1517864E+03  0.7561462E-02  0.1198295E+00
          4   -1    0    0  501    0  0.00000000000E+00  0.00000000000E+00  0.32644668928E+03  0.32644668928E+03  0.00000000000E+00 0. -1.
         -4   -1    0    0    0  501 -0.00000000000E+00 -0.00000000000E+00 -0.73998580127E+02  0.73998580127E+02  0.00000000000E+00 0.  1.
         25    2    1    2    0    0  0.98401059778E+02 -0.51377659570E+02  0.11480763095E+03  0.20285623706E+03  0.12508968112E+03 0.  0.
          5    1    3    3  502    0 -0.29595576670E+02 -0.16313305927E+02  0.29344233809E+02  0.44950846116E+02  0.41800000000E+01 0. -1.
         -5    1    3    3    0  502  0.12799663645E+03 -0.35064353643E+02  0.85463397143E+02  0.15790539095E+03  0.41800000000E+01 0. -1.
        -11    1    1    2    0    0 -0.80013145324E+02  0.73034113856E+02  0.12776643169E+03  0.16751222725E+03  0.00000000000E+00 0. -1.
         11    1    1    2    0    0 -0.18387914454E+02 -0.21656454286E+02  0.98740465113E+01  0.30076805095E+02  0.00000000000E+00 0.  1.
</event>
<event>
 7    1  0.3001243E-009  0.1172844E+03  0.7561462E-02  0.1247645E+00
          2   -1    0    0  501    0  0.00000000000E+00  0.00000000000E+00  0.26290513113E+03  0.26290513113E+03  0.00000000000E+00 0. -1.
         -2   -1    0    0    0  501 -0.00000000000E+00 -0.00000000000E+00 -0.66731837081E+02  0.66731837081E+02  0.00000000000E+00 0.  1.
         25    2    1    2    0    0 -0.37054457903E+02  0.69067223519E+02  0.11314739236E+03  0.18599188878E+03  0.12508931242E+03 0.  0.
          5    1    3    3  502    0 -0.36764088990E+02  0.89541434100E+02  0.12786934746E+03  0.16042851704E+03  0.41800000000E+01 0. -1.
         -5    1    3    3    0  502 -0.29036891262E+00 -0.20474210581E+02 -0.14721955101E+02  0.25563371745E+02  0.41800000000E+01 0. -1.
        -11    1    1    2    0    0  0.13934027785E+02  0.20218248278E+02  0.22683571676E+02  0.33428716962E+02  0.00000000000E+00 0. -1.
         11    1    1    2    0    0  0.23120430118E+02 -0.89285471798E+02  0.60342330016E+02  0.11021636246E+03  0.00000000000E+00 0.  1.
</event>
<event>
 6    1  0.3001243E-009  0.1493824E+03  0.7561462E-02  0.1201234E+00
         -1   -1    0    0    0  501 -0.00000000000E+00  0.00000000000E+00  0.19920178109E+03  0.19920178109E+03  0.00000000000E+00 0.  1.
          1   -1    0    0  501    0  0.00000000000E+00 -0.00000000000E+00 -0.17545513216E+03  0.17545513216E+03  0.00000000000E+00 0. -1.
          5    1    1    2  502    0 -0.13218133803E+03 -0.30992940986E+02  0.14372309750E+01  0.13583816308E+03  0.41800000000E+01 0.  1.
         -5    1    1    2    0  502 -0.50052425679E+01  0.21500958478E+02 -0.52114600492E+02  0.56751631281E+02  0.41800000000E+01 0.  1.
        -11    1    1    2    0    0  0.80400634509E+02  0.19678123889E+02 -0.61121428139E+01  0.82999089628E+02  0.00000000000E+00 0. -1.
         11    1    1    2    0    0  0.56785946093E+02 -0.10186141381E+02  0.80536161267E+02  0.99068029261E+02  0.00000000000E+00 0.  1.
</event>
<event>
 7    1  0.3001243E-009  0.1116971E+03  0.7561462E-02  0.1257459E+00
         -2   -1    0    0    0  501 -0.00000000000E+00  0.00000000000E+00  0.18664623780E+03  0.18664623780E+03  0.00000000000E+00 0.  1.
          2   -1    0    0  501    0  0.00000000000E+00 -0.00000000000E+00 -0.93431052023E+02  0.93431052023E+02  0.00000000000E+00 0. -1.
         25    2    1    2    0    0  0.30724977248E+02  0.62558534624E+02  0.78460106394E+02  0.16328238522E+03  0.12509018565E+03 0.  0.
          5    1    3    3  502    0  0.75919994834E+02  0.16185722086E+02  0.49979207329E+02  0.92418703628E+02  0.41800000000E+01 0.  1.
         -5    1    3    3    0  502 -0.45195017587E+02  0.46372812538E+02  0.28480899066E+02  0.70863681593E+02  0.41800000000E+01 0.  1.
        -11    1    1    2    0    0 -0.40705809556E+02 -0.53971039776E+02  0.46753648987E+02  0.82193307269E+02  0.00000000000E+00 0.  1.
         11    1    1    2    0    0  0.99808323087E+01 -0.85874948480E+01 -0.31998569604E+02  0.34601597334E+02  0.00000000000E+00 0. -1.
</event>
<event>
 7    1  0.3001243E-009  0.1128636E+03  0.7561462E-02  0.1255357E+00
         -1   -1    0    0    0  501 -0.00000000000E+00  0.00000000000E+00  0.79767961254E+02  0.79767961254E+02  0.00000000000E+00 0.  1.
          1   -1    0    0  501    0  0.00000000000E+00 -0.00000000000E+00 -0.24856598976E+03  0.24856598976E+03  0.00000000000E+00 0. -1.
         25    2    1    2    0    0 -0.14550113905E+02 -0.87222493045E+02 -0.10811208354E+03  0.18749848249E+03  0.12509192308E+03 0.  0.
          5    1    3    3  502    0  0.28042357834E+02 -0.85610748607E+01  0.16610985341E+02  0.33956782381E+02  0.41800000000E+01 0. -1.
         -5    1    3    3    0  502 -0.42592471739E+02 -0.78661418184E+02 -0.12472306889E+03  0.15354170011E+03  0.41800000000E+01 0. -1.
        -11    1    1    2    0    0  0.37583277879E+02  0.61100529358E+02 -0.74451972021E+02  0.10338700886E+03  0.00000000000E+00 0. -1.
         11    1    1    2    0    0 -0.23033163974E+02  0.26121963687E+02  0.13766027065E+02  0.37448459657E+02  0.00000000000E+00 0.  1.
</event>
<event>
 7    1  0.3001243E-009  0.1863645E+03  0.7561462E-02  0.1161782E+00
          1   -1    0    0  501    0  0.00000000000E+00  0.00000000000E+00  0.16662828068E+03  0.16662828068E+03  0.00000000000E+00 0. -1.
         -1   -1    0    0    0  501 -0.00000000000E+00 -0.00000000000E+00 -0.21728286642E+03  0.21728286642E+03  0.00000000000E+00 0.  1.
         25    2    1    2    0    0 -0.12906009037E+02 -0.15555456037E+03 -0.10356425920E+02  0.20029557231E+03  0.12508906590E+03 0.  0.
          5    1    3    3  502    0 -0.50770464605E+02 -0.18049415834E+02  0.13313926422E+02  0.55661068306E+02  0.41800000000E+01 0.  1.
         -5    1    3    3    0  502  0.37864455568E+02 -0.13750514453E+03 -0.23670352342E+02  0.14463450400E+03  0.41800000000E+01 0.  1.
        -11    1    1    2    0    0  0.39931889771E+02  0.37119827777E+02 -0.28622409069E+02  0.61576616794E+02  0.00000000000E+00 0.  1.
         11    1    1    2    0    0 -0.27025880734E+02  0.11843473259E+03 -0.11675750751E+02  0.12203895800E+03  0.00000000000E+00 0. -1.
</event>
<event>
 7    1  0.3001243E-009  0.6563404E+02  0.7561462E-02  0.1375602E+00
         -1   -1    0    0    0  501 -0.00000000000E+00  0.00000000000E+00  0.20338440747E+03  0.20338440747E+03  0.00000000000E+00 0.  1.
          1   -1    0    0  501    0  0.00000000000E+00 -0.00000000000E+00 -0.68250526680E+02  0.68250526680E+02  0.00000000000E+00 0. -1.
         25    2    1    2    0    0  0.14459809522E+02 -0.30297834586E+00  0.12724715351E+03  0.17902336296E+03  0.12509335923E+03 0.  0.
          5    1    3    3  502    0 -0.71219106464E+01  0.14814341114E+02  0.14563634054E+03  0.14662060701E+03  0.41800000000E+01 0. -1.
         -5    1    3    3    0  502  0.21581720168E+02 -0.15117319459E+02 -0.18389187038E+02  0.32402755947E+02  0.41800000000E+01 0. -1.
        -11    1    1    2    0    0  0.97609889654E+01  0.39973703747E+02 -0.10757963725E+02  0.42531255335E+02  0.00000000000E+00 0. -1.
         11    1    1    2    0    0 -0.24220798487E+02 -0.39670725401E+02  0.18644691008E+02  0.50080315854E+02  0.00000000000E+00 0.  1.
</event>
<event>
 7    1  0.3001243E-009  0.7907945E+02  0.7561462E-02  0.1331684E+00
         -2   -1    0    0    0  501 -0.00000000000E+00  0.00000000000E+00  0.44692661026E+02  0.44692661026E+02  0.00000000000E+00 0.  1.
          2   -1    0    0  501    0  0.00000000000E+00 -0.00000000000E+00 -0.32833181059E+03  0.32833181059E+03  0.00000000000E+00 0. -1.
         25    2    1    2    0    0  0.30111982077E+02  0.29662162409E+02 -0.21231124229E+03  0.25002256166E+03  0.12509453383E+03 0.  0.
          5    1    3    3  502    0  0.29764865503E+01  0.51145289725E+02 -0.20874320218E+03  0.21497882917E+03  0.41800000000E+01 0. -1.
         -5    1    3    3    0  502  0.27135495526E+02 -0.21483127317E+02 -0.35680401050E+01  0.35043732492E+02  0.41800000000E+01 0. -1.
        -11    1    1    2    0    0  0.11074428278E+02  0.98494912180E+01 -0.63722079004E+02  0.65422922524E+02  0.00000000000E+00 0. -1.
         11    1    1    2    0    0 -0.41186410355E+02 -0.39511653627E+02 -0.76058282749E+01  0.57578987435E+02  0.00000000000E+00 0.  1.
</event>
<event>
 7    1  0.3001243E-009  0.1308785E+03  0.7561462E-02  0.1226158E+00
         -2   -1    0    0    0  501 -0.00000000000E+00  0.00000000000E+00  0.19613973009E+02  0.19613973009E+02  0.00000000000E+00 0.  1.
          2   -1    0    0  501    0  0.00000000000E+00 -0.00000000000E+00 -0.12922214141E+04  0.12922214141E+04  0.00000000000E+00 0. -1.
         25    2    1    2    0    0 -0.75457681556E+02  0.38542428151E+02 -0.10032851515E+04  0.10145970330E+04  0.12508662502E+03 0.  0.
          5    1    3    3  502    0 -0.90435806063E+02 -0.15771963948E+02 -0.70974193497E+03  0.71566645619E+03  0.41800000000E+01 0. -1.
         -5    1    3    3    0  502  0.14978124507E+02  0.54314392098E+02 -0.29354321649E+03  0.29893057680E+03  0.41800000000E+01 0. -1.
        -11    1    1    2    0    0  0.41774650265E+02  0.19620001943E+02 -0.17777101010E+03  0.18366436212E+03  0.00000000000E+00 0. -1.
         11    1    1    2    0    0  0.33683031291E+02 -0.58162430094E+02 -0.91551279500E+02  0.11357399196E+03  0.00000000000E+00 0.  1.
</event>
<event>
 7    1  0.3001243E-009  0.2238653E+03  0.7561462E-02  0.1131034E+00
          2   -1    0    0  501    0  0.00000000000E+00  0.00000000000E+00  0.15500454197E+03  0.15500454197E+03  0.00000000000E+00 0. -1.
         -2   -1    0    0    0  501 -0.00000000000E+00 -0.00000000000E+00 -0.35826835602E+03  0.35826835602E+03  0.00000000000E+00 0.  1.
         25    2    1    2    0    0  0.16490962944E+03 -0.12377581024E+03 -0.10238395244E+03  0.26200297185E+03  0.12508975361E+03 0.  0.
          5    1    3    3  502    0  0.31846827296E+02 -0.10115118159E+03 -0.44259543617E+02  0.11498765824E+03  0.41800000000E+01 0. -1.
         -5    1    3    3    0  502  0.13306280214E+03 -0.22624628650E+02 -0.58124408821E+02  0.14701531361E+03  0.41800000000E+01 0. -1.
        -11    1    1    2    0    0 -0.13446732474E+03  0.10672112024E+03 -0.12188689230E+03  0.21054043184E+03  0.00000000000E+00 0.  1.
         11    1    1    2    0    0 -0.30442304702E+02  0.17054690005E+02  0.21007030697E+02  0.40729494294E+02  0.00000000000E+00 0. -1.
</event>
<event>
 7    1  0.3001243E-009  0.9871171E+02  0.7561462E-02  0.1283029E+00
          1   -1    0    0  501    0  0.00000000000E+00  0.00000000000E+00  0.48125574304E+02  0.48125574304E+02  0.00000000000E+00 0. -1.
         -1   -1    0    0    0  501 -0.00000000000E+00 -0.00000000000E+00 -0.32578320478E+03  0.32578320478E+03  0.00000000000E+00 0.  1.
         25    2    1    2    0    0 -0.38319144085E+02  0.26242180821E+02 -0.96764884560E+02  0.16482695692E+03  0.12508986364E+03 0.  0.
          5    1    3    3  502    0 -0.71569032369E+02 -0.20166689954E+02 -0.67616061360E+02  0.10058939274E+03  0.41800000000E+01 0. -1.
         -5    1    3    3    0  502  0.33249888285E+02  0.46408870775E+02 -0.29148823200E+02  0.64237564178E+02  0.41800000000E+01 0. -1.
        -11    1    1    2    0    0  0.43975449176E+02 -0.56324129963E+01 -0.18234824822E+03  0.18766045890E+03  0.00000000000E+00 0.  1.
         11    1    1    2    0    0 -0.56563050916E+01 -0.20609767824E+02  0.14555023050E+01  0.21421363263E+02  0.00000000000E+00 0. -1.
</event>
<event>
 7    1  0.3001243E-009  0.1875164E+03  0.7561462E-02  0.1160721E+00
          1   -1    0    0  501    0  0.00000000000E+00  0.00000000000E+00  0.21134841886E+04  0.21134841886E+04  0.00000000000E+00 0. -1.
         -1   -1    0    0    0  501 -0.00000000000E+00 -0.00000000000E+00 -0.21825852061E+02  0.21825852061E+02  0.00000000000E+00 0.  1.
         25    2    1    2    0    0  0.10986595891E+03  0.12892430541E+03  0.14558907282E+04  0.14710395463E+04  0.12509008409E+03 0.  0.
          5    1    3    3  502    0  0.12237387823E+03  0.78943420414E+02  0.12618224822E+04  0.12702050538E+04  0.41800000000E+01 0.  1.
         -5    1    3    3    0  502 -0.12507919314E+02  0.49980884998E+02  0.19406824591E+03  0.20083449251E+03  0.41800000000E+01 0.  1.
        -11    1    1    2    0    0 -0.58533064281E+02 -0.29017906385E+02  0.12224586826E+03  0.13860811957E+03  0.00000000000E+00 0.  1.
         11    1    1    2    0    0 -0.51332894630E+02 -0.99906399027E+02  0.51352174017E+03  0.52566237479E+03  0.00000000000E+00 0. -1.
</event>
<event>
 7    1  0.3122245E-009  0.1142048E+03  0.7561462E-02  0.1252976E+00
         -2   -1    0    0    0  501 -0.00000000000E+00  0.00000000000E+00  0.35053514336E+02  0.35053514336E+02  0.00000000000E+00 0. -1.
          2   -1    0    0  501    0  0.00000000000E+00 -0.00000000000E+00 -0.72844372490E+03  0.72844372490E+03  0.00000000000E+00 0.  1.
         25    2    1    2    0    0  0.84475996422E+02 -0.18814697375E+02 -0.18365019387E+03  0.23846434623E+03  0.12509062278E+03 0.  0.
          5    1    3    3  502    0  0.90904692124E+02 -0.23813349921E+02 -0.53943025547E+02  0.10843459360E+03  0.41800000000E+01 0.  1.
         -5    1    3    3    0  502 -0.64286957021E+01  0.49986525460E+01 -0.12970716832E+03  0.13002975263E+03  0.41800000000E+01 0.  1.
        -11    1    1    2    0    0 -0.26803420249E+02  0.52108768372E+02 -0.26441230712E+03  0.27082764858E+03  0.00000000000E+00 0.  1.
         11    1    1    2    0    0 -0.57672576173E+02 -0.33294070998E+02 -0.24532770958E+03  0.25420524443E+03  0.00000000000E+00 0. -1.
</event>
<event>
 7    1  0.3001243E-009  0.7656981E+02  0.7561462E-02  0.1339078E+00
         -2   -1    0    0    0  501 -0.00000000000E+00  0.00000000000E+00  0.21537217057E+03  0.21537217057E+03  0.00000000000E+00 0.  1.
          2   -1    0    0  501    0  0.00000000000E+00 -0.00000000000E+00 -0.77138471993E+02  0.77138471993E+02  0.00000000000E+00 0. -1.
         25    2    1    2    0    0 -0.20393272774E+02  0.48925849639E+02  0.26837455666E+02  0.13848268546E+03  0.12509029063E+03 0.  0.
          5    1    3    3  502    0 -0.17007343942E+02  0.63914427386E+02 -0.34778612375E+02  0.74842020649E+02  0.41800000000E+01 0.  1.
         -5    1    3    3    0  502 -0.33859288321E+01 -0.14988577747E+02  0.61616068042E+02  0.63640664813E+02  0.41800000000E+01 0.  1.
        -11    1    1    2    0    0 -0.92780106075E+01 -0.38331745706E+02  0.11569302091E+03  0.12223043523E+03  0.00000000000E+00 0.  1.
         11    1    1    2    0    0  0.29671283382E+02 -0.10594103933E+02 -0.42967780015E+01  0.31797521867E+02  0.00000000000E+00 0. -1.
</event>
<event>
 7    1  0.3001243E-009  0.1005636E+03  0.7561462E-02  0.1279115E+00
          1   -1    0    0  501    0  0.00000000000E+00  0.00000000000E+00  0.67264243235E+02  0.67264243235E+02  0.00000000000E+00 0.  1.
         -1   -1    0    0    0  501 -0.00000000000E+00 -0.00000000000E+00 -0.30086281654E+03  0.30086281654E+03  0.00000000000E+00 0. -1.
         25    2    1    2    0    0 -0.38832869475E+02  0.67608222722E+02 -0.63698247874E+02  0.16056521934E+03  0.12507941217E+03 0.  0.
          5    1    3    3  502    0 -0.21177417139E+02  0.91016029124E+02 -0.83131314148E+02  0.12514267196E+03  0.41800000000E+01 0.  1.
         -5    1    3    3    0  502 -0.17655452336E+02 -0.23407806403E+02  0.19433066275E+02  0.35422547376E+02  0.41800000000E+01 0.  1.
        -11    1    1    2    0    0  0.19893575433E+02 -0.33912121921E+02 -0.67458509557E+01  0.39891012294E+02  0.00000000000E+00 0.  1.
         11    1    1    2    0    0  0.18939294041E+02 -0.33696100800E+02 -0.16315447447E+03  0.16767082814E+03  0.00000000000E+00 0. -1.
</event>
<event>
 7    1  0.3001243E-009  0.1265702E+03  0.7561462E-02  0.1232636E+00
          2   -1    0    0  501    0  0.00000000000E+00  0.00000000000E+00  0.29300771376E+04  0.29300771376E+04  0.00000000000E+00 0. -1.
         -2   -1    0    0    0  501 -0.00000000000E+00 -0.00000000000E+00 -0.89851363299E+01  0.89851363299E+01  0.00000000000E+00 0.  1.
         25    2    1    2    0    0 -0.93040155722E+02 -0.27643859444E+02  0.21989182258E+04  0.22046108480E+04  0.12508786317E+03 0.  0.
          5    1    3    3  502    0 -0.50638661715E+02 -0.50116381711E+02  0.19360840078E+04  0.19373989479E+04  0.41800000000E+01 0. -1.
         -5    1    3    3    0  502 -0.42401494007E+02  0.22472522267E+02  0.26283421806E+03  0.26721190006E+03  0.41800000000E+01 0. -1.
        -11    1    1    2    0    0  0.14875980676E+02 -0.31994859608E+02  0.20526572128E+03  0.20827621606E+03  0.00000000000E+00 0.  1.
         11    1    1    2    0    0  0.78164175045E+02  0.59638719052E+02  0.51690805411E+03  0.52617520987E+03  0.00000000000E+00 0. -1.
</event>
<event>
 7    1  0.3001243E-009  0.1124058E+03  0.7561462E-02  0.1256178E+00
          1   -1    0    0  501    0  0.00000000000E+00  0.00000000000E+00  0.63504178704E+03  0.63504178704E+03  0.00000000000E+00 0. -1.
         -1   -1    0    0    0  501 -0.00000000000E+00 -0.00000000000E+00 -0.49668682038E+02  0.49668682038E+02  0.00000000000E+00 0.  1.
         25    2    1    2    0    0 -0.93402190300E+02 -0.48126620294E+02  0.48910305896E+03  0.51566390489E+03  0.12508924729E+03 0.  0.
          5    1    3    3  502    0 -0.97826792152E+01 -0.18668459162E+02  0.32029757821E+01  0.21724263715E+02  0.41800000000E+01 0. -1.
         -5    1    3    3    0  502 -0.83619511085E+02 -0.29458161132E+02  0.48590008318E+03  0.49393964118E+03  0.41800000000E+01 0. -1.
        -11    1    1    2    0    0  0.31457024252E+02 -0.63339765310E+01 -0.10830063031E+02  0.33866707822E+02  0.00000000000E+00 0.  1.
         11    1    1    2    0    0  0.61945166048E+02  0.54460596825E+02  0.10710010907E+03  0.13517985636E+03  0.00000000000E+00 0. -1.
</event>
<event>
 7    1  0.3001243E-009  0.1581372E+03  0.7561462E-02  0.1190816E+00
          1   -1    0    0  501    0  0.00000000000E+00  0.00000000000E+00  0.26961304494E+04  0.26961304494E+04  0.00000000000E+00 0. -1.
         -1   -1    0    0    0  501 -0.00000000000E+00 -0.00000000000E+00 -0.16178998695E+02  0.16178998695E+02  0.00000000000E+00 0.  1.
         25    2    1    2    0    0 -0.66184719909E+02  0.11863165948E+03  0.21293881118E+04  0.21373802902E+04  0.12508751613E+03 0.  0.
          5    1    3    3  502    0 -0.91887545065E+02  0.12305221873E+03  0.19520109798E+04  0.19580473710E+04  0.41800000000E+01 0. -1.
         -5    1    3    3    0  502  0.25702825156E+02 -0.44205592510E+01  0.17737713194E+03  0.17933291918E+03  0.41800000000E+01 0. -1.
        -11    1    1    2    0    0  0.34338931408E+02 -0.71897325217E+02  0.46874303839E+03  0.47546653260E+03  0.00000000000E+00 0. -1.
         11    1    1    2    0    0  0.31845788501E+02 -0.46734334266E+02  0.81820300518E+02  0.99462625248E+02  0.00000000000E+00 0.  1.
</event>
<event>
 7    1  0.3001243E-009  0.9640824E+02  0.7561462E-02  0.1288036E+00
          2   -1    0    0  501    0  0.00000000000E+00  0.00000000000E+00  0.18916818542E+03  0.18916818542E+03  0.00000000000E+00 0.  1.
         -2   -1    0    0    0  501 -0.00000000000E+00 -0.00000000000E+00 -0.79262396026E+02  0.79262396026E+02  0.00000000000E+00 0. -1.
         25    2    1    2    0    0 -0.17501617011E+02 -0.46649181588E+02  0.90067883312E+02  0.16200089467E+03  0.12509841537E+03 0.  0.
          5    1    3    3  502    0 -0.14321305011E+01 -0.73263433434E+02  0.76247404228E+01  0.73791535712E+02  0.41800000000E+01 0.  1.
         -5    1    3    3    0  502 -0.16069486510E+02  0.26614251846E+02  0.82443142889E+02  0.88209358956E+02  0.41800000000E+01 0.  1.
        -11    1    1    2    0    0  0.45679498269E+02  0.22403408505E+02 -0.17441017243E+02  0.53783997223E+02  0.00000000000E+00 0. -1.
         11    1    1    2    0    0 -0.28177881259E+02  0.24245773083E+02  0.37278923330E+02  0.52645689560E+02  0.00000000000E+00 0.  1.
</event>
<event>
 7    1  0.3001243E-009  0.1035889E+03  0.7561462E-02  0.1272925E+00
         -2   -1    0    0    0  501 -0.00000000000E+00  0.00000000000E+00  0.31256671764E+03  0.31256671764E+03  0.00000000000E+00 0.  1.
          2   -1    0    0  501    0  0.00000000000E+00 -0.00000000000E+00 -0.59791998330E+02  0.59791998330E+02  0.00000000000E+00 0. -1.
         25    2    1    2    0    0 -0.61881330679E+02 -0.20901704951E+00  0.20895457780E+03  0.25127446139E+03  0.12508995399E+03 0.  0.
          5    1    3    3  502    0 -0.74474027702E+02  0.21706090514E+02  0.54953941148E+02  0.95157465368E+02  0.41800000000E+01 0.  1.
         -5    1    3    3    0  502  0.12592697023E+02 -0.21915107563E+02  0.15400063665E+03  0.15611699602E+03  0.41800000000E+01 0.  1.
        -11    1    1    2    0    0  0.15196884561E+02 -0.39666237999E+02  0.41889192358E+02  0.59657859279E+02  0.00000000000E+00 0.  1.
         11    1    1    2    0    0  0.46684446118E+02  0.39875255048E+02  0.19309491474E+01  0.61426395296E+02  0.00000000000E+00 0. -1.
</event>
<event>
 7    1  0.3001243E-009  0.1229343E+03  0.7561462E-02  0.1238333E+00
         -2   -1    0    0    0  501 -0.00000000000E+00  0.00000000000E+00  0.31380173795E+02  0.31380173795E+02  0.00000000000E+00 0.  1.
          2   -1    0    0  501    0  0.00000000000E+00 -0.00000000000E+00 -0.60608059477E+03  0.60608059477E+03  0.00000000000E+00 0. -1.
         25    2    1    2    0    0  0.85563267254E+02  0.25861777870E+01 -0.31682196327E+03  0.35121449566E+03  0.12509078518E+03 0.  0.
          5    1    3    3  502    0  0.76180428930E+02  0.43333200835E+02 -0.11278689685E+03  0.14289709775E+03  0.41800000000E+01 0. -1.
         -5    1    3    3    0  502  0.93828383240E+01 -0.40747023048E+02 -0.20403506642E+03  0.20831739791E+03  0.41800000000E+01 0. -1.
        -11    1    1    2    0    0 -0.24794198365E+02  0.36299465960E+02 -0.15121415052E+03  0.15747419731E+03  0.00000000000E+00 0. -1.
         11    1    1    2    0    0 -0.60769068889E+02 -0.38885643747E+02 -0.10666430719E+03  0.12877207559E+03  0.00000000000E+00 0.  1.
</event>
<event>
 7    1  0.3001243E-009  0.5828269E+02  0.7561462E-02  0.1405183E+00
          1   -1    0    0  501    0  0.00000000000E+00  0.00000000000E+00  0.18544833441E+03  0.18544833441E+03  0.00000000000E+00 0. -1.
         -1   -1    0    0    0  501 -0.00000000000E+00 -0.00000000000E+00 -0.66140512248E+02  0.66140512248E+02  0.00000000000E+00 0.  1.
         25    2    1    2    0    0  0.11287907374E+02 -0.77321547094E+01  0.86104522328E+02  0.15247430887E+03  0.12508886053E+03 0.  0.
          5    1    3    3  502    0 -0.12097865854E+02 -0.78580253838E+01 -0.30221146076E+02  0.33747547930E+02  0.41800000000E+01 0. -1.
         -5    1    3    3    0  502  0.23385773227E+02  0.12587067442E+00  0.11632566840E+03  0.11872676094E+03  0.41800000000E+01 0. -1.
        -11    1    1    2    0    0  0.30954366623E+02  0.15846523616E+02 -0.11932226073E+02  0.36764971682E+02  0.00000000000E+00 0.  1.
         11    1    1    2    0    0 -0.42242273997E+02 -0.81143689061E+01  0.45135525905E+02  0.62349566108E+02  0.00000000000E+00 0. -1.
</event>
<event>
 7    1  0.3001243E-009  0.1029219E+03  0.7561462E-02  0.1274269E+00
         -3   -1    0    0    0  501 -0.00000000000E+00  0.00000000000E+00  0.11376853537E+03  0.11376853537E+03  0.00000000000E+00 0.  1.
          3   -1    0    0  501    0  0.00000000000E+00 -0.00000000000E+00 -0.15062989642E+03  0.15062989642E+03  0.00000000000E+00 0. -1.
         25    2    1    2    0    0 -0.46105890699E+02  0.39205109624E+02 -0.61044572379E+02  0.15178095894E+03  0.12509286911E+03 0.  0.
          5    1    3    3  502    0 -0.72461592065E+02  0.58104373129E+01  0.51362322848E+01  0.72995183324E+02  0.41800000000E+01 0. -1.
         -5    1    3    3    0  502  0.26355701366E+02  0.33394672311E+02 -0.66180804664E+02  0.78785775615E+02  0.41800000000E+01 0. -1.
        -11    1    1    2    0    0 -0.13556771917E+02 -0.25781355130E+02  0.39970764989E+02  0.49458329844E+02  0.00000000000E+00 0.  1.
         11    1    1    2    0    0  0.59662662616E+02 -0.13423754494E+02 -0.15787553663E+02  0.63159143010E+02  0.00000000000E+00 0. -1.
</event>
<event>
 7    1  0.3001243E-009  0.1459928E+03  0.7561462E-02  0.1205485E+00
         -1   -1    0    0    0  501 -0.00000000000E+00  0.00000000000E+00  0.83987604191E+02  0.83987604191E+02  0.00000000000E+00 0.  1.
          1   -1    0    0  501    0  0.00000000000E+00 -0.00000000000E+00 -0.26277880723E+03  0.26277880723E+03  0.00000000000E+00 0. -1.
         25    2    1    2    0    0 -0.49228978418E+02 -0.84337376080E+02 -0.12641053908E+03  0.20288316433E+03  0.12508264731E+03 0.  0.
          5    1    3    3  502    0  0.41940304526E+02 -0.18761345675E+02 -0.41138068857E+02  0.61812541968E+02  0.41800000000E+01 0.  1.
         -5    1    3    3    0  502 -0.91169282945E+02 -0.65576030405E+02 -0.85272470222E+02  0.14107062236E+03  0.41800000000E+01 0.  1.
        -11    1    1    2    0    0  0.60728251494E+02  0.98198388602E+02 -0.40727217054E+02  0.12243181883E+03  0.00000000000E+00 0.  1.
         11    1    1    2    0    0 -0.11499273076E+02 -0.13861012522E+02 -0.11653446903E+02  0.21451428254E+02  0.00000000000E+00 0. -1.
</event>
<event>
 7    1  0.3001243E-009  0.8859519E+02  0.7561462E-02  0.1306290E+00
          3   -1    0    0  501    0  0.00000000000E+00  0.00000000000E+00  0.15711347835E+02  0.15711347835E+02  0.00000000000E+00 0. -1.
         -3   -1    0    0    0  501 -0.00000000000E+00 -0.00000000000E+00 -0.11867267681E+04  0.11867267681E+04  0.00000000000E+00 0.  1.
         25    2    1    2    0    0  0.35359854903E+02  0.27946194622E+01 -0.96803282057E+03  0.97672621491E+03  0.12509367674E+03 0.  0.
          5    1    3    3  502    0 -0.40956871482E+02  0.38866829168E+01 -0.16656479770E+03  0.17162131528E+03  0.41800000000E+01 0. -1.
         -5    1    3    3    0  502  0.76316726385E+02 -0.10920634545E+01 -0.80146802287E+03  0.80510489963E+03  0.41800000000E+01 0. -1.
        -11    1    1    2    0    0 -0.79629841575E+01  0.21408997150E+02 -0.37433417203E+01  0.23146638695E+02  0.00000000000E+00 0. -1.
         11    1    1    2    0    0 -0.27396870745E+02 -0.24203616612E+02 -0.19923925798E+03  0.20256526233E+03  0.00000000000E+00 0.  1.
</event>
<event>
 7    1  0.3001243E-009  0.1673382E+03  0.7561462E-02  0.1180652E+00
          2   -1    0    0  501    0  0.00000000000E+00  0.00000000000E+00  0.19027531236E+03  0.19027531236E+03  0.00000000000E+00 0. -1.
         -2   -1    0    0    0  501 -0.00000000000E+00 -0.00000000000E+00 -0.21787627047E+03  0.21787627047E+03  0.00000000000E+00 0.  1.
         25    2    1    2    0    0  0.11765006976E+03 -0.10436877059E+03 -0.67560086815E+02  0.21199409330E+03  0.12507098414E+03 0.  0.
          5    1    3    3  502    0  0.55609388041E+02 -0.34614982628E+02  0.34054708385E+02  0.73944551008E+02  0.41800000000E+01 0.  1.
         -5    1    3    3    0  502  0.62040681719E+02 -0.69753787962E+02 -0.10161479520E+03  0.13804954229E+03  0.41800000000E+01 0.  1.
        -11    1    1    2    0    0 -0.12151366423E+02 -0.12990165532E+02 -0.20521445906E+02  0.27157500779E+02  0.00000000000E+00 0. -1.
         11    1    1    2    0    0 -0.10549870334E+03  0.11735893612E+03  0.60480574614E+02  0.16899998875E+03  0.00000000000E+00 0.  1.
</event>
<event>
 7    1  0.3001243E-009  0.1101880E+03  0.7561462E-02  0.1260222E+00
         -2   -1    0    0    0  501 -0.00000000000E+00  0.00000000000E+00  0.25431761605E+03  0.25431761605E+03  0.00000000000E+00 0.  1.
          2   -1    0    0  501    0  0.00000000000E+00 -0.00000000000E+00 -0.73853140386E+02  0.73853140386E+02  0.00000000000E+00 0. -1.
         25    2    1    2    0    0  0.39892975873E+02 -0.89164318597E+01  0.18884890122E+03  0.23017839920E+03  0.12508891111E+03 0.  0.
          5    1    3    3  502    0  0.67115630367E+02 -0.46030355110E+02  0.14574834303E+03  0.16698309294E+03  0.41800000000E+01 0. -1.
         -5    1    3    3    0  502 -0.27222654494E+02  0.37113923250E+02  0.43100558191E+02  0.63195306258E+02  0.41800000000E+01 0. -1.
        -11    1    1    2    0    0  0.25846862660E+02 -0.24130897113E+01  0.11486131956E+02  0.28386872647E+02  0.00000000000E+00 0.  1.
         11    1    1    2    0    0 -0.65739838533E+02  0.11329521571E+02 -0.19870557514E+02  0.69605484592E+02  0.00000000000E+00 0. -1.
</event>
<event>
 7    1  0.4598014E-009  0.1129025E+03  0.7561462E-02  0.1255287E+00
          2   -1    0    0  501    0  0.00000000000E+00  0.00000000000E+00  0.28911493692E+03  0.28911493692E+03  0.00000000000E+00 0. -1.
         -2   -1    0    0    0  501 -0.00000000000E+00 -0.00000000000E+00 -0.72485697019E+02  0.72485697019E+02  0.00000000000E+00 0.  1.
         25    2    1    2    0    0 -0.55067973777E+02  0.70393341695E+02  0.75469328436E+02  0.17126738787E+03  0.12509673985E+03 0.  0.
          5    1    3    3  502    0  0.16223032627E+02  0.54951502291E+02 -0.10546831046E+02  0.58408581876E+02  0.41800000000E+01 0. -1.
         -5    1    3    3    0  502 -0.71291006404E+02  0.15441839404E+02  0.86016159482E+02  0.11285880599E+03  0.41800000000E+01 0. -1.
        -11    1    1    2    0    0  0.28131665224E+02 -0.11237930840E+02 -0.46908373905E+01  0.30654292248E+02  0.00000000000E+00 0.  1.
         11    1    1    2    0    0  0.26936308553E+02 -0.59155410855E+02  0.14585074885E+03  0.15967895382E+03  0.00000000000E+00 0. -1.
</event>
<event>
 7    1  0.3001243E-009  0.2174716E+03  0.7561462E-02  0.1135782E+00
          1   -1    0    0  501    0  0.00000000000E+00  0.00000000000E+00  0.13391687665E+03  0.13391687665E+03  0.00000000000E+00 0. -1.
         -1   -1    0    0    0  501 -0.00000000000E+00 -0.00000000000E+00 -0.38803223676E+03  0.38803223676E+03  0.00000000000E+00 0.  1.
         25    2    1    2    0    0 -0.13154590765E+03  0.14043856500E+03 -0.18758568133E+03  0.29641810162E+03  0.12509191330E+03 0.  0.
          5    1    3    3  502    0 -0.95911441723E+02  0.16110907814E+03 -0.16134739275E+03  0.24739764199E+03  0.41800000000E+01 0. -1.
         -5    1    3    3    0  502 -0.35634465931E+02 -0.20670513143E+02 -0.26238288575E+02  0.49020459638E+02  0.41800000000E+01 0. -1.
        -11    1    1    2    0    0  0.21911494733E+02 -0.75397189112E+02  0.62104104373E+01  0.78761785945E+02  0.00000000000E+00 0.  1.
         11    1    1    2    0    0  0.10963441292E+03 -0.65041375884E+02 -0.72740089227E+02  0.14676922584E+03  0.00000000000E+00 0. -1.
</event>
<event>
 7    1  0.3001243E-009  0.1111361E+03  0.7561462E-02  0.1258480E+00
          2   -1    0    0  501    0  0.00000000000E+00  0.00000000000E+00  0.63104131335E+03  0.63104131335E+03  0.00000000000E+00 0. -1.
         -2   -1    0    0    0  501 -0.00000000000E+00 -0.00000000000E+00 -0.26929046912E+02  0.26929046912E+02  0.00000000000E+00 0.  1.
         25    2    1    2    0    0  0.18605691159E+02 -0.52443526425E+02  0.46156848633E+03  0.48144531583E+03  0.12509048465E+03 0.  0.
          5    1    3    3  502    0 -0.51850084555E+02 -0.38472665368E+02  0.20376856637E+03  0.21379354127E+03  0.41800000000E+01 0. -1.
         -5    1    3    3    0  502  0.70455775714E+02 -0.13970861057E+02  0.25779991997E+03  0.26765177456E+03  0.41800000000E+01 0. -1.
        -11    1    1    2    0    0 -0.13083397741E+02  0.67931701306E+02  0.57646527701E+02  0.90050061048E+02  0.00000000000E+00 0.  1.
         11    1    1    2    0    0 -0.55222934182E+01 -0.15488174882E+02  0.84897252404E+02  0.86474983385E+02  0.00000000000E+00 0. -1.
</event>
<event>
 7    1  0.3001243E-009  0.7962042E+02  0.7561462E-02  0.1330132E+00
         -4   -1    0    0    0  501 -0.00000000000E+00  0.00000000000E+00  0.27384970306E+03  0.27384970306E+03  0.00000000000E+00 0.  1.
          4   -1    0    0  501    0  0.00000000000E+00 -0.00000000000E+00 -0.82623678587E+02  0.82623678587E+02  0.00000000000E+00 0. -1.
         25    2    1    2    0    0  0.51653435654E+02  0.38699851324E+02  0.20146895335E+03  0.24577144020E+03  0.12509238885E+03 0.  0.
          5    1    3    3  502    0  0.89128126544E+01  0.31826451269E+02  0.19947169163E+03  0.20223449110E+03  0.41800000000E+01 0. -1.
         -5    1    3    3    0  502  0.42740623000E+02  0.68734000551E+01  0.19972617225E+01  0.43536949102E+02  0.41800000000E+01 0. -1.
        -11    1    1    2    0    0 -0.15459216092E+02 -0.43274959794E+02  0.31157978560E+02  0.55520528953E+02  0.00000000000E+00 0.  1.
         11    1    1    2    0    0 -0.36194219562E+02  0.45751084700E+01 -0.41400907440E+02  0.55181412488E+02  0.00000000000E+00 0. -1.
</event>
<event>
 7    1  0.3001243E-009  0.2825801E+03  0.7561462E-02  0.1094288E+00
          2   -1    0    0  501    0  0.00000000000E+00  0.00000000000E+00  0.98204013620E+02  0.98204013620E+02  0.00000000000E+00 0. -1.
         -2   -1    0    0    0  501 -0.00000000000E+00 -0.00000000000E+00 -0.85512315626E+03  0.85512315626E+03  0.00000000000E+00 0.  1.
         25    2    1    2    0    0  0.12925649795E+03  0.23522227477E+03 -0.38072963089E+03  0.48232630164E+03  0.12508736388E+03 0.  0.
          5    1    3    3  502    0  0.11347864240E+03  0.11055818900E+03 -0.27784180284E+03  0.31986568313E+03  0.41800000000E+01 0.  1.
         -5    1    3    3    0  502  0.15777855545E+02  0.12466408576E+03 -0.10288782805E+03  0.16246061851E+03  0.41800000000E+01 0.  1.
        -11    1    1    2    0    0 -0.13540706771E+02 -0.10849086252E+03 -0.17737458915E+03  0.20836353536E+03  0.00000000000E+00 0.  1.
         11    1    1    2    0    0 -0.11571579118E+03 -0.12673141224E+03 -0.19881492260E+03  0.26263733288E+03  0.00000000000E+00 0. -1.
</event>
<event>
 7    1  0.3470053E-009  0.1464512E+03  0.7561462E-02  0.1204903E+00
         -1   -1    0    0    0  501 -0.00000000000E+00  0.00000000000E+00  0.60459882100E+02  0.60459882100E+02  0.00000000000E+00 0.  1.
          1   -1    0    0  501    0  0.00000000000E+00 -0.00000000000E+00 -0.46863373957E+03  0.46863373957E+03  0.00000000000E+00 0. -1.
         25    2    1    2    0    0  0.22260442919E+02  0.11784985009E+03 -0.14599558408E+03  0.22659352700E+03  0.12508317801E+03 0.  0.
          5    1    3    3  502    0  0.63882159946E+02  0.20860611112E+02 -0.63756149518E+02  0.92727635884E+02  0.41800000000E+01 0. -1.
         -5    1    3    3    0  502 -0.41621717027E+02  0.96989238981E+02 -0.82239434565E+02  0.13386589112E+03  0.41800000000E+01 0. -1.
        -11    1    1    2    0    0 -0.10718272722E+02 -0.52342649233E+02 -0.21347528572E+03  0.22005983712E+03  0.00000000000E+00 0. -1.
         11    1    1    2    0    0 -0.11542170197E+02 -0.65507200860E+02 -0.48702987663E+02  0.82440257548E+02  0.00000000000E+00 0.  1.
</event>
<event>
 7    1  0.3001243E-009  0.1073767E+03  0.7561462E-02  0.1265506E+00
         -1   -1    0    0    0  501 -0.00000000000E+00  0.00000000000E+00  0.46662689905E+02  0.46662689905E+02  0.00000000000E+00 0.  1.
          1   -1    0    0  501    0  0.00000000000E+00 -0.00000000000E+00 -0.33150435740E+03  0.33150435740E+03  0.00000000000E+00 0. -1.
         25    2    1    2    0    0 -0.60029063174E+01 -0.22518903087E+02 -0.24526898780E+03  0.27631371382E+03  0.12509698713E+03 0.  0.
          5    1    3    3  502    0 -0.62219947477E+02  0.35795213525E+01 -0.94825521262E+02  0.11354949018E+03  0.41800000000E+01 0.  1.
         -5    1    3    3    0  502  0.56217041159E+02 -0.26098424440E+02 -0.15044346654E+03  0.16276422364E+03  0.41800000000E+01 0.  1.
        -11    1    1    2    0    0  0.20425513417E+02  0.52809044901E+02 -0.38150111476E+02  0.68274649961E+02  0.00000000000E+00 0.  1.
         11    1    1    2    0    0 -0.14422607100E+02 -0.30290141814E+02 -0.14225682186E+01  0.33578683521E+02  0.00000000000E+00 0. -1.
</event>
<event>
 7    1  0.3001243E-009  0.8658230E+02  0.7561462E-02  0.1311346E+00
         -2   -1    0    0    0  501 -0.00000000000E+00  0.00000000000E+00  0.26406548513E+03  0.26406548513E+03  0.00000000000E+00 0. -1.
          2   -1    0    0  501    0  0.00000000000E+00 -0.00000000000E+00 -0.56284988188E+02  0.56284988188E+02  0.00000000000E+00 0.  1.
         25    2    1    2    0    0 -0.19619479333E+02  0.52771688527E+02  0.12394093154E+03  0.18487335045E+03  0.12508807344E+03 0.  0.
          5    1    3    3  502    0  0.12239341793E+02  0.49625876154E+01 -0.23109240153E+02  0.26943239297E+02  0.41800000000E+01 0. -1.
         -5    1    3    3    0  502 -0.31858821126E+02  0.47809100911E+02  0.14705017170E+03  0.15793011115E+03  0.41800000000E+01 0. -1.
        -11    1    1    2    0    0  0.45050552869E+02 -0.22023493303E+01  0.57404484832E+02  0.73004640505E+02  0.00000000000E+00 0.  1.
         11    1    1    2    0    0 -0.25431073536E+02 -0.50569339196E+02  0.26435080568E+02  0.62472482363E+02  0.00000000000E+00 0. -1.
</event>
<event>
 7    1  0.3001243E-009  0.1893544E+03  0.7561462E-02  0.1159045E+00
          1   -1    0    0  501    0  0.00000000000E+00  0.00000000000E+00  0.79221784223E+03  0.79221784223E+03  0.00000000000E+00 0. -1.
         -1   -1    0    0    0  501 -0.00000000000E+00 -0.00000000000E+00 -0.74380188638E+02  0.74380188638E+02  0.00000000000E+00 0.  1.
         25    2    1    2    0    0  0.62171200744E+02  0.16653864356E+03  0.14879792857E+03  0.26341666479E+03  0.12508851962E+03 0.  0.
          5    1    3    3  502    0  0.69028740633E+02  0.53125469396E+02  0.11592373242E+03  0.14506228548E+03  0.41800000000E+01 0. -1.
         -5    1    3    3    0  502 -0.68575398892E+01  0.11341317417E+03  0.32874196149E+02  0.11835437930E+03  0.41800000000E+01 0. -1.
        -11    1    1    2    0    0 -0.55405612842E+02 -0.14474847571E+03  0.55535223839E+03  0.57657437668E+03  0.00000000000E+00 0. -1.
         11    1    1    2    0    0 -0.67655879020E+01 -0.21790167850E+02  0.13687486632E+02  0.26606989399E+02  0.00000000000E+00 0.  1.
</event>
<event>
 7    1  0.3001243E-009  0.9759730E+02  0.7561462E-02  0.1285431E+00
         -2   -1    0    0    0  501 -0.00000000000E+00  0.00000000000E+00  0.44893235368E+02  0.44893235368E+02  0.00000000000E+00 0.  1.
          2   -1    0    0  501    0  0.00000000000E+00 -0.00000000000E+00 -0.36597646666E+03  0.36597646666E+03  0.00000000000E+00 0. -1.
         25    2    1    2    0    0 -0.52577521603E+02  0.20743960804E+02 -0.24783137537E+03  0.28330666058E+03  0.12509022993E+03 0.  0.
          5    1    3    3  502    0  0.72492299982E+01  0.62741961028E+02 -0.10022441461E+03  0.11853906822E+03  0.41800000000E+01 0. -1.
         -5    1    3    3    0  502 -0.59826751601E+02 -0.41998000225E+02 -0.14760696076E+03  0.16476759237E+03  0.41800000000E+01 0. -1.
        -11    1    1    2    0    0  0.31651224878E+02 -0.20581426165E+02  0.12129097125E+02  0.39654887924E+02  0.00000000000E+00 0.  1.
         11    1    1    2    0    0  0.20926296725E+02 -0.16253463917E+00 -0.85380953050E+02  0.87908153523E+02  0.00000000000E+00 0. -1.
</event>
<event>
 7    1  0.3001243E-009  0.1624628E+03  0.7561462E-02  0.1185944E+00
         -2   -1    0    0    0  501 -0.00000000000E+00  0.00000000000E+00  0.57241871528E+02  0.57241871528E+02  0.00000000000E+00 0.  1.
          2   -1    0    0  501    0  0.00000000000E+00 -0.00000000000E+00 -0.49145831564E+03  0.49145831564E+03  0.00000000000E+00 0. -1.
         25    2    1    2    0    0 -0.12882195303E+03  0.82703891869E+00 -0.24586061451E+03  0.30445026414E+03  0.12508693774E+03 0.  0.
          5    1    3    3  502    0 -0.10967692883E+03  0.51133172238E+02 -0.19909702507E+03  0.23302516562E+03  0.41800000000E+01 0. -1.
         -5    1    3    3    0  502 -0.19145024199E+02 -0.50306133319E+02 -0.46763589438E+02  0.71425098517E+02  0.41800000000E+01 0. -1.
        -11    1    1    2    0    0  0.28298252685E+02 -0.33780619519E+02 -0.88082716071E+02  0.98491046449E+02  0.00000000000E+00 0.  1.
         11    1    1    2    0    0  0.10052370034E+03  0.32953580601E+02 -0.10027311353E+03  0.14575887658E+03  0.00000000000E+00 0. -1.
</event>
<event>
 7    1  0.3001243E-009  0.1184003E+03  0.7561462E-02  0.1245760E+00
         -1   -1    0    0    0  501 -0.00000000000E+00  0.00000000000E+00  0.49585758042E+02  0.49585758042E+02  0.00000000000E+00 0.  1.
          1   -1    0    0  501    0  0.00000000000E+00 -0.00000000000E+00 -0.66044321403E+03  0.66044321403E+03  0.00000000000E+00 0. -1.
         25    2    1    2    0    0 -0.47188399396E+02 -0.56671576348E+02 -0.56605399034E+03  0.58438281663E+03  0.12509094207E+03 0.  0.
          5    1    3    3  502    0 -0.46521496083E+02  0.13902641214E+02 -0.83533669484E+02  0.96710285740E+02  0.41800000000E+01 0.  1.
         -5    1    3    3    0  502 -0.66690331280E+00 -0.70574217562E+02 -0.48252032086E+03  0.48767253089E+03  0.41800000000E+01 0.  1.
        -11    1    1    2    0    0  0.82081174020E+01  0.74180731911E+02 -0.29631997010E+02  0.80300743614E+02  0.00000000000E+00 0. -1.
         11    1    1    2    0    0  0.38980281994E+02 -0.17509155564E+02 -0.15171468632E+02  0.45345411822E+02  0.00000000000E+00 0.  1.
</event>
<event>
 7    1  0.3001243E-009  0.1086138E+03  0.7561462E-02  0.1263159E+00
          1   -1    0    0  501    0  0.00000000000E+00  0.00000000000E+00  0.18476255695E+02  0.18476255695E+02  0.00000000000E+00 0. -1.
         -1   -1    0    0    0  501 -0.00000000000E+00 -0.00000000000E+00 -0.83284601123E+03  0.83284601123E+03  0.00000000000E+00 0.  1.
         25    2    1    2    0    0  0.25139570213E+02 -0.39896076268E+02 -0.32664697297E+03  0.35295108322E+03  0.12511006075E+03 0.  0.
          5    1    3    3  502    0  0.36559150082E+02 -0.74802480565E+02 -0.14217832828E+03  0.16481544826E+03  0.41800000000E+01 0. -1.
         -5    1    3    3    0  502 -0.11419579869E+02  0.34906404297E+02 -0.18446864469E+03  0.18813563496E+03  0.41800000000E+01 0. -1.
        -11    1    1    2    0    0 -0.40439291694E+02  0.59556342139E+02 -0.42178747134E+03  0.42788662655E+03  0.00000000000E+00 0.  1.
         11    1    1    2    0    0  0.15299721481E+02 -0.19660265871E+02 -0.65935311222E+02  0.70484557156E+02  0.00000000000E+00 0. -1.
</event>
<event>
 7    1  0.3001243E-009  0.1019887E+03  0.7561462E-02  0.1276169E+00
          1   -1    0    0  501    0  0.00000000000E+00  0.00000000000E+00  0.72710542563E+03  0.72710542563E+03  0.00000000000E+00 0. -1.
         -1   -1    0    0    0  501 -0.00000000000E+00 -0.00000000000E+00 -0.23096656586E+02  0.23096656586E+02  0.00000000000E+00 0.  1.
         25    2    1    2    0    0  0.28743593969E+02  0.74502676838E+01  0.58844492834E+03  0.60232611778E+03  0.12509043841E+03 0.  0.
          5    1    3    3  502    0 -0.94643838757E+01  0.52043971306E+02  0.13464785141E+03  0.14472617524E+03  0.41800000000E+01 0. -1.
         -5    1    3    3    0  502  0.38207977845E+02 -0.44593703623E+02  0.45379707694E+03  0.45759994254E+03  0.41800000000E+01 0. -1.
        -11    1    1    2    0    0 -0.57467477148E+02  0.10148035893E+02  0.68286508605E+02  0.89825056748E+02  0.00000000000E+00 0. -1.
         11    1    1    2    0    0  0.28723883179E+02 -0.17598303576E+02  0.47277332095E+02  0.58050907690E+02  0.00000000000E+00 0.  1.
</event>
<event>
 7    1  0.3001243E-009  0.2216448E+03  0.7561462E-02  0.1132663E+00
         -1   -1    0    0    0  501 -0.00000000000E+00  0.00000000000E+00  0.13545866486E+03  0.13545866486E+03  0.00000000000E+00 0.  1.
          1   -1    0    0  501    0  0.00000000000E+00 -0.00000000000E+00 -0.45866029007E+03  0.45866029007E+03  0.00000000000E+00 0. -1.
         25    2    1    2    0    0 -0.13165374183E+03 -0.17739745214E+03 -0.12317735924E+03  0.28217470610E+03  0.12508932477E+03 0.  0.
          5    1    3    3  502    0 -0.81800331219E+02 -0.94085530767E+02  0.67901532352E+00  0.12474499889E+03  0.41800000000E+01 0.  1.
         -5    1    3    3    0  502 -0.49853410610E+02 -0.83311921375E+02 -0.12385637456E+03  0.15742970721E+03  0.41800000000E+01 0.  1.
        -11    1    1    2    0    0  0.35916884580E+02  0.38284307960E+02 -0.10690733911E+03  0.11910033581E+03  0.00000000000E+00 0.  1.
         11    1    1    2    0    0  0.95736857249E+02  0.13911314418E+03 -0.93116926863E+02  0.19284391302E+03  0.00000000000E+00 0. -1.
</event>
<event>
 7    1  0.3001243E-009  0.4289288E+02  0.7561462E-02  0.1487942E+00
         -1   -1    0    0    0  501 -0.00000000000E+00  0.00000000000E+00  0.75782378639E+02  0.75782378639E+02  0.00000000000E+00 0.  1.
          1   -1    0    0  501    0  0.00000000000E+00 -0.00000000000E+00 -0.16305065971E+03  0.16305065971E+03  0.00000000000E+00 0. -1.
         25    2    1    2    0    0 -0.14429307702E+02  0.24706304405E+02 -0.52051474369E+02  0.13847687137E+03  0.12509149261E+03 0.  0.
          5    1    3    3  502    0 -0.12027398751E+02  0.60058514972E-01 -0.91135109513E+02  0.92020337501E+02  0.41800000000E+01 0.  1.
         -5    1    3    3    0  502 -0.24019089503E+01  0.24646245890E+02  0.39083635144E+02  0.46456533870E+02  0.41800000000E+01 0.  1.
        -11    1    1    2    0    0 -0.84175918716E+01 -0.23610422324E+02 -0.60964228610E+02  0.65916197290E+02  0.00000000000E+00 0. -1.
         11    1    1    2    0    0  0.22846899573E+02 -0.10958820817E+01  0.25747421904E+02  0.34439969691E+02  0.00000000000E+00 0.  1.
</event>
<event>
 7    1  0.3001243E-009  0.7010000E+02  0.7561462E-02  0.1359753E+00
          2   -1    0    0  501    0  0.00000000000E+00  0.00000000000E+00  0.31179257211E+03  0.31179257211E+03  0.00000000000E+00 0. -1.
         -2   -1    0    0    0  501 -0.00000000000E+00 -0.00000000000E+00 -0.42391253823E+02  0.42391253823E+02  0.00000000000E+00 0.  1.
         25    2    1    2    0    0  0.65114216819E+01  0.17864015047E+01  0.21981067724E+03  0.25300236520E+03  0.12509145904E+03 0.  0.
          5    1    3    3  502    0 -0.29714445901E+02  0.29004988866E+02  0.19834710239E+03  0.20269011594E+03  0.41800000000E+01 0.  1.
         -5    1    3    3    0  502  0.36225867583E+02 -0.27218587361E+02  0.21463574852E+02  0.50312249259E+02  0.41800000000E+01 0.  1.
        -11    1    1    2    0    0  0.10700807241E+01 -0.26801676118E+02 -0.15541344233E+02  0.31000133807E+02  0.00000000000E+00 0.  1.
         11    1    1    2    0    0 -0.75815024060E+01  0.25015274613E+02  0.65131985277E+02  0.70181326924E+02  0.00000000000E+00 0. -1.
</event>
<event>
 7    1  0.3001243E-009  0.1034742E+03  0.7561462E-02  0.1273155E+00
          1   -1    0    0  501    0  0.00000000000E+00  0.00000000000E+00  0.25185825213E+03  0.25185825213E+03  0.00000000000E+00 0. -1.
         -1   -1    0    0    0  501 -0.00000000000E+00 -0.00000000000E+00 -0.62709740222E+02  0.62709740222E+02  0.00000000000E+00 0.  1.
         25    2    1    2    0    0 -0.17699380750E+02  0.35728774328E+02  0.52562543015E+02  0.14142892322E+03  0.12509798560E+03 0.  0.
          5    1    3    3  502    0 -0.82598016904E+01  0.82550609338E+02  0.37776030711E+02  0.91254196190E+02  0.41800000000E+01 0. -1.
         -5    1    3    3    0  502 -0.94395790595E+01 -0.46821835010E+02  0.14786512304E+02  0.50174727031E+02  0.41800000000E+01 0. -1.
        -11    1    1    2    0    0  0.32931829655E+02 -0.46712960053E+02  0.14243117021E+03  0.15347066263E+03  0.00000000000E+00 0. -1.
         11    1    1    2    0    0 -0.15232448905E+02  0.10984185724E+02 -0.58452013182E+01  0.19668406497E+02  0.00000000000E+00 0.  1.
</event>
<event>
 7    1  0.3001243E-009  0.1285137E+03  0.7561462E-02  0.1229678E+00
         -2   -1    0    0    0  501 -0.00000000000E+00  0.00000000000E+00  0.94211600705E+01  0.94211600705E+01  0.00000000000E+00 0. -1.
          2   -1    0    0  501    0  0.00000000000E+00 -0.00000000000E+00 -0.28023972633E+04  0.28023972633E+04  0.00000000000E+00 0.  1.
         25    2    1    2    0    0  0.67279823020E+02 -0.25166076890E+02 -0.23384850600E+04  0.23429296246E+04  0.12508774558E+03 0.  0.
          5    1    3    3  502    0  0.97351017310E+02  0.89816729779E+01 -0.16974260445E+04  0.17002442589E+04  0.41800000000E+01 0. -1.
         -5    1    3    3    0  502 -0.30071194290E+02 -0.34147749868E+02 -0.64105901546E+03  0.64268536567E+03  0.41800000000E+01 0. -1.
        -11    1    1    2    0    0 -0.42558724188E+02  0.58275013669E+02 -0.24707722600E+03  0.25739925764E+03  0.00000000000E+00 0. -1.
         11    1    1    2    0    0 -0.24721098832E+02 -0.33108936779E+02 -0.20741381730E+03  0.21148954118E+03  0.00000000000E+00 0.  1.
</event>
<event>
 7    1  0.3001243E-009  0.1319447E+03  0.7561462E-02  0.1224598E+00
          2   -1    0    0  501    0  0.00000000000E+00  0.00000000000E+00  0.96044603534E+03  0.96044603534E+03  0.00000000000E+00 0.  1.
         -2   -1    0    0    0  501 -0.00000000000E+00 -0.00000000000E+00 -0.34109630038E+02  0.34109630038E+02  0.00000000000E+00 0. -1.
         25    2    1    2    0    0  0.80619336191E+02  0.77215010221E+02  0.23550133931E+03  0.28908287786E+03  0.12508554786E+03 0.  0.
          5    1    3    3  502    0  0.49494986465E+02  0.15806225617E+02  0.20865871090E+03  0.21507096617E+03  0.41800000000E+01 0. -1.
         -5    1    3    3    0  502  0.31124349726E+02  0.61408784604E+02  0.26842628412E+02  0.74011911693E+02  0.41800000000E+01 0. -1.
        -11    1    1    2    0    0 -0.24470348827E+02 -0.82823478702E+02  0.43462065557E+03  0.44311808905E+03  0.00000000000E+00 0.  1.
         11    1    1    2    0    0 -0.56148987364E+02  0.56084684815E+01  0.25621441042E+03  0.26235469847E+03  0.00000000000E+00 0. -1.
</event>
<event>
 7    1  0.3001243E-009  0.1556366E+03  0.7561462E-02  0.1193713E+00
          2   -1    0    0  501    0  0.00000000000E+00  0.00000000000E+00  0.17280007056E+03  0.17280007056E+03  0.00000000000E+00 0. -1.
         -2   -1    0    0    0  501 -0.00000000000E+00 -0.00000000000E+00 -0.18556005624E+03  0.18556005624E+03  0.00000000000E+00 0.  1.
         25    2    1    2    0    0 -0.13855754858E+03  0.20315793851E+02 -0.42290292196E+02  0.19247587849E+03  0.12509024437E+03 0.  0.
          5    1    3    3  502    0 -0.31917706528E+01 -0.14608094789E+02  0.30929947658E+02  0.34608061133E+02  0.41800000000E+01 0.  1.
         -5    1    3    3    0  502 -0.13536577793E+03  0.34923888641E+02 -0.73220239855E+02  0.15786781735E+03  0.41800000000E+01 0.  1.
        -11    1    1    2    0    0  0.52922645583E+02 -0.41983170641E+02 -0.11435172531E+02  0.68513912480E+02  0.00000000000E+00 0.  1.
         11    1    1    2    0    0  0.85634902995E+02  0.21667376790E+02  0.40965479047E+02  0.97370335840E+02  0.00000000000E+00 0. -1.
</event>
<event>
 7    1  0.3001243E-009  0.9847052E+02  0.7561462E-02  0.1283545E+00
         -2   -1    0    0    0  501 -0.00000000000E+00  0.00000000000E+00  0.17960160357E+02  0.17960160357E+02  0.00000000000E+00 0.  1.
          2   -1    0    0  501    0  0.00000000000E+00 -0.00000000000E+00 -0.71999358023E+03  0.71999358023E+03  0.00000000000E+00 0. -1.
         25    2    1    2    0    0  0.18080249076E+02 -0.28085027318E+02 -0.37820851550E+03  0.39975563017E+03  0.12508884240E+03 0.  0.
          5    1    3    3  502    0 -0.19966886206E+02  0.32506446379E+02 -0.24953885358E+03  0.25247268653E+03  0.41800000000E+01 0.  1.
         -5    1    3    3    0  502  0.38047135282E+02 -0.60591473696E+02 -0.12866966192E+03  0.14728294364E+03  0.41800000000E+01 0.  1.
        -11    1    1    2    0    0  0.30108633701E+02  0.24055222874E+02 -0.22384034779E+03  0.22713362778E+03  0.00000000000E+00 0. -1.
         11    1    1    2    0    0 -0.48188882777E+02  0.40298044436E+01 -0.99984556575E+02  0.11106448262E+03  0.00000000000E+00 0.  1.
</event>
<event>
 7    1  0.3001243E-009  0.1878334E+03  0.7561462E-02  0.1160430E+00
          1   -1    0    0  501    0  0.00000000000E+00  0.00000000000E+00  0.51416165303E+03  0.51416165303E+03  0.00000000000E+00 0. -1.
         -1   -1    0    0    0  501 -0.00000000000E+00 -0.00000000000E+00 -0.11840859371E+03  0.11840859371E+03  0.00000000000E+00 0.  1.
         25    2    1    2    0    0 -0.14083575621E+02  0.17799906567E+03  0.33945232479E+02  0.22064052830E+03  0.12509176408E+03 0.  0.
          5    1    3    3  502    0 -0.64420386586E+01  0.95562461861E+02  0.80836042690E+02  0.12540184280E+03  0.41800000000E+01 0. -1.
         -5    1    3    3    0  502 -0.76415369626E+01  0.82436603811E+02 -0.46890810211E+02  0.95238685508E+02  0.41800000000E+01 0. -1.
        -11    1    1    2    0    0 -0.23613374076E+02 -0.14466532388E+03  0.27237975003E+03  0.30931598018E+03  0.00000000000E+00 0.  1.
         11    1    1    2    0    0  0.37696949698E+02 -0.33333741795E+02  0.89428076814E+02  0.10261373827E+03  0.00000000000E+00 0. -1.
</event>
<event>
 7    1  0.3001243E-009  0.2029176E+03  0.7561462E-02  0.1147301E+00
         -1   -1    0    0    0  501 -0.00000000000E+00  0.00000000000E+00  0.20702950480E+04  0.20702950480E+04  0.00000000000E+00 0.  1.
          1   -1    0    0  501    0  0.00000000000E+00 -0.00000000000E+00 -0.20751968609E+02  0.20751968609E+02  0.00000000000E+00 0. -1.
         25    2    1    2    0    0 -0.13600224661E+03  0.10562155274E+03  0.12613089162E+04  0.12791404769E+04  0.12509058342E+03 0.  0.
          5    1    3    3  502    0 -0.14821588305E+03  0.12106549611E+03  0.10934355837E+04  0.11100647055E+04  0.41800000000E+01 0. -1.
         -5    1    3    3    0  502  0.12213636438E+02 -0.15443943374E+02  0.16787333253E+03  0.16907577141E+03  0.41800000000E+01 0. -1.
        -11    1    1    2    0    0  0.13582233466E+03 -0.11919668396E+03  0.74427229767E+03  0.76589608247E+03  0.00000000000E+00 0.  1.
         11    1    1    2    0    0  0.17991195258E+00  0.13575131222E+02  0.43961865497E+02  0.46010457224E+02  0.00000000000E+00 0. -1.
</event>
<event>
 7    1  0.3001243E-009  0.1148547E+03  0.7561462E-02  0.1251835E+00
          1   -1    0    0  501    0  0.00000000000E+00  0.00000000000E+00  0.38118319398E+03  0.38118319398E+03  0.00000000000E+00 0. -1.
         -1   -1    0    0    0  501 -0.00000000000E+00 -0.00000000000E+00 -0.67593039530E+02  0.67593039530E+02  0.00000000000E+00 0.  1.
         25    2    1    2    0    0 -0.30164468835E+01 -0.50941232669E+02  0.19220133270E+02  0.13647546461E+03  0.12510807639E+03 0.  0.
          5    1    3    3  502    0 -0.13415614817E+02 -0.87151069457E+02 -0.96860991459E+01  0.88806421756E+02  0.41800000000E+01 0. -1.
         -5    1    3    3    0  502  0.10399167933E+02  0.36209836788E+02  0.28906232416E+02  0.47669042851E+02  0.41800000000E+01 0. -1.
        -11    1    1    2    0    0  0.42749607094E+02  0.53986157472E+01  0.14155675130E+03  0.14796955023E+03  0.00000000000E+00 0.  1.
         11    1    1    2    0    0 -0.39733160211E+02  0.45542616922E+02  0.15281326988E+03  0.16433121867E+03  0.00000000000E+00 0. -1.
</event>
<event>
 7    1  0.3001243E-009  0.9051895E+02  0.7561462E-02  0.1301600E+00
          4   -1    0    0  501    0  0.00000000000E+00  0.00000000000E+00  0.29998781765E+02  0.29998781765E+02  0.00000000000E+00 0. -1.
         -4   -1    0    0    0  501 -0.00000000000E+00 -0.00000000000E+00 -0.51822853688E+03  0.51822853688E+03  0.00000000000E+00 0.  1.
         25    2    1    2    0    0 -0.42600972384E+02  0.12232285802E+02 -0.37256013596E+03  0.39549043835E+03  0.12508860962E+03 0.  0.
          5    1    3    3  502    0  0.14188431792E+02  0.40076399076E+02 -0.45764332133E+02  0.62604120114E+02  0.41800000000E+01 0.  1.
         -5    1    3    3    0  502 -0.56789404176E+02 -0.27844113275E+02 -0.32679580382E+03  0.33288631823E+03  0.41800000000E+01 0.  1.
        -11    1    1    2    0    0  0.58062254181E+02 -0.12818903028E+02 -0.31756787550E+02  0.67409518549E+02  0.00000000000E+00 0. -1.
         11    1    1    2    0    0 -0.15461281797E+02  0.58661722588E+00 -0.83912831613E+02  0.85327361754E+02  0.00000000000E+00 0.  1.
</event>
<event>
 7    1  0.3001243E-009  0.1199171E+03  0.7561462E-02  0.1243234E+00
         -2   -1    0    0    0  501 -0.00000000000E+00  0.00000000000E+00  0.42048220109E+03  0.42048220109E+03  0.00000000000E+00 0.  1.
          2   -1    0    0  501    0  0.00000000000E+00 -0.00000000000E+00 -0.39204809101E+02  0.39204809101E+02  0.00000000000E+00 0. -1.
         25    2    1    2    0    0 -0.53103770031E+02 -0.48597677164E+02  0.20511592484E+03  0.25079870371E+03  0.12508278277E+03 0.  0.
          5    1    3    3  502    0 -0.36413513292E+02  0.33329813869E+02  0.33355618378E+02  0.59723446988E+02  0.41800000000E+01 0.  1.
         -5    1    3    3    0  502 -0.16690256738E+02 -0.81927491033E+02  0.17176030646E+03  0.19107525672E+03  0.41800000000E+01 0.  1.
        -11    1    1    2    0    0 -0.42271985296E+00  0.52879485989E+02  0.54678039338E+02  0.76066462495E+02  0.00000000000E+00 0. -1.
         11    1    1    2    0    0  0.53526489883E+02 -0.42818088250E+01  0.12148342782E+03  0.13282184399E+03  0.00000000000E+00 0.  1.
</event>
<event>
 7    1  0.3001243E-009  0.1244461E+03  0.7561462E-02  0.1235937E+00
          1   -1    0    0  501    0  0.00000000000E+00  0.00000000000E+00  0.50041967634E+03  0.50041967634E+03  0.00000000000E+00 0. -1.
         -1   -1    0    0    0  501 -0.00000000000E+00 -0.00000000000E+00 -0.37395154935E+02  0.37395154935E+02  0.00000000000E+00 0.  1.
         25    2    1    2    0    0 -0.45290671020E+02 -0.68278915676E+02  0.30928936841E+03  0.34352361717E+03  0.12504122094E+03 0.  0.
          5    1    3    3  502    0 -0.14970818594E+02 -0.96185553218E+02  0.26747282898E+03  0.28466642355E+03  0.41800000000E+01 0. -1.
         -5    1    3    3    0  502 -0.30319852426E+02  0.27906637542E+02  0.41816539430E+02  0.58857193613E+02  0.41800000000E+01 0. -1.
        -11    1    1    2    0    0  0.53323086195E+02  0.13946551958E+02  0.11360539452E+03  0.12626972518E+03  0.00000000000E+00 0. -1.
         11    1    1    2    0    0 -0.80324151746E+01  0.54332363718E+02  0.40129758473E+02  0.68021488926E+02  0.00000000000E+00 0.  1.
</event>
<event>
 7    1  0.3001243E-009  0.9332603E+02  0.7561462E-02  0.1294991E+00
         -1   -1    0    0    0  501 -0.00000000000E+00  0.00000000000E+00  0.24686423465E+03  0.24686423465E+03  0.00000000000E+00 0.  1.
          1   -1    0    0  501    0  0.00000000000E+00 -0.00000000000E+00 -0.67891131680E+02  0.67891131680E+02  0.00000000000E+00 0. -1.
         25    2    1    2    0    0 -0.39125831674E+02  0.42856105571E+02  0.49237997341E+02  0.14641798390E+03  0.12508544735E+03 0.  0.
          5    1    3    3  502    0  0.21477904543E+02  0.12741598381E+02  0.70862750222E+02  0.75250584595E+02  0.41800000000E+01 0.  1.
         -5    1    3    3    0  502 -0.60603736217E+02  0.30114507190E+02 -0.21624752881E+02  0.71167399305E+02  0.41800000000E+01 0.  1.
        -11    1    1    2    0    0  0.33412450601E+01  0.20497426508E+02  0.73499736112E+02  0.76377481109E+02  0.00000000000E+00 0.  1.
         11    1    1    2    0    0  0.35784586613E+02 -0.63353532078E+02  0.56235369514E+02  0.91959901317E+02  0.00000000000E+00 0. -1.
</event>
<event>
 7    1  0.3001243E-009  0.1247188E+03  0.7561462E-02  0.1235509E+00
          2   -1    0    0  501    0  0.00000000000E+00  0.00000000000E+00  0.62089482355E+03  0.62089482355E+03  0.00000000000E+00 0.  1.
         -2   -1    0    0    0  501 -0.00000000000E+00 -0.00000000000E+00 -0.37082190589E+02  0.37082190589E+02  0.00000000000E+00 0. -1.
         25    2    1    2    0    0  0.76402207317E+02  0.48320371523E+01  0.15517212295E+03  0.21351058257E+03  0.12509090799E+03 0.  0.
          5    1    3    3  502    0 -0.35045530957E+01  0.51887414679E+02  0.71699685083E+02  0.88673011314E+02  0.41800000000E+01 0.  1.
         -5    1    3    3    0  502  0.79906760412E+02 -0.47055377527E+02  0.83472437863E+02  0.12483757125E+03  0.41800000000E+01 0.  1.
        -11    1    1    2    0    0 -0.80936640197E+02 -0.24254724049E+02  0.40412112439E+03  0.41285943679E+03  0.00000000000E+00 0.  1.
         11    1    1    2    0    0  0.45344328802E+01  0.19422686897E+02  0.24519385615E+02  0.31606994776E+02  0.00000000000E+00 0. -1.
</event>
<event>
 7    1  0.3001243E-009  0.7410573E+02  0.7561462E-02  0.1346663E+00
         -2   -1    0    0    0  501 -0.00000000000E+00  0.00000000000E+00  0.55275761861E+02  0.55275761861E+02  0.00000000000E+00 0. -1.
          2   -1    0    0  501    0  0.00000000000E+00 -0.00000000000E+00 -0.22382031450E+03  0.22382031450E+03  0.00000000000E+00 0.  1.
         25    2    1    2    0    0  0.20508127315E+02  0.19592235149E+02 -0.10961206627E+03  0.16872191510E+03  0.12509132903E+03 0.  0.
          5    1    3    3  502    0 -0.38884983057E+02  0.94122555384E+01  0.36175447413E+01  0.40388011731E+02  0.41800000000E+01 0. -1.
         -5    1    3    3    0  502  0.59393110372E+02  0.10179979610E+02 -0.11322961101E+03  0.12833390337E+03  0.41800000000E+01 0. -1.
        -11    1    1    2    0    0 -0.24918733871E+02  0.25089996627E+01  0.17588206585E+02  0.30603649912E+02  0.00000000000E+00 0. -1.
         11    1    1    2    0    0  0.44106065555E+01 -0.22101234812E+02 -0.76520692958E+02  0.79770511351E+02  0.00000000000E+00 0.  1.
</event>
<event>
 7    1  0.3001243E-009  0.2135961E+03  0.7561462E-02  0.1138749E+00
         -1   -1    0    0    0  501 -0.00000000000E+00  0.00000000000E+00  0.53845833745E+03  0.53845833745E+03  0.00000000000E+00 0.  1.
          1   -1    0    0  501    0  0.00000000000E+00 -0.00000000000E+00 -0.91097823914E+02  0.91097823914E+02  0.00000000000E+00 0. -1.
         25    2    1    2    0    0  0.49286213155E+02  0.18460789695E+03  0.26661900973E+03  0.35106018142E+03  0.12509335795E+03 0.  0.
          5    1    3    3  502    0  0.86127420356E+02  0.10523944735E+03  0.12629797937E+03  0.18563923564E+03  0.41800000000E+01 0. -1.
         -5    1    3    3    0  502 -0.36841207202E+02  0.79368449592E+02  0.14032103037E+03  0.16542094578E+03  0.41800000000E+01 0. -1.
        -11    1    1    2    0    0  0.15581213313E+02 -0.71221248380E+02  0.29493761107E+02  0.78645548974E+02  0.00000000000E+00 0. -1.
         11    1    1    2    0    0 -0.64867426468E+02 -0.11338664857E+03  0.15124774269E+03  0.19985043097E+03  0.00000000000E+00 0.  1.
</event>
<event>
 7    1  0.3001243E-009  0.1102065E+03  0.7561462E-02  0.1260188E+00
          2   -1    0    0  501    0  0.00000000000E+00  0.00000000000E+00  0.28777033332E+02  0.28777033332E+02  0.00000000000E+00 0. -1.
         -2   -1    0    0    0  501 -0.00000000000E+00 -0.00000000000E+00 -0.55226228447E+03  0.55226228447E+03  0.00000000000E+00 0.  1.
         25    2    1    2    0    0  0.57062091680E+02 -0.91194992959E+01 -0.34487959049E+03  0.37138696903E+03  0.12508837377E+03 0.  0.
          5    1    3    3  502    0  0.89325323493E+01  0.43086675502E+02 -0.44579224762E+02  0.62777634714E+02  0.41800000000E+01 0.  1.
         -5    1    3    3    0  502  0.48129559331E+02 -0.52206174798E+02 -0.30030036573E+03  0.30860933431E+03  0.41800000000E+01 0.  1.
        -11    1    1    2    0    0 -0.74049415651E+02 -0.15027496018E+02 -0.97569849477E+02  0.12340590392E+03  0.00000000000E+00 0.  1.
         11    1    1    2    0    0  0.16987323971E+02  0.24146995314E+02 -0.81035811172E+02  0.86246444858E+02  0.00000000000E+00 0. -1.
</event>
<event>
 7    1  0.3001243E-009  0.9110313E+02  0.7561462E-02  0.1300202E+00
          2   -1    0    0  501    0  0.00000000000E+00  0.00000000000E+00  0.13640407208E+04  0.13640407208E+04  0.00000000000E+00 0. -1.
         -2   -1    0    0    0  501 -0.00000000000E+00 -0.00000000000E+00 -0.39666123715E+02  0.39666123715E+02  0.00000000000E+00 0.  1.
         25    2    1    2    0    0  0.35302563248E+02  0.16970106040E+02  0.12931198312E+04  0.12997462206E+04  0.12508830658E+03 0.  0.
          5    1    3    3  502    0  0.68005725603E+02  0.43196659787E+02  0.10418946838E+04  0.10450132701E+04  0.41800000000E+01 0.  1.
         -5    1    3    3    0  502 -0.32703162355E+02 -0.26226553747E+02  0.25122514746E+03  0.25473295049E+03  0.41800000000E+01 0.  1.
        -11    1    1    2    0    0 -0.23261786614E+02 -0.32366717981E+02 -0.23189854196E+02  0.46113820997E+02  0.00000000000E+00 0.  1.
         11    1    1    2    0    0 -0.12040776634E+02  0.15396611941E+02  0.54444620050E+02  0.57846802968E+02  0.00000000000E+00 0. -1.
</event>
<event>
 7    1  0.3001243E-009  0.9108777E+02  0.7561462E-02  0.1300239E+00
         -2   -1    0    0    0  501 -0.00000000000E+00  0.00000000000E+00  0.17515466227E+02  0.17515466227E+02  0.00000000000E+00 0.  1.
          2   -1    0    0  501    0  0.00000000000E+00 -0.00000000000E+00 -0.99031796745E+03  0.99031796745E+03  0.00000000000E+00 0. -1.
         25    2    1    2    0    0  0.24791029003E+01 -0.48313701498E+02 -0.76629054206E+03  0.77793974149E+03  0.12509471150E+03 0.  0.
          5    1    3    3  502    0  0.35255205678E+02 -0.54037901117E+02 -0.70597032157E+03  0.70892495485E+03  0.41800000000E+01 0.  1.
         -5    1    3    3    0  502 -0.32776102777E+02  0.57241996195E+01 -0.60320220494E+02  0.69014786640E+02  0.41800000000E+01 0.  1.
        -11    1    1    2    0    0 -0.35474188550E+02  0.21611893545E+02 -0.38617497780E+02  0.56716868132E+02  0.00000000000E+00 0.  1.
         11    1    1    2    0    0  0.32995085650E+02  0.26701807953E+02 -0.16789446138E+03  0.17317682405E+03  0.00000000000E+00 0. -1.
</event>
<event>
 7    1  0.3001243E-009  0.1839467E+03  0.7561462E-02  0.1164037E+00
         -1   -1    0    0    0  501 -0.00000000000E+00  0.00000000000E+00  0.92775836085E+02  0.92775836085E+02  0.00000000000E+00 0.  1.
          1   -1    0    0  501    0  0.00000000000E+00 -0.00000000000E+00 -0.76827016568E+03  0.76827016568E+03  0.00000000000E+00 0. -1.
         25    2    1    2    0    0  0.78310780586E+02  0.14712427570E+03 -0.59348897379E+02  0.21667326377E+03  0.12508749241E+03 0.  0.
          5    1    3    3  502    0  0.66326941238E+02  0.16539433321E+03 -0.70629854757E+02  0.19173053324E+03  0.41800000000E+01 0. -1.
         -5    1    3    3    0  502  0.11983839348E+02 -0.18270057514E+02  0.11280957378E+02  0.24942730533E+02  0.41800000000E+01 0. -1.
        -11    1    1    2    0    0 -0.66477814476E+02 -0.11096511860E+03 -0.57035192275E+03  0.58483662090E+03  0.00000000000E+00 0. -1.
         11    1    1    2    0    0 -0.11832966110E+02 -0.36159157102E+02 -0.45793509469E+02  0.59536117095E+02  0.00000000000E+00 0.  1.
</event>
<event>
 7    1  0.3001243E-009  0.1155319E+03  0.7561462E-02  0.1250656E+00
         -2   -1    0    0    0  501 -0.00000000000E+00  0.00000000000E+00  0.18966826441E+02  0.18966826441E+02  0.00000000000E+00 0.  1.
          2   -1    0    0  501    0  0.00000000000E+00 -0.00000000000E+00 -0.15799770102E+04  0.15799770102E+04  0.00000000000E+00 0. -1.
         25    2    1    2    0    0  0.80061278256E+02 -0.52305456512E+02 -0.12685288550E+04  0.12782641759E+04  0.12509267925E+03 0.  0.
          5    1    3    3  502    0  0.47228801503E+02 -0.14512599298E+02 -0.13831347576E+03  0.14693285952E+03  0.41800000000E+01 0. -1.
         -5    1    3    3    0  502  0.32832476753E+02 -0.37792857214E+02 -0.11302153793E+04  0.11313313164E+04  0.41800000000E+01 0. -1.
        -11    1    1    2    0    0 -0.13082467535E+02  0.62178224463E+02 -0.15149221092E+03  0.16427772985E+03  0.00000000000E+00 0.  1.
         11    1    1    2    0    0 -0.66978810720E+02 -0.98727679515E+01 -0.14098911779E+03  0.15640193083E+03  0.00000000000E+00 0. -1.
</event>
<event>
 7    1  0.3001243E-009  0.9590645E+02  0.7561462E-02  0.1289147E+00
          1   -1    0    0  501    0  0.00000000000E+00  0.00000000000E+00  0.22174301030E+03  0.22174301030E+03  0.00000000000E+00 0. -1.
         -1   -1    0    0    0  501 -0.00000000000E+00 -0.00000000000E+00 -0.61766603254E+02  0.61766603254E+02  0.00000000000E+00 0.  1.
         25    2    1    2    0    0  0.16742017432E+01 -0.15772669816E+02  0.13969641658E+03  0.18818646887E+03  0.12508988047E+03 0.  0.
          5    1    3    3  502    0 -0.49546598704E+02 -0.20639617390E+01  0.12260462153E+03  0.13231965463E+03  0.41800000000E+01 0. -1.
         -5    1    3    3    0  502  0.51220800447E+02 -0.13708708077E+02  0.17091795057E+02  0.55866814245E+02  0.41800000000E+01 0. -1.
        -11    1    1    2    0    0 -0.17906526380E+02  0.48841985976E+02 -0.23764253474E+01  0.52075240552E+02  0.00000000000E+00 0.  1.
         11    1    1    2    0    0  0.16232324637E+02 -0.33069316160E+02  0.22656415813E+02  0.43247904133E+02  0.00000000000E+00 0. -1.
</event>
<event>
 7    1  0.3001243E-009  0.1706267E+03  0.7561462E-02  0.1177196E+00
          2   -1    0    0  501    0  0.00000000000E+00  0.00000000000E+00  0.42854777697E+03  0.42854777697E+03  0.00000000000E+00 0. -1.
         -2   -1    0    0    0  501 -0.00000000000E+00 -0.00000000000E+00 -0.69976147100E+02  0.69976147100E+02  0.00000000000E+00 0.  1.
         25    2    1    2    0    0 -0.94326984733E+02 -0.93222131997E+02  0.15477562230E+03  0.23915040017E+03  0.12509786050E+03 0.  0.
          5    1    3    3  502    0  0.26574003726E+02  0.36744148147E+01  0.26803878123E+02  0.38152316846E+02  0.41800000000E+01 0. -1.
         -5    1    3    3    0  502 -0.12090098846E+03 -0.96896546811E+02  0.12797174417E+03  0.20099808333E+03  0.41800000000E+01 0. -1.
        -11    1    1    2    0    0 -0.15348463856E+02  0.26808684841E+02  0.27329454095E+02  0.41245363215E+02  0.00000000000E+00 0.  1.
         11    1    1    2    0    0  0.10967544859E+03  0.66413447155E+02  0.17646655348E+03  0.21812816068E+03  0.00000000000E+00 0. -1.
</event>
<event>
 7    1  0.3001243E-009  0.3102800E+03  0.7561462E-02  0.1080212E+00
          1   -1    0    0  501    0  0.00000000000E+00  0.00000000000E+00  0.21030809732E+04  0.21030809732E+04  0.00000000000E+00 0. -1.
         -1   -1    0    0    0  501 -0.00000000000E+00 -0.00000000000E+00 -0.49065266596E+02  0.49065266596E+02  0.00000000000E+00 0.  1.
         25    2    1    2    0    0  0.73383960312E+01  0.30260476534E+03  0.99653215375E+03  0.10489743295E+04  0.12508922588E+03 0.  0.
          5    1    3    3  502    0 -0.77390903415E+01  0.77068509717E+01  0.24411152618E+01  0.11946569170E+02  0.41800000000E+01 0.  1.
         -5    1    3    3    0  502  0.15077486373E+02  0.29489791437E+03  0.99409103849E+03  0.10370277603E+04  0.41800000000E+01 0.  1.
        -11    1    1    2    0    0 -0.40240368849E+02 -0.92310214933E+02  0.30752884925E+03  0.32359613130E+03  0.00000000000E+00 0. -1.
         11    1    1    2    0    0  0.32901972818E+02 -0.21029455041E+03  0.74995470355E+03  0.77957577895E+03  0.00000000000E+00 0.  1.
</event>
<event>
 7    1  0.3001243E-009  0.1277828E+03  0.7561462E-02  0.1230783E+00
          2   -1    0    0  501    0  0.00000000000E+00  0.00000000000E+00  0.51949884954E+03  0.51949884954E+03  0.00000000000E+00 0. -1.
         -2   -1    0    0    0  501 -0.00000000000E+00 -0.00000000000E+00 -0.50732927983E+02  0.50732927983E+02  0.00000000000E+00 0.  1.
         25    2    1    2    0    0 -0.96940209149E+02 -0.70269102793E+02  0.28538593918E+03  0.33380802327E+03  0.12509001225E+03 0.  0.
          5    1    3    3  502    0 -0.84948346229E+02 -0.81978201253E+02  0.12311651373E+03  0.17062179041E+03  0.41800000000E+01 0. -1.
         -5    1    3    3    0  502 -0.11991862920E+02  0.11709098460E+02  0.16226942544E+03  0.16318623287E+03  0.41800000000E+01 0. -1.
        -11    1    1    2    0    0  0.50785905834E+02  0.43083195845E+02  0.28315606560E+02  0.72368111558E+02  0.00000000000E+00 0.  1.
         11    1    1    2    0    0  0.46154303315E+02  0.27185906947E+02  0.15506437582E+03  0.16405564270E+03  0.00000000000E+00 0. -1.
</event>
<event>
 7    1  0.3001243E-009  0.1518086E+03  0.7561462E-02  0.1198268E+00
          1   -1    0    0  501    0  0.00000000000E+00  0.00000000000E+00  0.65667895939E+03  0.65667895939E+03  0.00000000000E+00 0. -1.
         -1   -1    0    0    0  501 -0.00000000000E+00 -0.00000000000E+00 -0.70306630049E+02  0.70306630049E+02  0.00000000000E+00 0.  1.
         25    2    1    2    0    0  0.11502323763E+03 -0.49052440787E+02  0.73702086647E+02  0.19162158516E+03  0.12510134763E+03 0.  0.
          5    1    3    3  502    0  0.96177144007E+02 -0.89881193663E+02  0.53837094328E+02  0.14228343941E+03  0.41800000000E+01 0.  1.
         -5    1    3    3    0  502  0.18846093624E+02  0.40828752876E+02  0.19864992319E+02  0.49338145751E+02  0.41800000000E+01 0.  1.
        -11    1    1    2    0    0 -0.36105663686E+02  0.26136224490E+02  0.57078218048E+02  0.72419915468E+02  0.00000000000E+00 0.  1.
         11    1    1    2    0    0 -0.78917573945E+02  0.22916216297E+02  0.45559202465E+03  0.46294408882E+03  0.00000000000E+00 0. -1.
</event>
<event>
 7    1  0.3001243E-009  0.1162196E+03  0.7561462E-02  0.1249467E+00
          2   -1    0    0  501    0  0.00000000000E+00  0.00000000000E+00  0.34961541819E+03  0.34961541819E+03  0.00000000000E+00 0. -1.
         -2   -1    0    0    0  501 -0.00000000000E+00 -0.00000000000E+00 -0.56013544544E+02  0.56013544544E+02  0.00000000000E+00 0.  1.
         25    2    1    2    0    0  0.57728032535E+02  0.36043049958E+02  0.23696559263E+03  0.27646252799E+03  0.12508880886E+03 0.  0.
          5    1    3    3  502    0  0.33579614357E+02 -0.44591252010E+02  0.11874634392E+03  0.13127885150E+03  0.41800000000E+01 0.  1.
         -5    1    3    3    0  502  0.24148418178E+02  0.80634301969E+02  0.11821924871E+03  0.14518367649E+03  0.41800000000E+01 0.  1.
        -11    1    1    2    0    0 -0.50965306267E+02  0.44243820849E+01 -0.88226325059E+01  0.51912199376E+02  0.00000000000E+00 0.  1.
         11    1    1    2    0    0 -0.67627262679E+01 -0.40467432043E+02  0.65458913522E+02  0.77254235368E+02  0.00000000000E+00 0. -1.
</event>
<event>
 7    1  0.3001243E-009  0.1748535E+03  0.7561462E-02  0.1172879E+00
          3   -1    0    0  501    0  0.00000000000E+00  0.00000000000E+00  0.13989875670E+03  0.13989875670E+03  0.00000000000E+00 0. -1.
         -3   -1    0    0    0  501 -0.00000000000E+00 -0.00000000000E+00 -0.29766126504E+03  0.29766126504E+03  0.00000000000E+00 0.  1.
         25    2    1    2    0    0  0.17187363143E+03  0.46208516094E+01 -0.96872812935E+02  0.23365164660E+03  0.12508737996E+03 0.  0.
          5    1    3    3  502    0  0.14990476714E+02  0.13322137015E+02  0.26741659530E+02  0.33686532638E+02  0.41800000000E+01 0. -1.
         -5    1    3    3    0  502  0.15688315471E+03 -0.87012854060E+01 -0.12361447246E+03  0.19996511396E+03  0.41800000000E+01 0. -1.
        -11    1    1    2    0    0 -0.87217463370E+02  0.66940618115E+00  0.16871522325E+02  0.88836829564E+02  0.00000000000E+00 0.  1.
         11    1    1    2    0    0 -0.84656168055E+02 -0.52902577905E+01 -0.77761217734E+02  0.11507154557E+03  0.00000000000E+00 0. -1.
</event>
<event>
 7    1  0.3001243E-009  0.3647634E+03  0.7561462E-02  0.1056714E+00
          2   -1    0    0  501    0  0.00000000000E+00  0.00000000000E+00  0.28650229374E+04  0.28650229374E+04  0.00000000000E+00 0. -1.
         -2   -1    0    0    0  501 -0.00000000000E+00 -0.00000000000E+00 -0.51499743874E+02  0.51499743874E+02  0.00000000000E+00 0.  1.
         25    2    1    2    0    0 -0.23432174319E+03  0.27147642640E+03  0.11045059065E+04  0.11679841574E+04  0.12509022737E+03 0.  0.
          5    1    3    3  502    0 -0.22574488512E+03  0.22377121133E+03  0.10379873001E+04  0.10855733120E+04  0.41800000000E+01 0.  1.
         -5    1    3    3    0  502 -0.85768580635E+01  0.47705215067E+02  0.66518606454E+02  0.82410845424E+02  0.41800000000E+01 0.  1.
        -11    1    1    2    0    0  0.15498805345E+03 -0.21735509585E+03  0.13890490178E+04  0.14144687017E+04  0.00000000000E+00 0. -1.
         11    1    1    2    0    0  0.79333689735E+02 -0.54121330553E+02  0.31996826922E+03  0.33406982213E+03  0.00000000000E+00 0.  1.
</event>
<event>
 7    1  0.3001243E-009  0.9535947E+02  0.7561462E-02  0.1290369E+00
          1   -1    0    0  501    0  0.00000000000E+00  0.00000000000E+00  0.40920698117E+02  0.40920698117E+02  0.00000000000E+00 0. -1.
         -1   -1    0    0    0  501 -0.00000000000E+00 -0.00000000000E+00 -0.39079228472E+03  0.39079228472E+03  0.00000000000E+00 0.  1.
         25    2    1    2    0    0  0.48202869847E+02  0.13562604735E+02 -0.27309934864E+03  0.30453297859E+03  0.12509844089E+03 0.  0.
          5    1    3    3  502    0  0.75760560249E+02 -0.16167847356E+02 -0.23938489209E+03  0.25164192961E+03  0.41800000000E+01 0. -1.
         -5    1    3    3    0  502 -0.27557690402E+02  0.29730452091E+02 -0.33714456551E+02  0.52891048982E+02  0.41800000000E+01 0. -1.
        -11    1    1    2    0    0 -0.38925398228E+02  0.15485948215E+02 -0.85712401654E+02  0.95402395235E+02  0.00000000000E+00 0.  1.
         11    1    1    2    0    0 -0.92774716187E+01 -0.29048552950E+02  0.89401636843E+01  0.31777609017E+02  0.00000000000E+00 0. -1.
</event>
<event>
 7    1  0.3001243E-009  0.1202330E+03  0.7561462E-02  0.1242713E+00
          1   -1    0    0  501    0  0.00000000000E+00  0.00000000000E+00  0.54186374084E+02  0.54186374084E+02  0.00000000000E+00 0. -1.
         -1   -1    0    0    0  501 -0.00000000000E+00 -0.00000000000E+00 -0.32561019288E+03  0.32561019288E+03  0.00000000000E+00 0.  1.
         25    2    1    2    0    0 -0.53661854744E+02 -0.33690522346E+02 -0.20962884408E+03  0.25220575030E+03  0.12509533269E+03 0.  0.
          5    1    3    3  502    0  0.40570026290E+02 -0.17444577232E+02 -0.71973777123E+02  0.84545474754E+02  0.41800000000E+01 0.  1.
         -5    1    3    3    0  502 -0.94231881034E+02 -0.16245945114E+02 -0.13765506696E+03  0.16766027554E+03  0.41800000000E+01 0.  1.
        -11    1    1    2    0    0  0.40824676747E+02  0.59156027969E+02 -0.67392669293E+02  0.98528481928E+02  0.00000000000E+00 0.  1.
         11    1    1    2    0    0  0.12837177997E+02 -0.25465505623E+02  0.55976945843E+01  0.29062334734E+02  0.00000000000E+00 0. -1.
</event>
<event>
 7    1  0.3758861E-009  0.1358020E+03  0.7561462E-02  0.1219092E+00
          1   -1    0    0  501    0  0.00000000000E+00  0.00000000000E+00  0.45928630202E+03  0.45928630202E+03  0.00000000000E+00 0. -1.
         -1   -1    0    0    0  501 -0.00000000000E+00 -0.00000000000E+00 -0.60198349683E+02  0.60198349683E+02  0.00000000000E+00 0.  1.
         25    2    1    2    0    0  0.12297890998E+03 -0.31758034377E+01  0.17465859132E+03  0.24756220461E+03  0.12509006196E+03 0.  0.
          5    1    3    3  502    0  0.10076818298E+03 -0.21254909711E+02  0.18898796998E+03  0.21526709708E+03  0.41800000000E+01 0. -1.
         -5    1    3    3    0  502  0.22210726992E+02  0.18079106274E+02 -0.14329378660E+02  0.32295107523E+02  0.41800000000E+01 0. -1.
        -11    1    1    2    0    0 -0.51296442837E+02 -0.31255781793E+02  0.43128931104E+02  0.73948317367E+02  0.00000000000E+00 0.  1.
         11    1    1    2    0    0 -0.71682467139E+02  0.34431585230E+02  0.18130042992E+03  0.19797412973E+03  0.00000000000E+00 0. -1.
</event>
<event>
 7    1  0.3001243E-009  0.1421170E+03  0.7561462E-02  0.1210508E+00
         -1   -1    0    0    0  501 -0.00000000000E+00  0.00000000000E+00  0.61395166517E+03  0.61395166517E+03  0.00000000000E+00 0.  1.
          1   -1    0    0  501    0  0.00000000000E+00 -0.00000000000E+00 -0.43810240830E+02  0.43810240830E+02  0.00000000000E+00 0. -1.
         25    2    1    2    0    0 -0.44232639593E+02  0.10789792194E+03  0.39279238267E+03  0.42840572833E+03  0.12508846557E+03 0.  0.
          5    1    3    3  502    0  0.41122371675E+01 -0.21533247717E+02  0.12568351096E+03  0.12764955377E+03  0.41800000000E+01 0. -1.
         -5    1    3    3    0  502 -0.48344876761E+02  0.12943116966E+03  0.26710887171E+03  0.30075617456E+03  0.41800000000E+01 0. -1.
        -11    1    1    2    0    0  0.44644479379E+02 -0.55224643320E+02  0.15802641925E+03  0.17324906912E+03  0.00000000000E+00 0.  1.
         11    1    1    2    0    0 -0.41183978616E+00 -0.52673278621E+02  0.19322622418E+02  0.56107108549E+02  0.00000000000E+00 0. -1.
</event>
<event>
 7    1  0.3001243E-009  0.2719251E+03  0.7561462E-02  0.1100183E+00
         -1   -1    0    0    0  501 -0.00000000000E+00  0.00000000000E+00  0.74930601092E+02  0.74930601092E+02  0.00000000000E+00 0.  1.
          1   -1    0    0  501    0  0.00000000000E+00 -0.00000000000E+00 -0.11216040013E+04  0.11216040013E+04  0.00000000000E+00 0. -1.
         25    2    1    2    0    0  0.21039105734E+03  0.13754928882E+03 -0.34084202068E+03  0.44159289119E+03  0.12508714812E+03 0.  0.
          5    1    3    3  502    0  0.16498032326E+03  0.41655040181E+02 -0.24647668250E+03  0.29953610275E+03  0.41800000000E+01 0. -1.
         -5    1    3    3    0  502  0.45410734076E+02  0.95894248640E+02 -0.94365338189E+02  0.14205678844E+03  0.41800000000E+01 0. -1.
        -11    1    1    2    0    0 -0.19824057213E+03 -0.15109658016E+03 -0.66716997818E+03  0.71221154214E+03  0.00000000000E+00 0.  1.
         11    1    1    2    0    0 -0.12150485210E+02  0.13547291344E+02 -0.38661401322E+02  0.42730169035E+02  0.00000000000E+00 0. -1.
</event>
<event>
 7    1  0.3001243E-009  0.2540454E+03  0.7561462E-02  0.1110775E+00
         -2   -1    0    0    0  501 -0.00000000000E+00  0.00000000000E+00  0.16162711712E+03  0.16162711712E+03  0.00000000000E+00 0.  1.
          2   -1    0    0  501    0  0.00000000000E+00 -0.00000000000E+00 -0.42308589558E+03  0.42308589558E+03  0.00000000000E+00 0. -1.
         25    2    1    2    0    0 -0.91281770548E+02 -0.21904183089E+03 -0.12209432035E+03  0.29473027175E+03  0.12508886724E+03 0.  0.
          5    1    3    3  502    0 -0.17067887304E+02  0.51029236727E+01 -0.41250914740E+02  0.45127186639E+02  0.41800000000E+01 0.  1.
         -5    1    3    3    0  502 -0.74213883243E+02 -0.22414475456E+03 -0.80843405610E+02  0.24960308511E+03  0.41800000000E+01 0.  1.
        -11    1    1    2    0    0  0.65344113463E+02  0.49102438666E+02 -0.35321291838E+02  0.89042104110E+02  0.00000000000E+00 0.  1.
         11    1    1    2    0    0  0.25937657085E+02  0.16993939223E+03 -0.10404316628E+03  0.20094063684E+03  0.00000000000E+00 0. -1.
</event>
<event>
 7    1  0.3001243E-009  0.9587477E+02  0.7561462E-02  0.1289218E+00
         -2   -1    0    0    0  501 -0.00000000000E+00  0.00000000000E+00  0.45768626005E+02  0.45768626005E+02  0.00000000000E+00 0.  1.
          2   -1    0    0  501    0  0.00000000000E+00 -0.00000000000E+00 -0.34063732560E+03  0.34063732560E+03  0.00000000000E+00 0. -1.
         25    2    1    2    0    0 -0.52386939565E+02 -0.27985149687E+02 -0.17979882389E+03  0.22694377102E+03  0.12509315766E+03 0.  0.
          5    1    3    3  502    0 -0.22135766598E+02  0.16983082839E+02 -0.16923360224E+03  0.17156894180E+03  0.41800000000E+01 0.  1.
         -5    1    3    3    0  502 -0.30251172967E+02 -0.44968232526E+02 -0.10565221649E+02  0.55374829218E+02  0.41800000000E+01 0.  1.
        -11    1    1    2    0    0 -0.99586139528E+01 -0.25285533003E+02 -0.19036174238E+02  0.33179935213E+02  0.00000000000E+00 0.  1.
         11    1    1    2    0    0  0.62345553518E+02  0.53270682690E+02 -0.96033701468E+02  0.12628224537E+03  0.00000000000E+00 0. -1.
</event>
<event>
 7    1  0.3001243E-009  0.1013886E+03  0.7561462E-02  0.1277403E+00
          2   -1    0    0  501    0  0.00000000000E+00  0.00000000000E+00  0.45282675131E+03  0.45282675131E+03  0.00000000000E+00 0. -1.
         -2   -1    0    0    0  501 -0.00000000000E+00 -0.00000000000E+00 -0.27740006126E+02  0.27740006126E+02  0.00000000000E+00 0.  1.
         25    2    1    2    0    0 -0.27811259453E+02  0.44936099355E+01  0.21272120872E+03  0.24837709057E+03  0.12508879964E+03 0.  0.
          5    1    3    3  502    0  0.26107429983E+02  0.37775814764E+02  0.15787071507E+03  0.16446654723E+03  0.41800000000E+01 0. -1.
         -5    1    3    3    0  502 -0.53918689436E+02 -0.33282204828E+02  0.54850493650E+02  0.83910543332E+02  0.41800000000E+01 0. -1.
        -11    1    1    2    0    0 -0.23401519704E+02  0.24856862414E+02  0.64497589685E+02  0.72975569944E+02  0.00000000000E+00 0.  1.
         11    1    1    2    0    0  0.51212779157E+02 -0.29350472350E+02  0.14786794678E+03  0.15921409693E+03  0.00000000000E+00 0. -1.
</event>
<event>
 7    1  0.3001243E-009  0.2300614E+03  0.7561462E-02  0.1126597E+00
         -2   -1    0    0    0  501 -0.00000000000E+00  0.00000000000E+00  0.42903340404E+02  0.42903340404E+02  0.00000000000E+00 0.  1.
          2   -1    0    0  501    0  0.00000000000E+00 -0.00000000000E+00 -0.15441471963E+04  0.15441471963E+04  0.00000000000E+00 0. -1.
         25    2    1    2    0    0  0.17962166813E+03  0.10642778531E+03 -0.10948129661E+04  0.11215398888E+04  0.12508187054E+03 0.  0.
          5    1    3    3  502    0  0.19289802975E+03  0.91627183575E+02 -0.10593533468E+04  0.10806720948E+04  0.41800000000E+01 0. -1.
         -5    1    3    3    0  502 -0.13276361616E+02  0.14800601738E+02 -0.35459619290E+02  0.40867794041E+02  0.41800000000E+01 0. -1.
        -11    1    1    2    0    0 -0.14528643151E+03 -0.38818950882E+02 -0.28767769656E+03  0.32461286978E+03  0.00000000000E+00 0.  1.
         11    1    1    2    0    0 -0.34335236624E+02 -0.67608834431E+02 -0.11875319318E+03  0.14089777805E+03  0.00000000000E+00 0. -1.
</event>
<event>
 7    1  0.3001243E-009  0.3071584E+03  0.7561462E-02  0.1081716E+00
         -3   -1    0    0    0  501 -0.00000000000E+00  0.00000000000E+00  0.12443941268E+03  0.12443941268E+03  0.00000000000E+00 0.  1.
          3   -1    0    0  501    0  0.00000000000E+00 -0.00000000000E+00 -0.81198648133E+03  0.81198648133E+03  0.00000000000E+00 0. -1.
         25    2    1    2    0    0  0.23160598692E+02  0.29340352370E+03 -0.42011059960E+03  0.52797996798E+03  0.12509152506E+03 0.  0.
          5    1    3    3  502    0  0.73851542528E+02  0.20100571167E+03 -0.27407552837E+03  0.34783935101E+03  0.41800000000E+01 0.  1.
         -5    1    3    3    0  502 -0.50690943836E+02  0.92397812027E+02 -0.14603507124E+03  0.18014061698E+03  0.41800000000E+01 0.  1.
        -11    1    1    2    0    0  0.15554773568E+01 -0.45816738046E+02 -0.95706722916E+02  0.10611960142E+03  0.00000000000E+00 0. -1.
         11    1    1    2    0    0 -0.24716076048E+02 -0.24758678565E+03 -0.17172974613E+03  0.30232632460E+03  0.00000000000E+00 0.  1.
</event>
<event>
 6    1  0.3001243E-009  0.1495781E+03  0.7561462E-02  0.1200992E+00
          1   -1    0    0  501    0  0.00000000000E+00  0.00000000000E+00  0.31285352414E+03  0.31285352414E+03  0.00000000000E+00 0.  1.
         -1   -1    0    0    0  501 -0.00000000000E+00 -0.00000000000E+00 -0.15757329408E+03  0.15757329408E+03  0.00000000000E+00 0. -1.
          5    1    1    2  502    0  0.10425415688E+02 -0.51315596838E+02 -0.91302479486E+02  0.10533562992E+03  0.41800000000E+01 0. -1.
         -5    1    1    2    0  502 -0.12967080849E+02 -0.84692228125E+02  0.25697997989E+02  0.89547630852E+02  0.41800000000E+01 0. -1.
        -11    1    1    2    0    0  0.44129185909E+02  0.65282720119E+02  0.13803638673E+03  0.15894421240E+03  0.00000000000E+00 0.  1.
         11    1    1    2    0    0 -0.41587520748E+02  0.70725104844E+02  0.82848324826E+02  0.11659934504E+03  0.00000000000E+00 0. -1.
</event>
<event>
 7    1  0.3001243E-009  0.1526603E+03  0.7561462E-02  0.1197242E+00
          2   -1    0    0  501    0  0.00000000000E+00  0.00000000000E+00  0.48729584747E+03  0.48729584747E+03  0.00000000000E+00 0. -1.
         -2   -1    0    0    0  501 -0.00000000000E+00 -0.00000000000E+00 -0.53832251546E+02  0.53832251546E+02  0.00000000000E+00 0.  1.
         25    2    1    2    0    0 -0.46796037689E+02  0.10191285528E+03  0.31466739565E+03  0.35670672278E+03  0.12509203403E+03 0.  0.
          5    1    3    3  502    0  0.41190040997E+02  0.33786717906E+02  0.71576733693E+02  0.89324481473E+02  0.41800000000E+01 0. -1.
         -5    1    3    3    0  502 -0.87986078687E+02  0.68126137373E+02  0.24309066196E+03  0.26738224131E+03  0.41800000000E+01 0. -1.
        -11    1    1    2    0    0  0.69211300890E+02 -0.54540746596E+02  0.82150649020E+02  0.12047251282E+03  0.00000000000E+00 0. -1.
         11    1    1    2    0    0 -0.22415263201E+02 -0.47372108683E+02  0.36645551251E+02  0.63948863414E+02  0.00000000000E+00 0.  1.
</event>
<event>
 7    1  0.3001243E-009  0.1212731E+03  0.7561462E-02  0.1241012E+00
         -1   -1    0    0    0  501 -0.00000000000E+00  0.00000000000E+00  0.20755766732E+02  0.20755766732E+02  0.00000000000E+00 0.  1.
          1   -1    0    0  501    0  0.00000000000E+00 -0.00000000000E+00 -0.85869156105E+03  0.85869156105E+03  0.00000000000E+00 0. -1.
         25    2    1    2    0    0  0.40472498934E+02  0.38158860507E+02 -0.64216677291E+03  0.65659716601E+03  0.12509017702E+03 0.  0.
          5    1    3    3  502    0 -0.30442719216E+02 -0.26361284411E+02 -0.21567363653E+03  0.21944080377E+03  0.41800000000E+01 0.  1.
         -5    1    3    3    0  502  0.70915218150E+02  0.64520144918E+02 -0.42649313638E+03  0.43715636224E+03  0.41800000000E+01 0.  1.
        -11    1    1    2    0    0 -0.24916679493E+02  0.28377554253E+02 -0.60884620814E+02  0.71645401486E+02  0.00000000000E+00 0. -1.
         11    1    1    2    0    0 -0.15555819441E+02 -0.66536414760E+02 -0.13488440060E+03  0.15120476028E+03  0.00000000000E+00 0.  1.
</event>
<event>
 7    1  0.3001243E-009  0.9341875E+02  0.7561462E-02  0.1294778E+00
         -1   -1    0    0    0  501 -0.00000000000E+00  0.00000000000E+00  0.40060642583E+02  0.40060642583E+02  0.00000000000E+00 0.  1.
          1   -1    0    0  501    0  0.00000000000E+00 -0.00000000000E+00 -0.39632048880E+03  0.39632048880E+03  0.00000000000E+00 0. -1.
         25    2    1    2    0    0 -0.45570653899E+02 -0.30390246065E+02 -0.13665839629E+03  0.19319128284E+03  0.12508838050E+03 0.  0.
          5    1    3    3  502    0  0.29654551579E+02 -0.68699756359E+01 -0.10282607176E+03  0.10731850926E+03  0.41800000000E+01 0. -1.
         -5    1    3    3    0  502 -0.75225205478E+02 -0.23520270429E+02 -0.33832324530E+02  0.85872773586E+02  0.41800000000E+01 0. -1.
        -11    1    1    2    0    0  0.57677193172E+02  0.30135658210E+02 -0.22156368533E+03  0.23092267789E+03  0.00000000000E+00 0. -1.
         11    1    1    2    0    0 -0.12106539273E+02  0.25458785496E+00  0.19622353999E+01  0.12267170656E+02  0.00000000000E+00 0.  1.
</event>
<event>
 7    1  0.3001243E-009  0.7195010E+02  0.7561462E-02  0.1353584E+00
          1   -1    0    0  501    0  0.00000000000E+00  0.00000000000E+00  0.39290453024E+02  0.39290453024E+02  0.00000000000E+00 0.  1.
         -1   -1    0    0    0  501 -0.00000000000E+00 -0.00000000000E+00 -0.38698139733E+03  0.38698139733E+03  0.00000000000E+00 0. -1.
         25    2    1    2    0    0 -0.47651946694E+02 -0.29593634029E+01 -0.21503631832E+03  0.25331289837E+03  0.12508932980E+03 0.  0.
          5    1    3    3  502    0 -0.52499856873E+02  0.35829050193E+01 -0.22988608844E+03  0.23586894293E+03  0.41800000000E+01 0.  1.
         -5    1    3    3    0  502  0.48479101796E+01 -0.65422684222E+01  0.14849770114E+02  0.17443955448E+02  0.41800000000E+01 0.  1.
        -11    1    1    2    0    0 -0.10336777487E+02 -0.17619315240E+02  0.59779732590E+01  0.21284393405E+02  0.00000000000E+00 0.  1.
         11    1    1    2    0    0  0.57988724181E+02  0.20578678643E+02 -0.13863259924E+03  0.15167455858E+03  0.00000000000E+00 0. -1.
</event>
<event>
 7    1  0.3001243E-009  0.8570367E+02  0.7561462E-02  0.1313603E+00
         -1   -1    0    0    0  501 -0.00000000000E+00  0.00000000000E+00  0.17044078520E+03  0.17044078520E+03  0.00000000000E+00 0.  1.
          1   -1    0    0  501    0  0.00000000000E+00 -0.00000000000E+00 -0.88955565814E+02  0.88955565814E+02  0.00000000000E+00 0. -1.
         25    2    1    2    0    0  0.47935644107E+02  0.42138477954E+01  0.85565948449E+01  0.13429800115E+03  0.12508858984E+03 0.  0.
          5    1    3    3  502    0  0.50637539880E+02  0.18938959940E+02 -0.49972656915E+02  0.73739972117E+02  0.41800000000E+01 0. -1.
         -5    1    3    3    0  502 -0.27018957731E+01 -0.14725112144E+02  0.58529251760E+02  0.60558029030E+02  0.41800000000E+01 0. -1.
        -11    1    1    2    0    0  0.29261407301E+01 -0.39581295533E+02  0.28051898020E+02  0.48601957143E+02  0.00000000000E+00 0.  1.
         11    1    1    2    0    0 -0.50861784837E+02  0.35367447738E+02  0.44876726522E+02  0.76496392723E+02  0.00000000000E+00 0. -1.
</event>
<event>
 7    1  0.3001243E-009  0.1287242E+03  0.7561462E-02  0.1229361E+00
          2   -1    0    0  501    0  0.00000000000E+00  0.00000000000E+00  0.96027614375E+03  0.96027614375E+03  0.00000000000E+00 0.  1.
         -2   -1    0    0    0  501 -0.00000000000E+00 -0.00000000000E+00 -0.22660133255E+02  0.22660133255E+02  0.00000000000E+00 0. -1.
         25    2    1    2    0    0 -0.56082477640E+02  0.65257135020E+02  0.67125720119E+03  0.68821289404E+03  0.12508804663E+03 0.  0.
          5    1    3    3  502    0  0.16189244011E+02  0.56709332546E+02  0.47839287117E+03  0.48203241759E+03  0.41800000000E+01 0.  1.
         -5    1    3    3    0  502 -0.72271721652E+02  0.85478024736E+01  0.19286433002E+03  0.20618047645E+03  0.41800000000E+01 0.  1.
        -11    1    1    2    0    0  0.48779396565E+02 -0.88507693857E+02  0.22619183641E+03  0.24774137373E+03  0.00000000000E+00 0.  1.
         11    1    1    2    0    0  0.73030810753E+01  0.23250558837E+02  0.40166972901E+02  0.46982009231E+02  0.00000000000E+00 0. -1.
</event>
<event>
 7    1  0.3001243E-009  0.1551437E+03  0.7561462E-02  0.1194291E+00
         -2   -1    0    0    0  501 -0.00000000000E+00  0.00000000000E+00  0.55473382292E+03  0.55473382292E+03  0.00000000000E+00 0.  1.
          2   -1    0    0  501    0  0.00000000000E+00 -0.00000000000E+00 -0.63564023603E+02  0.63564023603E+02  0.00000000000E+00 0. -1.
         25    2    1    2    0    0  0.82682644385E+02 -0.12163969284E+03  0.18999491222E+03  0.27088648664E+03  0.12509511348E+03 0.  0.
          5    1    3    3  502    0  0.72551081648E+02 -0.74187100802E+02  0.19600313524E+03  0.22181543409E+03  0.41800000000E+01 0.  1.
         -5    1    3    3    0  502  0.10131562737E+02 -0.47452592037E+02 -0.60082230225E+01  0.49071052551E+02  0.41800000000E+01 0.  1.
        -11    1    1    2    0    0 -0.25118082874E+02  0.22819766265E+01  0.12187604335E+03  0.12445840850E+03  0.00000000000E+00 0.  1.
         11    1    1    2    0    0 -0.57564561511E+02  0.11935771621E+03  0.17929884375E+03  0.22295295139E+03  0.00000000000E+00 0. -1.
</event>
<event>
 7    1  0.3001243E-009  0.9050786E+02  0.7561462E-02  0.1301626E+00
         -3   -1    0    0    0  501 -0.00000000000E+00  0.00000000000E+00  0.21421442879E+03  0.21421442879E+03  0.00000000000E+00 0.  1.
          3   -1    0    0  501    0  0.00000000000E+00 -0.00000000000E+00 -0.72526122053E+02  0.72526122053E+02  0.00000000000E+00 0. -1.
         25    2    1    2    0    0  0.17879363324E+02 -0.53973801167E+02  0.48464463677E+02  0.14570140327E+03  0.12508897565E+03 0.  0.
          5    1    3    3  502    0 -0.16877225094E+02 -0.69129479956E+02 -0.13871367382E+02  0.72619645819E+02  0.41800000000E+01 0. -1.
         -5    1    3    3    0  502  0.34756588417E+02  0.15155678789E+02  0.62335831059E+02  0.73081757449E+02  0.41800000000E+01 0. -1.
        -11    1    1    2    0    0 -0.25878477188E+02  0.11418386932E+02  0.93554718251E+02  0.97737200946E+02  0.00000000000E+00 0.  1.
         11    1    1    2    0    0  0.79991138643E+01  0.42555414235E+02 -0.33087519284E+00  0.43301946627E+02  0.00000000000E+00 0. -1.
</event>
<event>
 7    1  0.3130638E-009  0.2470090E+03  0.7561462E-02  0.1115210E+00
         -2   -1    0    0    0  501 -0.00000000000E+00  0.00000000000E+00  0.45782169823E+02  0.45782169823E+02  0.00000000000E+00 0.  1.
          2   -1    0    0  501    0  0.00000000000E+00 -0.00000000000E+00 -0.14914100874E+04  0.14914100874E+04  0.00000000000E+00 0. -1.
         25    2    1    2    0    0 -0.65379687757E+02 -0.21981260961E+03 -0.92097195856E+03  0.95730305011E+03  0.12509074458E+03 0.  0.
          5    1    3    3  502    0 -0.82914290997E+02 -0.68236197224E+02 -0.33758778178E+03  0.35427946747E+03  0.41800000000E+01 0. -1.
         -5    1    3    3    0  502  0.17534603240E+02 -0.15157641239E+03 -0.58338417678E+03  0.60302358264E+03  0.41800000000E+01 0. -1.
        -11    1    1    2    0    0  0.21991096618E+02  0.15077232894E+03 -0.24434676283E+03  0.28796049036E+03  0.00000000000E+00 0.  1.
         11    1    1    2    0    0  0.43388591139E+02  0.69040280667E+02 -0.28030919618E+03  0.29192871674E+03  0.00000000000E+00 0. -1.
</event>
<event>
 7    1  0.3001243E-009  0.1160586E+03  0.7561462E-02  0.1249745E+00
          2   -1    0    0  501    0  0.00000000000E+00  0.00000000000E+00  0.17015126038E+04  0.17015126038E+04  0.00000000000E+00 0. -1.
         -2   -1    0    0    0  501 -0.00000000000E+00 -0.00000000000E+00 -0.13127668738E+02  0.13127668738E+02  0.00000000000E+00 0.  1.
         25    2    1    2    0    0  0.51039723546E+02 -0.47167252138E+02  0.13540199732E+04  0.13615609229E+04  0.12509298954E+03 0.  0.
          5    1    3    3  502    0  0.84078843061E+02 -0.61685481467E+02  0.11028751563E+04  0.11078020731E+04  0.41800000000E+01 0.  1.
         -5    1    3    3    0  502 -0.33039119515E+02  0.14518229329E+02  0.25114481688E+03  0.25375884979E+03  0.41800000000E+01 0.  1.
        -11    1    1    2    0    0  0.73726475424E+01  0.29486262117E+02  0.30180242757E+02  0.42832728589E+02  0.00000000000E+00 0.  1.
         11    1    1    2    0    0 -0.58412371089E+02  0.17680990020E+02  0.30418471914E+03  0.31024662103E+03  0.00000000000E+00 0. -1.
</event>
<event>
 7    1  0.3001243E-009  0.2003753E+03  0.7561462E-02  0.1149423E+00
         -2   -1    0    0    0  501 -0.00000000000E+00  0.00000000000E+00  0.74094111448E+02  0.74094111448E+02  0.00000000000E+00 0. -1.
          2   -1    0    0  501    0  0.00000000000E+00 -0.00000000000E+00 -0.67790394513E+03  0.67790394513E+03  0.00000000000E+00 0.  1.
         25    2    1    2    0    0 -0.18901701227E+03 -0.42474264421E+02 -0.36712588672E+03  0.43353855044E+03  0.12507103562E+03 0.  0.
          5    1    3    3  502    0 -0.49270144731E+02 -0.42500315259E+02 -0.36861129534E+02  0.74900195124E+02  0.41800000000E+01 0.  1.
         -5    1    3    3    0  502 -0.13974686754E+03  0.26050838325E-01 -0.33026475718E+03  0.35863835531E+03  0.41800000000E+01 0.  1.
        -11    1    1    2    0    0  0.85843645053E+02  0.50639104053E+01 -0.16872613103E+03  0.18937603301E+03  0.00000000000E+00 0.  1.
         11    1    1    2    0    0  0.10317336722E+03  0.37410354016E+02 -0.67957815934E+02  0.12908347314E+03  0.00000000000E+00 0. -1.
</event>
<event>
 7    1  0.3001243E-009  0.1760826E+03  0.7561462E-02  0.1171649E+00
         -1   -1    0    0    0  501 -0.00000000000E+00  0.00000000000E+00  0.59355463490E+03  0.59355463490E+03  0.00000000000E+00 0. -1.
          1   -1    0    0  501    0  0.00000000000E+00 -0.00000000000E+00 -0.62182272427E+02  0.62182272427E+02  0.00000000000E+00 0.  1.
         25    2    1    2    0    0 -0.33254077757E+01  0.15765128478E+03  0.26180855366E+03  0.33023795114E+03  0.12509356368E+03 0.  0.
          5    1    3    3  502    0  0.35961907769E+02  0.94870146039E+02  0.22621850445E+03  0.24796348033E+03  0.41800000000E+01 0.  1.
         -5    1    3    3    0  502 -0.39287315545E+02  0.62781138745E+02  0.35590049207E+02  0.82274470812E+02  0.41800000000E+01 0.  1.
        -11    1    1    2    0    0  0.38141114401E+02 -0.47482809963E+02  0.13523625973E+03  0.14831792810E+03  0.00000000000E+00 0. -1.
         11    1    1    2    0    0 -0.34815706625E+02 -0.11016847482E+03  0.13432754909E+03  0.17718102809E+03  0.00000000000E+00 0.  1.
</event>
<event>
 7    1  0.3001243E-009  0.1063607E+03  0.7561462E-02  0.1267462E+00
          1   -1    0    0  501    0  0.00000000000E+00  0.00000000000E+00  0.35576713337E+02  0.35576713337E+02  0.00000000000E+00 0. -1.
         -1   -1    0    0    0  501 -0.00000000000E+00 -0.00000000000E+00 -0.41145180837E+03  0.41145180837E+03  0.00000000000E+00 0.  1.
         25    2    1    2    0    0 -0.24160482363E+02  0.16968685987E+02 -0.11949786776E+03  0.17553049680E+03  0.12513812248E+03 0.  0.
          5    1    3    3  502    0  0.49485317842E+02 -0.88055246463E+01 -0.46869616418E+02  0.68851777677E+02  0.41800000000E+01 0. -1.
         -5    1    3    3    0  502 -0.73645800205E+02  0.25774210633E+02 -0.72628251339E+02  0.10667871912E+03  0.41800000000E+01 0. -1.
        -11    1    1    2    0    0  0.43611001158E+02  0.15512728408E+02 -0.94171436887E+02  0.10493247205E+03  0.00000000000E+00 0. -1.
         11    1    1    2    0    0 -0.19450518795E+02 -0.32481414395E+02 -0.16220579039E+03  0.16656555286E+03  0.00000000000E+00 0.  1.
</event>
<event>
 7    1  0.3001243E-009  0.8661576E+02  0.7561462E-02  0.1311260E+00
          3   -1    0    0  501    0  0.00000000000E+00  0.00000000000E+00  0.28157871524E+03  0.28157871524E+03  0.00000000000E+00 0. -1.
         -3   -1    0    0    0  501 -0.00000000000E+00 -0.00000000000E+00 -0.69786258145E+02  0.69786258145E+02  0.00000000000E+00 0.  1.
         25    2    1    2    0    0 -0.56060867393E+02  0.64315557075E+02  0.13576443656E+03  0.20338697844E+03  0.12511981868E+03 0.  0.
          5    1    3    3  502    0 -0.37121790455E+02  0.49268726094E+02  0.15837309457E+03  0.17001454108E+03  0.41800000000E+01 0. -1.
         -5    1    3    3    0  502 -0.18939076938E+02  0.15046830981E+02 -0.22608658007E+02  0.33372437350E+02  0.41800000000E+01 0. -1.
        -11    1    1    2    0    0  0.46202751085E+02 -0.41921535795E+02  0.97282205174E+02  0.11556788834E+03  0.00000000000E+00 0. -1.
         11    1    1    2    0    0  0.98581163080E+01 -0.22394021280E+02 -0.21254184637E+02  0.32410106615E+02  0.00000000000E+00 0.  1.
</event>
<event>
 7    1  0.3001243E-009  0.1309053E+03  0.7561462E-02  0.1226119E+00
         -1   -1    0    0    0  501 -0.00000000000E+00  0.00000000000E+00  0.78123863689E+02  0.78123863689E+02  0.00000000000E+00 0. -1.
          1   -1    0    0  501    0  0.00000000000E+00 -0.00000000000E+00 -0.89888361412E+03  0.89888361412E+03  0.00000000000E+00 0.  1.
         25    2    1    2    0    0  0.84121345691E+02  0.35649237504E+02 -0.82189900203E+03  0.83636967701E+03  0.12509595579E+03 0.  0.
          5    1    3    3  502    0  0.25694600909E+02  0.66876028654E+02 -0.61278590158E+03  0.61697378332E+03  0.41800000000E+01 0.  1.
         -5    1    3    3    0  502  0.58426744781E+02 -0.31226791150E+02 -0.20911310045E+03  0.21939589369E+03  0.41800000000E+01 0.  1.
        -11    1    1    2    0    0 -0.40637209651E+01 -0.43074326249E+02 -0.31857432975E+02  0.53729018656E+02  0.00000000000E+00 0.  1.
         11    1    1    2    0    0 -0.80057624725E+02  0.74250887455E+01  0.32996684577E+02  0.86908782138E+02  0.00000000000E+00 0. -1.
</event>
<event>
 7    1  0.3001243E-009  0.2166570E+03  0.7561462E-02  0.1136400E+00
          2   -1    0    0  501    0  0.00000000000E+00  0.00000000000E+00  0.89789108859E+03  0.89789108859E+03  0.00000000000E+00 0. -1.
         -2   -1    0    0    0  501 -0.00000000000E+00 -0.00000000000E+00 -0.11050337558E+03  0.11050337558E+03  0.00000000000E+00 0.  1.
         25    2    1    2    0    0 -0.64904495786E+02 -0.19618476136E+03  0.73780894627E+03  0.77634475871E+03  0.12509232199E+03 0.  0.
          5    1    3    3  502    0 -0.16727187512E+02 -0.10443368512E+03  0.56477793549E+03  0.57461098336E+03  0.41800000000E+01 0.  1.
         -5    1    3    3    0  502 -0.48177308273E+02 -0.91751076237E+02  0.17303101078E+03  0.20173377534E+03  0.41800000000E+01 0.  1.
        -11    1    1    2    0    0  0.79131326501E+02  0.10508151285E+03  0.10692849723E+02  0.13197813535E+03  0.00000000000E+00 0.  1.
         11    1    1    2    0    0 -0.14226830716E+02  0.91103248513E+02  0.38885917022E+02  0.10007157011E+03  0.00000000000E+00 0. -1.
</event>
<event>
 7    1  0.5125625E-009  0.1363288E+03  0.7561462E-02  0.1218356E+00
          1   -1    0    0  501    0  0.00000000000E+00  0.00000000000E+00  0.12280932237E+03  0.12280932237E+03  0.00000000000E+00 0. -1.
         -1   -1    0    0    0  501 -0.00000000000E+00 -0.00000000000E+00 -0.25238843541E+03  0.25238843541E+03  0.00000000000E+00 0.  1.
         25    2    1    2    0    0  0.10425483587E+03  0.84006080888E+02 -0.10475892630E+03  0.21106489940E+03  0.12509143333E+03 0.  0.
          5    1    3    3  502    0  0.35709595533E+01  0.16594972609E+02 -0.86751676692E+02  0.88495596935E+02  0.41800000000E+01 0.  1.
         -5    1    3    3    0  502  0.10068387632E+03  0.67411108279E+02 -0.18007249604E+02  0.12256930247E+03  0.41800000000E+01 0.  1.
        -11    1    1    2    0    0 -0.33846663502E+02 -0.29443963403E+02 -0.54181799599E+02  0.70343521513E+02  0.00000000000E+00 0. -1.
         11    1    1    2    0    0 -0.70408172368E+02 -0.54562117484E+02  0.29361612857E+02  0.93789336868E+02  0.00000000000E+00 0.  1.
</event>
<event>
 7    1  0.3001243E-009  0.8977909E+02  0.7561462E-02  0.1303388E+00
          2   -1    0    0  501    0  0.00000000000E+00  0.00000000000E+00  0.62247712795E+03  0.62247712795E+03  0.00000000000E+00 0. -1.
         -2   -1    0    0    0  501 -0.00000000000E+00 -0.00000000000E+00 -0.20110236019E+02  0.20110236019E+02  0.00000000000E+00 0.  1.
         25    2    1    2    0    0 -0.73491810776E+01 -0.87848962272E+01  0.27458670363E+03  0.30195501644E+03  0.12509112390E+03 0.  0.
          5    1    3    3  502    0  0.40575422993E+02  0.14630868466E+02  0.22457458492E+03  0.22871738861E+03  0.41800000000E+01 0.  1.
         -5    1    3    3    0  502 -0.47924604070E+02 -0.23415764693E+02  0.50012118716E+02  0.73237627828E+02  0.41800000000E+01 0.  1.
        -11    1    1    2    0    0  0.33552092131E+02 -0.23631156576E+02  0.86053103436E+02  0.95337878403E+02  0.00000000000E+00 0.  1.
         11    1    1    2    0    0 -0.26202911054E+02  0.32416052804E+02  0.24172708486E+03  0.24529446913E+03  0.00000000000E+00 0. -1.
</event>
<event>
 7    1  0.3001243E-009  0.1001053E+03  0.7561462E-02  0.1280075E+00
          2   -1    0    0  501    0  0.00000000000E+00  0.00000000000E+00  0.26978940966E+03  0.26978940966E+03  0.00000000000E+00 0. -1.
         -2   -1    0    0    0  501 -0.00000000000E+00 -0.00000000000E+00 -0.89268043341E+02  0.89268043341E+02  0.00000000000E+00 0.  1.
         25    2    1    2    0    0  0.39872195145E+02 -0.64681003706E+01 -0.22280201215E+02  0.13332513211E+03  0.12509018834E+03 0.  0.
          5    1    3    3  502    0 -0.14145585376E+02 -0.36922911993E+02  0.31820074926E+02  0.50925323602E+02  0.41800000000E+01 0.  1.
         -5    1    3    3    0  502  0.54017780521E+02  0.30454811622E+02 -0.54100276142E+02  0.82399808507E+02  0.41800000000E+01 0.  1.
        -11    1    1    2    0    0 -0.46584546034E+02  0.41645792092E+02  0.14250207693E+03  0.15559991599E+03  0.00000000000E+00 0.  1.
         11    1    1    2    0    0  0.67123508889E+01 -0.35177691721E+02  0.60299490601E+02  0.70132404892E+02  0.00000000000E+00 0. -1.
</event>
<event>
 7    1  0.3001243E-009  0.8724730E+02  0.7561462E-02  0.1309658E+00
         -1   -1    0    0    0  501 -0.00000000000E+00  0.00000000000E+00  0.15764751049E+03  0.15764751049E+03  0.00000000000E+00 0.  1.
          1   -1    0    0  501    0  0.00000000000E+00 -0.00000000000E+00 -0.10225547012E+03  0.10225547012E+03  0.00000000000E+00 0. -1.
         25    2    1    2    0    0 -0.35937035013E+02 -0.24755795608E+02  0.83385888861E+02  0.15653659036E+03  0.12508468235E+03 0.  0.
          5    1    3    3  502    0  0.27468769977E+02 -0.22660912174E+02  0.85719464833E+02  0.92915818437E+02  0.41800000000E+01 0.  1.
         -5    1    3    3    0  502 -0.63405804990E+02 -0.20948834339E+01 -0.23335759716E+01  0.63620771922E+02  0.41800000000E+01 0.  1.
        -11    1    1    2    0    0  0.16097528810E+02  0.44348171840E+02  0.17238810596E+02  0.50230144038E+02  0.00000000000E+00 0.  1.
         11    1    1    2    0    0  0.19839506203E+02 -0.19592376232E+02 -0.45232659086E+02  0.53136246205E+02  0.00000000000E+00 0. -1.
</event>
<event>
 7    1  0.3001243E-009  0.8033536E+02  0.7561462E-02  0.1328102E+00
          2   -1    0    0  501    0  0.00000000000E+00  0.00000000000E+00  0.54035593690E+03  0.54035593690E+03  0.00000000000E+00 0.  1.
         -2   -1    0    0    0  501 -0.00000000000E+00 -0.00000000000E+00 -0.27941794600E+02  0.27941794600E+02  0.00000000000E+00 0. -1.
         25    2    1    2    0    0 -0.18373256405E+02  0.30162352683E+02  0.36610716131E+03  0.38849645572E+03  0.12509076097E+03 0.  0.
          5    1    3    3  502    0  0.37741604484E+02  0.78683286899E+01  0.28322185707E+03  0.28586435949E+03  0.41800000000E+01 0.  1.
         -5    1    3    3    0  502 -0.56114860888E+02  0.22294023993E+02  0.82885304235E+02  0.10263209623E+03  0.41800000000E+01 0.  1.
        -11    1    1    2    0    0 -0.12874052214E+02 -0.27058229773E+02  0.14532787128E+03  0.14838490217E+03  0.00000000000E+00 0.  1.
         11    1    1    2    0    0  0.31247308619E+02 -0.31041229098E+01  0.97910970688E+00  0.31416373610E+02  0.00000000000E+00 0. -1.
</event>
<event>
 7    1  0.3001243E-009  0.1134170E+03  0.7561462E-02  0.1254370E+00
          2   -1    0    0  501    0  0.00000000000E+00  0.00000000000E+00  0.38906891686E+03  0.38906891686E+03  0.00000000000E+00 0. -1.
         -2   -1    0    0    0  501 -0.00000000000E+00 -0.00000000000E+00 -0.40215526229E+02  0.40215526229E+02  0.00000000000E+00 0.  1.
         25    2    1    2    0    0  0.46460051055E+02  0.34781184590E+02  0.19736584086E+03  0.24076747914E+03  0.12508971471E+03 0.  0.
          5    1    3    3  502    0 -0.24522237587E+02  0.36341974562E+02  0.14742479739E+03  0.15386234932E+03  0.41800000000E+01 0.  1.
         -5    1    3    3    0  502  0.70982288642E+02 -0.15607899721E+01  0.49941043472E+02  0.86905129822E+02  0.41800000000E+01 0.  1.
        -11    1    1    2    0    0  0.62056449401E+01 -0.54932537130E+02  0.84190217182E+02  0.10071785509E+03  0.00000000000E+00 0.  1.
         11    1    1    2    0    0 -0.52665695995E+02  0.20151352540E+02  0.67297332588E+02  0.87799108864E+02  0.00000000000E+00 0. -1.
</event>
<event>
 7    1  0.3001243E-009  0.1229451E+03  0.7561462E-02  0.1238316E+00
         -2   -1    0    0    0  501 -0.00000000000E+00  0.00000000000E+00  0.41253200488E+02  0.41253200488E+02  0.00000000000E+00 0.  1.
          2   -1    0    0  501    0  0.00000000000E+00 -0.00000000000E+00 -0.52705781334E+03  0.52705781334E+03  0.00000000000E+00 0. -1.
         25    2    1    2    0    0  0.29177117300E+02  0.90304626299E+02 -0.31418217250E+03  0.35123295752E+03  0.12509165930E+03 0.  0.
          5    1    3    3  502    0  0.68708343581E+02  0.25708586117E+02 -0.20911577814E+03  0.22164983408E+03  0.41800000000E+01 0. -1.
         -5    1    3    3    0  502 -0.39531226281E+02  0.64596040182E+02 -0.10506639436E+03  0.12958312345E+03  0.41800000000E+01 0. -1.
        -11    1    1    2    0    0 -0.11212367873E+02 -0.12856903587E+02  0.93201789108E+01  0.19439210326E+02  0.00000000000E+00 0.  1.
         11    1    1    2    0    0 -0.17964749428E+02 -0.77447722712E+02 -0.18094261926E+03  0.19763884598E+03  0.00000000000E+00 0. -1.
</event>
<event>
 7    1  0.3001243E-009  0.9530448E+02  0.7561462E-02  0.1290492E+00
         -2   -1    0    0    0  501 -0.00000000000E+00  0.00000000000E+00  0.13576705678E+03  0.13576705678E+03  0.00000000000E+00 0.  1.
          2   -1    0    0  501    0  0.00000000000E+00 -0.00000000000E+00 -0.12513579243E+03  0.12513579243E+03  0.00000000000E+00 0. -1.
         25    2    1    2    0    0  0.48526829881E+02  0.40300581438E+02  0.41238065191E+02  0.14603649860E+03  0.12508833208E+03 0.  0.
          5    1    3    3  502    0 -0.76984085482E+01 -0.79097439637E+01  0.66600753414E+02  0.67638467599E+02  0.41800000000E+01 0. -1.
         -5    1    3    3    0  502  0.56225238429E+02  0.48210325402E+02 -0.25362688223E+02  0.78398031006E+02  0.41800000000E+01 0. -1.
        -11    1    1    2    0    0 -0.70521647810E+02 -0.16918017709E+02 -0.38071465531E+02  0.81908232923E+02  0.00000000000E+00 0. -1.
         11    1    1    2    0    0  0.21994817929E+02 -0.23382563730E+02  0.74646646922E+01  0.32958117684E+02  0.00000000000E+00 0.  1.
</event>
<event>
 7    1  0.3404935E-009  0.1281792E+03  0.7561462E-02  0.1230183E+00
          2   -1    0    0  501    0  0.00000000000E+00  0.00000000000E+00  0.44640953792E+03  0.44640953792E+03  0.00000000000E+00 0. -1.
         -2   -1    0    0    0  501 -0.00000000000E+00 -0.00000000000E+00 -0.44702587220E+02  0.44702587220E+02  0.00000000000E+00 0.  1.
         25    2    1    2    0    0 -0.75885269037E+02  0.38402721603E+02  0.16670382529E+03  0.22509466523E+03  0.12507637612E+03 0.  0.
          5    1    3    3  502    0 -0.40565457936E+02  0.79715489640E+02  0.13511117460E+03  0.16208830176E+03  0.41800000000E+01 0.  1.
         -5    1    3    3    0  502 -0.35319811101E+02 -0.41312768037E+02  0.31592650693E+02  0.63006363464E+02  0.41800000000E+01 0.  1.
        -11    1    1    2    0    0  0.57122732683E+02  0.12133553486E+02  0.63628511879E+02  0.86364444266E+02  0.00000000000E+00 0.  1.
         11    1    1    2    0    0  0.18762536354E+02 -0.50536275089E+02  0.17137461352E+03  0.17965301565E+03  0.00000000000E+00 0. -1.
</event>
<event>
 7    1  0.3001243E-009  0.3792614E+03  0.7561462E-02  0.1051207E+00
          2   -1    0    0  501    0  0.00000000000E+00  0.00000000000E+00  0.21294710005E+04  0.21294710005E+04  0.00000000000E+00 0. -1.
         -2   -1    0    0    0  501 -0.00000000000E+00 -0.00000000000E+00 -0.12010023839E+03  0.12010023839E+03  0.00000000000E+00 0.  1.
         25    2    1    2    0    0  0.33579250304E+03  0.17404224671E+03  0.30595526761E+03  0.50229704936E+03  0.12508553586E+03 0.  0.
          5    1    3    3  502    0  0.15236811840E+03  0.67113992851E+02  0.59223148323E+02  0.17676307657E+03  0.41800000000E+01 0.  1.
         -5    1    3    3    0  502  0.18342438464E+03  0.10692825386E+03  0.24673211928E+03  0.32553397279E+03  0.41800000000E+01 0.  1.
        -11    1    1    2    0    0 -0.19143048140E+03 -0.11727044871E+03  0.81199131609E+03  0.84245349115E+03  0.00000000000E+00 0. -1.
         11    1    1    2    0    0 -0.14436202164E+03 -0.56771798000E+02  0.89142417844E+03  0.90482069839E+03  0.00000000000E+00 0.  1.
</event>
<event>
 7    1  0.3001243E-009  0.7611347E+02  0.7561462E-02  0.1340457E+00
          1   -1    0    0  501    0  0.00000000000E+00  0.00000000000E+00  0.15668496142E+03  0.15668496142E+03  0.00000000000E+00 0. -1.
         -1   -1    0    0    0  501 -0.00000000000E+00 -0.00000000000E+00 -0.72568633245E+02  0.72568633245E+02  0.00000000000E+00 0.  1.
         25    2    1    2    0    0 -0.94315488618E+01 -0.12819959431E+02  0.22743229171E+02  0.12813515802E+03  0.12509220110E+03 0.  0.
          5    1    3    3  502    0 -0.50122387715E+02 -0.36860682065E+02  0.43823593580E+02  0.76216424653E+02  0.41800000000E+01 0. -1.
         -5    1    3    3    0  502  0.40690838853E+02  0.24040722634E+02 -0.21080364409E+02  0.51918733372E+02  0.41800000000E+01 0. -1.
        -11    1    1    2    0    0  0.29346421706E+01  0.26824695960E+02 -0.94810506499E+01  0.28601866363E+02  0.00000000000E+00 0.  1.
         11    1    1    2    0    0  0.64969066912E+01 -0.14004736529E+02  0.70854149658E+02  0.72516570283E+02  0.00000000000E+00 0. -1.
</event>
<event>
 7    1  0.3001243E-009  0.1248102E+03  0.7561462E-02  0.1235366E+00
         -4   -1    0    0    0  501 -0.00000000000E+00  0.00000000000E+00  0.72628193885E+02  0.72628193885E+02  0.00000000000E+00 0.  1.
          4   -1    0    0  501    0  0.00000000000E+00 -0.00000000000E+00 -0.42452742280E+03  0.42452742280E+03  0.00000000000E+00 0. -1.
         25    2    1    2    0    0  0.33417138819E+02 -0.79038096643E+02 -0.35502032534E+02  0.15579341561E+03  0.12508984029E+03 0.  0.
          5    1    3    3  502    0 -0.43714850681E+02 -0.55681861426E+02 -0.14075361598E+02  0.72298313023E+02  0.41800000000E+01 0. -1.
         -5    1    3    3    0  502  0.77131989500E+02 -0.23356235217E+02 -0.21426670936E+02  0.83495102582E+02  0.41800000000E+01 0. -1.
        -11    1    1    2    0    0 -0.74296075837E+01  0.70148052405E+02 -0.30243212864E+03  0.31054973959E+03  0.00000000000E+00 0. -1.
         11    1    1    2    0    0 -0.25987531236E+02  0.88900442376E+01 -0.13965067748E+02  0.30812461497E+02  0.00000000000E+00 0.  1.
</event>
<event>
 7    1  0.3001243E-009  0.7846907E+02  0.7561462E-02  0.1333453E+00
         -3   -1    0    0    0  501 -0.00000000000E+00  0.00000000000E+00  0.27234790567E+03  0.27234790567E+03  0.00000000000E+00 0.  1.
          3   -1    0    0  501    0  0.00000000000E+00 -0.00000000000E+00 -0.50432656921E+02  0.50432656921E+02  0.00000000000E+00 0. -1.
         25    2    1    2    0    0  0.40588679407E+02 -0.16371274149E+02  0.13292053232E+03  0.18769812986E+03  0.12508901041E+03 0.  0.
          5    1    3    3  502    0  0.23706355826E+02 -0.26771044490E+02 -0.14557850525E+02  0.38834051315E+02  0.41800000000E+01 0. -1.
         -5    1    3    3    0  502  0.16882323581E+02  0.10399770341E+02  0.14747838285E+03  0.14886407854E+03  0.41800000000E+01 0. -1.
        -11    1    1    2    0    0  0.21653421580E+02 -0.19236558560E+02  0.34320240417E+02  0.44908738054E+02  0.00000000000E+00 0.  1.
         11    1    1    2    0    0 -0.62242100987E+02  0.35607832709E+02  0.54674476014E+02  0.90173694683E+02  0.00000000000E+00 0. -1.
</event>
<event>
 7    1  0.3001243E-009  0.3738845E+03  0.7561462E-02  0.1053217E+00
          1   -1    0    0  501    0  0.00000000000E+00  0.00000000000E+00  0.95452862356E+03  0.95452862356E+03  0.00000000000E+00 0. -1.
         -1   -1    0    0    0  501 -0.00000000000E+00 -0.00000000000E+00 -0.15804844179E+03  0.15804844179E+03  0.00000000000E+00 0.  1.
         25    2    1    2    0    0 -0.10810253955E+03 -0.34859493265E+03  0.28941753835E+03  0.48230106682E+03  0.12508885412E+03 0.  0.
          5    1    3    3  502    0 -0.74488537856E+02 -0.87860399133E+02  0.13449282949E+03  0.17712646779E+03  0.41800000000E+01 0.  1.
         -5    1    3    3    0  502 -0.33614001692E+02 -0.26073453351E+03  0.15492470886E+03  0.30517459903E+03  0.41800000000E+01 0.  1.
        -11    1    1    2    0    0  0.62687199022E+02  0.10918060576E+03  0.22235307824E+03  0.25552099914E+03  0.00000000000E+00 0.  1.
         11    1    1    2    0    0  0.45415340526E+02  0.23941432688E+03  0.28470956517E+03  0.37475499940E+03  0.00000000000E+00 0. -1.
</event>
<event>
 7    1  0.3001243E-009  0.9744057E+02  0.7561462E-02  0.1285772E+00
          1   -1    0    0  501    0  0.00000000000E+00  0.00000000000E+00  0.42961071566E+03  0.42961071566E+03  0.00000000000E+00 0. -1.
         -1   -1    0    0    0  501 -0.00000000000E+00 -0.00000000000E+00 -0.41417953379E+02  0.41417953379E+02  0.00000000000E+00 0.  1.
         25    2    1    2    0    0 -0.10494002568E+02  0.10390019481E+01  0.32844197037E+03  0.35161519028E+03  0.12509160851E+03 0.  0.
          5    1    3    3  502    0  0.38895081978E+02 -0.11166779524E+02  0.34698910816E+02  0.53469722076E+02  0.41800000000E+01 0. -1.
         -5    1    3    3    0  502 -0.49389084547E+02  0.12205781472E+02  0.29374305955E+03  0.29814546820E+03  0.41800000000E+01 0. -1.
        -11    1    1    2    0    0 -0.12074602831E+02  0.47826740822E+02  0.24545534768E+02  0.55096973131E+02  0.00000000000E+00 0.  1.
         11    1    1    2    0    0  0.22568605399E+02 -0.48865742770E+02  0.35205257148E+02  0.64316505634E+02  0.00000000000E+00 0. -1.
</event>
<event>
 7    1  0.3001243E-009  0.1206459E+03  0.7561462E-02  0.1242035E+00
          1   -1    0    0  501    0  0.00000000000E+00  0.00000000000E+00  0.29280812526E+03  0.29280812526E+03  0.00000000000E+00 0. -1.
         -1   -1    0    0    0  501 -0.00000000000E+00 -0.00000000000E+00 -0.59812642993E+02  0.59812642993E+02  0.00000000000E+00 0.  1.
         25    2    1    2    0    0  0.28473022249E+02  0.50642641593E+02  0.18814414115E+03  0.23328285824E+03  0.12508910407E+03 0.  0.
          5    1    3    3  502    0  0.56047777033E+02 -0.21611105660E+02  0.89413314405E+02  0.10779891647E+03  0.41800000000E+01 0. -1.
         -5    1    3    3    0  502 -0.27574754785E+02  0.72253747253E+02  0.98730826741E+02  0.12548394177E+03  0.41800000000E+01 0. -1.
        -11    1    1    2    0    0  0.26084447477E+02  0.40249818794E+01  0.31269089126E+02  0.40918880899E+02  0.00000000000E+00 0.  1.
         11    1    1    2    0    0 -0.54557469725E+02 -0.54667623473E+02  0.13582252000E+02  0.78419029122E+02  0.00000000000E+00 0. -1.
</event>
<event>
 7    1  0.3001243E-009  0.1635257E+03  0.7561462E-02  0.1184773E+00
         -2   -1    0    0    0  501 -0.00000000000E+00  0.00000000000E+00  0.60274341298E+02  0.60274341298E+02  0.00000000000E+00 0.  1.
          2   -1    0    0  501    0  0.00000000000E+00 -0.00000000000E+00 -0.53845496307E+03  0.53845496307E+03  0.00000000000E+00 0. -1.
         25    2    1    2    0    0 -0.13868499148E+03 -0.28998737995E+02 -0.22406625339E+03  0.29312965527E+03  0.12507939568E+03 0.  0.
          5    1    3    3  502    0  0.84367176375E+01 -0.11030968313E+02 -0.96347669795E+02  0.97433086482E+02  0.41800000000E+01 0.  1.
         -5    1    3    3    0  502 -0.14712170911E+03 -0.17967769683E+02 -0.12771858360E+03  0.19569656879E+03  0.41800000000E+01 0.  1.
        -11    1    1    2    0    0  0.11264000330E+03 -0.14505419453E+02 -0.20836714193E+03  0.23730790836E+03  0.00000000000E+00 0. -1.
         11    1    1    2    0    0  0.26044988179E+02  0.43504157448E+02 -0.45747226450E+02  0.68291740733E+02  0.00000000000E+00 0.  1.
</event>
<event>
 7    1  0.3001243E-009  0.1252925E+03  0.7561462E-02  0.1234613E+00
         -1   -1    0    0    0  501 -0.00000000000E+00  0.00000000000E+00  0.10227285149E+03  0.10227285149E+03  0.00000000000E+00 0.  1.
          1   -1    0    0  501    0  0.00000000000E+00 -0.00000000000E+00 -0.23075806207E+03  0.23075806207E+03  0.00000000000E+00 0. -1.
         25    2    1    2    0    0  0.10920272856E+03  0.13229159770E+02 -0.79233330926E+02  0.18445842657E+03  0.12508694501E+03 0.  0.
          5    1    3    3  502    0 -0.75874380604E+01  0.53971096840E+00  0.25550425431E+02  0.26984387041E+02  0.41800000000E+01 0. -1.
         -5    1    3    3    0  502  0.11679016662E+03  0.12689448802E+02 -0.10478375636E+03  0.15747403953E+03  0.41800000000E+01 0. -1.
        -11    1    1    2    0    0 -0.44604099542E+02 -0.34449871056E+02 -0.56975126348E+02  0.80140403881E+02  0.00000000000E+00 0.  1.
         11    1    1    2    0    0 -0.64598629019E+02  0.21220711286E+02  0.77232467023E+01  0.68432083107E+02  0.00000000000E+00 0. -1.
</event>
<event>
 7    1  0.3001243E-009  0.1040837E+03  0.7561462E-02  0.1271935E+00
         -1   -1    0    0    0  501 -0.00000000000E+00  0.00000000000E+00  0.29968117987E+02  0.29968117987E+02  0.00000000000E+00 0.  1.
          1   -1    0    0  501    0  0.00000000000E+00 -0.00000000000E+00 -0.47686180368E+03  0.47686180368E+03  0.00000000000E+00 0. -1.
         25    2    1    2    0    0 -0.40404626441E+02 -0.18100982736E+01 -0.31474030325E+03  0.34109427108E+03  0.12509209798E+03 0.  0.
          5    1    3    3  502    0  0.35176142644E+02 -0.31231464893E+02 -0.15278894997E+03  0.15992092122E+03  0.41800000000E+01 0.  1.
         -5    1    3    3    0  502 -0.75580769085E+02  0.29421366620E+02 -0.16195135328E+03  0.18117334986E+03  0.41800000000E+01 0.  1.
        -11    1    1    2    0    0  0.23120360779E+02 -0.33332480543E+02 -0.11684571102E+03  0.12368720841E+03  0.00000000000E+00 0. -1.
         11    1    1    2    0    0  0.17284265662E+02  0.35142578816E+02 -0.15307671429E+02  0.42048442181E+02  0.00000000000E+00 0.  1.
</event>
<event>
 7    1  0.3001243E-009  0.1237122E+03  0.7561462E-02  0.1237096E+00
         -1   -1    0    0    0  501 -0.00000000000E+00  0.00000000000E+00  0.11440407036E+03  0.11440407036E+03  0.00000000000E+00 0.  1.
          1   -1    0    0  501    0  0.00000000000E+00 -0.00000000000E+00 -0.27308767582E+03  0.27308767582E+03  0.00000000000E+00 0. -1.
         25    2    1    2    0    0  0.53057380141E+02  0.58495931094E+02  0.41462937720E+02  0.15363521727E+03  0.12509094787E+03 0.  0.
          5    1    3    3  502    0  0.42736547316E+02  0.97944010377E+02  0.29674394817E+02  0.11098415992E+03  0.41800000000E+01 0.  1.
         -5    1    3    3    0  502  0.10320832825E+02 -0.39448079283E+02  0.11788542903E+02  0.42651057350E+02  0.41800000000E+01 0.  1.
        -11    1    1    2    0    0 -0.70854299941E+01  0.12816714685E+02  0.18526836679E+01  0.14761569371E+02  0.00000000000E+00 0.  1.
         11    1    1    2    0    0 -0.45971950147E+02 -0.71312645778E+02 -0.20199922685E+03  0.21909495954E+03  0.00000000000E+00 0. -1.
</event>
<event>
 7    1  0.3001243E-009  0.1275133E+03  0.7561462E-02  0.1231193E+00
          2   -1    0    0  501    0  0.00000000000E+00  0.00000000000E+00  0.72623845456E+03  0.72623845456E+03  0.00000000000E+00 0.  1.
         -2   -1    0    0    0  501 -0.00000000000E+00 -0.00000000000E+00 -0.34150883611E+02  0.34150883611E+02  0.00000000000E+00 0. -1.
         25    2    1    2    0    0 -0.96604793575E+02 -0.53594076359E+02  0.43689552503E+03  0.46768532855E+03  0.12508819127E+03 0.  0.
          5    1    3    3  502    0 -0.91761155758E+02 -0.77257794352E+02  0.42258633817E+03  0.43930122023E+03  0.41800000000E+01 0.  1.
         -5    1    3    3    0  502 -0.48436378171E+01  0.23663717993E+02  0.14309186860E+02  0.28384108321E+02  0.41800000000E+01 0.  1.
        -11    1    1    2    0    0  0.24071599233E+02  0.14143837688E+02  0.38945075367E+01  0.28189665183E+02  0.00000000000E+00 0. -1.
         11    1    1    2    0    0  0.72533194342E+02  0.39450238671E+02  0.25129753839E+03  0.26451434444E+03  0.00000000000E+00 0.  1.
</event>
<event>
 7    1  0.3339125E-009  0.1055167E+03  0.7561462E-02  0.1269105E+00
          2   -1    0    0  501    0  0.00000000000E+00  0.00000000000E+00  0.46789737836E+03  0.46789737836E+03  0.00000000000E+00 0. -1.
         -2   -1    0    0    0  501 -0.00000000000E+00 -0.00000000000E+00 -0.36515667110E+02  0.36515667110E+02  0.00000000000E+00 0.  1.
         25    2    1    2    0    0  0.66005535607E+02  0.99347124945E+01  0.18124310936E+03  0.23011170671E+03  0.12508758385E+03 0.  0.
          5    1    3    3  502    0  0.74995222430E+02 -0.43909929861E+02  0.10900080496E+03  0.13946688930E+03  0.41800000000E+01 0.  1.
         -5    1    3    3    0  502 -0.89896868224E+01  0.53844642355E+02  0.72242304400E+02  0.90644817417E+02  0.41800000000E+01 0.  1.
        -11    1    1    2    0    0 -0.24557168563E+02  0.52942907972E+01  0.55090668784E+01  0.25718356494E+02  0.00000000000E+00 0.  1.
         11    1    1    2    0    0 -0.41448367044E+02 -0.15229003292E+02  0.24462953500E+03  0.24858298226E+03  0.00000000000E+00 0. -1.
</event>
<event>
 7    1  0.3001243E-009  0.1070400E+03  0.7561462E-02  0.1266152E+00
         -1   -1    0    0    0  501 -0.00000000000E+00  0.00000000000E+00  0.34184222559E+03  0.34184222559E+03  0.00000000000E+00 0.  1.
          1   -1    0    0  501    0  0.00000000000E+00 -0.00000000000E+00 -0.68326270723E+02  0.68326270723E+02  0.00000000000E+00 0. -1.
         25    2    1    2    0    0  0.25216490324E+01 -0.20416884993E+02  0.29012568080E+03  0.31661306059E+03  0.12509081331E+03 0.  0.
          5    1    3    3  502    0  0.46226569840E+02  0.31716494310E+02  0.10115561423E+03  0.11572710340E+03  0.41800000000E+01 0. -1.
         -5    1    3    3    0  502 -0.43704920807E+02 -0.52133379303E+02  0.18897006657E+03  0.20088595720E+03  0.41800000000E+01 0. -1.
        -11    1    1    2    0    0 -0.76401627613E+01  0.54604751928E+02 -0.20377627267E+02  0.58781788959E+02  0.00000000000E+00 0.  1.
         11    1    1    2    0    0  0.51185137289E+01 -0.34187866936E+02  0.37679013347E+01  0.34773646758E+02  0.00000000000E+00 0. -1.
</event>
<event>
 7    1  0.3001243E-009  0.9886593E+02  0.7561462E-02  0.1282699E+00
          1   -1    0    0  501    0  0.00000000000E+00  0.00000000000E+00  0.24179803536E+03  0.24179803536E+03  0.00000000000E+00 0. -1.
         -1   -1    0    0    0  501 -0.00000000000E+00 -0.00000000000E+00 -0.66526497161E+02  0.66526497161E+02  0.00000000000E+00 0.  1.
         25    2    1    2    0    0 -0.28723931741E+02  0.53608543797E+02  0.14271221185E+03  0.19928283721E+03  0.12509170066E+03 0.  0.
          5    1    3    3  502    0  0.12460767436E+02  0.70385761803E+02  0.29252216785E+02  0.77347209235E+02  0.41800000000E+01 0. -1.
         -5    1    3    3    0  502 -0.41184699177E+02 -0.16777218006E+02  0.11345999506E+03  0.12193562798E+03  0.41800000000E+01 0. -1.
        -11    1    1    2    0    0  0.44804510018E+02 -0.34901013293E+02 -0.12057174440E+02  0.58059454892E+02  0.00000000000E+00 0.  1.
         11    1    1    2    0    0 -0.16080578277E+02 -0.18707530503E+02  0.44616500792E+02  0.50982240419E+02  0.00000000000E+00 0. -1.
</event>
<event>
 7    1  0.3001243E-009  0.8223144E+02  0.7561462E-02  0.1322836E+00
         -4   -1    0    0    0  501 -0.00000000000E+00  0.00000000000E+00  0.37003911496E+02  0.37003911496E+02  0.00000000000E+00 0.  1.
          4   -1    0    0  501    0  0.00000000000E+00 -0.00000000000E+00 -0.32962699151E+03  0.32962699151E+03  0.00000000000E+00 0. -1.
         25    2    1    2    0    0 -0.52801642196E+01 -0.17721250377E+02 -0.14983068279E+03  0.19605738245E+03  0.12508933152E+03 0.  0.
          5    1    3    3  502    0 -0.62515073023E+02 -0.21710720780E+02 -0.99790278553E+02  0.11981261138E+03  0.41800000000E+01 0.  1.
         -5    1    3    3    0  502  0.57234908804E+02  0.39894704032E+01 -0.50040404233E+02  0.76244771071E+02  0.41800000000E+01 0.  1.
        -11    1    1    2    0    0  0.10482877044E+01  0.28773562145E+02 -0.15254473873E+03  0.15523824947E+03  0.00000000000E+00 0. -1.
         11    1    1    2    0    0  0.42318765152E+01 -0.11052311768E+02  0.97523415047E+01  0.15335271080E+02  0.00000000000E+00 0.  1.
</event>
<event>
 7    1  0.3001243E-009  0.1449654E+03  0.7561462E-02  0.1206800E+00
          2   -1    0    0  501    0  0.00000000000E+00  0.00000000000E+00  0.50551351202E+03  0.50551351202E+03  0.00000000000E+00 0. -1.
         -2   -1    0    0    0  501 -0.00000000000E+00 -0.00000000000E+00 -0.56906909332E+02  0.56906909332E+02  0.00000000000E+00 0.  1.
         25    2    1    2    0    0 -0.74183776237E+02 -0.10073270673E+03  0.23673148290E+03  0.29553237320E+03  0.12508907927E+03 0.  0.
          5    1    3    3  502    0  0.68905616456E+01 -0.79741780475E+02  0.60665779732E+02  0.10051885706E+03  0.41800000000E+01 0.  1.
         -5    1    3    3    0  502 -0.81074337883E+02 -0.20990926257E+02  0.17606570317E+03  0.19501351615E+03  0.41800000000E+01 0.  1.
        -11    1    1    2    0    0  0.39128087150E+02  0.65037268308E+02  0.20213877382E+03  0.21591882121E+03  0.00000000000E+00 0. -1.
         11    1    1    2    0    0  0.35055689087E+02  0.35695438424E+02  0.97363459675E+01  0.50969226936E+02  0.00000000000E+00 0.  1.
</event>
<event>
 7    1  0.3001243E-009  0.1548874E+03  0.7561462E-02  0.1194593E+00
          2   -1    0    0  501    0  0.00000000000E+00  0.00000000000E+00  0.18736252835E+03  0.18736252835E+03  0.00000000000E+00 0. -1.
         -2   -1    0    0    0  501 -0.00000000000E+00 -0.00000000000E+00 -0.17958808126E+03  0.17958808126E+03  0.00000000000E+00 0.  1.
         25    2    1    2    0    0  0.13840024305E+03 -0.26486443494E+02  0.43875954657E+02  0.19346837241E+03  0.12509497495E+03 0.  0.
          5    1    3    3  502    0 -0.10600018327E+02 -0.14528217319E+02 -0.23137540900E+02  0.29601481143E+02  0.41800000000E+01 0. -1.
         -5    1    3    3    0  502  0.14900026138E+03 -0.11958226175E+02  0.67013495557E+02  0.16386689126E+03  0.41800000000E+01 0. -1.
        -11    1    1    2    0    0 -0.52290483436E+02  0.23421413678E+01 -0.61263619171E+02  0.80579223861E+02  0.00000000000E+00 0.  1.
         11    1    1    2    0    0 -0.86109759619E+02  0.24144302126E+02  0.25162111605E+02  0.92903013338E+02  0.00000000000E+00 0. -1.
</event>
<event>
 7    1  0.4828631E-009  0.9299578E+02  0.7561462E-02  0.1295755E+00
          3   -1    0    0  501    0  0.00000000000E+00  0.00000000000E+00  0.35369435057E+03  0.35369435057E+03  0.00000000000E+00 0. -1.
         -3   -1    0    0    0  501 -0.00000000000E+00 -0.00000000000E+00 -0.57455057932E+02  0.57455057932E+02  0.00000000000E+00 0.  1.
         25    2    1    2    0    0  0.76530386680E+02  0.51288960315E+02  0.16143545178E+03  0.22404629798E+03  0.12509149057E+03 0.  0.
          5    1    3    3  502    0  0.36474405619E+02  0.23675284025E+02 -0.10818588085E+02  0.45004617397E+02  0.41800000000E+01 0.  1.
         -5    1    3    3    0  502  0.40055981061E+02  0.27613676290E+02  0.17225403987E+03  0.17904168059E+03  0.41800000000E+01 0.  1.
        -11    1    1    2    0    0 -0.30523341650E+02 -0.29941687094E+02 -0.33683288742E+00  0.42758536784E+02  0.00000000000E+00 0.  1.
         11    1    1    2    0    0 -0.46007045030E+02 -0.21347273221E+02  0.13514067375E+03  0.14434457374E+03  0.00000000000E+00 0. -1.
</event>
<event>
 7    1  0.3001243E-009  0.7876844E+02  0.7561462E-02  0.1332583E+00
          2   -1    0    0  501    0  0.00000000000E+00  0.00000000000E+00  0.36657340618E+03  0.36657340618E+03  0.00000000000E+00 0.  1.
         -2   -1    0    0    0  501 -0.00000000000E+00 -0.00000000000E+00 -0.72907641705E+02  0.72907641705E+02  0.00000000000E+00 0. -1.
         25    2    1    2    0    0  0.15940784882E+02  0.64767774779E+02  0.29441630957E+03  0.32676538062E+03  0.12508268209E+03 0.  0.
          5    1    3    3  502    0  0.18346061592E+02  0.61136786831E+02  0.30658210526E+03  0.31318420194E+03  0.41800000000E+01 0. -1.
         -5    1    3    3    0  502 -0.24052767091E+01  0.36309879476E+01 -0.12165795691E+02  0.13581178679E+02  0.41800000000E+01 0. -1.
        -11    1    1    2    0    0  0.45977787516E+01 -0.66741921869E+02 -0.32870711560E+02  0.74539300927E+02  0.00000000000E+00 0. -1.
         11    1    1    2    0    0 -0.20538563634E+02  0.19741470909E+01  0.32120166469E+02  0.38176366339E+02  0.00000000000E+00 0.  1.
</event>
<event>
 7    1  0.3001243E-009  0.1097032E+03  0.7561462E-02  0.1261120E+00
         -2   -1    0    0    0  501 -0.00000000000E+00  0.00000000000E+00  0.20414954343E+02  0.20414954343E+02  0.00000000000E+00 0.  1.
          2   -1    0    0  501    0  0.00000000000E+00 -0.00000000000E+00 -0.11486226718E+04  0.11486226718E+04  0.00000000000E+00 0. -1.
         25    2    1    2    0    0 -0.53464569194E+02 -0.98844498343E+01 -0.95975387770E+03  0.96939705104E+03  0.12508786627E+03 0.  0.
          5    1    3    3  502    0 -0.26096304626E+02  0.53836619489E+02 -0.60045944520E+03  0.60344711156E+03  0.41800000000E+01 0. -1.
         -5    1    3    3    0  502 -0.27368264568E+02 -0.63721069323E+02 -0.35929443250E+03  0.36594993948E+03  0.41800000000E+01 0. -1.
        -11    1    1    2    0    0  0.83073732443E+01  0.36571657176E+02 -0.20666284382E+02  0.42820484222E+02  0.00000000000E+00 0.  1.
         11    1    1    2    0    0  0.45157195950E+02 -0.26687207342E+02 -0.14778755540E+03  0.15682009091E+03  0.00000000000E+00 0. -1.
</event>
<event>
 7    1  0.3001243E-009  0.1072377E+03  0.7561462E-02  0.1265772E+00
         -1   -1    0    0    0  501 -0.00000000000E+00  0.00000000000E+00  0.21713314663E+03  0.21713314663E+03  0.00000000000E+00 0.  1.
          1   -1    0    0  501    0  0.00000000000E+00 -0.00000000000E+00 -0.86994806441E+02  0.86994806441E+02  0.00000000000E+00 0. -1.
         25    2    1    2    0    0  0.10320863956E+02 -0.32186757810E+02 -0.13628821626E+02  0.13029080374E+03  0.12508973239E+03 0.  0.
          5    1    3    3  502    0  0.77871268673E+01 -0.75373842443E+02 -0.32940310810E+02  0.82730840355E+02  0.41800000000E+01 0.  1.
         -5    1    3    3    0  502  0.25337370888E+01  0.43187084633E+02  0.19311489184E+02  0.47559963386E+02  0.41800000000E+01 0.  1.
        -11    1    1    2    0    0  0.47689900285E+01 -0.30384904463E+02  0.29107149605E+02  0.42346332111E+02  0.00000000000E+00 0. -1.
         11    1    1    2    0    0 -0.15089853985E+02  0.62571662273E+02  0.11466001221E+03  0.13149081722E+03  0.00000000000E+00 0.  1.
</event>
<event>
 7    1  0.3001243E-009  0.9393658E+02  0.7561462E-02  0.1293589E+00
         -3   -1    0    0    0  501 -0.00000000000E+00  0.00000000000E+00  0.20197501707E+03  0.20197501707E+03  0.00000000000E+00 0.  1.
          3   -1    0    0  501    0  0.00000000000E+00 -0.00000000000E+00 -0.72806359573E+02  0.72806359573E+02  0.00000000000E+00 0. -1.
         25    2    1    2    0    0 -0.90388134607E+01  0.48300945255E+02  0.41241641393E+02  0.14058086826E+03  0.12508967214E+03 0.  0.
          5    1    3    3  502    0  0.32062913610E+02 -0.91640695556E+01  0.58740362162E+02  0.67675055574E+02  0.41800000000E+01 0. -1.
         -5    1    3    3    0  502 -0.41101727071E+02  0.57465014811E+02 -0.17498720769E+02  0.72905812690E+02  0.41800000000E+01 0. -1.
        -11    1    1    2    0    0  0.12501551668E+02  0.15321195889E+02 -0.60328331614E+01  0.20674208897E+02  0.00000000000E+00 0. -1.
         11    1    1    2    0    0 -0.34627382070E+01 -0.63622141144E+02  0.93959849262E+02  0.11352629948E+03  0.00000000000E+00 0.  1.
</event>
<event>
 7    1  0.3001243E-009  0.1323045E+03  0.7561462E-02  0.1224076E+00
         -4   -1    0    0    0  501 -0.00000000000E+00  0.00000000000E+00  0.43966596906E+02  0.43966596906E+02  0.00000000000E+00 0.  1.
          4   -1    0    0  501    0  0.00000000000E+00 -0.00000000000E+00 -0.54713424431E+03  0.54713424431E+03  0.00000000000E+00 0. -1.
         25    2    1    2    0    0  0.19016761480E+02 -0.10241097073E+03 -0.33867236513E+03  0.37576515955E+03  0.12510331766E+03 0.  0.
          5    1    3    3  502    0 -0.41297085015E+02  0.15893856032E-01 -0.62014226245E+02  0.74623629905E+02  0.41800000000E+01 0. -1.
         -5    1    3    3    0  502  0.60313846496E+02 -0.10242686459E+03 -0.27665813888E+03  0.30114152965E+03  0.41800000000E+01 0. -1.
        -11    1    1    2    0    0 -0.13744909276E+02  0.74611489593E+02 -0.17031505988E+03  0.18644842861E+03  0.00000000000E+00 0. -1.
         11    1    1    2    0    0 -0.52718522045E+01  0.27799481141E+02  0.58197776053E+01  0.28887253050E+02  0.00000000000E+00 0.  1.
</event>
<event>
 7    1  0.3001243E-009  0.1509644E+03  0.7561462E-02  0.1199293E+00
          1   -1    0    0  501    0  0.00000000000E+00  0.00000000000E+00  0.20292250196E+03  0.20292250196E+03  0.00000000000E+00 0. -1.
         -1   -1    0    0    0  501 -0.00000000000E+00 -0.00000000000E+00 -0.12696971136E+03  0.12696971136E+03  0.00000000000E+00 0.  1.
         25    2    1    2    0    0  0.11521573255E+03  0.50971061578E+01  0.17690372820E+02  0.17105906916E+03  0.12509040864E+03 0.  0.
          5    1    3    3  502    0  0.10223740036E+03  0.54981587225E+02 -0.73200229346E+00  0.11616139287E+03  0.41800000000E+01 0.  1.
         -5    1    3    3    0  502  0.12978332190E+02 -0.49884481067E+02  0.18422375113E+02  0.54897676295E+02  0.41800000000E+01 0.  1.
        -11    1    1    2    0    0  0.63791174489E+01  0.96516991668E+01  0.31362065012E+02  0.33427945765E+02  0.00000000000E+00 0. -1.
         11    1    1    2    0    0 -0.12159485000E+03 -0.14748805325E+02  0.26900352770E+02  0.12540519839E+03  0.00000000000E+00 0.  1.
</event>
<event>
 7    1  0.3001243E-009  0.1105410E+03  0.7561462E-02  0.1259571E+00
         -2   -1    0    0    0  501 -0.00000000000E+00  0.00000000000E+00  0.14526593261E+02  0.14526593261E+02  0.00000000000E+00 0.  1.
          2   -1    0    0  501    0  0.00000000000E+00 -0.00000000000E+00 -0.85895413928E+03  0.85895413928E+03  0.00000000000E+00 0. -1.
         25    2    1    2    0    0  0.16017287511E+02  0.81187276461E+01 -0.53992174891E+03  0.55451377656E+03  0.12509023226E+03 0.  0.
          5    1    3    3  502    0 -0.28516544282E+02 -0.47111733272E+02 -0.22680137128E+03  0.23342888237E+03  0.41800000000E+01 0.  1.
         -5    1    3    3    0  502  0.44533831793E+02  0.55230460918E+02 -0.31312037763E+03  0.32108489418E+03  0.41800000000E+01 0.  1.
        -11    1    1    2    0    0 -0.38769260868E+02 -0.39941251200E+02 -0.16930916157E+03  0.17822444088E+03  0.00000000000E+00 0. -1.
         11    1    1    2    0    0  0.22751973356E+02  0.31822523554E+02 -0.13519663554E+03  0.14074251511E+03  0.00000000000E+00 0.  1.
</event>
<event>
 7    1  0.3001243E-009  0.1347794E+03  0.7561462E-02  0.1220532E+00
          2   -1    0    0  501    0  0.00000000000E+00  0.00000000000E+00  0.45944108641E+03  0.45944108641E+03  0.00000000000E+00 0. -1.
         -2   -1    0    0    0  501 -0.00000000000E+00 -0.00000000000E+00 -0.14237489379E+03  0.14237489379E+03  0.00000000000E+00 0.  1.
         25    2    1    2    0    0  0.44374377888E+02  0.88381600394E+02 -0.83160068236E+02  0.17984618221E+03  0.12509460262E+03 0.  0.
          5    1    3    3  502    0 -0.33582826931E+02  0.10773802581E+02 -0.56250305010E+02  0.66524058058E+02  0.41800000000E+01 0.  1.
         -5    1    3    3    0  502  0.77957204819E+02  0.77607797813E+02 -0.26909763226E+02  0.11332212415E+03  0.41800000000E+01 0.  1.
        -11    1    1    2    0    0  0.17464699392E+02 -0.45426978893E+02  0.85683492763E+02  0.98540788855E+02  0.00000000000E+00 0.  1.
         11    1    1    2    0    0 -0.61839077281E+02 -0.42954621501E+02  0.31454276810E+03  0.32342900913E+03  0.00000000000E+00 0. -1.
</event>
<event>
 7    1  0.3001243E-009  0.2194898E+03  0.7561462E-02  0.1134264E+00
          2   -1    0    0  501    0  0.00000000000E+00  0.00000000000E+00  0.20402018496E+03  0.20402018496E+03  0.00000000000E+00 0. -1.
         -2   -1    0    0    0  501 -0.00000000000E+00 -0.00000000000E+00 -0.29757137453E+03  0.29757137453E+03  0.00000000000E+00 0.  1.
         25    2    1    2    0    0 -0.18075474434E+03  0.79633939588E+02  0.51270415058E+02  0.23935406060E+03  0.12509144226E+03 0.  0.
          5    1    3    3  502    0 -0.12562308025E+03 -0.12497346442E+02  0.29846156881E+02  0.12979062925E+03  0.41800000000E+01 0.  1.
         -5    1    3    3    0  502 -0.55131664093E+02  0.92131286030E+02  0.21424258178E+02  0.10956343135E+03  0.41800000000E+01 0.  1.
        -11    1    1    2    0    0  0.21967225618E+02  0.85679324174E+01 -0.54496487680E+02  0.59378747349E+02  0.00000000000E+00 0.  1.
         11    1    1    2    0    0  0.15878751872E+03 -0.88201872006E+02 -0.90325116947E+02  0.20285875155E+03  0.00000000000E+00 0. -1.
</event>
<event>
 7    1  0.3001243E-009  0.1394238E+03  0.7561462E-02  0.1214106E+00
          1   -1    0    0  501    0  0.00000000000E+00  0.00000000000E+00  0.75880935408E+03  0.75880935408E+03  0.00000000000E+00 0. -1.
         -1   -1    0    0    0  501 -0.00000000000E+00 -0.00000000000E+00 -0.41040283092E+02  0.41040283092E+02  0.00000000000E+00 0.  1.
         25    2    1    2    0    0 -0.42270539643E+02 -0.11670927429E+03  0.23855832726E+03  0.29658946869E+03  0.12508950477E+03 0.  0.
          5    1    3    3  502    0  0.20054572187E+01 -0.31662824750E+02 -0.71617170743E+01  0.32792055764E+02  0.41800000000E+01 0. -1.
         -5    1    3    3    0  502 -0.44275996862E+02 -0.85046449537E+02  0.24572004434E+03  0.26379741292E+03  0.41800000000E+01 0. -1.
        -11    1    1    2    0    0 -0.26416168065E+02  0.39682338697E+02  0.10975327219E+03  0.11965902681E+03  0.00000000000E+00 0. -1.
         11    1    1    2    0    0  0.68686707708E+02  0.77026935590E+02  0.36945747153E+03  0.38360114167E+03  0.00000000000E+00 0.  1.
</event>
<event>
 7    1  0.3001243E-009  0.9914284E+02  0.7561462E-02  0.1282109E+00
         -2   -1    0    0    0  501 -0.00000000000E+00  0.00000000000E+00  0.51626095269E+02  0.51626095269E+02  0.00000000000E+00 0.  1.
          2   -1    0    0  501    0  0.00000000000E+00 -0.00000000000E+00 -0.36292900789E+03  0.36292900789E+03  0.00000000000E+00 0. -1.
         25    2    1    2    0    0 -0.69325193683E+02  0.46199406618E+02 -0.15023754546E+03  0.21250664792E+03  0.12508951871E+03 0.  0.
          5    1    3    3  502    0  0.10533232937E+02  0.21854219915E+02 -0.12172021493E+03  0.12418469731E+03  0.41800000000E+01 0. -1.
         -5    1    3    3    0  502 -0.79858426620E+02  0.24345186703E+02 -0.28517330531E+02  0.88321950604E+02  0.41800000000E+01 0. -1.
        -11    1    1    2    0    0  0.56145675423E+02 -0.51195058985E+02 -0.16940986590E+03  0.18566898933E+03  0.00000000000E+00 0. -1.
         11    1    1    2    0    0  0.13179518260E+02  0.49956523675E+01  0.83444987471E+01  0.16379465910E+02  0.00000000000E+00 0.  1.
</event>
<event>
 7    1  0.3001243E-009  0.1969775E+03  0.7561462E-02  0.1152314E+00
          1   -1    0    0  501    0  0.00000000000E+00  0.00000000000E+00  0.32466498314E+03  0.32466498314E+03  0.00000000000E+00 0. -1.
         -1   -1    0    0    0  501 -0.00000000000E+00 -0.00000000000E+00 -0.19026290894E+03  0.19026290894E+03  0.00000000000E+00 0.  1.
         25    2    1    2    0    0 -0.25241027484E+02  0.18845521390E+03 -0.50995676813E+02  0.23323779752E+03  0.12508730562E+03 0.  0.
          5    1    3    3  502    0  0.40514401206E+01  0.16137798643E+03  0.82486649679E+01  0.16169348022E+03  0.41800000000E+01 0.  1.
         -5    1    3    3    0  502 -0.29292467604E+02  0.27077227469E+02 -0.59244341781E+02  0.71544317306E+02  0.41800000000E+01 0.  1.
        -11    1    1    2    0    0  0.15847053919E+02 -0.32826214601E+02  0.94334933309E+02  0.10113243360E+03  0.00000000000E+00 0. -1.
         11    1    1    2    0    0  0.93939735647E+01 -0.15562899930E+03  0.91062817711E+02  0.18055766096E+03  0.00000000000E+00 0.  1.
</event>
<event>
 7    1  0.3001243E-009  0.9519645E+02  0.7561462E-02  0.1290734E+00
         -2   -1    0    0    0  501 -0.00000000000E+00  0.00000000000E+00  0.11270477181E+02  0.11270477181E+02  0.00000000000E+00 0.  1.
          2   -1    0    0  501    0  0.00000000000E+00 -0.00000000000E+00 -0.21822038760E+04  0.21822038760E+04  0.00000000000E+00 0. -1.
         25    2    1    2    0    0 -0.96600186648E+01 -0.47363634018E+02 -0.18390298189E+04  0.18439145112E+04  0.12511362786E+03 0.  0.
          5    1    3    3  502    0  0.37180462758E+02 -0.28127161290E+02 -0.26756117518E+03  0.27162470226E+03  0.41800000000E+01 0.  1.
         -5    1    3    3    0  502 -0.46840481423E+02 -0.19236472728E+02 -0.15714686437E+04  0.15722898089E+04  0.41800000000E+01 0.  1.
        -11    1    1    2    0    0  0.29731944377E+02  0.61442859882E+02 -0.30743515806E+03  0.31492156160E+03  0.00000000000E+00 0. -1.
         11    1    1    2    0    0 -0.20071925712E+02 -0.14079225864E+02 -0.24468421871E+02  0.34638280436E+02  0.00000000000E+00 0.  1.
</event>
<event>
 7    1  0.3001243E-009  0.1605064E+03  0.7561462E-02  0.1188126E+00
         -1   -1    0    0    0  501 -0.00000000000E+00  0.00000000000E+00  0.53291746791E+02  0.53291746791E+02  0.00000000000E+00 0.  1.
          1   -1    0    0  501    0  0.00000000000E+00 -0.00000000000E+00 -0.61605753278E+03  0.61605753278E+03  0.00000000000E+00 0. -1.
         25    2    1    2    0    0 -0.34344654457E+02  0.13058872620E+03 -0.20323826131E+03  0.27421238296E+03  0.12511462507E+03 0.  0.
          5    1    3    3  502    0 -0.28360997087E+01 -0.22322455460E+02 -0.51969004178E+02  0.56785431887E+02  0.41800000000E+01 0.  1.
         -5    1    3    3    0  502 -0.31508554748E+02  0.15291118166E+03 -0.15126925713E+03  0.21742695108E+03  0.41800000000E+01 0.  1.
        -11    1    1    2    0    0 -0.75844347315E+01 -0.54885455528E+02 -0.24723349215E+03  0.25336601296E+03  0.00000000000E+00 0. -1.
         11    1    1    2    0    0  0.41929089189E+02 -0.75703270676E+02 -0.11229403252E+03  0.14177088365E+03  0.00000000000E+00 0.  1.
</event>
<event>
 7    1  0.3001243E-009  0.9799949E+02  0.7561462E-02  0.1284560E+00
         -1   -1    0    0    0  501 -0.00000000000E+00  0.00000000000E+00  0.13478164110E+02  0.13478164110E+02  0.00000000000E+00 0.  1.
          1   -1    0    0  501    0  0.00000000000E+00 -0.00000000000E+00 -0.11035501976E+04  0.11035501976E+04  0.00000000000E+00 0. -1.
         25    2    1    2    0    0  0.31142548048E+02 -0.12661402079E+02 -0.80780546194E+03  0.81812507800E+03  0.12509520177E+03 0.  0.
          5    1    3    3  502    0  0.19079864627E+01  0.51282203300E+02 -0.48497602020E+03  0.48770146335E+03  0.41800000000E+01 0.  1.
         -5    1    3    3    0  502  0.29234561585E+02 -0.63943605379E+02 -0.32282944174E+03  0.33042361465E+03  0.41800000000E+01 0.  1.
        -11    1    1    2    0    0  0.10662559933E+02 -0.18897382301E+02 -0.14583158460E+02  0.26143254442E+02  0.00000000000E+00 0. -1.
         11    1    1    2    0    0 -0.41805107981E+02  0.31558784380E+02 -0.26768341305E+03  0.27276002923E+03  0.00000000000E+00 0.  1.
</event>
<event>
 7    1  0.3001243E-009  0.1755684E+03  0.7561462E-02  0.1172162E+00
         -1   -1    0    0    0  501 -0.00000000000E+00  0.00000000000E+00  0.61748992524E+03  0.61748992524E+03  0.00000000000E+00 0.  1.
          1   -1    0    0  501    0  0.00000000000E+00 -0.00000000000E+00 -0.50897976440E+02  0.50897976440E+02  0.00000000000E+00 0. -1.
         25    2    1    2    0    0 -0.44314168933E+02  0.13155161584E+03  0.30256066627E+03  0.35561183747E+03  0.12508896423E+03 0.  0.
          5    1    3    3  502    0 -0.85580963187E+02  0.77630582805E+02  0.22088815564E+03  0.24931838751E+03  0.41800000000E+01 0.  1.
         -5    1    3    3    0  502  0.41266794254E+02  0.53921033037E+02  0.81672510632E+02  0.10629344996E+03  0.41800000000E+01 0.  1.
        -11    1    1    2    0    0 -0.29670821416E+02 -0.38635001679E+02  0.83709440639E+02  0.96851904733E+02  0.00000000000E+00 0. -1.
         11    1    1    2    0    0  0.73984990349E+02 -0.92916614163E+02  0.18032184189E+03  0.21592415948E+03  0.00000000000E+00 0.  1.
</event>
<event>
 6    1  0.3001243E-009  0.1469420E+03  0.7561462E-02  0.1204282E+00
          1   -1    0    0  501    0  0.00000000000E+00  0.00000000000E+00  0.11019199615E+03  0.11019199615E+03  0.00000000000E+00 0. -1.
         -1   -1    0    0    0  501 -0.00000000000E+00 -0.00000000000E+00 -0.36543855324E+03  0.36543855324E+03  0.00000000000E+00 0.  1.
          5    1    1    2  502    0  0.35694790471E+01 -0.27902168730E+01  0.43234427701E+02  0.43671668499E+02  0.41800000000E+01 0.  1.
         -5    1    1    2    0  502  0.12807393068E+03 -0.47148156700E+01 -0.51987599033E+02  0.13836670141E+03  0.41800000000E+01 0.  1.
        -11    1    1    2    0    0 -0.13326081588E+02  0.35489661961E+02 -0.58443367342E+02  0.69661522685E+02  0.00000000000E+00 0. -1.
         11    1    1    2    0    0 -0.11831732814E+03 -0.27984629418E+02 -0.18805001842E+03  0.22393065679E+03  0.00000000000E+00 0.  1.
</event>
<event>
 7    1  0.3001243E-009  0.2368556E+03  0.7561462E-02  0.1121905E+00
         -1   -1    0    0    0  501 -0.00000000000E+00  0.00000000000E+00  0.14663106899E+03  0.14663106899E+03  0.00000000000E+00 0.  1.
          1   -1    0    0  501    0  0.00000000000E+00 -0.00000000000E+00 -0.40903164250E+03  0.40903164250E+03  0.00000000000E+00 0. -1.
         25    2    1    2    0    0  0.96500104986E+02  0.19582161972E+03 -0.16072561521E+03  0.29856017626E+03  0.12508828263E+03 0.  0.
          5    1    3    3  502    0 -0.21144679172E+02  0.51256692292E+02 -0.74999011637E+02  0.93363108927E+02  0.41800000000E+01 0.  1.
         -5    1    3    3    0  502  0.11764478416E+03  0.14456492743E+03 -0.85726603571E+02  0.20519706733E+03  0.41800000000E+01 0.  1.
        -11    1    1    2    0    0 -0.10752741570E+02 -0.10941918417E+03 -0.73207302495E+02  0.13208894145E+03  0.00000000000E+00 0. -1.
         11    1    1    2    0    0 -0.85747363415E+02 -0.86402435556E+02 -0.28467655809E+02  0.12501359378E+03  0.00000000000E+00 0.  1.
</event>
<event>
 7    1  0.3001243E-009  0.1044738E+03  0.7561462E-02  0.1271160E+00
          2   -1    0    0  501    0  0.00000000000E+00  0.00000000000E+00  0.39794003216E+03  0.39794003216E+03  0.00000000000E+00 0. -1.
         -2   -1    0    0    0  501 -0.00000000000E+00 -0.00000000000E+00 -0.28653552590E+02  0.28653552590E+02  0.00000000000E+00 0.  1.
         25    2    1    2    0    0  0.25906372736E+02 -0.18478673207E+02  0.22254506901E+03  0.25726036184E+03  0.12507591502E+03 0.  0.
          5    1    3    3  502    0  0.64551156405E+02 -0.46694052807E+02  0.12106642656E+03  0.14498875267E+03  0.41800000000E+01 0.  1.
         -5    1    3    3    0  502 -0.38644783669E+02  0.28215379601E+02  0.10147864245E+03  0.11227160917E+03  0.41800000000E+01 0.  1.
        -11    1    1    2    0    0 -0.24127954868E+02 -0.26663896467E+02  0.42172321587E+02  0.55422254456E+02  0.00000000000E+00 0.  1.
         11    1    1    2    0    0 -0.17784178685E+01  0.45142569674E+02  0.10456908897E+03  0.11391096846E+03  0.00000000000E+00 0. -1.
</event>
<event>
 7    1  0.3001243E-009  0.1704371E+03  0.7561462E-02  0.1177393E+00
          2   -1    0    0  501    0  0.00000000000E+00  0.00000000000E+00  0.10879118888E+04  0.10879118888E+04  0.00000000000E+00 0. -1.
         -2   -1    0    0    0  501 -0.00000000000E+00 -0.00000000000E+00 -0.29058024552E+02  0.29058024552E+02  0.00000000000E+00 0.  1.
         25    2    1    2    0    0  0.63952216274E+02 -0.12128803260E+03  0.68479978028E+03  0.70950614039E+03  0.12509017294E+03 0.  0.
          5    1    3    3  502    0  0.83299809423E+02 -0.29660805802E+02  0.39991351172E+03  0.40959359236E+03  0.41800000000E+01 0.  1.
         -5    1    3    3    0  502 -0.19347593149E+02 -0.91627226793E+02  0.28488626856E+03  0.29991254803E+03  0.41800000000E+01 0.  1.
        -11    1    1    2    0    0 -0.26306061613E+02  0.11791609330E+03  0.31473211510E+03  0.33712389149E+03  0.00000000000E+00 0. -1.
         11    1    1    2    0    0 -0.37646154661E+02  0.33719392978E+01  0.59321968888E+02  0.70339881491E+02  0.00000000000E+00 0.  1.
</event>
<event>
 7    1  0.3001243E-009  0.2476218E+03  0.7561462E-02  0.1114817E+00
          2   -1    0    0  501    0  0.00000000000E+00  0.00000000000E+00  0.11851025029E+04  0.11851025029E+04  0.00000000000E+00 0. -1.
         -2   -1    0    0    0  501 -0.00000000000E+00 -0.00000000000E+00 -0.53953051498E+02  0.53953051498E+02  0.00000000000E+00 0.  1.
         25    2    1    2    0    0 -0.59505776361E+02 -0.21952744575E+03  0.62335474983E+03  0.67524072239E+03  0.12508258145E+03 0.  0.
          5    1    3    3  502    0 -0.29652150719E+02 -0.21981885146E+03  0.58974355696E+03  0.63009087668E+03  0.41800000000E+01 0. -1.
         -5    1    3    3    0  502 -0.29853625642E+02  0.29140571579E+00  0.33611192863E+02  0.45149845702E+02  0.41800000000E+01 0. -1.
        -11    1    1    2    0    0  0.75865397883E+02  0.11713468695E+03  0.32421244566E+03  0.35297280831E+03  0.00000000000E+00 0. -1.
         11    1    1    2    0    0 -0.16359621522E+02  0.10239275880E+03  0.18358225587E+03  0.21084202366E+03  0.00000000000E+00 0.  1.
</event>
<event>
 7    1  0.3001243E-009  0.1569808E+03  0.7561462E-02  0.1192148E+00
         -4   -1    0    0    0  501 -0.00000000000E+00  0.00000000000E+00  0.19424787990E+02  0.19424787990E+02  0.00000000000E+00 0.  1.
          4   -1    0    0  501    0  0.00000000000E+00 -0.00000000000E+00 -0.14838712706E+04  0.14838712706E+04  0.00000000000E+00 0. -1.
         25    2    1    2    0    0 -0.12996641396E+02 -0.11831014582E+03 -0.98939836231E+03  0.10043529120E+04  0.12509775833E+03 0.  0.
          5    1    3    3  502    0  0.40250046134E+02 -0.94905732788E+02 -0.78659461212E+03  0.79333203676E+03  0.41800000000E+01 0.  1.
         -5    1    3    3    0  502 -0.53246687530E+02 -0.23404413035E+02 -0.20280375019E+03  0.21102087521E+03  0.41800000000E+01 0.  1.
        -11    1    1    2    0    0 -0.37266397908E+02  0.83197301771E+02 -0.29196118010E+03  0.30586256084E+03  0.00000000000E+00 0. -1.
         11    1    1    2    0    0  0.50263039305E+02  0.35112844052E+02 -0.18308694021E+03  0.19308058580E+03  0.00000000000E+00 0.  1.
</event>
<event>
 7    1  0.3001243E-009  0.2197433E+03  0.7561462E-02  0.1134075E+00
         -1   -1    0    0    0  501 -0.00000000000E+00  0.00000000000E+00  0.84705379014E+02  0.84705379014E+02  0.00000000000E+00 0.  1.
          1   -1    0    0  501    0  0.00000000000E+00 -0.00000000000E+00 -0.82647945611E+03  0.82647945611E+03  0.00000000000E+00 0. -1.
         25    2    1    2    0    0  0.20439227319E+03 -0.23847330699E+02 -0.16522295318E+03  0.29204393617E+03  0.12508453092E+03 0.  0.
          5    1    3    3  502    0  0.65605125163E+02  0.41915108687E+02 -0.95622915971E+02  0.12337796903E+03  0.41800000000E+01 0.  1.
         -5    1    3    3    0  502  0.13878714803E+03 -0.65762439386E+02 -0.69600037206E+02  0.16866596714E+03  0.41800000000E+01 0.  1.
        -11    1    1    2    0    0 -0.17389333496E+03  0.30813023985E+02 -0.55142861233E+03  0.57901800394E+03  0.00000000000E+00 0. -1.
         11    1    1    2    0    0 -0.30498938223E+02 -0.69656932865E+01 -0.25122511591E+02  0.40122895014E+02  0.00000000000E+00 0.  1.
</event>
<event>
 7    1  0.3001243E-009  0.8750384E+02  0.7561462E-02  0.1309012E+00
         -1   -1    0    0    0  501 -0.00000000000E+00  0.00000000000E+00  0.11049952550E+03  0.11049952550E+03  0.00000000000E+00 0.  1.
          1   -1    0    0  501    0  0.00000000000E+00 -0.00000000000E+00 -0.13861819421E+03  0.13861819421E+03  0.00000000000E+00 0. -1.
         25    2    1    2    0    0 -0.24153733259E+02  0.48598746020E+02  0.11784137516E+02  0.13686410354E+03  0.12509067110E+03 0.  0.
          5    1    3    3  502    0  0.33070531376E+02  0.12941010730E+02  0.48281762505E+02  0.60081035235E+02  0.41800000000E+01 0. -1.
         -5    1    3    3    0  502 -0.57224264635E+02  0.35657735289E+02 -0.36497624989E+02  0.76783068308E+02  0.41800000000E+01 0. -1.
        -11    1    1    2    0    0 -0.14180470332E+02 -0.15955405564E+02  0.23199404993E+02  0.31525752927E+02  0.00000000000E+00 0.  1.
         11    1    1    2    0    0  0.38334203591E+02 -0.32643340455E+02 -0.63102211221E+02  0.80727863232E+02  0.00000000000E+00 0. -1.
</event>
<event>
 7    1  0.3001243E-009  0.1260797E+03  0.7561462E-02  0.1233391E+00
         -2   -1    0    0    0  501 -0.00000000000E+00  0.00000000000E+00  0.22574726023E+03  0.22574726023E+03  0.00000000000E+00 0.  1.
          2   -1    0    0  501    0  0.00000000000E+00 -0.00000000000E+00 -0.11986370430E+03  0.11986370430E+03  0.00000000000E+00 0. -1.
         25    2    1    2    0    0  0.52665588646E+01  0.11284094535E+03  0.51695191493E+01  0.16862523517E+03  0.12508769091E+03 0.  0.
          5    1    3    3  502    0  0.11060306936E+02  0.11122056856E+03  0.50490823834E+02  0.12271569154E+03  0.41800000000E+01 0. -1.
         -5    1    3    3    0  502 -0.57937480712E+01  0.16203767982E+01 -0.45321304684E+02  0.45909543626E+02  0.41800000000E+01 0. -1.
        -11    1    1    2    0    0  0.30623584095E+02 -0.30774098327E+02  0.16709946051E+01  0.43446993609E+02  0.00000000000E+00 0.  1.
         11    1    1    2    0    0 -0.35890142959E+02 -0.82066847027E+02  0.99043042176E+02  0.13353873575E+03  0.00000000000E+00 0. -1.
</event>
<event>
 7    1  0.3001243E-009  0.1515711E+03  0.7561462E-02  0.1198556E+00
          1   -1    0    0  501    0  0.00000000000E+00  0.00000000000E+00  0.12972927047E+03  0.12972927047E+03  0.00000000000E+00 0. -1.
         -1   -1    0    0    0  501 -0.00000000000E+00 -0.00000000000E+00 -0.33137336901E+03  0.33137336901E+03  0.00000000000E+00 0.  1.
         25    2    1    2    0    0  0.13042406535E+03  0.75962900809E+02 -0.47687002997E+01  0.19608646570E+03  0.12508542044E+03 0.  0.
          5    1    3    3  502    0  0.79798287749E+02  0.51048051741E+02  0.58337712909E+02  0.11133028097E+03  0.41800000000E+01 0.  1.
         -5    1    3    3    0  502  0.50625777601E+02  0.24914849068E+02 -0.63106413209E+02  0.84756184729E+02  0.41800000000E+01 0.  1.
        -11    1    1    2    0    0 -0.36840666361E+02 -0.29839697914E+02 -0.13644440666E+03  0.14444624737E+03  0.00000000000E+00 0.  1.
         11    1    1    2    0    0 -0.93583398989E+02 -0.46123202895E+02 -0.60430991577E+02  0.12056992641E+03  0.00000000000E+00 0. -1.
</event>
<event>
 7    1  0.3001243E-009  0.7258651E+02  0.7561462E-02  0.1351512E+00
         -1   -1    0    0    0  501 -0.00000000000E+00  0.00000000000E+00  0.78430025876E+02  0.78430025876E+02  0.00000000000E+00 0.  1.
          1   -1    0    0  501    0  0.00000000000E+00 -0.00000000000E+00 -0.15691050987E+03  0.15691050987E+03  0.00000000000E+00 0. -1.
         25    2    1    2    0    0 -0.30527919593E+01  0.23335028667E+02 -0.50508901433E+02  0.13695581272E+03  0.12510756337E+03 0.  0.
          5    1    3    3  502    0  0.25082057753E+02  0.40999875213E+02  0.25013610217E+02  0.54343835756E+02  0.41800000000E+01 0. -1.
         -5    1    3    3    0  502 -0.28134849713E+02 -0.17664846545E+02 -0.75522511650E+02  0.82611976963E+02  0.41800000000E+01 0. -1.
        -11    1    1    2    0    0  0.88638399156E+01  0.18866896230E+02  0.23603868441E+02  0.31490792889E+02  0.00000000000E+00 0.  1.
         11    1    1    2    0    0 -0.58110479563E+01 -0.42201924897E+02 -0.51575451001E+02  0.66893930139E+02  0.00000000000E+00 0. -1.
</event>
<event>
 7    1  0.3001243E-009  0.7188542E+02  0.7561462E-02  0.1353796E+00
          2   -1    0    0  501    0  0.00000000000E+00  0.00000000000E+00  0.56861258349E+02  0.56861258349E+02  0.00000000000E+00 0. -1.
         -2   -1    0    0    0  501 -0.00000000000E+00 -0.00000000000E+00 -0.24842698215E+03  0.24842698215E+03  0.00000000000E+00 0.  1.
         25    2    1    2    0    0 -0.89932564325E+01  0.58096940121E+01 -0.16804825792E+03  0.20976795192E+03  0.12509094875E+03 0.  0.
          5    1    3    3  502    0  0.40403521037E+02 -0.22942817207E+02 -0.13671126557E+03  0.14445158326E+03  0.41800000000E+01 0.  1.
         -5    1    3    3    0  502 -0.49396777470E+02  0.28752511219E+02 -0.31336992354E+02  0.65316368665E+02  0.41800000000E+01 0.  1.
        -11    1    1    2    0    0 -0.21424494412E+01  0.15564337991E+02  0.31640686180E+02  0.35326643326E+02  0.00000000000E+00 0. -1.
         11    1    1    2    0    0  0.11135705874E+02 -0.21374032003E+02 -0.55158152058E+02  0.60193645244E+02  0.00000000000E+00 0.  1.
</event>
<event>
 7    1  0.3001243E-009  0.1296464E+03  0.7561462E-02  0.1227981E+00
          3   -1    0    0  501    0  0.00000000000E+00  0.00000000000E+00  0.10775175937E+03  0.10775175937E+03  0.00000000000E+00 0. -1.
         -3   -1    0    0    0  501 -0.00000000000E+00 -0.00000000000E+00 -0.22784392072E+03  0.22784392072E+03  0.00000000000E+00 0.  1.
         25    2    1    2    0    0  0.98175784742E+02  0.55828824057E+02 -0.85563135887E+02  0.18900543068E+03  0.12508661119E+03 0.  0.
          5    1    3    3  502    0 -0.11273060388E+02  0.15840936642E+00 -0.62936379789E+02  0.64074700818E+02  0.41800000000E+01 0.  1.
         -5    1    3    3    0  502  0.10944884513E+03  0.55670414691E+02 -0.22626756098E+02  0.12493072986E+03  0.41800000000E+01 0.  1.
        -11    1    1    2    0    0 -0.65977383167E+02 -0.63210325772E+02  0.91487985214E+01  0.91827342813E+02  0.00000000000E+00 0. -1.
         11    1    1    2    0    0 -0.32198401575E+02  0.73815017149E+01 -0.43677823986E+02  0.54762906604E+02  0.00000000000E+00 0.  1.
</event>
<event>
 7    1  0.3001243E-009  0.1063329E+03  0.7561462E-02  0.1267516E+00
          1   -1    0    0  501    0  0.00000000000E+00  0.00000000000E+00  0.11078612928E+03  0.11078612928E+03  0.00000000000E+00 0. -1.
         -1   -1    0    0    0  501 -0.00000000000E+00 -0.00000000000E+00 -0.12754871534E+03  0.12754871534E+03  0.00000000000E+00 0.  1.
         25    2    1    2    0    0 -0.70239217198E+02 -0.31253337964E+02 -0.44292775618E+02  0.15336261429E+03  0.12509165729E+03 0.  0.
          5    1    3    3  502    0 -0.82552203620E+02  0.15669225590E+02 -0.58700607216E+02  0.10258471933E+03  0.41800000000E+01 0.  1.
         -5    1    3    3    0  502  0.12312986421E+02 -0.46922563554E+02  0.14407831598E+02  0.50777894959E+02  0.41800000000E+01 0.  1.
        -11    1    1    2    0    0  0.25739339538E+02  0.23139098903E+02  0.16849990470E+02  0.38494852601E+02  0.00000000000E+00 0. -1.
         11    1    1    2    0    0  0.44499877660E+02  0.81142390613E+01  0.10680199086E+02  0.46477377721E+02  0.00000000000E+00 0.  1.
</event>
<event>
 7    1  0.3001243E-009  0.8627817E+02  0.7561462E-02  0.1312123E+00
         -2   -1    0    0    0  501 -0.00000000000E+00  0.00000000000E+00  0.14403713791E+02  0.14403713791E+02  0.00000000000E+00 0.  1.
          2   -1    0    0  501    0  0.00000000000E+00 -0.00000000000E+00 -0.10929500611E+04  0.10929500611E+04  0.00000000000E+00 0. -1.
         25    2    1    2    0    0  0.21902614075E+01  0.36077235743E+02 -0.82379474375E+03  0.83402090986E+03  0.12508690609E+03 0.  0.
          5    1    3    3  502    0 -0.12768187015E+02 -0.17209601619E+02 -0.24560298746E+02  0.32861492085E+02  0.41800000000E+01 0.  1.
         -5    1    3    3    0  502  0.14958448423E+02  0.53286837362E+02 -0.79923444500E+03  0.80115941777E+03  0.41800000000E+01 0.  1.
        -11    1    1    2    0    0  0.16727236883E+02  0.25670139135E+02 -0.50027546363E+02  0.58664400552E+02  0.00000000000E+00 0.  1.
         11    1    1    2    0    0 -0.18917498291E+02 -0.61747374878E+02 -0.20472405723E+03  0.21466846451E+03  0.00000000000E+00 0. -1.
</event>
<event>
 7    1  0.3001243E-009  0.2922673E+03  0.7561462E-02  0.1089171E+00
         -1   -1    0    0    0  501 -0.00000000000E+00  0.00000000000E+00  0.11538130800E+03  0.11538130800E+03  0.00000000000E+00 0.  1.
          1   -1    0    0  501    0  0.00000000000E+00 -0.00000000000E+00 -0.83926305009E+03  0.83926305009E+03  0.00000000000E+00 0. -1.
         25    2    1    2    0    0  0.17964875032E+03 -0.22352781939E+03 -0.44897054929E+03  0.54723202061E+03  0.12509984298E+03 0.  0.
          5    1    3    3  502    0  0.88954805689E+02 -0.16197090739E+03 -0.36484830439E+03  0.40899790942E+03  0.41800000000E+01 0. -1.
         -5    1    3    3    0  502  0.90693944632E+02 -0.61556912003E+02 -0.84122244906E+02  0.13823411119E+03  0.41800000000E+01 0. -1.
        -11    1    1    2    0    0 -0.54745459572E+02  0.39147701267E+02 -0.11499023515E+03  0.13323799022E+03  0.00000000000E+00 0. -1.
         11    1    1    2    0    0 -0.12490329075E+03  0.18438011812E+03 -0.15992095765E+03  0.27417434726E+03  0.00000000000E+00 0.  1.
</event>
<event>
 7    1  0.3065893E-009  0.1480164E+03  0.7561462E-02  0.1202932E+00
          2   -1    0    0  501    0  0.00000000000E+00  0.00000000000E+00  0.35305229001E+03  0.35305229001E+03  0.00000000000E+00 0. -1.
         -2   -1    0    0    0  501 -0.00000000000E+00 -0.00000000000E+00 -0.72223483793E+02  0.72223483793E+02  0.00000000000E+00 0.  1.
         25    2    1    2    0    0  0.96416696920E+02 -0.55846475919E+02  0.10367313620E+03  0.19700612354E+03  0.12509310623E+03 0.  0.
          5    1    3    3  502    0  0.36847007983E+02  0.30102169167E+02 -0.26227427000E+01  0.47835068361E+02  0.41800000000E+01 0.  1.
         -5    1    3    3    0  502  0.59569688937E+02 -0.85948645085E+02  0.10629587890E+03  0.14917105518E+03  0.41800000000E+01 0.  1.
        -11    1    1    2    0    0 -0.74788763642E+02 -0.89304002283E+01  0.85034545485E+02  0.11359570917E+03  0.00000000000E+00 0.  1.
         11    1    1    2    0    0 -0.21627933278E+02  0.64776876147E+02  0.92121124536E+02  0.11467394110E+03  0.00000000000E+00 0. -1.
</event>
<event>
 7    1  0.3001243E-009  0.1973141E+03  0.7561462E-02  0.1152025E+00
         -2   -1    0    0    0  501 -0.00000000000E+00  0.00000000000E+00  0.24457175017E+04  0.24457175017E+04  0.00000000000E+00 0.  1.
          2   -1    0    0  501    0  0.00000000000E+00 -0.00000000000E+00 -0.21615942157E+02  0.21615942157E+02  0.00000000000E+00 0. -1.
         25    2    1    2    0    0  0.17926898632E+03  0.47513920683E+02  0.16863675099E+04  0.17011405358E+04  0.12509517055E+03 0.  0.
          5    1    3    3  502    0  0.50756923850E+02  0.61473307375E+02  0.37454965847E+03  0.38296233744E+03  0.41800000000E+01 0. -1.
         -5    1    3    3    0  502  0.12851206247E+03 -0.13959386692E+02  0.13118178515E+04  0.13181781983E+04  0.41800000000E+01 0. -1.
        -11    1    1    2    0    0 -0.86155242856E+02 -0.23522352174E+02  0.52758176254E+03  0.53508741631E+03  0.00000000000E+00 0. -1.
         11    1    1    2    0    0 -0.93113743467E+02 -0.23991568509E+02  0.21015228709E+03  0.23110549182E+03  0.00000000000E+00 0.  1.
</event>
<event>
 7    1  0.3001243E-009  0.1141510E+03  0.7561462E-02  0.1253070E+00
         -2   -1    0    0    0  501 -0.00000000000E+00  0.00000000000E+00  0.26110488343E+02  0.26110488343E+02  0.00000000000E+00 0.  1.
          2   -1    0    0  501    0  0.00000000000E+00 -0.00000000000E+00 -0.13195714483E+04  0.13195714483E+04  0.00000000000E+00 0. -1.
         25    2    1    2    0    0  0.71330942407E+02  0.32527885578E+01 -0.11562026509E+04  0.11651386961E+04  0.12507968312E+03 0.  0.
          5    1    3    3  502    0  0.39129477470E+02 -0.59917029615E+02 -0.65926253906E+03  0.66314835011E+03  0.41800000000E+01 0. -1.
         -5    1    3    3    0  502  0.32201464937E+02  0.63169818173E+02 -0.49694011184E+03  0.50199034595E+03  0.41800000000E+01 0. -1.
        -11    1    1    2    0    0 -0.27381141824E+02  0.21802201711E+02 -0.80110890107E+00  0.35010065731E+02  0.00000000000E+00 0.  1.
         11    1    1    2    0    0 -0.43949800583E+02 -0.25054990269E+02 -0.13645720020E+03  0.14553317490E+03  0.00000000000E+00 0. -1.
</event>
<event>
 7    1  0.3001243E-009  0.1587890E+03  0.7561462E-02  0.1190071E+00
          2   -1    0    0  501    0  0.00000000000E+00  0.00000000000E+00  0.10389962196E+04  0.10389962196E+04  0.00000000000E+00 0. -1.
         -2   -1    0    0    0  501 -0.00000000000E+00 -0.00000000000E+00 -0.31443080852E+02  0.31443080852E+02  0.00000000000E+00 0.  1.
         25    2    1    2    0    0  0.12339630711E+03  0.57816972782E+02  0.67282760524E+03  0.69779209552E+03  0.12508945297E+03 0.  0.
          5    1    3    3  502    0  0.12216254586E+03  0.78751929259E+02  0.65172565660E+03  0.66774947237E+03  0.41800000000E+01 0.  1.
         -5    1    3    3    0  502  0.12337612475E+01 -0.20934956476E+02  0.21101948637E+02  0.30042623151E+02  0.41800000000E+01 0.  1.
        -11    1    1    2    0    0 -0.45688555657E+02  0.10993942595E+02  0.18214460418E+03  0.18810892516E+03  0.00000000000E+00 0.  1.
         11    1    1    2    0    0 -0.77707751450E+02 -0.68810915377E+02  0.15258092936E+03  0.18453827981E+03  0.00000000000E+00 0. -1.
</event>
<event>
 7    1  0.3001243E-009  0.1204673E+03  0.7561462E-02  0.1242328E+00
         -1   -1    0    0    0  501 -0.00000000000E+00  0.00000000000E+00  0.36116655919E+02  0.36116655919E+02  0.00000000000E+00 0.  1.
          1   -1    0    0  501    0  0.00000000000E+00 -0.00000000000E+00 -0.58194417010E+03  0.58194417010E+03  0.00000000000E+00 0. -1.
         25    2    1    2    0    0  0.95412655521E+02 -0.54419641519E+01 -0.36991417341E+03  0.40201538021E+03  0.12508669164E+03 0.  0.
          5    1    3    3  502    0  0.73527444158E+02 -0.54063349073E+02 -0.14950022985E+03  0.17520537059E+03  0.41800000000E+01 0. -1.
         -5    1    3    3    0  502  0.21885211363E+02  0.48621384921E+02 -0.22041394356E+03  0.22681000962E+03  0.41800000000E+01 0. -1.
        -11    1    1    2    0    0 -0.40868836098E+02  0.73011820572E+01 -0.14998336237E+03  0.15562319239E+03  0.00000000000E+00 0. -1.
         11    1    1    2    0    0 -0.54543819423E+02 -0.18592179053E+01 -0.25929978406E+02  0.60422253422E+02  0.00000000000E+00 0.  1.
</event>
<event>
 7    1  0.3001243E-009  0.1377900E+03  0.7561462E-02  0.1216334E+00
         -2   -1    0    0    0  501 -0.00000000000E+00  0.00000000000E+00  0.55462711990E+02  0.55462711990E+02  0.00000000000E+00 0.  1.
          2   -1    0    0  501    0  0.00000000000E+00 -0.00000000000E+00 -0.40262927196E+03  0.40262927196E+03  0.00000000000E+00 0. -1.
         25    2    1    2    0    0  0.66220287494E+02  0.71060193193E+02 -0.12575317242E+03  0.20222768881E+03  0.12508996848E+03 0.  0.
          5    1    3    3  502    0  0.17564024118E+01 -0.29693187791E+02 -0.20559435112E+01  0.30107634486E+02  0.41800000000E+01 0. -1.
         -5    1    3    3    0  502  0.64463885082E+02  0.10075338098E+03 -0.12369722891E+03  0.17212005432E+03  0.41800000000E+01 0. -1.
        -11    1    1    2    0    0 -0.45929959529E+02  0.58643734579E+01 -0.58880900135E+02  0.74906024184E+02  0.00000000000E+00 0. -1.
         11    1    1    2    0    0 -0.20290327965E+02 -0.76924566651E+02 -0.16253248742E+03  0.18095827096E+03  0.00000000000E+00 0.  1.
</event>
<event>
 7    1  0.3001243E-009  0.9381062E+02  0.7561462E-02  0.1293878E+00
         -1   -1    0    0    0  501 -0.00000000000E+00  0.00000000000E+00  0.93890655665E+02  0.93890655665E+02  0.00000000000E+00 0.  1.
          1   -1    0    0  501    0  0.00000000000E+00 -0.00000000000E+00 -0.14796621673E+03  0.14796621673E+03  0.00000000000E+00 0. -1.
         25    2    1    2    0    0  0.28162066760E+02 -0.35307954634E+02 -0.22009195711E+02  0.13480682393E+03  0.12509484969E+03 0.  0.
          5    1    3    3  502    0  0.23225456941E+02 -0.58652344495E+02 -0.61679494446E+02  0.88325261392E+02  0.41800000000E+01 0.  1.
         -5    1    3    3    0  502  0.49366098191E+01  0.23344389861E+02  0.39670298735E+02  0.46481562540E+02  0.41800000000E+01 0.  1.
        -11    1    1    2    0    0 -0.49714194263E+02 -0.93528497817E+01 -0.26619420664E+02  0.57162666721E+02  0.00000000000E+00 0.  1.
         11    1    1    2    0    0  0.21552127503E+02  0.44660804416E+02 -0.54469446946E+01  0.49887381746E+02  0.00000000000E+00 0. -1.
</event>
<event>
 7    1  0.3001243E-009  0.5977962E+02  0.7561462E-02  0.1398759E+00
         -2   -1    0    0    0  501 -0.00000000000E+00  0.00000000000E+00  0.30918340465E+02  0.30918340465E+02  0.00000000000E+00 0.  1.
          2   -1    0    0  501    0  0.00000000000E+00 -0.00000000000E+00 -0.42307763165E+03  0.42307763165E+03  0.00000000000E+00 0. -1.
         25    2    1    2    0    0  0.28914249604E+02  0.70905622437E+01 -0.20959878458E+03  0.24589190145E+03  0.12507944194E+03 0.  0.
          5    1    3    3  502    0  0.10646548936E+02  0.68572204393E+01  0.15252832849E+02  0.20260596889E+02  0.41800000000E+01 0.  1.
         -5    1    3    3    0  502  0.18267700668E+02  0.23334180435E+00 -0.22485161743E+03  0.22563130456E+03  0.41800000000E+01 0.  1.
        -11    1    1    2    0    0  0.28322510532E+02 -0.10345735721E+02 -0.21193859917E+02  0.36856187386E+02  0.00000000000E+00 0.  1.
         11    1    1    2    0    0 -0.57236760135E+02  0.32551734776E+01 -0.16136664669E+03  0.17124788328E+03  0.00000000000E+00 0. -1.
</event>
<event>
 7    1  0.3001243E-009  0.1269861E+03  0.7561462E-02  0.1231998E+00
          3   -1    0    0  501    0  0.00000000000E+00  0.00000000000E+00  0.13376165579E+03  0.13376165579E+03  0.00000000000E+00 0. -1.
         -3   -1    0    0    0  501 -0.00000000000E+00 -0.00000000000E+00 -0.19498507281E+03  0.19498507281E+03  0.00000000000E+00 0.  1.
         25    2    1    2    0    0 -0.56153845536E+02  0.96691703507E+02  0.78551397746E+01  0.16795904303E+03  0.12508395988E+03 0.  0.
          5    1    3    3  502    0 -0.53795588256E+02  0.15041148862E+02 -0.43900292215E+02  0.71168177800E+02  0.41800000000E+01 0. -1.
         -5    1    3    3    0  502 -0.23582572801E+01  0.81650554645E+02  0.51755431989E+02  0.96790865228E+02  0.41800000000E+01 0. -1.
        -11    1    1    2    0    0  0.38896171271E+02 -0.35757270350E+02 -0.80642881139E+02  0.96409381290E+02  0.00000000000E+00 0.  1.
         11    1    1    2    0    0  0.17257674265E+02 -0.60934433156E+02  0.11564324345E+02  0.64378304285E+02  0.00000000000E+00 0. -1.
</event>
<event>
 7    1  0.3001243E-009  0.3300809E+03  0.7561462E-02  0.1071101E+00
         -2   -1    0    0    0  501 -0.00000000000E+00  0.00000000000E+00  0.56747941474E+02  0.56747941474E+02  0.00000000000E+00 0.  1.
          2   -1    0    0  501    0  0.00000000000E+00 -0.00000000000E+00 -0.20987756702E+04  0.20987756702E+04  0.00000000000E+00 0. -1.
         25    2    1    2    0    0  0.32156150542E+03  0.53585153482E+02 -0.95032248562E+03  0.10124389900E+04  0.12508681522E+03 0.  0.
          5    1    3    3  502    0  0.22557512433E+03  0.14064152097E+02 -0.47704252721E+03  0.52789107044E+03  0.41800000000E+01 0.  1.
         -5    1    3    3    0  502  0.95986381098E+02  0.39521001385E+02 -0.47327995842E+03  0.48454791956E+03  0.41800000000E+01 0.  1.
        -11    1    1    2    0    0 -0.10558539034E+03  0.72711915915E+01 -0.47983169640E+03  0.49136503920E+03  0.00000000000E+00 0. -1.
         11    1    1    2    0    0 -0.21597611508E+03 -0.60856345074E+02 -0.61187354666E+03  0.65171958243E+03  0.00000000000E+00 0.  1.
</event>
<event>
 7    1  0.3001243E-009  0.8574547E+02  0.7561462E-02  0.1313494E+00
         -1   -1    0    0    0  501 -0.00000000000E+00  0.00000000000E+00  0.24832498065E+02  0.24832498065E+02  0.00000000000E+00 0.  1.
          1   -1    0    0  501    0  0.00000000000E+00 -0.00000000000E+00 -0.51096460999E+03  0.51096460999E+03  0.00000000000E+00 0. -1.
         25    2    1    2    0    0  0.14600562953E+02 -0.27173802802E+02 -0.30076612791E+03  0.32719925390E+03  0.12508995186E+03 0.  0.
          5    1    3    3  502    0  0.48286476643E+02 -0.34737473484E+02 -0.62403565695E+02  0.86313111994E+02  0.41800000000E+01 0.  1.
         -5    1    3    3    0  502 -0.33685913690E+02  0.75636706821E+01 -0.23836256222E+03  0.24088614191E+03  0.41800000000E+01 0.  1.
        -11    1    1    2    0    0  0.27803033154E+02  0.22401839090E+01 -0.15835087561E+02  0.32074554940E+02  0.00000000000E+00 0.  1.
         11    1    1    2    0    0 -0.42403596107E+02  0.24933618893E+02 -0.16953089645E+03  0.17652329921E+03  0.00000000000E+00 0. -1.
</event>
<event>
 7    1  0.3001243E-009  0.1069344E+03  0.7561462E-02  0.1266354E+00
          2   -1    0    0  501    0  0.00000000000E+00  0.00000000000E+00  0.25331414105E+03  0.25331414105E+03  0.00000000000E+00 0. -1.
         -2   -1    0    0    0  501 -0.00000000000E+00 -0.00000000000E+00 -0.49393805943E+02  0.49393805943E+02  0.00000000000E+00 0.  1.
         25    2    1    2    0    0  0.83883932046E+01 -0.14321346539E+02  0.15075142138E+03  0.19659724678E+03  0.12509604424E+03 0.  0.
          5    1    3    3  502    0  0.37525047612E+02  0.45675041304E+02  0.66882041722E+02  0.89358930731E+02  0.41800000000E+01 0.  1.
         -5    1    3    3    0  502 -0.29136654407E+02 -0.59996387843E+02  0.83869379660E+02  0.10723831605E+03  0.41800000000E+01 0.  1.
        -11    1    1    2    0    0 -0.24621925879E+02 -0.31029571327E+02  0.39728464155E+02  0.56101910795E+02  0.00000000000E+00 0.  1.
         11    1    1    2    0    0  0.16233532674E+02  0.45350917866E+02  0.13440449567E+02  0.50008789417E+02  0.00000000000E+00 0. -1.
</event>
<event>
 7    1  0.3001243E-009  0.1822201E+03  0.7561462E-02  0.1165672E+00
          1   -1    0    0  501    0  0.00000000000E+00  0.00000000000E+00  0.15831032982E+03  0.15831032982E+03  0.00000000000E+00 0. -1.
         -1   -1    0    0    0  501 -0.00000000000E+00 -0.00000000000E+00 -0.21929665027E+03  0.21929665027E+03  0.00000000000E+00 0.  1.
         25    2    1    2    0    0 -0.14586997319E+03 -0.39061695833E+02 -0.37825784197E+02  0.19969045489E+03  0.12506647299E+03 0.  0.
          5    1    3    3  502    0 -0.87220335947E+02 -0.82491845262E+02 -0.69090320858E+01  0.12032247779E+03  0.41800000000E+01 0. -1.
         -5    1    3    3    0  502 -0.58649637241E+02  0.43430149429E+02 -0.30916752112E+02  0.79367977101E+02  0.41800000000E+01 0. -1.
        -11    1    1    2    0    0  0.14715708824E+02 -0.22061887772E+02  0.11844784082E+02  0.29044412340E+02  0.00000000000E+00 0. -1.
         11    1    1    2    0    0  0.13115426436E+03  0.61123583604E+02 -0.35005320336E+02  0.14887211285E+03  0.00000000000E+00 0.  1.
</event>
<event>
 7    1  0.3001243E-009  0.1227490E+03  0.7561462E-02  0.1238630E+00
         -4   -1    0    0    0  501 -0.00000000000E+00  0.00000000000E+00  0.99636675905E+02  0.99636675905E+02  0.00000000000E+00 0. -1.
          4   -1    0    0  501    0  0.00000000000E+00 -0.00000000000E+00 -0.19363825134E+03  0.19363825134E+03  0.00000000000E+00 0.  1.
         25    2    1    2    0    0 -0.62672055891E+02 -0.35648496762E+02 -0.10182377512E+03  0.17667775369E+03  0.12509334738E+03 0.  0.
          5    1    3    3  502    0 -0.66449442811E+02  0.28672154366E+02 -0.81304054824E+02  0.10892861248E+03  0.41800000000E+01 0.  1.
         -5    1    3    3    0  502  0.37773869198E+01 -0.64320651128E+02 -0.20519720293E+02  0.67749141207E+02  0.41800000000E+01 0.  1.
        -11    1    1    2    0    0  0.39977844349E+01  0.48259507931E+02 -0.17458153774E+02  0.51475717764E+02  0.00000000000E+00 0.  1.
         11    1    1    2    0    0  0.58674271456E+02 -0.12611011170E+02  0.25280353458E+02  0.65121455793E+02  0.00000000000E+00 0. -1.
</event>
<event>
 7    1  0.3001243E-009  0.1003195E+03  0.7561462E-02  0.1279626E+00
         -1   -1    0    0    0  501 -0.00000000000E+00  0.00000000000E+00  0.89775762232E+02  0.89775762232E+02  0.00000000000E+00 0.  1.
          1   -1    0    0  501    0  0.00000000000E+00 -0.00000000000E+00 -0.12041882975E+03  0.12041882975E+03  0.00000000000E+00 0. -1.
         25    2    1    2    0    0 -0.15593952146E+02 -0.52571135724E+01  0.43022619149E+01  0.12623965389E+03  0.12508849735E+03 0.  0.
          5    1    3    3  502    0  0.46887182432E+02  0.27741289742E+02 -0.49099284138E+01  0.54859519047E+02  0.41800000000E+01 0.  1.
         -5    1    3    3    0  502 -0.62481134579E+02 -0.32998403314E+02  0.92121903287E+01  0.71380134843E+02  0.41800000000E+01 0.  1.
        -11    1    1    2    0    0 -0.14642945761E+02  0.31782617345E+02 -0.91455017670E+01  0.36168920753E+02  0.00000000000E+00 0.  1.
         11    1    1    2    0    0  0.30236897908E+02 -0.26525503772E+02 -0.25799827665E+02  0.47786017337E+02  0.00000000000E+00 0. -1.
</event>
<event>
 7    1  0.3001243E-009  0.1075149E+03  0.7561462E-02  0.1265242E+00
          3   -1    0    0  501    0  0.00000000000E+00  0.00000000000E+00  0.19747567185E+03  0.19747567185E+03  0.00000000000E+00 0. -1.
         -3   -1    0    0    0  501 -0.00000000000E+00 -0.00000000000E+00 -0.72321776955E+02  0.72321776955E+02  0.00000000000E+00 0.  1.
         25    2    1    2    0    0  0.39010762381E+02 -0.26122712350E+02  0.91421931832E+02  0.16189138632E+03  0.12508643277E+03 0.  0.
          5    1    3    3  502    0  0.18449643691E+02  0.40733961952E+02 -0.21818280273E+01  0.44965295309E+02  0.41800000000E+01 0. -1.
         -5    1    3    3    0  502  0.20561118690E+02 -0.66856674302E+02  0.93603759859E+02  0.11692609102E+03  0.41800000000E+01 0. -1.
        -11    1    1    2    0    0 -0.66963431135E+02  0.98011337929E+01  0.33550301572E+02  0.75536653809E+02  0.00000000000E+00 0. -1.
         11    1    1    2    0    0  0.27952668754E+02  0.16321578557E+02  0.18166149487E+00  0.32369408675E+02  0.00000000000E+00 0.  1.
</event>
<event>
 7    1  0.3001243E-009  0.9892446E+02  0.7561462E-02  0.1282574E+00
          4   -1    0    0  501    0  0.00000000000E+00  0.00000000000E+00  0.86708526645E+02  0.86708526645E+02  0.00000000000E+00 0. -1.
         -4   -1    0    0    0  501 -0.00000000000E+00 -0.00000000000E+00 -0.14589481171E+03  0.14589481171E+03  0.00000000000E+00 0.  1.
         25    2    1    2    0    0  0.20255567438E+02 -0.65483945290E+01 -0.75977340485E+01  0.12711615026E+03  0.12509044972E+03 0.  0.
          5    1    3    3  502    0  0.48526582921E+02 -0.53008340935E+02  0.39056224847E+00  0.71988460169E+02  0.41800000000E+01 0.  1.
         -5    1    3    3    0  502 -0.28271015484E+02  0.46459946406E+02 -0.79882962969E+01  0.55127690086E+02  0.41800000000E+01 0.  1.
        -11    1    1    2    0    0  0.25366746063E+02  0.32532381750E+01 -0.53929430920E+02  0.59686169954E+02  0.00000000000E+00 0.  1.
         11    1    1    2    0    0 -0.45622313500E+02  0.32951563540E+01  0.23408799032E+01  0.45801018146E+02  0.00000000000E+00 0. -1.
</event>
<event>
 7    1  0.3001243E-009  0.9034674E+02  0.7561462E-02  0.1302014E+00
         -3   -1    0    0    0  501 -0.00000000000E+00  0.00000000000E+00  0.34592338145E+02  0.34592338145E+02  0.00000000000E+00 0.  1.
          3   -1    0    0  501    0  0.00000000000E+00 -0.00000000000E+00 -0.54085822741E+03  0.54085822741E+03  0.00000000000E+00 0. -1.
         25    2    1    2    0    0 -0.52769606943E+02 -0.31286951136E+02 -0.16143989290E+03  0.21324657473E+03  0.12509099843E+03 0.  0.
          5    1    3    3  502    0 -0.38865457044E+02 -0.37487398184E+02 -0.18052709024E+03  0.18847634198E+03  0.41800000000E+01 0. -1.
         -5    1    3    3    0  502 -0.13904149899E+02  0.62004470476E+01  0.19087197346E+02  0.24770232751E+02  0.41800000000E+01 0. -1.
        -11    1    1    2    0    0 -0.15790154670E+01  0.52412320895E+02 -0.17094918609E+03  0.17881042726E+03  0.00000000000E+00 0. -1.
         11    1    1    2    0    0  0.54348622410E+02 -0.21125369759E+02 -0.17387681028E+03  0.18339356357E+03  0.00000000000E+00 0.  1.
</event>
<event>
 7    1  0.3001243E-009  0.9530184E+02  0.7561462E-02  0.1290498E+00
          2   -1    0    0  501    0  0.00000000000E+00  0.00000000000E+00  0.29373007591E+03  0.29373007591E+03  0.00000000000E+00 0. -1.
         -2   -1    0    0    0  501 -0.00000000000E+00 -0.00000000000E+00 -0.47183386279E+02  0.47183386279E+02  0.00000000000E+00 0.  1.
         25    2    1    2    0    0 -0.12480450933E+02 -0.31073139763E+02  0.17874442694E+03  0.22072371744E+03  0.12509231635E+03 0.  0.
          5    1    3    3  502    0 -0.19693502989E+02  0.26838220890E+02  0.15328931755E+03  0.15691784932E+03  0.41800000000E+01 0.  1.
         -5    1    3    3    0  502  0.72130520562E+01 -0.57911360653E+02  0.25455109388E+02  0.63805868120E+02  0.41800000000E+01 0.  1.
        -11    1    1    2    0    0  0.52968055928E+02  0.19394688198E+02  0.45761474690E+02  0.72635263095E+02  0.00000000000E+00 0. -1.
         11    1    1    2    0    0 -0.40487604996E+02  0.11678451565E+02  0.22040787998E+02  0.47554481648E+02  0.00000000000E+00 0.  1.
</event>
<event>
 7    1  0.3001243E-009  0.1117914E+03  0.7561462E-02  0.1257288E+00
          3   -1    0    0  501    0  0.00000000000E+00  0.00000000000E+00  0.12411364802E+03  0.12411364802E+03  0.00000000000E+00 0. -1.
         -3   -1    0    0    0  501 -0.00000000000E+00 -0.00000000000E+00 -0.18161150338E+03  0.18161150338E+03  0.00000000000E+00 0.  1.
         25    2    1    2    0    0 -0.94426925908E+02 -0.55901360368E+01  0.11460939171E+02  0.15724452923E+03  0.12508714918E+03 0.  0.
          5    1    3    3  502    0 -0.70776706285E+02  0.13826704795E+02 -0.50415207833E+02  0.88089077069E+02  0.41800000000E+01 0. -1.
         -5    1    3    3    0  502 -0.23650219622E+02 -0.19416840832E+02  0.61876147004E+02  0.69155452165E+02  0.41800000000E+01 0. -1.
        -11    1    1    2    0    0  0.92296007411E+02  0.29163287815E+02 -0.27304696310E+02  0.10057135169E+03  0.00000000000E+00 0. -1.
         11    1    1    2    0    0  0.21309184968E+01 -0.23573151778E+02 -0.41654098226E+02  0.47909270475E+02  0.00000000000E+00 0.  1.
</event>
<event>
 7    1  0.3001243E-009  0.9666609E+02  0.7561462E-02  0.1287467E+00
         -2   -1    0    0    0  501 -0.00000000000E+00  0.00000000000E+00  0.29673417472E+02  0.29673417472E+02  0.00000000000E+00 0. -1.
          2   -1    0    0  501    0  0.00000000000E+00 -0.00000000000E+00 -0.54024663797E+03  0.54024663797E+03  0.00000000000E+00 0.  1.
         25    2    1    2    0    0 -0.45191406148E+02 -0.36762596107E+02 -0.21416261406E+03  0.25476909695E+03  0.12509162976E+03 0.  0.
          5    1    3    3  502    0 -0.14779967423E+02 -0.56307459243E+02 -0.21021192728E+03  0.21816393876E+03  0.41800000000E+01 0. -1.
         -5    1    3    3    0  502 -0.30411438725E+02  0.19544863136E+02 -0.39506867833E+01  0.36605158194E+02  0.41800000000E+01 0. -1.
        -11    1    1    2    0    0  0.20071038318E+02  0.60666198821E+02 -0.24458617613E+03  0.25279563250E+03  0.00000000000E+00 0.  1.
         11    1    1    2    0    0  0.25120367830E+02 -0.23903602714E+02 -0.51824430304E+02  0.62355325987E+02  0.00000000000E+00 0. -1.
</event>
<event>
 7    1  0.3001243E-009  0.1617250E+03  0.7561462E-02  0.1186763E+00
         -1   -1    0    0    0  501 -0.00000000000E+00  0.00000000000E+00  0.15042215988E+03  0.15042215988E+03  0.00000000000E+00 0.  1.
          1   -1    0    0  501    0  0.00000000000E+00 -0.00000000000E+00 -0.20739712113E+03  0.20739712113E+03  0.00000000000E+00 0. -1.
         25    2    1    2    0    0 -0.47848266622E+00  0.11894049658E+03 -0.10138844446E+03  0.20018384094E+03  0.12508750069E+03 0.  0.
          5    1    3    3  502    0 -0.61898481404E+02  0.72722049990E+02 -0.58268517465E+02  0.11194914507E+03  0.41800000000E+01 0.  1.
         -5    1    3    3    0  502  0.61419998738E+02  0.46218446594E+02 -0.43119926992E+02  0.88234695865E+02  0.41800000000E+01 0.  1.
        -11    1    1    2    0    0  0.46272178452E+02 -0.50101905471E+02  0.14602964088E+02  0.69746412027E+02  0.00000000000E+00 0. -1.
         11    1    1    2    0    0 -0.45793695786E+02 -0.68838591114E+02  0.29810519123E+02  0.87889028045E+02  0.00000000000E+00 0.  1.
</event>
<event>
 7    1  0.3001243E-009  0.1669891E+03  0.7561462E-02  0.1181025E+00
         -1   -1    0    0    0  501 -0.00000000000E+00  0.00000000000E+00  0.90680225273E+02  0.90680225273E+02  0.00000000000E+00 0.  1.
          1   -1    0    0  501    0  0.00000000000E+00 -0.00000000000E+00 -0.50294062690E+03  0.50294062690E+03  0.00000000000E+00 0. -1.
         25    2    1    2    0    0  0.80759956755E+02  0.10535245921E+03 -0.39265223085E+02  0.18656841807E+03  0.12507879757E+03 0.  0.
          5    1    3    3  502    0 -0.28304553084E+02 -0.71548659922E+00  0.25525694379E+01  0.28734085283E+02  0.41800000000E+01 0. -1.
         -5    1    3    3    0  502  0.10906450984E+03  0.10606794581E+03 -0.41817792523E+02  0.15783433279E+03  0.41800000000E+01 0. -1.
        -11    1    1    2    0    0 -0.27427702875E+02  0.74222731275E+01 -0.26770340912E+02  0.39038701002E+02  0.00000000000E+00 0. -1.
         11    1    1    2    0    0 -0.53332253880E+02 -0.11277473234E+03 -0.34622483763E+03  0.36801373310E+03  0.00000000000E+00 0.  1.
</event>
<event>
 7    1  0.3001243E-009  0.1166120E+03  0.7561462E-02  0.1248793E+00
         -2   -1    0    0    0  501 -0.00000000000E+00  0.00000000000E+00  0.50197555869E+02  0.50197555869E+02  0.00000000000E+00 0.  1.
          2   -1    0    0  501    0  0.00000000000E+00 -0.00000000000E+00 -0.31258173118E+03  0.31258173118E+03  0.00000000000E+00 0. -1.
         25    2    1    2    0    0 -0.69276981092E+02 -0.74999834451E+01 -0.13953652249E+03  0.19993369200E+03  0.12508992856E+03 0.  0.
          5    1    3    3  502    0 -0.10521057964E+03  0.32778930993E+00 -0.93097359662E+02  0.14054879683E+03  0.41800000000E+01 0. -1.
         -5    1    3    3    0  502  0.35933598544E+02 -0.78277727551E+01 -0.46439162827E+02  0.59384895173E+02  0.41800000000E+01 0. -1.
        -11    1    1    2    0    0  0.87708530280E+01 -0.21940251890E+02 -0.79178531176E+02  0.82628943567E+02  0.00000000000E+00 0. -1.
         11    1    1    2    0    0  0.60506128064E+02  0.29440235335E+02 -0.43669121650E+02  0.80216651486E+02  0.00000000000E+00 0.  1.
</event>
<event>
 7    1  0.3001243E-009  0.9036119E+02  0.7561462E-02  0.1301979E+00
         -1   -1    0    0    0  501 -0.00000000000E+00  0.00000000000E+00  0.22692742354E+02  0.22692742354E+02  0.00000000000E+00 0.  1.
          1   -1    0    0  501    0  0.00000000000E+00 -0.00000000000E+00 -0.62032215769E+03  0.62032215769E+03  0.00000000000E+00 0. -1.
         25    2    1    2    0    0 -0.31561759355E+02  0.13908816683E+02 -0.41790171474E+03  0.43758291072E+03  0.12508941096E+03 0.  0.
          5    1    3    3  502    0  0.11872952274E+02  0.32150452081E+02 -0.26999318978E+02  0.43829832192E+02  0.41800000000E+01 0.  1.
         -5    1    3    3    0  502 -0.43434711629E+02 -0.18241635398E+02 -0.39090239576E+03  0.39375307852E+03  0.41800000000E+01 0.  1.
        -11    1    1    2    0    0  0.45170621545E+02  0.29138590280E+02 -0.86376486192E+02  0.10173662006E+03  0.00000000000E+00 0. -1.
         11    1    1    2    0    0 -0.13608862191E+02 -0.43047406963E+02 -0.93351214402E+02  0.10369536926E+03  0.00000000000E+00 0.  1.
</event>
<event>
 6    1  0.3001243E-009  0.1756743E+03  0.7561462E-02  0.1172056E+00
         -2   -1    0    0    0  501 -0.00000000000E+00  0.00000000000E+00  0.60853809433E+02  0.60853809433E+02  0.00000000000E+00 0.  1.
          2   -1    0    0  501    0  0.00000000000E+00 -0.00000000000E+00 -0.61597450830E+03  0.61597450830E+03  0.00000000000E+00 0. -1.
          5    1    1    2  502    0 -0.10529253626E+03 -0.81822565488E+02 -0.35501325447E+03  0.37925365346E+03  0.41800000000E+01 0.  1.
         -5    1    1    2    0  502  0.19727763446E+02 -0.41044782942E+02 -0.37919374084E+02  0.59407156035E+02  0.41800000000E+01 0.  1.
        -11    1    1    2    0    0  0.82838052840E+01  0.86322203451E+02 -0.62785039763E+02  0.10706122294E+03  0.00000000000E+00 0.  1.
         11    1    1    2    0    0  0.77280967526E+02  0.36545144979E+02 -0.99403030558E+02  0.13110628531E+03  0.00000000000E+00 0. -1.
</event>
<event>
 7    1  0.3001243E-009  0.1054992E+03  0.7561462E-02  0.1269139E+00
          3   -1    0    0  501    0  0.00000000000E+00  0.00000000000E+00  0.63439416700E+02  0.63439416700E+02  0.00000000000E+00 0. -1.
         -3   -1    0    0    0  501 -0.00000000000E+00 -0.00000000000E+00 -0.26166279869E+03  0.26166279869E+03  0.00000000000E+00 0.  1.
         25    2    1    2    0    0  0.49989677150E+02  0.38794856723E+02 -0.70669674825E+02  0.15699126565E+03  0.12509214931E+03 0.  0.
          5    1    3    3  502    0  0.60988236341E+02 -0.43690568936E+01 -0.89482023184E+02  0.10845809561E+03  0.41800000000E+01 0.  1.
         -5    1    3    3    0  502 -0.10998559192E+02  0.43163913617E+02  0.18812348358E+02  0.48533170036E+02  0.41800000000E+01 0.  1.
        -11    1    1    2    0    0 -0.12849056269E+02  0.26727475766E+02 -0.60037441044E+02  0.66962306822E+02  0.00000000000E+00 0.  1.
         11    1    1    2    0    0 -0.37140620880E+02 -0.65522332489E+02 -0.67516266121E+02  0.10114864292E+03  0.00000000000E+00 0. -1.
</event>
<event>
 7    1  0.3001243E-009  0.8982036E+02  0.7561462E-02  0.1303287E+00
         -2   -1    0    0    0  501 -0.00000000000E+00  0.00000000000E+00  0.16601361785E+03  0.16601361785E+03  0.00000000000E+00 0.  1.
          2   -1    0    0  501    0  0.00000000000E+00 -0.00000000000E+00 -0.75416157918E+02  0.75416157918E+02  0.00000000000E+00 0. -1.
         25    2    1    2    0    0 -0.22648250548E+02  0.12884872098E+02  0.53753325413E+02  0.13862360900E+03  0.12509245300E+03 0.  0.
          5    1    3    3  502    0 -0.53209413755E+02 -0.75176641528E+01  0.77700053735E+02  0.94564939258E+02  0.41800000000E+01 0. -1.
         -5    1    3    3    0  502  0.30561163207E+02  0.20402536250E+02 -0.23946728322E+02  0.44058669741E+02  0.41800000000E+01 0. -1.
        -11    1    1    2    0    0  0.45948909824E+02 -0.34120501708E+02  0.41829363988E+02  0.70888691922E+02  0.00000000000E+00 0.  1.
         11    1    1    2    0    0 -0.23300659276E+02  0.21235629610E+02 -0.49852294701E+01  0.31917474846E+02  0.00000000000E+00 0. -1.
</event>
<event>
 7    1  0.3001243E-009  0.1750921E+03  0.7561462E-02  0.1172639E+00
          2   -1    0    0  501    0  0.00000000000E+00  0.00000000000E+00  0.26249472584E+03  0.26249472584E+03  0.00000000000E+00 0. -1.
         -2   -1    0    0    0  501 -0.00000000000E+00 -0.00000000000E+00 -0.15156272541E+03  0.15156272541E+03  0.00000000000E+00 0.  1.
         25    2    1    2    0    0  0.57204600561E+00  0.14894704112E+03 -0.17454675393E+02  0.19529445242E+03  0.12509879758E+03 0.  0.
          5    1    3    3  502    0  0.52433284221E+02  0.12726746351E+03 -0.64158947993E+01  0.13785823395E+03  0.41800000000E+01 0. -1.
         -5    1    3    3    0  502 -0.51861238216E+02  0.21679577611E+02 -0.11038780594E+02  0.57436218466E+02  0.41800000000E+01 0. -1.
        -11    1    1    2    0    0 -0.19220988454E+02 -0.29456603020E+02 -0.84188104581E+01  0.36166479344E+02  0.00000000000E+00 0.  1.
         11    1    1    2    0    0  0.18648942448E+02 -0.11949043810E+03  0.13680548628E+03  0.18259651949E+03  0.00000000000E+00 0. -1.
</event>
<event>
 7    1  0.3001243E-009  0.9748773E+02  0.7561462E-02  0.1285669E+00
         -1   -1    0    0    0  501 -0.00000000000E+00  0.00000000000E+00  0.76739871679E+02  0.76739871679E+02  0.00000000000E+00 0.  1.
          1   -1    0    0  501    0  0.00000000000E+00 -0.00000000000E+00 -0.26304082588E+03  0.26304082588E+03  0.00000000000E+00 0. -1.
         25    2    1    2    0    0  0.61758182610E+02 -0.18157751431E+02 -0.17828384709E+03  0.22711401714E+03  0.12510743220E+03 0.  0.
          5    1    3    3  502    0  0.47496205178E+02  0.16555724435E+02 -0.61016730631E+01  0.50839790834E+02  0.41800000000E+01 0. -1.
         -5    1    3    3    0  502  0.14261977432E+02 -0.34713475866E+02 -0.17218217403E+03  0.17627422631E+03  0.41800000000E+01 0. -1.
        -11    1    1    2    0    0  0.79717255202E+01 -0.23979128989E+02  0.13154268560E+02  0.28488275065E+02  0.00000000000E+00 0. -1.
         11    1    1    2    0    0 -0.69729908130E+02  0.42136880420E+02 -0.21171375662E+02  0.84178405347E+02  0.00000000000E+00 0.  1.
</event>
<event>
 7    1  0.3001243E-009  0.1403781E+03  0.7561462E-02  0.1212821E+00
          2   -1    0    0  501    0  0.00000000000E+00  0.00000000000E+00  0.20577228976E+03  0.20577228976E+03  0.00000000000E+00 0. -1.
         -2   -1    0    0    0  501 -0.00000000000E+00 -0.00000000000E+00 -0.10022571715E+03  0.10022571715E+03  0.00000000000E+00 0.  1.
         25    2    1    2    0    0 -0.70648302578E+02 -0.62776586440E+02  0.38296435540E+02  0.16138623581E+03  0.12508724024E+03 0.  0.
          5    1    3    3  502    0  0.35038133367E+02 -0.28607437971E+02  0.14822324295E+02  0.47783155971E+02  0.41800000000E+01 0. -1.
         -5    1    3    3    0  502 -0.10568643594E+03 -0.34169148469E+02  0.23474111245E+02  0.11360307984E+03  0.41800000000E+01 0. -1.
        -11    1    1    2    0    0  0.41608937905E+02  0.80173066452E+02  0.32229918912E+02  0.95905119628E+02  0.00000000000E+00 0.  1.
         11    1    1    2    0    0  0.29039364674E+02 -0.17396480012E+02  0.35020218160E+02  0.48706651470E+02  0.00000000000E+00 0. -1.
</event>
<event>
 7    1  0.3001243E-009  0.2102665E+03  0.7561462E-02  0.1141355E+00
          2   -1    0    0  501    0  0.00000000000E+00  0.00000000000E+00  0.83650689797E+03  0.83650689797E+03  0.00000000000E+00 0. -1.
         -2   -1    0    0    0  501 -0.00000000000E+00 -0.00000000000E+00 -0.71765997274E+02  0.71765997274E+02  0.00000000000E+00 0.  1.
         25    2    1    2    0    0 -0.80956052265E+01  0.18446743237E+03  0.61461311655E+03  0.65382744601E+03  0.12508906301E+03 0.  0.
          5    1    3    3  502    0 -0.50125030896E+02  0.16952236920E+03  0.51752620175E+03  0.54690144841E+03  0.41800000000E+01 0.  1.
         -5    1    3    3    0  502  0.42029425670E+02  0.14945063170E+02  0.97086914806E+02  0.10692599760E+03  0.41800000000E+01 0.  1.
        -11    1    1    2    0    0 -0.29131089859E+02 -0.38592451985E+02  0.66521663170E+02  0.82238247899E+02  0.00000000000E+00 0. -1.
         11    1    1    2    0    0  0.37226695085E+02 -0.14587498038E+03  0.83606120975E+02  0.17220720134E+03  0.00000000000E+00 0.  1.
</event>
<event>
 7    1  0.3001243E-009  0.6309843E+02  0.7561462E-02  0.1385271E+00
          2   -1    0    0  501    0  0.00000000000E+00  0.00000000000E+00  0.16955200567E+03  0.16955200567E+03  0.00000000000E+00 0. -1.
         -2   -1    0    0    0  501 -0.00000000000E+00 -0.00000000000E+00 -0.78681040731E+02  0.78681040731E+02  0.00000000000E+00 0.  1.
         25    2    1    2    0    0  0.26420256222E+02  0.22696442117E+02  0.34111032752E+02  0.13425455482E+03  0.12509022548E+03 0.  0.
          5    1    3    3  502    0 -0.49004836048E+00  0.26107878398E+02 -0.44070241673E+02  0.51395720278E+02  0.41800000000E+01 0.  1.
         -5    1    3    3    0  502  0.26910304582E+02 -0.34114362810E+01  0.78181274425E+02  0.82858834537E+02  0.41800000000E+01 0.  1.
        -11    1    1    2    0    0 -0.40138734233E+01  0.21970570415E+02 -0.14730290448E+02  0.26754412737E+02  0.00000000000E+00 0.  1.
         11    1    1    2    0    0 -0.22406382798E+02 -0.44667012532E+02  0.71490222640E+02  0.87224078853E+02  0.00000000000E+00 0. -1.
</event>
<event>
 7    1  0.3001243E-009  0.1213153E+03  0.7561462E-02  0.1240943E+00
         -1   -1    0    0    0  501 -0.00000000000E+00  0.00000000000E+00  0.11047776422E+03  0.11047776422E+03  0.00000000000E+00 0.  1.
          1   -1    0    0  501    0  0.00000000000E+00 -0.00000000000E+00 -0.17480016809E+03  0.17480016809E+03  0.00000000000E+00 0. -1.
         25    2    1    2    0    0  0.13751984641E+02  0.84544816069E+02 -0.20341454984E+02  0.15296648115E+03  0.12509207233E+03 0.  0.
          5    1    3    3  502    0  0.53065113549E+02  0.96116669460E+02 -0.20526076858E+02  0.11177259349E+03  0.41800000000E+01 0.  1.
         -5    1    3    3    0  502 -0.39313128908E+02 -0.11571853391E+02  0.18462187385E+00  0.41193887661E+02  0.41800000000E+01 0.  1.
        -11    1    1    2    0    0  0.84591315495E+00 -0.72865125191E+02  0.11494044283E+02  0.73770963747E+02  0.00000000000E+00 0.  1.
         11    1    1    2    0    0 -0.14597897796E+02 -0.11679690878E+02 -0.55474993171E+02  0.58540487411E+02  0.00000000000E+00 0. -1.
</event>
<event>
 7    1  0.3001243E-009  0.9320702E+02  0.7561462E-02  0.1295266E+00
          4   -1    0    0  501    0  0.00000000000E+00  0.00000000000E+00  0.70214351731E+02  0.70214351731E+02  0.00000000000E+00 0. -1.
         -4   -1    0    0    0  501 -0.00000000000E+00 -0.00000000000E+00 -0.19054223381E+03  0.19054223381E+03  0.00000000000E+00 0.  1.
         25    2    1    2    0    0  0.15312695574E+02 -0.21092836120E+02 -0.10625855541E+03  0.16618451034E+03  0.12508806696E+03 0.  0.
          5    1    3    3  502    0 -0.23885537468E+01 -0.66697433849E+02 -0.94382286802E+02  0.11567083182E+03  0.41800000000E+01 0.  1.
         -5    1    3    3    0  502  0.17701249321E+02  0.45604597729E+02 -0.11876268611E+02  0.50513678520E+02  0.41800000000E+01 0.  1.
        -11    1    1    2    0    0  0.77703769341E+01 -0.21026041294E+02  0.24328127072E+02  0.33080673164E+02  0.00000000000E+00 0. -1.
         11    1    1    2    0    0 -0.23083072508E+02  0.42118877414E+02 -0.38397453733E+02  0.61491402035E+02  0.00000000000E+00 0.  1.
</event>
<event>
 7    1  0.3001243E-009  0.1142065E+03  0.7561462E-02  0.1252973E+00
         -1   -1    0    0    0  501 -0.00000000000E+00  0.00000000000E+00  0.10326775416E+02  0.10326775416E+02  0.00000000000E+00 0.  1.
          1   -1    0    0  501    0  0.00000000000E+00 -0.00000000000E+00 -0.17195104857E+04  0.17195104857E+04  0.00000000000E+00 0. -1.
         25    2    1    2    0    0 -0.72193011073E+01  0.47847538880E+02 -0.13323428910E+04  0.13390768317E+04  0.12509067371E+03 0.  0.
          5    1    3    3  502    0  0.35564778438E+02 -0.25048721248E+02 -0.28627700257E+03  0.28959331226E+03  0.41800000000E+01 0. -1.
         -5    1    3    3    0  502 -0.42784079545E+02  0.72896260128E+02 -0.10460658884E+04  0.10494835194E+04  0.41800000000E+01 0. -1.
        -11    1    1    2    0    0  0.43439802381E+02 -0.46793623415E+02 -0.28422566498E+03  0.29130892238E+03  0.00000000000E+00 0. -1.
         11    1    1    2    0    0 -0.36220501274E+02 -0.10539154651E+01 -0.92615154304E+02  0.99451507063E+02  0.00000000000E+00 0.  1.
</event>
<event>
 7    1  0.3001243E-009  0.9084381E+02  0.7561462E-02  0.1300821E+00
         -1   -1    0    0    0  501 -0.00000000000E+00  0.00000000000E+00  0.22896981924E+03  0.22896981924E+03  0.00000000000E+00 0.  1.
          1   -1    0    0  501    0  0.00000000000E+00 -0.00000000000E+00 -0.49466275909E+02  0.49466275909E+02  0.00000000000E+00 0. -1.
         25    2    1    2    0    0  0.10587545052E+02  0.14238196551E+01  0.12006048484E+03  0.17371248578E+03  0.12508950525E+03 0.  0.
          5    1    3    3  502    0  0.37485945126E+02 -0.34255257436E+02  0.11829369160E+03  0.12880018872E+03  0.41800000000E+01 0. -1.
         -5    1    3    3    0  502 -0.26898400074E+02  0.35679077092E+02  0.17667932461E+01  0.44912297058E+02  0.41800000000E+01 0. -1.
        -11    1    1    2    0    0 -0.12733858530E+02  0.41229391764E+02  0.25095022029E+02  0.49917672512E+02  0.00000000000E+00 0. -1.
         11    1    1    2    0    0  0.21463134779E+01 -0.42653211419E+02  0.34348036462E+02  0.54805936857E+02  0.00000000000E+00 0.  1.
</event>
<event>
 7    1  0.3001243E-009  0.7801606E+02  0.7561462E-02  0.1334778E+00
          1   -1    0    0  501    0  0.00000000000E+00  0.00000000000E+00  0.72432733717E+02  0.72432733717E+02  0.00000000000E+00 0. -1.
         -1   -1    0    0    0  501 -0.00000000000E+00 -0.00000000000E+00 -0.17462614552E+03  0.17462614552E+03  0.00000000000E+00 0.  1.
         25    2    1    2    0    0  0.27798161626E+02 -0.15266962270E+02 -0.66140817243E+02  0.14500852991E+03  0.12508816136E+03 0.  0.
          5    1    3    3  502    0 -0.96833211114E+01  0.18638583039E+02  0.29677073737E+02  0.36597330381E+02  0.41800000000E+01 0. -1.
         -5    1    3    3    0  502  0.37481482738E+02 -0.33905545309E+02 -0.95817890980E+02  0.10841119953E+03  0.41800000000E+01 0. -1.
        -11    1    1    2    0    0 -0.55110426645E+02  0.84765742765E+01  0.69605170994E+00  0.55762854342E+02  0.00000000000E+00 0. -1.
         11    1    1    2    0    0  0.27312265018E+02  0.67903879931E+01 -0.36748646274E+02  0.46287494990E+02  0.00000000000E+00 0.  1.
</event>
<event>
 7    1  0.3001243E-009  0.3155145E+03  0.7561462E-02  0.1077732E+00
          4   -1    0    0  501    0  0.00000000000E+00  0.00000000000E+00  0.22963725721E+03  0.22963725721E+03  0.00000000000E+00 0. -1.
         -4   -1    0    0    0  501 -0.00000000000E+00 -0.00000000000E+00 -0.48317060453E+03  0.48317060453E+03  0.00000000000E+00 0.  1.
         25    2    1    2    0    0 -0.30349049713E+03 -0.58256043342E+02 -0.67371215759E+02  0.34012734781E+03  0.12508990200E+03 0.  0.
          5    1    3    3  502    0 -0.29380602177E+03 -0.34700183292E+02 -0.86201173478E+02  0.30817883746E+03  0.41800000000E+01 0. -1.
         -5    1    3    3    0  502 -0.96844753530E+01 -0.23555860050E+02  0.18829957719E+02  0.31948510345E+02  0.41800000000E+01 0. -1.
        -11    1    1    2    0    0  0.84501821848E+02  0.22573513260E+02 -0.10445208320E+03  0.13623640879E+03  0.00000000000E+00 0.  1.
         11    1    1    2    0    0  0.21898867528E+03  0.35682530082E+02 -0.81710048357E+02  0.23644410514E+03  0.00000000000E+00 0. -1.
</event>
<event>
 7    1  0.3001243E-009  0.1265121E+03  0.7561462E-02  0.1232725E+00
         -1   -1    0    0    0  501 -0.00000000000E+00  0.00000000000E+00  0.17360428517E+02  0.17360428517E+02  0.00000000000E+00 0.  1.
          1   -1    0    0  501    0  0.00000000000E+00 -0.00000000000E+00 -0.12129253938E+04  0.12129253938E+04  0.00000000000E+00 0. -1.
         25    2    1    2    0    0  0.34445188536E+02  0.70025223806E+02 -0.89974238370E+03  0.91174208433E+03  0.12508904162E+03 0.  0.
          5    1    3    3  502    0  0.78183729149E+02  0.19929780388E+02 -0.49824159547E+03  0.50474949382E+03  0.41800000000E+01 0. -1.
         -5    1    3    3    0  502 -0.43738540613E+02  0.50095443418E+02 -0.40150078823E+03  0.40699259051E+03  0.41800000000E+01 0. -1.
        -11    1    1    2    0    0 -0.31067779260E+02  0.41519742339E+01 -0.16645711578E+03  0.16938245834E+03  0.00000000000E+00 0. -1.
         11    1    1    2    0    0 -0.33774092761E+01 -0.74177198040E+02 -0.12936546576E+03  0.14916127961E+03  0.00000000000E+00 0.  1.
</event>
<event>
 7    1  0.3001243E-009  0.1857450E+03  0.7561462E-02  0.1162356E+00
         -2   -1    0    0    0  501 -0.00000000000E+00  0.00000000000E+00  0.32992593945E+02  0.32992593945E+02  0.00000000000E+00 0. -1.
          2   -1    0    0  501    0  0.00000000000E+00 -0.00000000000E+00 -0.24585497295E+04  0.24585497295E+04  0.00000000000E+00 0.  1.
         25    2    1    2    0    0 -0.12163671826E+03  0.12333122007E+03 -0.21127305113E+04  0.21235075564E+04  0.12509215592E+03 0.  0.
          5    1    3    3  502    0 -0.43473294571E+02  0.88903367109E+02 -0.16480882039E+04  0.16510620631E+04  0.41800000000E+01 0.  1.
         -5    1    3    3    0  502 -0.78163423690E+02  0.34427852964E+02 -0.46464230741E+03  0.47244549326E+03  0.41800000000E+01 0.  1.
        -11    1    1    2    0    0  0.64928355160E+02 -0.11145489974E+03 -0.16623766833E+03  0.21041114122E+03  0.00000000000E+00 0. -1.
         11    1    1    2    0    0  0.56708363101E+02 -0.11876320338E+02 -0.14658895593E+03  0.15762362586E+03  0.00000000000E+00 0.  1.
</event>
<event>
 7    1  0.3001243E-009  0.1288196E+03  0.7561462E-02  0.1229218E+00
          2   -1    0    0  501    0  0.00000000000E+00  0.00000000000E+00  0.17157986680E+03  0.17157986680E+03  0.00000000000E+00 0.  1.
         -2   -1    0    0    0  501 -0.00000000000E+00 -0.00000000000E+00 -0.15212035622E+03  0.15212035622E+03  0.00000000000E+00 0. -1.
         25    2    1    2    0    0  0.97350786907E+02  0.15870996289E+02 -0.45880243669E+02  0.16577833222E+03  0.12509354276E+03 0.  0.
          5    1    3    3  502    0 -0.18718079626E+01  0.52801095326E+02 -0.20501796158E+02  0.56826537624E+02  0.41800000000E+01 0. -1.
         -5    1    3    3    0  502  0.99222594870E+02 -0.36930099037E+02 -0.25378447511E+02  0.10895179460E+03  0.41800000000E+01 0. -1.
        -11    1    1    2    0    0 -0.48545220638E+02 -0.63386012757E+01  0.89970785688E+02  0.10242830952E+03  0.00000000000E+00 0.  1.
         11    1    1    2    0    0 -0.48805566269E+02 -0.95323950132E+01 -0.24631031445E+02  0.55493581283E+02  0.00000000000E+00 0. -1.
</event>
<event>
 7    1  0.3001243E-009  0.7294492E+02  0.7561462E-02  0.1350356E+00
          2   -1    0    0  501    0  0.00000000000E+00  0.00000000000E+00  0.12996631000E+03  0.12996631000E+03  0.00000000000E+00 0. -1.
         -2   -1    0    0    0  501 -0.00000000000E+00 -0.00000000000E+00 -0.10869668263E+03  0.10869668263E+03  0.00000000000E+00 0.  1.
         25    2    1    2    0    0 -0.25468370129E+02  0.36353516448E+02 -0.13956288773E+02  0.13347356169E+03  0.12510074995E+03 0.  0.
          5    1    3    3  502    0 -0.45324084245E+02 -0.11882207492E+02 -0.50982294433E+02  0.69369490507E+02  0.41800000000E+01 0.  1.
         -5    1    3    3    0  502  0.19855714116E+02  0.48235723940E+02  0.37026005659E+02  0.64104071182E+02  0.41800000000E+01 0.  1.
        -11    1    1    2    0    0  0.66543671800E+01 -0.21622440680E+02 -0.28931565938E+02  0.36726639530E+02  0.00000000000E+00 0.  1.
         11    1    1    2    0    0  0.18814002949E+02 -0.14731075768E+02  0.64157482080E+02  0.68462791406E+02  0.00000000000E+00 0. -1.
</event>
<event>
 7    1  0.3001243E-009  0.1363157E+03  0.7561462E-02  0.1218374E+00
         -2   -1    0    0    0  501 -0.00000000000E+00  0.00000000000E+00  0.23031330210E+03  0.23031330210E+03  0.00000000000E+00 0.  1.
          2   -1    0    0  501    0  0.00000000000E+00 -0.00000000000E+00 -0.11093659787E+03  0.11093659787E+03  0.00000000000E+00 0. -1.
         25    2    1    2    0    0  0.71968076420E+02  0.29691206967E+02  0.99853150857E+02  0.17798954713E+03  0.12509458564E+03 0.  0.
          5    1    3    3  502    0  0.49493358295E+02  0.65016435884E+02  0.10763245478E+03  0.13519965670E+03  0.41800000000E+01 0. -1.
         -5    1    3    3    0  502  0.22474718125E+02 -0.35325228917E+02 -0.77793039245E+01  0.42789890423E+02  0.41800000000E+01 0. -1.
        -11    1    1    2    0    0 -0.10866672638E+03 -0.17506499954E+02 -0.15419222060E+02  0.11114264426E+03  0.00000000000E+00 0. -1.
         11    1    1    2    0    0  0.36698649962E+02 -0.12184707012E+02  0.34942775427E+02  0.52117708589E+02  0.00000000000E+00 0.  1.
</event>
<event>
 7    1  0.3001243E-009  0.5731569E+02  0.7561462E-02  0.1409455E+00
          1   -1    0    0  501    0  0.00000000000E+00  0.00000000000E+00  0.17283149702E+02  0.17283149702E+02  0.00000000000E+00 0. -1.
         -1   -1    0    0    0  501 -0.00000000000E+00 -0.00000000000E+00 -0.69216744532E+03  0.69216744532E+03  0.00000000000E+00 0.  1.
         25    2    1    2    0    0 -0.13288608561E+02 -0.14120344194E+02 -0.37788550454E+03  0.39852397973E+03  0.12509171292E+03 0.  0.
          5    1    3    3  502    0 -0.20743481595E+01 -0.78904011972E+01  0.81420050767E+01  0.12260750304E+02  0.41800000000E+01 0. -1.
         -5    1    3    3    0  502 -0.11214260402E+02 -0.62299429973E+01 -0.38602750962E+03  0.38626322943E+03  0.41800000000E+01 0. -1.
        -11    1    1    2    0    0 -0.38114095949E+02 -0.18109909347E+01 -0.11846739406E+03  0.12446078681E+03  0.00000000000E+00 0.  1.
         11    1    1    2    0    0  0.51402704511E+02  0.15931335129E+02 -0.17853139702E+03  0.18646582848E+03  0.00000000000E+00 0. -1.
</event>
<event>
 7    1  0.3001243E-009  0.4430273E+03  0.7561462E-02  0.1029822E+00
          1   -1    0    0  501    0  0.00000000000E+00  0.00000000000E+00  0.57355403347E+03  0.57355403347E+03  0.00000000000E+00 0. -1.
         -1   -1    0    0    0  501 -0.00000000000E+00 -0.00000000000E+00 -0.41508496580E+03  0.41508496580E+03  0.00000000000E+00 0.  1.
         25    2    1    2    0    0  0.15348234712E+02 -0.43323656618E+03  0.27781541935E+03  0.52986711325E+03  0.12509300498E+03 0.  0.
          5    1    3    3  502    0  0.57043564429E+02 -0.33247751677E+03  0.17550816444E+03  0.38028391445E+03  0.41800000000E+01 0. -1.
         -5    1    3    3    0  502 -0.41695329718E+02 -0.10075904941E+03  0.10230725491E+03  0.14958319881E+03  0.41800000000E+01 0. -1.
        -11    1    1    2    0    0  0.29488664682E+02  0.16819629466E+03 -0.18870107203E+02  0.17180121020E+03  0.00000000000E+00 0.  1.
         11    1    1    2    0    0 -0.44836899393E+02  0.26504027152E+03 -0.10047624448E+03  0.28697067582E+03  0.00000000000E+00 0. -1.
</event>
<event>
 6    1  0.3001243E-009  0.1212867E+03  0.7561462E-02  0.1240989E+00
          1   -1    0    0  501    0  0.00000000000E+00  0.00000000000E+00  0.28304854364E+03  0.28304854364E+03  0.00000000000E+00 0. -1.
         -1   -1    0    0    0  501 -0.00000000000E+00 -0.00000000000E+00 -0.12360411256E+03  0.12360411256E+03  0.00000000000E+00 0.  1.
          5    1    1    2  502    0 -0.26568255497E+02  0.93838450327E+02  0.47836553880E+02  0.10870756757E+03  0.41800000000E+01 0.  1.
         -5    1    1    2    0  502 -0.13483929692E+01 -0.95839554332E+01 -0.43099633886E+02  0.44370273906E+02  0.41800000000E+01 0.  1.
        -11    1    1    2    0    0  0.80196442952E+01  0.23503867861E+02  0.14096577898E+03  0.14313663871E+03  0.00000000000E+00 0. -1.
         11    1    1    2    0    0  0.19897004171E+02 -0.10775836275E+03  0.13741732109E+02  0.11043817601E+03  0.00000000000E+00 0.  1.
</event>
<event>
 7    1  0.3001243E-009  0.8452545E+02  0.7561462E-02  0.1316678E+00
         -1   -1    0    0    0  501 -0.00000000000E+00  0.00000000000E+00  0.13504310593E+03  0.13504310593E+03  0.00000000000E+00 0.  1.
          1   -1    0    0  501    0  0.00000000000E+00 -0.00000000000E+00 -0.10772989924E+03  0.10772989924E+03  0.00000000000E+00 0. -1.
         25    2    1    2    0    0  0.21669383619E+02  0.47554939415E+02  0.14917568050E+02  0.13638610720E+03  0.12509037513E+03 0.  0.
          5    1    3    3  502    0  0.50901621361E+02  0.40504639523E+02  0.55564107840E+02  0.85653040578E+02  0.41800000000E+01 0. -1.
         -5    1    3    3    0  502 -0.29232237742E+02  0.70502998918E+01 -0.40646539790E+02  0.50733066622E+02  0.41800000000E+01 0. -1.
        -11    1    1    2    0    0 -0.24784668184E+02  0.10450539776E+01 -0.31999352426E+02  0.40488646192E+02  0.00000000000E+00 0. -1.
         11    1    1    2    0    0  0.31152845644E+01 -0.48599993393E+02  0.44394991069E+02  0.65898251780E+02  0.00000000000E+00 0.  1.
</event>
<event>
 7    1  0.3001243E-009  0.1072999E+03  0.7561462E-02  0.1265653E+00
         -2   -1    0    0    0  501 -0.00000000000E+00  0.00000000000E+00  0.10180841019E+03  0.10180841019E+03  0.00000000000E+00 0.  1.
          2   -1    0    0  501    0  0.00000000000E+00 -0.00000000000E+00 -0.22342119281E+03  0.22342119281E+03  0.00000000000E+00 0. -1.
         25    2    1    2    0    0 -0.47090066347E+02  0.63687930190E+01 -0.16589410579E+03  0.21313244953E+03  0.12508617363E+03 0.  0.
          5    1    3    3  502    0 -0.15834997655E+02  0.54236353337E+02 -0.26767296449E+02  0.62660112777E+02  0.41800000000E+01 0. -1.
         -5    1    3    3    0  502 -0.31255068692E+02 -0.47867560318E+02 -0.13912680934E+03  0.15047233675E+03  0.41800000000E+01 0. -1.
        -11    1    1    2    0    0  0.38369219293E+02 -0.46082044613E+02  0.14486740514E+02  0.61689686947E+02  0.00000000000E+00 0.  1.
         11    1    1    2    0    0  0.87208470536E+01  0.39713251594E+02  0.29794582654E+02  0.50407466521E+02  0.00000000000E+00 0. -1.
</event>
<event>
 7    1  0.3001243E-009  0.1087876E+03  0.7561462E-02  0.1262832E+00
         -1   -1    0    0    0  501 -0.00000000000E+00  0.00000000000E+00  0.18448842267E+03  0.18448842267E+03  0.00000000000E+00 0.  1.
          1   -1    0    0  501    0  0.00000000000E+00 -0.00000000000E+00 -0.87233462456E+02  0.87233462456E+02  0.00000000000E+00 0. -1.
         25    2    1    2    0    0  0.15157119193E+02  0.54859894935E+02  0.19925723319E+02  0.13886543237E+03  0.12508887849E+03 0.  0.
          5    1    3    3  502    0  0.22655374060E+02 -0.26720728374E+02  0.41079895845E+02  0.54150655963E+02  0.41800000000E+01 0.  1.
         -5    1    3    3    0  502 -0.74982548675E+01  0.81580623310E+02 -0.21154172525E+02  0.84714776402E+02  0.41800000000E+01 0.  1.
        -11    1    1    2    0    0 -0.21599975191E+02 -0.75558421765E+02  0.78592723791E+02  0.11114157755E+03  0.00000000000E+00 0.  1.
         11    1    1    2    0    0  0.64428559985E+01  0.20698526829E+02 -0.12634868942E+01  0.21714875212E+02  0.00000000000E+00 0. -1.
</event>
<event>
 7    1  0.3001243E-009  0.1895161E+03  0.7561462E-02  0.1158898E+00
          2   -1    0    0  501    0  0.00000000000E+00  0.00000000000E+00  0.20559445480E+03  0.20559445480E+03  0.00000000000E+00 0. -1.
         -2   -1    0    0    0  501 -0.00000000000E+00 -0.00000000000E+00 -0.19474870658E+03  0.19474870658E+03  0.00000000000E+00 0.  1.
         25    2    1    2    0    0 -0.12811945924E+03  0.10113215561E+03 -0.31117786249E+02  0.20798612301E+03  0.12509037537E+03 0.  0.
          5    1    3    3  502    0 -0.55750868336E+02  0.10981471309E+03 -0.49341952574E+02  0.13273858224E+03  0.41800000000E+01 0. -1.
         -5    1    3    3    0  502 -0.72368590907E+02 -0.86825574802E+01  0.18224166325E+02  0.75247540774E+02  0.41800000000E+01 0. -1.
        -11    1    1    2    0    0  0.63490353260E+02 -0.85250694220E+00 -0.59908437814E+01  0.63778067817E+02  0.00000000000E+00 0.  1.
         11    1    1    2    0    0  0.64629105982E+02 -0.10027964866E+03  0.47954378252E+02  0.12857897056E+03  0.00000000000E+00 0. -1.
</event>
<event>
 7    1  0.3458359E-009  0.9455254E+02  0.7561462E-02  0.1292187E+00
          2   -1    0    0  501    0  0.00000000000E+00  0.00000000000E+00  0.44844757976E+03  0.44844757976E+03  0.00000000000E+00 0. -1.
         -2   -1    0    0    0  501 -0.00000000000E+00 -0.00000000000E+00 -0.51799769289E+02  0.51799769289E+02  0.00000000000E+00 0.  1.
         25    2    1    2    0    0  0.27533042008E+02  0.71336249544E+02  0.33554531160E+03  0.36617319277E+03  0.12508086211E+03 0.  0.
          5    1    3    3  502    0 -0.19794414897E+02 -0.55153432411E+01  0.25333383737E+01  0.21121744139E+02  0.41800000000E+01 0.  1.
         -5    1    3    3    0  502  0.47327456905E+02  0.76851592785E+02  0.33301197323E+03  0.34505144863E+03  0.41800000000E+01 0.  1.
        -11    1    1    2    0    0 -0.21238350582E+02 -0.35260174991E+02 -0.19496015093E+02  0.45546043520E+02  0.00000000000E+00 0.  1.
         11    1    1    2    0    0 -0.62946914261E+01 -0.36076074553E+02  0.80598513964E+02  0.88528112758E+02  0.00000000000E+00 0. -1.
</event>
<event>
 7    1  0.3001243E-009  0.1546754E+03  0.7561462E-02  0.1194843E+00
          2   -1    0    0  501    0  0.00000000000E+00  0.00000000000E+00  0.28002272442E+04  0.28002272442E+04  0.00000000000E+00 0. -1.
         -2   -1    0    0    0  501 -0.00000000000E+00 -0.00000000000E+00 -0.14252165462E+02  0.14252165462E+02  0.00000000000E+00 0.  1.
         25    2    1    2    0    0  0.88201668605E+02 -0.83956895548E+02  0.22560394909E+04  0.22627840361E+04  0.12509642140E+03 0.  0.
          5    1    3    3  502    0  0.50770006242E+02 -0.10255527711E+03  0.20039266192E+04  0.20071956920E+04  0.41800000000E+01 0.  1.
         -5    1    3    3    0  502  0.37431662364E+02  0.18598381557E+02  0.25211287175E+03  0.25558834411E+03  0.41800000000E+01 0.  1.
        -11    1    1    2    0    0 -0.28194960639E+02  0.88278980074E+02  0.29747878296E+03  0.31157946087E+03  0.00000000000E+00 0.  1.
         11    1    1    2    0    0 -0.60006707967E+02 -0.43220845254E+01  0.23245680490E+03  0.24011591276E+03  0.00000000000E+00 0. -1.
</event>
<event>
 7    1  0.3001243E-009  0.1030363E+03  0.7561462E-02  0.1274038E+00
          2   -1    0    0  501    0  0.00000000000E+00  0.00000000000E+00  0.58557094041E+03  0.58557094041E+03  0.00000000000E+00 0. -1.
         -2   -1    0    0    0  501 -0.00000000000E+00 -0.00000000000E+00 -0.22096727756E+02  0.22096727756E+02  0.00000000000E+00 0.  1.
         25    2    1    2    0    0  0.96863734690E+01 -0.30898636241E+02  0.31181407520E+03  0.33752608303E+03  0.12508911896E+03 0.  0.
          5    1    3    3  502    0 -0.51275375480E+02  0.72185002677E+01  0.85661007843E+02  0.10018259101E+03  0.41800000000E+01 0.  1.
         -5    1    3    3    0  502  0.60961748949E+02 -0.38117136508E+02  0.22615306735E+03  0.23734349202E+03  0.41800000000E+01 0.  1.
        -11    1    1    2    0    0 -0.41335168633E+02  0.58597800389E+01  0.53227439509E+02  0.67646829229E+02  0.00000000000E+00 0.  1.
         11    1    1    2    0    0  0.31648795164E+02  0.25038856202E+02  0.19843269794E+03  0.20249475590E+03  0.00000000000E+00 0. -1.
</event>
<event>
 7    1  0.3001243E-009  0.9384902E+02  0.7561462E-02  0.1293790E+00
          3   -1    0    0  501    0  0.00000000000E+00  0.00000000000E+00  0.51930468092E+02  0.51930468092E+02  0.00000000000E+00 0. -1.
         -3   -1    0    0    0  501 -0.00000000000E+00 -0.00000000000E+00 -0.33116247307E+03  0.33116247307E+03  0.00000000000E+00 0.  1.
         25    2    1    2    0    0  0.18157108382E+02  0.27257139312E+02 -0.25232949765E+03  0.28353142872E+03  0.12508902215E+03 0.  0.
          5    1    3    3  502    0  0.65977087686E+02  0.23157596540E+02 -0.20226627348E+03  0.21405225569E+03  0.41800000000E+01 0. -1.
         -5    1    3    3    0  502 -0.47819979304E+02  0.40995427717E+01 -0.50063224166E+02  0.69479173034E+02  0.41800000000E+01 0. -1.
        -11    1    1    2    0    0  0.18189930266E+02 -0.27681944707E+02 -0.47403311112E+02  0.57829382931E+02  0.00000000000E+00 0.  1.
         11    1    1    2    0    0 -0.36347038647E+02  0.42480539540E+00  0.20500803779E+02  0.41732129512E+02  0.00000000000E+00 0. -1.
</event>
<event>
 7    1  0.3001243E-009  0.2222494E+03  0.7561462E-02  0.1132217E+00
          1   -1    0    0  501    0  0.00000000000E+00  0.00000000000E+00  0.74810659399E+03  0.74810659399E+03  0.00000000000E+00 0. -1.
         -1   -1    0    0    0  501 -0.00000000000E+00 -0.00000000000E+00 -0.14075085721E+03  0.14075085721E+03  0.00000000000E+00 0.  1.
         25    2    1    2    0    0  0.14997838822E+02  0.20692796574E+03  0.22395455219E+01  0.24228720283E+03  0.12511576605E+03 0.  0.
          5    1    3    3  502    0  0.61797051290E+02  0.76806070175E+02 -0.23834132980E+02  0.10150658234E+03  0.41800000000E+01 0. -1.
         -5    1    3    3    0  502 -0.46799212469E+02  0.13012189557E+03  0.26073678502E+02  0.14078062049E+03  0.41800000000E+01 0. -1.
        -11    1    1    2    0    0 -0.13587702112E+02 -0.19525965730E+03  0.60381312352E+03  0.63474502562E+03  0.00000000000E+00 0. -1.
         11    1    1    2    0    0 -0.14101367098E+01 -0.11668308442E+02  0.13030677426E+01  0.11825222746E+02  0.00000000000E+00 0.  1.
</event>
<event>
 7    1  0.3001243E-009  0.8181407E+02  0.7561462E-02  0.1323981E+00
         -1   -1    0    0    0  501 -0.00000000000E+00  0.00000000000E+00  0.85632685290E+02  0.85632685290E+02  0.00000000000E+00 0. -1.
          1   -1    0    0  501    0  0.00000000000E+00 -0.00000000000E+00 -0.19218645358E+03  0.19218645358E+03  0.00000000000E+00 0.  1.
         25    2    1    2    0    0  0.35378087348E+02  0.17111331432E+02  0.31372963368E+00  0.13111848386E+03  0.12509017410E+03 0.  0.
          5    1    3    3  502    0  0.72538799590E+02  0.12825837268E+02  0.33412902758E+02  0.80995518508E+02  0.41800000000E+01 0. -1.
         -5    1    3    3    0  502 -0.37160712242E+02  0.42854941632E+01 -0.33099173124E+02  0.50122965356E+02  0.41800000000E+01 0. -1.
        -11    1    1    2    0    0 -0.40101894329E+02 -0.65460823597E+01 -0.12145977917E+03  0.12807611440E+03  0.00000000000E+00 0.  1.
         11    1    1    2    0    0  0.47238069813E+01 -0.10565249072E+02  0.14592281255E+02  0.18624540600E+02  0.00000000000E+00 0. -1.
</event>
<event>
 7    1  0.3001243E-009  0.8713678E+02  0.7561462E-02  0.1309937E+00
          1   -1    0    0  501    0  0.00000000000E+00  0.00000000000E+00  0.68055176985E+02  0.68055176985E+02  0.00000000000E+00 0. -1.
         -1   -1    0    0    0  501 -0.00000000000E+00 -0.00000000000E+00 -0.17207461392E+03  0.17207461392E+03  0.00000000000E+00 0.  1.
         25    2    1    2    0    0  0.85769230986E+01  0.66120208944E+01 -0.35808105186E+02  0.13056060061E+03  0.12508624067E+03 0.  0.
          5    1    3    3  502    0 -0.21825045110E+01  0.65313935615E+02 -0.22774830647E+02  0.69331369685E+02  0.41800000000E+01 0.  1.
         -5    1    3    3    0  502  0.10759427610E+02 -0.58701914720E+02 -0.13033274539E+02  0.61229230924E+02  0.41800000000E+01 0.  1.
        -11    1    1    2    0    0 -0.82068740604E+01 -0.27180161501E+02 -0.80669058060E+02  0.85519652065E+02  0.00000000000E+00 0.  1.
         11    1    1    2    0    0 -0.37004903811E+00  0.20568140606E+02  0.12457726311E+02  0.24049538231E+02  0.00000000000E+00 0. -1.
</event>
<event>
 7    1  0.3001243E-009  0.8738401E+02  0.7561462E-02  0.1309313E+00
         -1   -1    0    0    0  501 -0.00000000000E+00  0.00000000000E+00  0.49733015032E+03  0.49733015032E+03  0.00000000000E+00 0.  1.
          1   -1    0    0  501    0  0.00000000000E+00 -0.00000000000E+00 -0.36042924902E+02  0.36042924902E+02  0.00000000000E+00 0. -1.
         25    2    1    2    0    0  0.63803876601E+02  0.39203203419E+02  0.26155493908E+03  0.29944322934E+03  0.12508971026E+03 0.  0.
          5    1    3    3  502    0  0.59807388006E+02  0.26699182706E+02  0.27346626605E+03  0.28123129464E+03  0.41800000000E+01 0. -1.
         -5    1    3    3    0  502  0.39964885952E+01  0.12504020713E+02 -0.11911326975E+02  0.18211934696E+02  0.41800000000E+01 0. -1.
        -11    1    1    2    0    0 -0.65945390184E+02 -0.51004258475E+02  0.20464058961E+03  0.22097058579E+03  0.00000000000E+00 0.  1.
         11    1    1    2    0    0  0.21415135824E+01  0.11801055056E+02 -0.49083032777E+01  0.12959260084E+02  0.00000000000E+00 0. -1.
</event>
<event>
 7    1  0.3001243E-009  0.9386591E+02  0.7561462E-02  0.1293751E+00
         -1   -1    0    0    0  501 -0.00000000000E+00  0.00000000000E+00  0.16916059591E+02  0.16916059591E+02  0.00000000000E+00 0.  1.
          1   -1    0    0  501    0  0.00000000000E+00 -0.00000000000E+00 -0.84654077685E+03  0.84654077685E+03  0.00000000000E+00 0. -1.
         25    2    1    2    0    0  0.44964186495E+02 -0.21281137342E+02 -0.52058840923E+03  0.53771309403E+03  0.12509362412E+03 0.  0.
          5    1    3    3  502    0  0.65716810860E+02  0.40429395181E+01 -0.13047805772E+03  0.14620889349E+03  0.41800000000E+01 0.  1.
         -5    1    3    3    0  502 -0.20752624365E+02 -0.25324076860E+02 -0.39011035150E+03  0.39150420054E+03  0.41800000000E+01 0.  1.
        -11    1    1    2    0    0  0.54197518116E+01  0.35886295785E+02 -0.52024599959E+02  0.63433105992E+02  0.00000000000E+00 0.  1.
         11    1    1    2    0    0 -0.50383938307E+02 -0.14605158443E+02 -0.25701170807E+03  0.26231063642E+03  0.00000000000E+00 0. -1.
</event>
<event>
 7    1  0.3001243E-009  0.1848599E+03  0.7561462E-02  0.1163181E+00
          2   -1    0    0  501    0  0.00000000000E+00  0.00000000000E+00  0.11004450214E+04  0.11004450214E+04  0.00000000000E+00 0. -1.
         -2   -1    0    0    0  501 -0.00000000000E+00 -0.00000000000E+00 -0.37087837726E+02  0.37087837726E+02  0.00000000000E+00 0.  1.
         25    2    1    2    0    0 -0.16251213128E+03  0.53471763486E+01  0.67197648468E+03  0.70259421186E+03  0.12508974965E+03 0.  0.
          5    1    3    3  502    0 -0.66704101154E+02  0.40210206931E+02  0.46868584109E+03  0.47513175846E+03  0.41800000000E+01 0.  1.
         -5    1    3    3    0  502 -0.95808030129E+02 -0.34863030583E+02  0.20329064359E+03  0.22746245340E+03  0.41800000000E+01 0.  1.
        -11    1    1    2    0    0  0.13071825555E+03 -0.45549195095E+02  0.28182753933E+03  0.31398846067E+03  0.00000000000E+00 0.  1.
         11    1    1    2    0    0  0.31793875729E+02  0.40202018746E+02  0.10955315966E+03  0.12095018659E+03  0.00000000000E+00 0. -1.
</event>
<event>
 7    1  0.3533617E-009  0.6639487E+02  0.7561462E-02  0.1372800E+00
         -1   -1    0    0    0  501 -0.00000000000E+00  0.00000000000E+00  0.43244559898E+02  0.43244559898E+02  0.00000000000E+00 0.  1.
          1   -1    0    0  501    0  0.00000000000E+00 -0.00000000000E+00 -0.31528386148E+03  0.31528386148E+03  0.00000000000E+00 0. -1.
         25    2    1    2    0    0 -0.19442636197E+02 -0.13198026582E+02 -0.96804589538E+02  0.15990966389E+03  0.12509103902E+03 0.  0.
          5    1    3    3  502    0 -0.28603396790E+01  0.19106843855E+02 -0.11665327702E+03  0.11831615471E+03  0.41800000000E+01 0.  1.
         -5    1    3    3    0  502 -0.16582296518E+02 -0.32304870437E+02  0.19848687481E+02  0.41593509187E+02  0.41800000000E+01 0.  1.
        -11    1    1    2    0    0  0.34053679890E+02 -0.20495588256E+02 -0.32819662088E+02  0.51544664822E+02  0.00000000000E+00 0.  1.
         11    1    1    2    0    0 -0.14611043693E+02  0.33693614838E+02 -0.14241504996E+03  0.14707409266E+03  0.00000000000E+00 0. -1.
</event>
<event>
 7    1  0.3001243E-009  0.1222323E+03  0.7561462E-02  0.1239459E+00
         -2   -1    0    0    0  501 -0.00000000000E+00  0.00000000000E+00  0.11041590481E+03  0.11041590481E+03  0.00000000000E+00 0. -1.
          2   -1    0    0  501    0  0.00000000000E+00 -0.00000000000E+00 -0.19388589825E+03  0.19388589825E+03  0.00000000000E+00 0.  1.
         25    2    1    2    0    0  0.33662318271E+02  0.89484654922E+02 -0.60411709105E+02  0.16863371931E+03  0.12508837498E+03 0.  0.
          5    1    3    3  502    0  0.43276967906E+02  0.91055823105E+02 -0.91237450829E+02  0.13603603826E+03  0.41800000000E+01 0.  1.
         -5    1    3    3    0  502 -0.96146496351E+01 -0.15711681833E+01  0.30825741724E+02  0.32597681051E+02  0.41800000000E+01 0.  1.
        -11    1    1    2    0    0 -0.56371602220E+02 -0.94188077656E+02 -0.24364372412E+02  0.11244009139E+03  0.00000000000E+00 0.  1.
         11    1    1    2    0    0  0.22709283948E+02  0.47034227344E+01  0.13060880716E+01  0.23227992357E+02  0.00000000000E+00 0. -1.
</event>
<event>
 7    1  0.3001243E-009  0.7642665E+02  0.7561462E-02  0.1339509E+00
         -1   -1    0    0    0  501 -0.00000000000E+00  0.00000000000E+00  0.16380017016E+02  0.16380017016E+02  0.00000000000E+00 0.  1.
          1   -1    0    0  501    0  0.00000000000E+00 -0.00000000000E+00 -0.12619807831E+04  0.12619807831E+04  0.00000000000E+00 0. -1.
         25    2    1    2    0    0  0.80759075859E+01 -0.63561608700E+01 -0.10902507305E+04  0.10974509769E+04  0.12508545202E+03 0.  0.
          5    1    3    3  502    0  0.18787912005E+02  0.22282773301E+02 -0.10233687661E+04  0.10237922697E+04  0.41800000000E+01 0.  1.
         -5    1    3    3    0  502 -0.10712004419E+02 -0.28638934171E+02 -0.66881964371E+02  0.73658707206E+02  0.41800000000E+01 0.  1.
        -11    1    1    2    0    0 -0.29693619879E+01 -0.42912482743E+02 -0.66923227429E+02  0.79555117090E+02  0.00000000000E+00 0.  1.
         11    1    1    2    0    0 -0.51065455979E+01  0.49268643613E+02 -0.88426808175E+02  0.10135470613E+03  0.00000000000E+00 0. -1.
</event>
<event>
 7    1  0.3001243E-009  0.1149469E+03  0.7561462E-02  0.1251674E+00
         -1   -1    0    0    0  501 -0.00000000000E+00  0.00000000000E+00  0.12897641827E+02  0.12897641827E+02  0.00000000000E+00 0.  1.
          1   -1    0    0  501    0  0.00000000000E+00 -0.00000000000E+00 -0.10493879413E+04  0.10493879413E+04  0.00000000000E+00 0. -1.
         25    2    1    2    0    0 -0.57687198130E+01 -0.33926320871E+02 -0.64335547367E+03  0.65630629793E+03  0.12508963912E+03 0.  0.
          5    1    3    3  502    0  0.55712946955E+02 -0.37506551319E+02 -0.30095270053E+03  0.30838397203E+03  0.41800000000E+01 0. -1.
         -5    1    3    3    0  502 -0.61481666768E+02  0.35802304475E+01 -0.34240277315E+03  0.34792232590E+03  0.41800000000E+01 0. -1.
        -11    1    1    2    0    0 -0.42391943468E+02  0.31202461965E+02 -0.22389392863E+03  0.22999817778E+03  0.00000000000E+00 0.  1.
         11    1    1    2    0    0  0.48160663281E+02  0.27238589061E+01 -0.16924089714E+03  0.17598110740E+03  0.00000000000E+00 0. -1.
</event>
<event>
 7    1  0.3001243E-009  0.1651915E+03  0.7561462E-02  0.1182957E+00
          1   -1    0    0  501    0  0.00000000000E+00  0.00000000000E+00  0.73920911481E+03  0.73920911481E+03  0.00000000000E+00 0. -1.
         -1   -1    0    0    0  501 -0.00000000000E+00 -0.00000000000E+00 -0.43229357322E+02  0.43229357322E+02  0.00000000000E+00 0.  1.
         25    2    1    2    0    0  0.51422922516E+02  0.12714771950E+03  0.46112916189E+03  0.49709016843E+03  0.12509065542E+03 0.  0.
          5    1    3    3  502    0  0.18952572354E+02  0.14568461326E+03  0.34443167035E+03  0.37447810948E+03  0.41800000000E+01 0. -1.
         -5    1    3    3    0  502  0.32470350162E+02 -0.18536893751E+02  0.11669749153E+03  0.12261205895E+03  0.41800000000E+01 0. -1.
        -11    1    1    2    0    0 -0.42514910390E+02 -0.40607582082E+02  0.37660206512E+02  0.69819656849E+02  0.00000000000E+00 0.  1.
         11    1    1    2    0    0 -0.89080121260E+01 -0.86540137423E+02  0.19719038909E+03  0.21552864686E+03  0.00000000000E+00 0. -1.
</event>
<event>
 7    1  0.3001243E-009  0.1954969E+03  0.7561462E-02  0.1153595E+00
          2   -1    0    0  501    0  0.00000000000E+00  0.00000000000E+00  0.52360500088E+02  0.52360500088E+02  0.00000000000E+00 0. -1.
         -2   -1    0    0    0  501 -0.00000000000E+00 -0.00000000000E+00 -0.85829346852E+03  0.85829346852E+03  0.00000000000E+00 0.  1.
         25    2    1    2    0    0  0.38410345552E+02  0.16944202717E+03 -0.52770748057E+03  0.56947707890E+03  0.12507199178E+03 0.  0.
          5    1    3    3  502    0 -0.27749827026E+02  0.12628008700E+03 -0.26121539153E+03  0.29149213788E+03  0.41800000000E+01 0. -1.
         -5    1    3    3    0  502  0.66160172578E+02  0.43161940166E+02 -0.26649208904E+03  0.27798494103E+03  0.41800000000E+01 0. -1.
        -11    1    1    2    0    0  0.11984922803E+02 -0.70285353780E+02 -0.17685025673E+03  0.19068215081E+03  0.00000000000E+00 0.  1.
         11    1    1    2    0    0 -0.50395268355E+02 -0.99156673385E+02 -0.10137523113E+03  0.15049473890E+03  0.00000000000E+00 0. -1.
</event>
<event>
 7    1  0.3001243E-009  0.1421751E+03  0.7561462E-02  0.1210432E+00
         -1   -1    0    0    0  501 -0.00000000000E+00  0.00000000000E+00  0.20540305118E+03  0.20540305118E+03  0.00000000000E+00 0.  1.
          1   -1    0    0  501    0  0.00000000000E+00 -0.00000000000E+00 -0.13586086443E+03  0.13586086443E+03  0.00000000000E+00 0. -1.
         25    2    1    2    0    0 -0.73655015286E+02  0.90330474088E+02  0.89209913371E+02  0.19284820115E+03  0.12508942489E+03 0.  0.
          5    1    3    3  502    0 -0.32627298177E+02 -0.62759891986E+01  0.80808096982E+02  0.87471993030E+02  0.41800000000E+01 0. -1.
         -5    1    3    3    0  502 -0.41027717109E+02  0.96606463286E+02  0.84018163889E+01  0.10537620812E+03  0.41800000000E+01 0. -1.
        -11    1    1    2    0    0  0.93638154531E+02 -0.80811616981E+02 -0.23643265451E+02  0.12592706391E+03  0.00000000000E+00 0. -1.
         11    1    1    2    0    0 -0.19983139246E+02 -0.95188571069E+01  0.39755388286E+01  0.22488650553E+02  0.00000000000E+00 0.  1.
</event>
<event>
 7    1  0.3001243E-009  0.2429525E+03  0.7561462E-02  0.1117841E+00
          1   -1    0    0  501    0  0.00000000000E+00  0.00000000000E+00  0.53928270873E+03  0.53928270873E+03  0.00000000000E+00 0. -1.
         -1   -1    0    0    0  501 -0.00000000000E+00 -0.00000000000E+00 -0.16629910211E+03  0.16629910211E+03  0.00000000000E+00 0.  1.
         25    2    1    2    0    0  0.71164563935E+02  0.22265200939E+03  0.36909470649E+03  0.45443979202E+03  0.12508521000E+03 0.  0.
          5    1    3    3  502    0  0.30461535184E+02  0.13914774740E+03  0.31768970813E+03  0.34818705286E+03  0.41800000000E+01 0.  1.
         -5    1    3    3    0  502  0.40703028751E+02  0.83504261992E+02  0.51404998362E+02  0.10625273915E+03  0.41800000000E+01 0.  1.
        -11    1    1    2    0    0 -0.53783626120E+02 -0.40236531027E+02 -0.72685196536E+01  0.67560996482E+02  0.00000000000E+00 0.  1.
         11    1    1    2    0    0 -0.17380937815E+02 -0.18241547837E+03  0.11157419786E+02  0.18358102234E+03  0.00000000000E+00 0. -1.
</event>
<event>
 7    1  0.3001243E-009  0.1124296E+03  0.7561462E-02  0.1256136E+00
         -1   -1    0    0    0  501 -0.00000000000E+00  0.00000000000E+00  0.49428493240E+02  0.49428493240E+02  0.00000000000E+00 0.  1.
          1   -1    0    0  501    0  0.00000000000E+00 -0.00000000000E+00 -0.36322997000E+03  0.36322997000E+03  0.00000000000E+00 0. -1.
         25    2    1    2    0    0  0.58392882562E+02 -0.53171574978E+02 -0.18201789954E+03  0.23455465438E+03  0.12509366498E+03 0.  0.
          5    1    3    3  502    0 -0.26627396278E+01  0.31747216758E+02 -0.88639014554E+02  0.94283207706E+02  0.41800000000E+01 0. -1.
         -5    1    3    3    0  502  0.61055622190E+02 -0.84918791735E+02 -0.93378884986E+02  0.14027144667E+03  0.41800000000E+01 0. -1.
        -11    1    1    2    0    0 -0.57431816427E+02  0.29873938756E+02 -0.25970366634E+02  0.69751886699E+02  0.00000000000E+00 0.  1.
         11    1    1    2    0    0 -0.96106613498E+00  0.23297636221E+02 -0.10581321058E+03  0.10835192216E+03  0.00000000000E+00 0. -1.
</event>
<event>
 7    1  0.3001243E-009  0.1194890E+03  0.7561462E-02  0.1243942E+00
         -2   -1    0    0    0  501 -0.00000000000E+00  0.00000000000E+00  0.30255722599E+03  0.30255722599E+03  0.00000000000E+00 0.  1.
          2   -1    0    0  501    0  0.00000000000E+00 -0.00000000000E+00 -0.69513570378E+02  0.69513570378E+02  0.00000000000E+00 0. -1.
         25    2    1    2    0    0  0.30764236513E+02  0.85151850351E+02  0.16721346237E+03  0.22760721745E+03  0.12508967812E+03 0.  0.
          5    1    3    3  502    0 -0.12421503486E+02  0.59083848872E+02  0.16631370074E+03  0.17698280821E+03  0.41800000000E+01 0. -1.
         -5    1    3    3    0  502  0.43185739999E+02  0.26068001479E+02  0.89976162959E+00  0.50624409245E+02  0.41800000000E+01 0. -1.
        -11    1    1    2    0    0  0.55355895245E+01 -0.90918201160E+02  0.39674351750E+02  0.99351981562E+02  0.00000000000E+00 0. -1.
         11    1    1    2    0    0 -0.36299826037E+02  0.57663508088E+01  0.26155841495E+02  0.45111597360E+02  0.00000000000E+00 0.  1.
</event>
<event>
 7    1  0.3001243E-009  0.1755467E+03  0.7561462E-02  0.1172184E+00
          2   -1    0    0  501    0  0.00000000000E+00  0.00000000000E+00  0.30684658084E+04  0.30684658084E+04  0.00000000000E+00 0. -1.
         -2   -1    0    0    0  501 -0.00000000000E+00 -0.00000000000E+00 -0.13805164266E+02  0.13805164266E+02  0.00000000000E+00 0.  1.
         25    2    1    2    0    0 -0.13650318679E+03 -0.75584895511E+02  0.21773565045E+04  0.21865220604E+04  0.12510466265E+03 0.  0.
          5    1    3    3  502    0 -0.58802902885E+02 -0.77919547159E+02  0.17046817430E+04  0.17074795912E+04  0.41800000000E+01 0. -1.
         -5    1    3    3    0  502 -0.77700283905E+02  0.23346516486E+01  0.47267476150E+03  0.47904246918E+03  0.41800000000E+01 0. -1.
        -11    1    1    2    0    0  0.34910282335E+02  0.64501458669E+02  0.26443428655E+03  0.27441694169E+03  0.00000000000E+00 0.  1.
         11    1    1    2    0    0  0.10159290445E+03  0.11083436842E+02  0.61286985311E+03  0.62133197057E+03  0.00000000000E+00 0. -1.
</event>
<event>
 7    1  0.3001243E-009  0.1045783E+03  0.7561462E-02  0.1270953E+00
         -4   -1    0    0    0  501 -0.00000000000E+00  0.00000000000E+00  0.36754213145E+02  0.36754213145E+02  0.00000000000E+00 0. -1.
          4   -1    0    0  501    0  0.00000000000E+00 -0.00000000000E+00 -0.35871461208E+03  0.35871461208E+03  0.00000000000E+00 0.  1.
         25    2    1    2    0    0  0.21501156142E+02 -0.42852308391E+01 -0.13012785424E+03  0.18183756837E+03  0.12510387645E+03 0.  0.
          5    1    3    3  502    0  0.49263702053E+02 -0.51862961876E+02 -0.77275719931E+02  0.10538353024E+03  0.41800000000E+01 0. -1.
         -5    1    3    3    0  502 -0.27762545912E+02  0.47577731037E+02 -0.52852134304E+02  0.76454038132E+02  0.41800000000E+01 0. -1.
        -11    1    1    2    0    0  0.23062696814E+02 -0.20855002697E+02 -0.12852204937E+03  0.13222986159E+03  0.00000000000E+00 0.  1.
         11    1    1    2    0    0 -0.44563852956E+02  0.25140233536E+02 -0.63310495334E+02  0.81401395270E+02  0.00000000000E+00 0. -1.
</event>
<event>
 7    1  0.3001243E-009  0.1208302E+03  0.7561462E-02  0.1241734E+00
          1   -1    0    0  501    0  0.00000000000E+00  0.00000000000E+00  0.36131669207E+03  0.36131669207E+03  0.00000000000E+00 0. -1.
         -1   -1    0    0    0  501 -0.00000000000E+00 -0.00000000000E+00 -0.59630768107E+02  0.59630768107E+02  0.00000000000E+00 0.  1.
         25    2    1    2    0    0  0.26455234354E+02  0.92747502353E+02  0.15189717668E+03  0.21913991796E+03  0.12509025838E+03 0.  0.
          5    1    3    3  502    0  0.20773827279E+02 -0.21478217953E+02  0.15771399601E+01  0.30213002444E+02  0.41800000000E+01 0. -1.
         -5    1    3    3    0  502  0.56814070749E+01  0.11422572031E+03  0.15032003672E+03  0.18892691552E+03  0.41800000000E+01 0. -1.
        -11    1    1    2    0    0 -0.35993208762E+01 -0.30912434116E+02  0.12897397064E+03  0.13267561492E+03  0.00000000000E+00 0. -1.
         11    1    1    2    0    0 -0.22855913478E+02 -0.61835068237E+02  0.20814776645E+02  0.69131927295E+02  0.00000000000E+00 0.  1.
</event>
<event>
 7    1  0.3001243E-009  0.1332893E+03  0.7561462E-02  0.1222655E+00
          2   -1    0    0  501    0  0.00000000000E+00  0.00000000000E+00  0.12904293699E+03  0.12904293699E+03  0.00000000000E+00 0. -1.
         -2   -1    0    0    0  501 -0.00000000000E+00 -0.00000000000E+00 -0.17183940298E+03  0.17183940298E+03  0.00000000000E+00 0.  1.
         25    2    1    2    0    0  0.17265918020E+02 -0.82435192290E+02  0.34821173133E+02  0.15477064085E+03  0.12509102413E+03 0.  0.
          5    1    3    3  502    0 -0.53461071583E+02 -0.45278069843E+02  0.23259092586E+02  0.73936780910E+02  0.41800000000E+01 0.  1.
         -5    1    3    3    0  502  0.70726989603E+02 -0.37157122447E+02  0.11562080547E+02  0.80833859944E+02  0.41800000000E+01 0.  1.
        -11    1    1    2    0    0  0.31137204746E+02  0.18557783262E+02 -0.49129568709E+02  0.61054331218E+02  0.00000000000E+00 0.  1.
         11    1    1    2    0    0 -0.48403122766E+02  0.63877409028E+02 -0.28488070416E+02  0.85057367897E+02  0.00000000000E+00 0. -1.
</event>
<event>
 7    1  0.3001243E-009  0.1555400E+03  0.7561462E-02  0.1193826E+00
         -1   -1    0    0    0  501 -0.00000000000E+00  0.00000000000E+00  0.87475230541E+03  0.87475230541E+03  0.00000000000E+00 0.  1.
          1   -1    0    0  501    0  0.00000000000E+00 -0.00000000000E+00 -0.33388035939E+02  0.33388035939E+02  0.00000000000E+00 0. -1.
         25    2    1    2    0    0 -0.86246246990E+02  0.10484293374E+03  0.43107051283E+03  0.46893527312E+03  0.12509215590E+03 0.  0.
          5    1    3    3  502    0 -0.45506778070E+02 -0.15411420854E+02  0.19476427612E+03  0.20064639144E+03  0.41800000000E+01 0. -1.
         -5    1    3    3    0  502 -0.40739468920E+02  0.12025435459E+03  0.23630623671E+03  0.26828888168E+03  0.41800000000E+01 0. -1.
        -11    1    1    2    0    0  0.28110520998E+02 -0.31295450369E+02  0.24995399460E+03  0.25346914215E+03  0.00000000000E+00 0.  1.
         11    1    1    2    0    0  0.58135725993E+02 -0.73547483372E+02  0.16033976205E+03  0.18573592609E+03  0.00000000000E+00 0. -1.
</event>
<event>
 7    1  0.3001243E-009  0.1313467E+03  0.7561462E-02  0.1225471E+00
          2   -1    0    0  501    0  0.00000000000E+00  0.00000000000E+00  0.34632427858E+03  0.34632427858E+03  0.00000000000E+00 0. -1.
         -2   -1    0    0    0  501 -0.00000000000E+00 -0.00000000000E+00 -0.54285746508E+02  0.54285746508E+02  0.00000000000E+00 0.  1.
         25    2    1    2    0    0  0.71565163550E+02  0.41680127955E+02  0.18153083898E+03  0.23549935258E+03  0.12509074251E+03 0.  0.
          5    1    3    3  502    0 -0.21589673417E+02 -0.24902968306E+02  0.59223168784E+02  0.67905286610E+02  0.41800000000E+01 0.  1.
         -5    1    3    3    0  502  0.93154836967E+02  0.66583096262E+02  0.12230767020E+03  0.16759406597E+03  0.41800000000E+01 0.  1.
        -11    1    1    2    0    0 -0.46951458647E+02 -0.65532299384E+02  0.48003196158E+02  0.93825521971E+02  0.00000000000E+00 0.  1.
         11    1    1    2    0    0 -0.24613704904E+02  0.23852171429E+02  0.62504496926E+02  0.71285150536E+02  0.00000000000E+00 0. -1.
</event>
<event>
 7    1  0.3001243E-009  0.8787776E+02  0.7561462E-02  0.1308074E+00
         -1   -1    0    0    0  501 -0.00000000000E+00  0.00000000000E+00  0.17719778807E+03  0.17719778807E+03  0.00000000000E+00 0.  1.
          1   -1    0    0  501    0  0.00000000000E+00 -0.00000000000E+00 -0.80601213077E+02  0.80601213077E+02  0.00000000000E+00 0. -1.
         25    2    1    2    0    0 -0.98212573299E+01 -0.40301678175E+02  0.82580765452E+02  0.15552355606E+03  0.12508921340E+03 0.  0.
          5    1    3    3  502    0 -0.47570267193E+02 -0.35232944347E+02  0.97717021026E+02  0.11432575950E+03  0.41800000000E+01 0.  1.
         -5    1    3    3    0  502  0.37749009863E+02 -0.50687338278E+01 -0.15136255574E+02  0.41197796556E+02  0.41800000000E+01 0.  1.
        -11    1    1    2    0    0  0.22343681083E+02 -0.11269525407E+02  0.36815454350E+02  0.44515390218E+02  0.00000000000E+00 0.  1.
         11    1    1    2    0    0 -0.12522423753E+02  0.51571203582E+02 -0.22799644806E+02  0.57760054872E+02  0.00000000000E+00 0. -1.
</event>
<event>
 7    1  0.3001243E-009  0.1265702E+03  0.7561462E-02  0.1232635E+00
          2   -1    0    0  501    0  0.00000000000E+00  0.00000000000E+00  0.51491838584E+02  0.51491838584E+02  0.00000000000E+00 0. -1.
         -2   -1    0    0    0  501 -0.00000000000E+00 -0.00000000000E+00 -0.36138991543E+03  0.36138991543E+03  0.00000000000E+00 0.  1.
         25    2    1    2    0    0  0.78218254856E+02 -0.14012852867E+02 -0.19271994873E+03  0.24310811136E+03  0.12508445041E+03 0.  0.
          5    1    3    3  502    0 -0.29739288052E+02 -0.17871936726E+02 -0.22847158699E+02  0.41752801544E+02  0.41800000000E+01 0. -1.
         -5    1    3    3    0  502  0.10795754291E+03  0.38590838584E+01 -0.16987279003E+03  0.20135530982E+03  0.41800000000E+01 0. -1.
        -11    1    1    2    0    0 -0.38969966765E+01  0.33119528271E+02 -0.47960179712E+01  0.33691119370E+02  0.00000000000E+00 0. -1.
         11    1    1    2    0    0 -0.74321258179E+02 -0.19106675404E+02 -0.11238211014E+03  0.13608252328E+03  0.00000000000E+00 0.  1.
</event>
<event>
 7    1  0.3001243E-009  0.1060960E+03  0.7561462E-02  0.1267975E+00
          1   -1    0    0  501    0  0.00000000000E+00  0.00000000000E+00  0.13477797914E+02  0.13477797914E+02  0.00000000000E+00 0. -1.
         -1   -1    0    0    0  501 -0.00000000000E+00 -0.00000000000E+00 -0.98171822928E+03  0.98171822928E+03  0.00000000000E+00 0.  1.
         25    2    1    2    0    0  0.14224635820E+02 -0.16575018261E+02 -0.68847717791E+03  0.70008979155E+03  0.12509124761E+03 0.  0.
          5    1    3    3  502    0  0.51779223497E+02  0.31417656963E+02 -0.44233413524E+03  0.44648081342E+03  0.41800000000E+01 0. -1.
         -5    1    3    3    0  502 -0.37554587677E+02 -0.47992675224E+02 -0.24614304267E+03  0.25360897813E+03  0.41800000000E+01 0. -1.
        -11    1    1    2    0    0 -0.42151123550E+02  0.36770859765E+02 -0.20960323161E+03  0.21693853518E+03  0.00000000000E+00 0.  1.
         11    1    1    2    0    0  0.27926487730E+02 -0.20195841504E+02 -0.70160021839E+02  0.78167700462E+02  0.00000000000E+00 0. -1.
</event>
<event>
 7    1  0.3001243E-009  0.8463481E+02  0.7561462E-02  0.1316390E+00
          1   -1    0    0  501    0  0.00000000000E+00  0.00000000000E+00  0.96597377113E+02  0.96597377113E+02  0.00000000000E+00 0. -1.
         -1   -1    0    0    0  501 -0.00000000000E+00 -0.00000000000E+00 -0.23937862289E+03  0.23937862289E+03  0.00000000000E+00 0.  1.
         25    2    1    2    0    0  0.26991659166E+02 -0.64725207844E+02 -0.16068718846E+03  0.21537278756E+03  0.12508862016E+03 0.  0.
          5    1    3    3  502    0 -0.25469830751E+01 -0.36051866387E+02 -0.16925123604E+03  0.17311752509E+03  0.41800000000E+01 0. -1.
         -5    1    3    3    0  502  0.29538642241E+02 -0.28673341458E+02  0.85640475778E+01  0.42255262474E+02  0.41800000000E+01 0. -1.
        -11    1    1    2    0    0  0.12552147373E+02  0.46136765541E+02  0.47840612479E+02  0.67637872089E+02  0.00000000000E+00 0.  1.
         11    1    1    2    0    0 -0.39543806539E+02  0.18588442303E+02 -0.29934669800E+02  0.52965340354E+02  0.00000000000E+00 0. -1.
</event>
<event>
 7    1  0.3001243E-009  0.2045095E+03  0.7561462E-02  0.1145989E+00
         -3   -1    0    0    0  501 -0.00000000000E+00  0.00000000000E+00  0.69799682818E+03  0.69799682818E+03  0.00000000000E+00 0.  1.
          3   -1    0    0  501    0  0.00000000000E+00 -0.00000000000E+00 -0.70394978056E+02  0.70394978056E+02  0.00000000000E+00 0. -1.
         25    2    1    2    0    0  0.18217493644E+03 -0.26600852642E+02  0.42583398695E+03  0.48049749787E+03  0.12509175909E+03 0.  0.
          5    1    3    3  502    0  0.11682157547E+03  0.37384329237E+02  0.17727769368E+03  0.21561475284E+03  0.41800000000E+01 0.  1.
         -5    1    3    3    0  502  0.65353360970E+02 -0.63985181879E+02  0.24855629327E+03  0.26488274503E+03  0.41800000000E+01 0.  1.
        -11    1    1    2    0    0 -0.18217663455E+03  0.14630536548E+02  0.15506608566E+03  0.23968285232E+03  0.00000000000E+00 0. -1.
         11    1    1    2    0    0  0.16981183382E-02  0.11970316094E+02  0.46701777520E+02  0.48211456043E+02  0.00000000000E+00 0.  1.
</event>
<event>
 7    1  0.3001243E-009  0.1093749E+03  0.7561462E-02  0.1261732E+00
         -1   -1    0    0    0  501 -0.00000000000E+00  0.00000000000E+00  0.12365790000E+03  0.12365790000E+03  0.00000000000E+00 0.  1.
          1   -1    0    0  501    0  0.00000000000E+00 -0.00000000000E+00 -0.14819224110E+03  0.14819224110E+03  0.00000000000E+00 0. -1.
         25    2    1    2    0    0  0.35834875068E+02 -0.47859992221E+02 -0.71054249016E+02  0.15578744293E+03  0.12508518675E+03 0.  0.
          5    1    3    3  502    0  0.35791428457E+02 -0.89481054585E+02 -0.44443914209E+02  0.10621026029E+03  0.41800000000E+01 0.  1.
         -5    1    3    3    0  502  0.43446611461E-01  0.41621062364E+02 -0.26610334807E+02  0.49577182639E+02  0.41800000000E+01 0.  1.
        -11    1    1    2    0    0  0.14395712695E+02  0.11936069702E+02  0.50826992036E+02  0.54158004241E+02  0.00000000000E+00 0.  1.
         11    1    1    2    0    0 -0.50230587763E+02  0.35923922518E+02 -0.43070841206E+01  0.61904693924E+02  0.00000000000E+00 0. -1.
</event>
<event>
 7    1  0.3001243E-009  0.1254109E+03  0.7561462E-02  0.1234428E+00
          2   -1    0    0  501    0  0.00000000000E+00  0.00000000000E+00  0.54058438317E+03  0.54058438317E+03  0.00000000000E+00 0.  1.
         -2   -1    0    0    0  501 -0.00000000000E+00 -0.00000000000E+00 -0.55204780188E+02  0.55204780188E+02  0.00000000000E+00 0. -1.
         25    2    1    2    0    0 -0.75967072595E+02 -0.55595676410E+02  0.42105650406E+03  0.44921881744E+03  0.12508833267E+03 0.  0.
          5    1    3    3  502    0 -0.10716552399E+03 -0.26267787833E+02  0.25912277837E+03  0.28166741536E+03  0.41800000000E+01 0.  1.
         -5    1    3    3    0  502  0.31198451397E+02 -0.29327888577E+02  0.16193372570E+03  0.16755140207E+03  0.41800000000E+01 0.  1.
        -11    1    1    2    0    0  0.19380710275E+02  0.28944696507E+02  0.75391838961E+02  0.83050206312E+02  0.00000000000E+00 0.  1.
         11    1    1    2    0    0  0.56586362320E+02  0.26650979903E+02 -0.11068740038E+02  0.63520139613E+02  0.00000000000E+00 0. -1.
</event>
<event>
 7    1  0.3001243E-009  0.1177445E+03  0.7561462E-02  0.1246865E+00
         -1   -1    0    0    0  501 -0.00000000000E+00  0.00000000000E+00  0.56038073907E+02  0.56038073907E+02  0.00000000000E+00 0.  1.
          1   -1    0    0  501    0  0.00000000000E+00 -0.00000000000E+00 -0.49843271871E+03  0.49843271871E+03  0.00000000000E+00 0. -1.
         25    2    1    2    0    0  0.86831765971E+02  0.50218601110E+02 -0.36381496658E+03  0.39757859298E+03  0.12508294932E+03 0.  0.
          5    1    3    3  502    0  0.84609505133E+02  0.37358417998E+02 -0.37080936932E+03  0.38219298859E+03  0.41800000000E+01 0. -1.
         -5    1    3    3    0  502  0.22222608382E+01  0.12860183111E+02  0.69944027368E+01  0.15385604393E+02  0.41800000000E+01 0. -1.
        -11    1    1    2    0    0 -0.50862301141E+02  0.16442721383E+02 -0.93312996766E+01  0.54262417174E+02  0.00000000000E+00 0.  1.
         11    1    1    2    0    0 -0.35969464830E+02 -0.66661322493E+02 -0.69248378549E+02  0.10262978246E+03  0.00000000000E+00 0. -1.
</event>
<event>
 7    1  0.3001243E-009  0.1810022E+03  0.7561462E-02  0.1166837E+00
          2   -1    0    0  501    0  0.00000000000E+00  0.00000000000E+00  0.46867613720E+02  0.46867613720E+02  0.00000000000E+00 0. -1.
         -2   -1    0    0    0  501 -0.00000000000E+00 -0.00000000000E+00 -0.92052180791E+03  0.92052180791E+03  0.00000000000E+00 0.  1.
         25    2    1    2    0    0  0.68542434693E+02 -0.15749804300E+03 -0.35367828204E+03  0.41260055719E+03  0.12508874330E+03 0.  0.
          5    1    3    3  502    0  0.18164337124E+02 -0.42696754321E+02 -0.11259807523E+02  0.47929235735E+02  0.41800000000E+01 0. -1.
         -5    1    3    3    0  502  0.50378097568E+02 -0.11480128868E+03 -0.34241847452E+03  0.36467132145E+03  0.41800000000E+01 0. -1.
        -11    1    1    2    0    0  0.13408586452E+02  0.65131377708E+02 -0.23462938892E+03  0.24387053266E+03  0.00000000000E+00 0.  1.
         11    1    1    2    0    0 -0.81951021145E+02  0.92366665291E+02 -0.28534652323E+03  0.31091833179E+03  0.00000000000E+00 0. -1.
</event>
<event>
 7    1  0.3001243E-009  0.2982963E+03  0.7561462E-02  0.1086095E+00
         -1   -1    0    0    0  501 -0.00000000000E+00  0.00000000000E+00  0.21550833804E+03  0.21550833804E+03  0.00000000000E+00 0.  1.
          1   -1    0    0  501    0  0.00000000000E+00 -0.00000000000E+00 -0.46592289698E+03  0.46592289698E+03  0.00000000000E+00 0. -1.
         25    2    1    2    0    0 -0.27785143450E+03  0.10678708635E+03 -0.11876735029E+03  0.34402798095E+03  0.12507864213E+03 0.  0.
          5    1    3    3  502    0 -0.15049213595E+03  0.44516565655E+02  0.31126381936E+01  0.15702473855E+03  0.41800000000E+01 0.  1.
         -5    1    3    3    0  502 -0.12735929855E+03  0.62270520692E+02 -0.12187998848E+03  0.18700324240E+03  0.41800000000E+01 0.  1.
        -11    1    1    2    0    0  0.10160260764E+03 -0.35000664310E+02 -0.95349531751E+02  0.14366513003E+03  0.00000000000E+00 0. -1.
         11    1    1    2    0    0  0.17624882686E+03 -0.71786422037E+02 -0.36297676898E+02  0.19373812404E+03  0.00000000000E+00 0.  1.
</event>
<event>
 7    1  0.3001243E-009  0.1002436E+03  0.7561462E-02  0.1279785E+00
         -2   -1    0    0    0  501 -0.00000000000E+00  0.00000000000E+00  0.74392250104E+02  0.74392250104E+02  0.00000000000E+00 0.  1.
          2   -1    0    0  501    0  0.00000000000E+00 -0.00000000000E+00 -0.19537260166E+03  0.19537260166E+03  0.00000000000E+00 0. -1.
         25    2    1    2    0    0 -0.49218917561E+02 -0.18611633335E+02 -0.71725514038E+02  0.15349544391E+03  0.12508959668E+03 0.  0.
          5    1    3    3  502    0  0.27605060802E+02 -0.10530440965E+02  0.18138138865E+02  0.34919823170E+02  0.41800000000E+01 0.  1.
         -5    1    3    3    0  502 -0.76823978363E+02 -0.80811923699E+01 -0.89863652902E+02  0.11857562074E+03  0.41800000000E+01 0.  1.
        -11    1    1    2    0    0  0.30989246415E+02 -0.28914810163E+02  0.40340730709E+01  0.42575502178E+02  0.00000000000E+00 0.  1.
         11    1    1    2    0    0  0.18229671146E+02  0.47526443498E+02 -0.53288910591E+02  0.73693905675E+02  0.00000000000E+00 0. -1.
</event>
<event>
 7    1  0.3001243E-009  0.8642032E+02  0.7561462E-02  0.1311759E+00
         -2   -1    0    0    0  501 -0.00000000000E+00  0.00000000000E+00  0.43086551551E+02  0.43086551551E+02  0.00000000000E+00 0.  1.
          2   -1    0    0  501    0  0.00000000000E+00 -0.00000000000E+00 -0.75713983237E+03  0.75713983237E+03  0.00000000000E+00 0. -1.
         25    2    1    2    0    0 -0.15895569820E+02 -0.24448740674E+02 -0.68723565028E+03  0.69913549406E+03  0.12508872843E+03 0.  0.
          5    1    3    3  502    0 -0.41430067949E+02 -0.48204565214E+02 -0.18473891156E+03  0.19541255968E+03  0.41800000000E+01 0. -1.
         -5    1    3    3    0  502  0.25534498129E+02  0.23755824540E+02 -0.50249673872E+03  0.50372293438E+03  0.41800000000E+01 0. -1.
        -11    1    1    2    0    0 -0.18414394664E+02  0.33767886089E+02  0.19160101890E+02  0.42970566278E+02  0.00000000000E+00 0.  1.
         11    1    1    2    0    0  0.34309964483E+02 -0.93191454157E+01 -0.45977732436E+02  0.58120323589E+02  0.00000000000E+00 0. -1.
</event>
<event>
 7    1  0.3001243E-009  0.8008022E+02  0.7561462E-02  0.1328824E+00
         -4   -1    0    0    0  501 -0.00000000000E+00  0.00000000000E+00  0.17321817618E+03  0.17321817618E+03  0.00000000000E+00 0.  1.
          4   -1    0    0  501    0  0.00000000000E+00 -0.00000000000E+00 -0.77984942765E+02  0.77984942765E+02  0.00000000000E+00 0. -1.
         25    2    1    2    0    0 -0.23876878596E+02  0.24906255399E+01  0.19059539467E+02  0.12879008397E+03  0.12508921271E+03 0.  0.
          5    1    3    3  502    0 -0.32742888637E+02 -0.40247715377E+02  0.52283421037E+02  0.73776716277E+02  0.41800000000E+01 0. -1.
         -5    1    3    3    0  502  0.88660100405E+01  0.42738340917E+02 -0.33223881570E+02  0.55013367693E+02  0.41800000000E+01 0. -1.
        -11    1    1    2    0    0 -0.24577097870E+01 -0.27697349951E+02  0.81001067525E+02  0.85640857492E+02  0.00000000000E+00 0.  1.
         11    1    1    2    0    0  0.26334588383E+02  0.25206724411E+02 -0.48273735811E+01  0.36772177479E+02  0.00000000000E+00 0. -1.
</event>
<event>
 7    1  0.3001243E-009  0.1320608E+03  0.7561462E-02  0.1224430E+00
         -1   -1    0    0    0  501 -0.00000000000E+00  0.00000000000E+00  0.65686532740E+03  0.65686532740E+03  0.00000000000E+00 0.  1.
          1   -1    0    0  501    0  0.00000000000E+00 -0.00000000000E+00 -0.30562322553E+02  0.30562322553E+02  0.00000000000E+00 0. -1.
         25    2    1    2    0    0 -0.63132399331E+01 -0.92061735080E+02  0.36858780830E+03  0.40002425817E+03  0.12508882695E+03 0.  0.
          5    1    3    3  502    0  0.47692148367E+02 -0.43968959917E+02  0.26983212635E+03  0.27755118314E+03  0.41800000000E+01 0.  1.
         -5    1    3    3    0  502 -0.54005388300E+02 -0.48092775164E+02  0.98755681952E+02  0.12247307503E+03  0.41800000000E+01 0.  1.
        -11    1    1    2    0    0  0.27703498133E+02  0.10007699854E+03  0.20044160621E+03  0.22574261216E+03  0.00000000000E+00 0.  1.
         11    1    1    2    0    0 -0.21390258200E+02 -0.80152634606E+01  0.57273590339E+02  0.61660779630E+02  0.00000000000E+00 0. -1.
</event>
<event>
 7    1  0.3001243E-009  0.8184870E+02  0.7561462E-02  0.1323885E+00
         -2   -1    0    0    0  501 -0.00000000000E+00  0.00000000000E+00  0.67236277618E+02  0.67236277618E+02  0.00000000000E+00 0.  1.
          2   -1    0    0  501    0  0.00000000000E+00 -0.00000000000E+00 -0.20536891916E+03  0.20536891916E+03  0.00000000000E+00 0. -1.
         25    2    1    2    0    0 -0.33742386512E+02  0.27891333996E+02 -0.72626787463E+02  0.15112634308E+03  0.12509215065E+03 0.  0.
          5    1    3    3  502    0  0.32707212566E+01  0.23712382187E+02  0.31889532814E+02  0.40092260969E+02  0.41800000000E+01 0. -1.
         -5    1    3    3    0  502 -0.37013107769E+02  0.41789518096E+01 -0.10451632028E+03  0.11103408211E+03  0.41800000000E+01 0. -1.
        -11    1    1    2    0    0 -0.18241292293E+02  0.22873802785E+02 -0.14125987298E+02  0.32488445877E+02  0.00000000000E+00 0.  1.
         11    1    1    2    0    0  0.51983678805E+02 -0.50765136781E+02 -0.51379866782E+02  0.88990407826E+02  0.00000000000E+00 0. -1.
</event>
<event>
 7    1  0.3001243E-009  0.3408180E+03  0.7561462E-02  0.1066448E+00
          1   -1    0    0  501    0  0.00000000000E+00  0.00000000000E+00  0.17687072411E+04  0.17687072411E+04  0.00000000000E+00 0. -1.
         -1   -1    0    0    0  501 -0.00000000000E+00 -0.00000000000E+00 -0.77394351342E+02  0.77394351342E+02  0.00000000000E+00 0.  1.
         25    2    1    2    0    0 -0.22993887446E+03 -0.23802041334E+03  0.11675347926E+04  0.12199639351E+04  0.12509559475E+03 0.  0.
          5    1    3    3  502    0 -0.10224766607E+03 -0.17367567091E+03  0.54176946282E+03  0.57805661239E+03  0.41800000000E+01 0.  1.
         -5    1    3    3    0  502 -0.12769120839E+03 -0.64344742430E+02  0.62576532975E+03  0.64190732267E+03  0.41800000000E+01 0.  1.
        -11    1    1    2    0    0  0.17977419052E+03  0.14359860947E+03  0.40898806352E+03  0.46926597609E+03  0.00000000000E+00 0. -1.
         11    1    1    2    0    0  0.50164683941E+02  0.94421803869E+02  0.11479003367E+03  0.15687168129E+03  0.00000000000E+00 0.  1.
</event>
<event>
 7    1  0.3001243E-009  0.1046827E+03  0.7561462E-02  0.1270746E+00
         -1   -1    0    0    0  501 -0.00000000000E+00  0.00000000000E+00  0.59703252417E+02  0.59703252417E+02  0.00000000000E+00 0. -1.
          1   -1    0    0  501    0  0.00000000000E+00 -0.00000000000E+00 -0.24228892919E+03  0.24228892919E+03  0.00000000000E+00 0.  1.
         25    2    1    2    0    0 -0.18334823438E+02 -0.20898834951E+02 -0.15827257384E+03  0.20364341692E+03  0.12508999389E+03 0.  0.
          5    1    3    3  502    0 -0.52470406445E+02  0.25861330084E+02 -0.12154665025E+03  0.13495559467E+03  0.41800000000E+01 0.  1.
         -5    1    3    3    0  502  0.34135583007E+02 -0.46760165035E+02 -0.36725923596E+02  0.68687822249E+02  0.41800000000E+01 0.  1.
        -11    1    1    2    0    0 -0.47853558428E+01  0.52943450584E+02 -0.25108779110E+01  0.53218540925E+02  0.00000000000E+00 0. -1.
         11    1    1    2    0    0  0.23120179281E+02 -0.32044615633E+02 -0.21802225014E+02  0.45130223760E+02  0.00000000000E+00 0.  1.
</event>
<event>
 7    1  0.3001243E-009  0.1152003E+03  0.7561462E-02  0.1251232E+00
          2   -1    0    0  501    0  0.00000000000E+00  0.00000000000E+00  0.19516530878E+03  0.19516530878E+03  0.00000000000E+00 0.  1.
         -2   -1    0    0    0  501 -0.00000000000E+00 -0.00000000000E+00 -0.95074579108E+02  0.95074579108E+02  0.00000000000E+00 0. -1.
         25    2    1    2    0    0  0.77797681228E+02 -0.26117837906E+02  0.56821757826E+02  0.16003661177E+03  0.12509350216E+03 0.  0.
          5    1    3    3  502    0  0.32745527272E+02 -0.51908693798E+02  0.81740274893E+02  0.10230213579E+03  0.41800000000E+01 0.  1.
         -5    1    3    3    0  502  0.45052153955E+02  0.25790855891E+02 -0.24918517067E+02  0.57734475978E+02  0.41800000000E+01 0.  1.
        -11    1    1    2    0    0 -0.93844217844E+02  0.32815197184E+02  0.50337248960E+02  0.11143344660E+03  0.00000000000E+00 0.  1.
         11    1    1    2    0    0  0.16046536616E+02 -0.66973592776E+01 -0.70682771129E+01  0.18769829515E+02  0.00000000000E+00 0. -1.
</event>
<event>
 7    1  0.3001243E-009  0.7827366E+02  0.7561462E-02  0.1334023E+00
         -1   -1    0    0    0  501 -0.00000000000E+00  0.00000000000E+00  0.80477912177E+02  0.80477912177E+02  0.00000000000E+00 0.  1.
          1   -1    0    0  501    0  0.00000000000E+00 -0.00000000000E+00 -0.18196164287E+03  0.18196164287E+03  0.00000000000E+00 0. -1.
         25    2    1    2    0    0 -0.34556188210E+02  0.87719230083E+01 -0.77559635027E+02  0.15144196851E+03  0.12509235014E+03 0.  0.
          5    1    3    3  502    0 -0.45443096555E+02  0.30596749984E+02  0.13916659464E+02  0.56677878796E+02  0.41800000000E+01 0.  1.
         -5    1    3    3    0  502  0.10886908346E+02 -0.21824826976E+02 -0.91476294491E+02  0.94764089716E+02  0.41800000000E+01 0.  1.
        -11    1    1    2    0    0 -0.19778944517E+02  0.57859712533E+01 -0.46128254886E+02  0.50522272399E+02  0.00000000000E+00 0. -1.
         11    1    1    2    0    0  0.54335132726E+02 -0.14557894262E+02  0.22204159217E+02  0.60475314139E+02  0.00000000000E+00 0.  1.
</event>
<event>
 7    1  0.3001243E-009  0.1664960E+03  0.7561462E-02  0.1181552E+00
         -1   -1    0    0    0  501 -0.00000000000E+00  0.00000000000E+00  0.10980265650E+03  0.10980265650E+03  0.00000000000E+00 0.  1.
          1   -1    0    0  501    0  0.00000000000E+00 -0.00000000000E+00 -0.34528422760E+03  0.34528422760E+03  0.00000000000E+00 0. -1.
         25    2    1    2    0    0 -0.77526843704E+02 -0.14000570895E+03 -0.13414785575E+03  0.24342430118E+03  0.12509089962E+03 0.  0.
          5    1    3    3  502    0 -0.73655018375E+02 -0.80019679757E+02 -0.14947289183E+02  0.10985947722E+03  0.41800000000E+01 0. -1.
         -5    1    3    3    0  502 -0.38718253288E+01 -0.59986029198E+02 -0.11920056657E+03  0.13356482396E+03  0.41800000000E+01 0. -1.
        -11    1    1    2    0    0  0.61086666562E+02  0.74405731841E+02 -0.82736245358E+01  0.96624254850E+02  0.00000000000E+00 0.  1.
         11    1    1    2    0    0  0.16440177142E+02  0.65599977114E+02 -0.93060090821E+02  0.11503832807E+03  0.00000000000E+00 0. -1.
</event>
<event>
 7    1  0.3001243E-009  0.1251573E+03  0.7561462E-02  0.1234824E+00
         -2   -1    0    0    0  501 -0.00000000000E+00  0.00000000000E+00  0.29358479994E+03  0.29358479994E+03  0.00000000000E+00 0.  1.
          2   -1    0    0  501    0  0.00000000000E+00 -0.00000000000E+00 -0.10274927690E+03  0.10274927690E+03  0.00000000000E+00 0. -1.
         25    2    1    2    0    0 -0.68485261090E+02 -0.90096004848E+02  0.18654730456E+03  0.25150479261E+03  0.12508893953E+03 0.  0.
          5    1    3    3  502    0 -0.43965080915E+02 -0.10080640371E+03  0.19432690566E+03  0.22332773682E+03  0.41800000000E+01 0.  1.
         -5    1    3    3    0  502 -0.24520180175E+02  0.10710398860E+02 -0.77796011092E+01  0.28177055790E+02  0.41800000000E+01 0.  1.
        -11    1    1    2    0    0  0.25829370000E+02  0.34947496457E+02  0.46244102972E+02  0.63458655224E+02  0.00000000000E+00 0.  1.
         11    1    1    2    0    0  0.42655891090E+02  0.55148508391E+02 -0.41955884484E+02  0.81370629009E+02  0.00000000000E+00 0. -1.
</event>
<event>
 7    1  0.3001243E-009  0.8898018E+02  0.7561462E-02  0.1305340E+00
          2   -1    0    0  501    0  0.00000000000E+00  0.00000000000E+00  0.21109952789E+03  0.21109952789E+03  0.00000000000E+00 0. -1.
         -2   -1    0    0    0  501 -0.00000000000E+00 -0.00000000000E+00 -0.65122154023E+02  0.65122154023E+02  0.00000000000E+00 0.  1.
         25    2    1    2    0    0 -0.21116536308E+02 -0.32809965692E+02  0.10560855995E+03  0.16829135388E+03  0.12508561028E+03 0.  0.
          5    1    3    3  502    0  0.36202876758E+02 -0.51016516644E+02  0.24686396182E+02  0.67381182926E+02  0.41800000000E+01 0. -1.
         -5    1    3    3    0  502 -0.57319413067E+02  0.18206550953E+02  0.80922163770E+02  0.10091017095E+03  0.41800000000E+01 0. -1.
        -11    1    1    2    0    0  0.16432636537E+01  0.35306776272E+02  0.66462115535E+02  0.75276035812E+02  0.00000000000E+00 0. -1.
         11    1    1    2    0    0  0.19473272655E+02 -0.24968105801E+01 -0.26093301623E+02  0.32654292222E+02  0.00000000000E+00 0.  1.
</event>
<event>
 7    1  0.3001243E-009  0.1627502E+03  0.7561462E-02  0.1185626E+00
          2   -1    0    0  501    0  0.00000000000E+00  0.00000000000E+00  0.20197924533E+03  0.20197924533E+03  0.00000000000E+00 0. -1.
         -2   -1    0    0    0  501 -0.00000000000E+00 -0.00000000000E+00 -0.19894782563E+03  0.19894782563E+03  0.00000000000E+00 0.  1.
         25    2    1    2    0    0 -0.13788997383E+03 -0.70384393075E+02 -0.66018656002E+02  0.20970299783E+03  0.12509706905E+03 0.  0.
          5    1    3    3  502    0 -0.86969969135E+02 -0.46887677203E+02  0.25645488739E+02  0.10216356150E+03  0.41800000000E+01 0. -1.
         -5    1    3    3    0  502 -0.50920004698E+02 -0.23496715872E+02 -0.91664144741E+02  0.10753943633E+03  0.41800000000E+01 0. -1.
        -11    1    1    2    0    0  0.90965281560E+02  0.66237066112E+01  0.85876214700E+01  0.91609514687E+02  0.00000000000E+00 0.  1.
         11    1    1    2    0    0  0.46924692273E+02  0.63760686464E+02  0.60462454228E+02  0.99614558446E+02  0.00000000000E+00 0. -1.
</event>
<event>
 7    1  0.3001243E-009  0.1283325E+03  0.7561462E-02  0.1229951E+00
         -2   -1    0    0    0  501 -0.00000000000E+00  0.00000000000E+00  0.29286195738E+02  0.29286195738E+02  0.00000000000E+00 0.  1.
          2   -1    0    0  501    0  0.00000000000E+00 -0.00000000000E+00 -0.66060053667E+03  0.66060053667E+03  0.00000000000E+00 0. -1.
         25    2    1    2    0    0  0.36504262874E+02 -0.84324749952E+02 -0.32219601447E+03  0.35763263345E+03  0.12509038374E+03 0.  0.
          5    1    3    3  502    0  0.19741970013E+02 -0.11612362661E+03 -0.22668464404E+03  0.25549528818E+03  0.41800000000E+01 0.  1.
         -5    1    3    3    0  502  0.16762292861E+02  0.31798876654E+02 -0.95511370430E+02  0.10213734527E+03  0.41800000000E+01 0.  1.
        -11    1    1    2    0    0  0.43585902682E+00  0.56155788775E+02 -0.25417070021E+03  0.26030060974E+03  0.00000000000E+00 0. -1.
         11    1    1    2    0    0 -0.36940121901E+02  0.28168961177E+02 -0.54947626248E+02  0.71953489214E+02  0.00000000000E+00 0.  1.
</event>
<event>
 7    1  0.3001243E-009  0.1888515E+03  0.7561462E-02  0.1159501E+00
          1   -1    0    0  501    0  0.00000000000E+00  0.00000000000E+00  0.35007353554E+03  0.35007353554E+03  0.00000000000E+00 0. -1.
         -1   -1    0    0    0  501 -0.00000000000E+00 -0.00000000000E+00 -0.15201910827E+03  0.15201910827E+03  0.00000000000E+00 0.  1.
         25    2    1    2    0    0 -0.15176209474E+03  0.96256640023E+02  0.20633570187E+03  0.30086154574E+03  0.12508466608E+03 0.  0.
          5    1    3    3  502    0 -0.13137344817E+02  0.12880065799E+02 -0.16774524982E+02  0.25245653332E+02  0.41800000000E+01 0.  1.
         -5    1    3    3    0  502 -0.13862474992E+03  0.83376574225E+02  0.22311022685E+03  0.27561589240E+03  0.41800000000E+01 0.  1.
        -11    1    1    2    0    0  0.99325173247E+02 -0.10422845451E+03  0.11934473152E+02  0.14446969377E+03  0.00000000000E+00 0.  1.
         11    1    1    2    0    0  0.52436921490E+02  0.79718144829E+01 -0.20215747748E+02  0.56761404304E+02  0.00000000000E+00 0. -1.
</event>
<event>
 7    1  0.4217454E-009  0.1100600E+03  0.7561462E-02  0.1260459E+00
          2   -1    0    0  501    0  0.00000000000E+00  0.00000000000E+00  0.50473593708E+03  0.50473593708E+03  0.00000000000E+00 0. -1.
         -2   -1    0    0    0  501 -0.00000000000E+00 -0.00000000000E+00 -0.31538124152E+02  0.31538124152E+02  0.00000000000E+00 0.  1.
         25    2    1    2    0    0 -0.40492609730E+02  0.42496175787E+02  0.20754442880E+03  0.24933674080E+03  0.12509414050E+03 0.  0.
          5    1    3    3  502    0  0.83158898457E+00 -0.36067473418E+02  0.19203683359E+02  0.41082940907E+02  0.41800000000E+01 0. -1.
         -5    1    3    3    0  502 -0.41324198714E+02  0.78563649205E+02  0.18834074544E+03  0.20825379989E+03  0.41800000000E+01 0. -1.
        -11    1    1    2    0    0  0.52854805585E+02 -0.23272929605E+01  0.75480259755E+02  0.92175465166E+02  0.00000000000E+00 0.  1.
         11    1    1    2    0    0 -0.12362195855E+02 -0.40168882827E+02  0.19017312437E+03  0.19476185527E+03  0.00000000000E+00 0. -1.
</event>
<event>
 7    1  0.3001243E-009  0.6439392E+02  0.7561462E-02  0.1380266E+00
         -2   -1    0    0    0  501 -0.00000000000E+00  0.00000000000E+00  0.24758593080E+02  0.24758593080E+02  0.00000000000E+00 0.  1.
          2   -1    0    0  501    0  0.00000000000E+00 -0.00000000000E+00 -0.61899383589E+03  0.61899383589E+03  0.00000000000E+00 0. -1.
         25    2    1    2    0    0  0.18509929698E+02 -0.19885570898E+01 -0.47772618897E+03  0.49418195351E+03  0.12508764804E+03 0.  0.
          5    1    3    3  502    0  0.33066200482E+02 -0.22840552546E+02 -0.44177933264E+02  0.59868411056E+02  0.41800000000E+01 0. -1.
         -5    1    3    3    0  502 -0.14556270783E+02  0.20851995456E+02 -0.43354825570E+03  0.43431354245E+03  0.41800000000E+01 0. -1.
        -11    1    1    2    0    0 -0.35075666385E+02  0.18128469703E+02 -0.10206967904E+02  0.40781441611E+02  0.00000000000E+00 0.  1.
         11    1    1    2    0    0  0.16565736686E+02 -0.16139912613E+02 -0.10630208594E+03  0.10878903385E+03  0.00000000000E+00 0. -1.
</event>
<event>
 7    1  0.3001243E-009  0.1025753E+03  0.7561462E-02  0.1274972E+00
          2   -1    0    0  501    0  0.00000000000E+00  0.00000000000E+00  0.21274745925E+03  0.21274745925E+03  0.00000000000E+00 0. -1.
         -2   -1    0    0    0  501 -0.00000000000E+00 -0.00000000000E+00 -0.91924362216E+02  0.91924362216E+02  0.00000000000E+00 0.  1.
         25    2    1    2    0    0  0.66242340798E+02  0.61595040606E+02  0.60703737241E+02  0.16587199277E+03  0.12508628034E+03 0.  0.
          5    1    3    3  502    0  0.59434424378E+02  0.52600488861E+02 -0.21865661027E+02  0.82430830166E+02  0.41800000000E+01 0. -1.
         -5    1    3    3    0  502  0.68079164194E+01  0.89945517449E+01  0.82569398267E+02  0.83441162607E+02  0.41800000000E+01 0. -1.
        -11    1    1    2    0    0 -0.70018178084E+02 -0.21321599277E+02  0.91990454826E+01  0.73768409877E+02  0.00000000000E+00 0.  1.
         11    1    1    2    0    0  0.37758372867E+01 -0.40273441329E+02  0.50920314314E+02  0.65031418819E+02  0.00000000000E+00 0. -1.
</event>
<event>
 7    1  0.3001243E-009  0.1216086E+03  0.7561462E-02  0.1240467E+00
          1   -1    0    0  501    0  0.00000000000E+00  0.00000000000E+00  0.10344104760E+04  0.10344104760E+04  0.00000000000E+00 0. -1.
         -1   -1    0    0    0  501 -0.00000000000E+00 -0.00000000000E+00 -0.15360724499E+02  0.15360724499E+02  0.00000000000E+00 0.  1.
         25    2    1    2    0    0  0.57373910897E+02 -0.24731254291E+02  0.49633590845E+03  0.51565517437E+03  0.12509006456E+03 0.  0.
          5    1    3    3  502    0  0.93616362840E+02 -0.10381688724E+02  0.27095278733E+03  0.28688793668E+03  0.41800000000E+01 0.  1.
         -5    1    3    3    0  502 -0.36242451943E+02 -0.14349565567E+02  0.22538312112E+03  0.22876723769E+03  0.41800000000E+01 0.  1.
        -11    1    1    2    0    0 -0.27360962464E+01 -0.31329481077E+02  0.15660484807E+03  0.15973134022E+03  0.00000000000E+00 0. -1.
         11    1    1    2    0    0 -0.54637814651E+02  0.56060735368E+02  0.36610899501E+03  0.37438468594E+03  0.00000000000E+00 0.  1.
</event>
<event>
 7    1  0.3187484E-009  0.1346975E+03  0.7561462E-02  0.1220647E+00
          2   -1    0    0  501    0  0.00000000000E+00  0.00000000000E+00  0.11253069469E+04  0.11253069469E+04  0.00000000000E+00 0. -1.
         -2   -1    0    0    0  501 -0.00000000000E+00 -0.00000000000E+00 -0.21065313786E+02  0.21065313786E+02  0.00000000000E+00 0.  1.
         25    2    1    2    0    0  0.98558467403E+02 -0.41362155268E+02  0.66945581480E+03  0.68937819120E+03  0.12508638270E+03 0.  0.
          5    1    3    3  502    0  0.12290183593E+03 -0.21293016018E+02  0.42770515659E+03  0.44554172328E+03  0.41800000000E+01 0.  1.
         -5    1    3    3    0  502 -0.24343368522E+02 -0.20069139251E+02  0.24175065821E+03  0.24383646792E+03  0.41800000000E+01 0.  1.
        -11    1    1    2    0    0 -0.75318417418E+02  0.13557219801E+02  0.39824347499E+03  0.40552993427E+03  0.00000000000E+00 0. -1.
         11    1    1    2    0    0 -0.23240049985E+02  0.27804935468E+02  0.36542343330E+02  0.51464135237E+02  0.00000000000E+00 0.  1.
</event>
<event>
 7    1  0.3001243E-009  0.9057566E+02  0.7561462E-02  0.1301464E+00
          2   -1    0    0  501    0  0.00000000000E+00  0.00000000000E+00  0.22545366061E+03  0.22545366061E+03  0.00000000000E+00 0. -1.
         -2   -1    0    0    0  501 -0.00000000000E+00 -0.00000000000E+00 -0.83919903331E+02  0.83919903331E+02  0.00000000000E+00 0.  1.
         25    2    1    2    0    0 -0.58915567268E+01  0.57849439530E+02  0.14060683404E+03  0.19697218972E+03  0.12508594506E+03 0.  0.
          5    1    3    3  502    0  0.30593641614E+02 -0.14678512605E+02 -0.41980765698E+00  0.34191786703E+02  0.41800000000E+01 0. -1.
         -5    1    3    3    0  502 -0.36485198341E+02  0.72527952135E+02  0.14102664170E+03  0.16278040302E+03  0.41800000000E+01 0. -1.
        -11    1    1    2    0    0  0.12104271884E+02 -0.61162248379E+01 -0.42475315321E+02  0.44587823626E+02  0.00000000000E+00 0.  1.
         11    1    1    2    0    0 -0.62127151569E+01 -0.51733214692E+02  0.43402238562E+02  0.67813550594E+02  0.00000000000E+00 0. -1.
</event>
<event>
 7    1  0.3001243E-009  0.1013725E+03  0.7561462E-02  0.1277436E+00
         -1   -1    0    0    0  501 -0.00000000000E+00  0.00000000000E+00  0.61144474378E+03  0.61144474378E+03  0.00000000000E+00 0.  1.
          1   -1    0    0  501    0  0.00000000000E+00 -0.00000000000E+00 -0.32710166388E+02  0.32710166388E+02  0.00000000000E+00 0. -1.
         25    2    1    2    0    0  0.67412957469E+02 -0.45856038040E+02  0.41168866602E+03  0.43793038303E+03  0.12509268403E+03 0.  0.
          5    1    3    3  502    0  0.33805051152E+02 -0.42959227889E+01  0.36566609338E+03  0.36727428536E+03  0.41800000000E+01 0. -1.
         -5    1    3    3    0  502  0.33607906317E+02 -0.41560115251E+02  0.46022572634E+02  0.70656097674E+02  0.41800000000E+01 0. -1.
        -11    1    1    2    0    0 -0.67656567296E+02 -0.12758079907E+01  0.12892832884E+03  0.14560752989E+03  0.00000000000E+00 0.  1.
         11    1    1    2    0    0  0.24360982728E+00  0.47131846031E+02  0.38117582534E+02  0.60616997239E+02  0.00000000000E+00 0. -1.
</event>
<event>
 7    1  0.3001243E-009  0.1130926E+03  0.7561462E-02  0.1254948E+00
         -4   -1    0    0    0  501 -0.00000000000E+00  0.00000000000E+00  0.45104577235E+02  0.45104577235E+02  0.00000000000E+00 0.  1.
          4   -1    0    0  501    0  0.00000000000E+00 -0.00000000000E+00 -0.41901244993E+03  0.41901244993E+03  0.00000000000E+00 0. -1.
         25    2    1    2    0    0  0.71737487023E+02 -0.17607265747E+02 -0.13989442255E+03  0.20167871159E+03  0.12509024902E+03 0.  0.
          5    1    3    3  502    0  0.85624678498E+02 -0.28211994994E+02 -0.15422941494E+03  0.17869439572E+03  0.41800000000E+01 0. -1.
         -5    1    3    3    0  502 -0.13887191475E+02  0.10604729247E+02  0.14334992390E+02  0.22984315876E+02  0.41800000000E+01 0. -1.
        -11    1    1    2    0    0 -0.54577178148E+02 -0.33513409285E+02 -0.11154650168E+03  0.12862518810E+03  0.00000000000E+00 0.  1.
         11    1    1    2    0    0 -0.17160308874E+02  0.51120675032E+02 -0.12246694847E+03  0.13381312747E+03  0.00000000000E+00 0. -1.
</event>
<event>
 7    1  0.3234187E-009  0.1216967E+03  0.7561462E-02  0.1240324E+00
         -2   -1    0    0    0  501 -0.00000000000E+00  0.00000000000E+00  0.25090841151E+03  0.25090841151E+03  0.00000000000E+00 0.  1.
          2   -1    0    0  501    0  0.00000000000E+00 -0.00000000000E+00 -0.75131482352E+02  0.75131482352E+02  0.00000000000E+00 0. -1.
         25    2    1    2    0    0  0.40604159980E+02 -0.70900984847E+02  0.11804782618E+03  0.19040283607E+03  0.12506919388E+03 0.  0.
          5    1    3    3  502    0  0.83492233625E+02 -0.40594695190E+02  0.95013838983E+02  0.13290592294E+03  0.41800000000E+01 0.  1.
         -5    1    3    3    0  502 -0.42888073644E+02 -0.30306289657E+02  0.23033987194E+02  0.57496913132E+02  0.41800000000E+01 0.  1.
        -11    1    1    2    0    0 -0.18915263474E+02 -0.43977731154E+01  0.53778500105E+02  0.57177396533E+02  0.00000000000E+00 0.  1.
         11    1    1    2    0    0 -0.21688896506E+02  0.75298757962E+02  0.39506028784E+01  0.78459661263E+02  0.00000000000E+00 0. -1.
</event>
<event>
 7    1  0.3001243E-009  0.9349243E+02  0.7561462E-02  0.1294608E+00
          2   -1    0    0  501    0  0.00000000000E+00  0.00000000000E+00  0.68424373588E+03  0.68424373588E+03  0.00000000000E+00 0. -1.
         -2   -1    0    0    0  501 -0.00000000000E+00 -0.00000000000E+00 -0.44451636730E+02  0.44451636730E+02  0.00000000000E+00 0.  1.
         25    2    1    2    0    0  0.45508501899E+02 -0.60684598402E+02  0.57663565313E+03  0.59490306861E+03  0.12508932952E+03 0.  0.
          5    1    3    3  502    0  0.34134415252E+02 -0.68475301812E+02  0.15388682128E+03  0.17190884628E+03  0.41800000000E+01 0. -1.
         -5    1    3    3    0  502  0.11374086647E+02  0.77907034104E+01  0.42274883184E+03  0.42299422234E+03  0.41800000000E+01 0. -1.
        -11    1    1    2    0    0  0.14240835591E+02  0.82462895573E+01  0.50727145848E+02  0.53329597933E+02  0.00000000000E+00 0. -1.
         11    1    1    2    0    0 -0.59749337490E+02  0.52438308844E+02  0.12429300181E+02  0.80462706069E+02  0.00000000000E+00 0.  1.
</event>
<event>
 7    1  0.3001243E-009  0.1989908E+03  0.7561462E-02  0.1150593E+00
         -2   -1    0    0    0  501 -0.00000000000E+00  0.00000000000E+00  0.63240692602E+02  0.63240692602E+02  0.00000000000E+00 0.  1.
          2   -1    0    0  501    0  0.00000000000E+00 -0.00000000000E+00 -0.78904757624E+03  0.78904757624E+03  0.00000000000E+00 0. -1.
         25    2    1    2    0    0 -0.73703963792E+02  0.15706627348E+03 -0.20815574578E+03  0.29845816982E+03  0.12508547514E+03 0.  0.
          5    1    3    3  502    0 -0.10656219889E+03  0.92273610415E+02 -0.14155445355E+03  0.19981255499E+03  0.41800000000E+01 0.  1.
         -5    1    3    3    0  502  0.32858235094E+02  0.64792663061E+02 -0.66601292232E+02  0.98645614839E+02  0.41800000000E+01 0.  1.
        -11    1    1    2    0    0  0.15193753434E+02  0.14092201811E+01 -0.86770821471E+01  0.17553569424E+02  0.00000000000E+00 0. -1.
         11    1    1    2    0    0  0.58510210358E+02 -0.15847549366E+03 -0.50897405571E+03  0.53627652959E+03  0.00000000000E+00 0.  1.
</event>
<event>
 7    1  0.3001243E-009  0.1356536E+03  0.7561462E-02  0.1219300E+00
         -2   -1    0    0    0  501 -0.00000000000E+00  0.00000000000E+00  0.91207495372E+03  0.91207495372E+03  0.00000000000E+00 0.  1.
          2   -1    0    0  501    0  0.00000000000E+00 -0.00000000000E+00 -0.21173557118E+02  0.21173557118E+02  0.00000000000E+00 0. -1.
         25    2    1    2    0    0 -0.81666916086E+02 -0.31967702582E+01  0.39651723827E+03  0.42373724397E+03  0.12509047586E+03 0.  0.
          5    1    3    3  502    0 -0.94468277875E+02  0.40141215403E+02  0.24779600281E+03  0.26824597687E+03  0.41800000000E+01 0. -1.
         -5    1    3    3    0  502  0.12801361789E+02 -0.43337985662E+02  0.14872123546E+03  0.15549126709E+03  0.41800000000E+01 0. -1.
        -11    1    1    2    0    0  0.96894627147E+02  0.21638075159E+02  0.39355380193E+03  0.40588344396E+03  0.00000000000E+00 0.  1.
         11    1    1    2    0    0 -0.15227711061E+02 -0.18441304900E+02  0.10083035640E+03  0.10362782292E+03  0.00000000000E+00 0. -1.
</event>
<event>
 7    1  0.3001243E-009  0.2953674E+03  0.7561462E-02  0.1087580E+00
         -1   -1    0    0    0  501 -0.00000000000E+00  0.00000000000E+00  0.85500742224E+03  0.85500742224E+03  0.00000000000E+00 0.  1.
          1   -1    0    0  501    0  0.00000000000E+00 -0.00000000000E+00 -0.11741760900E+03  0.11741760900E+03  0.00000000000E+00 0. -1.
         25    2    1    2    0    0 -0.11291415197E+03  0.26655067368E+03  0.26850121006E+03  0.41417279549E+03  0.12508931758E+03 0.  0.
          5    1    3    3  502    0 -0.24907424589E+02  0.73487999853E+02  0.15528985185E+03  0.17364698791E+03  0.41800000000E+01 0.  1.
         -5    1    3    3    0  502 -0.88006727379E+02  0.19306267382E+03  0.11321135821E+03  0.24052580759E+03  0.41800000000E+01 0. -1.
        -11    1    1    2    0    0  0.20310626636E+02 -0.18672798698E+01  0.50023737700E+02  0.54022056809E+02  0.00000000000E+00 0.  1.
         11    1    1    2    0    0  0.92603525331E+02 -0.26468339381E+03  0.41906486548E+03  0.50423017893E+03  0.00000000000E+00 0. -1.
</event>
<event>
 7    1  0.3001243E-009  0.1412512E+03  0.7561462E-02  0.1211655E+00
         -2   -1    0    0    0  501 -0.00000000000E+00  0.00000000000E+00  0.85710100842E+02  0.85710100842E+02  0.00000000000E+00 0.  1.
          2   -1    0    0  501    0  0.00000000000E+00 -0.00000000000E+00 -0.37144697769E+03  0.37144697769E+03  0.00000000000E+00 0. -1.
         25    2    1    2    0    0  0.67351692717E+02 -0.89957566670E+02 -0.25998067183E+03  0.30961781013E+03  0.12507847262E+03 0.  0.
          5    1    3    3  502    0 -0.34655355331E+02 -0.58991034105E+01 -0.45592966274E+02  0.57723340581E+02  0.41800000000E+01 0. -1.
         -5    1    3    3    0  502  0.10200704805E+03 -0.84058463260E+02 -0.21438770555E+03  0.25189446955E+03  0.41800000000E+01 0. -1.
        -11    1    1    2    0    0 -0.57022768624E+01  0.23604304395E+02 -0.48425345140E+02  0.54172808672E+02  0.00000000000E+00 0. -1.
         11    1    1    2    0    0 -0.61649415854E+02  0.66353262275E+02  0.22669140116E+02  0.93366459734E+02  0.00000000000E+00 0.  1.
</event>
<event>
 7    1  0.3001243E-009  0.1478809E+03  0.7561462E-02  0.1203101E+00
          1   -1    0    0  501    0  0.00000000000E+00  0.00000000000E+00  0.10778520931E+03  0.10778520931E+03  0.00000000000E+00 0. -1.
         -1   -1    0    0    0  501 -0.00000000000E+00 -0.00000000000E+00 -0.31788164024E+03  0.31788164024E+03  0.00000000000E+00 0.  1.
         25    2    1    2    0    0  0.41745059510E+02  0.96880786924E+02 -0.23289518057E+03  0.28463401314E+03  0.12509124443E+03 0.  0.
          5    1    3    3  502    0 -0.35549799800E+02  0.62458728875E+02 -0.66919696172E+02  0.98288347297E+02  0.41800000000E+01 0.  1.
         -5    1    3    3    0  502  0.77294859310E+02  0.34422058049E+02 -0.16597548440E+03  0.18634566584E+03  0.41800000000E+01 0.  1.
        -11    1    1    2    0    0  0.43344629341E+01  0.16294226111E+02  0.46992643496E+01  0.17503498477E+02  0.00000000000E+00 0.  1.
         11    1    1    2    0    0 -0.46079522444E+02 -0.11317501304E+03  0.18099485291E+02  0.12352933794E+03  0.00000000000E+00 0. -1.
</event>
<event>
 7    1  0.3001243E-009  0.7086884E+02  0.7561462E-02  0.1357163E+00
         -2   -1    0    0    0  501 -0.00000000000E+00  0.00000000000E+00  0.63192404066E+02  0.63192404066E+02  0.00000000000E+00 0.  1.
          2   -1    0    0  501    0  0.00000000000E+00 -0.00000000000E+00 -0.21794950036E+03  0.21794950036E+03  0.00000000000E+00 0. -1.
         25    2    1    2    0    0 -0.39485067186E+01 -0.45483339930E+02 -0.96613821971E+02  0.16450561333E+03  0.12507414322E+03 0.  0.
          5    1    3    3  502    0 -0.20264357830E+02  0.11798504980E+02  0.21545775830E+02  0.32117624043E+02  0.41800000000E+01 0. -1.
         -5    1    3    3    0  502  0.16315851111E+02 -0.57281844910E+02 -0.11815959780E+03  0.13238798928E+03  0.41800000000E+01 0. -1.
        -11    1    1    2    0    0  0.12378596631E+02  0.43931845743E+00  0.21463818874E+02  0.24781407868E+02  0.00000000000E+00 0.  1.
         11    1    1    2    0    0 -0.84300899127E+01  0.45044021473E+02 -0.79607093193E+02  0.91854883229E+02  0.00000000000E+00 0. -1.
</event>
<event>
 7    1  0.3001243E-009  0.9806919E+02  0.7561462E-02  0.1284409E+00
          1   -1    0    0  501    0  0.00000000000E+00  0.00000000000E+00  0.24062045457E+03  0.24062045457E+03  0.00000000000E+00 0. -1.
         -1   -1    0    0    0  501 -0.00000000000E+00 -0.00000000000E+00 -0.53422091984E+02  0.53422091984E+02  0.00000000000E+00 0.  1.
         25    2    1    2    0    0 -0.23339245913E+02  0.13847336580E+02  0.82820126606E+02  0.15245539064E+03  0.12508798357E+03 0.  0.
          5    1    3    3  502    0 -0.18696929438E+02 -0.41695061578E+02  0.84919033077E+02  0.96523406017E+02  0.41800000000E+01 0. -1.
         -5    1    3    3    0  502 -0.46423164743E+01  0.55542398157E+02 -0.20989064709E+01  0.55931984621E+02  0.41800000000E+01 0. -1.
        -11    1    1    2    0    0 -0.17344261094E+02 -0.41627574565E+02  0.61597268847E+02  0.76340696136E+02  0.00000000000E+00 0. -1.
         11    1    1    2    0    0  0.40683507007E+02  0.27780237986E+02  0.42780967131E+02  0.65246459778E+02  0.00000000000E+00 0.  1.
</event>
<event>
 7    1  0.3001243E-009  0.2881165E+03  0.7561462E-02  0.1091337E+00
         -2   -1    0    0    0  501 -0.00000000000E+00  0.00000000000E+00  0.90852600103E+02  0.90852600103E+02  0.00000000000E+00 0. -1.
          2   -1    0    0  501    0  0.00000000000E+00 -0.00000000000E+00 -0.12251426114E+04  0.12251426114E+04  0.00000000000E+00 0.  1.
         25    2    1    2    0    0  0.20427021063E+03  0.17565521319E+03 -0.90015535506E+03  0.94789670921E+03  0.12508970866E+03 0.  0.
          5    1    3    3  502    0  0.15978853871E+03  0.18713980291E+03 -0.68552735782E+03  0.72836729310E+03  0.41800000000E+01 0.  1.
         -5    1    3    3    0  502  0.44481671913E+02 -0.11484589724E+02 -0.21462799724E+03  0.21952941611E+03  0.41800000000E+01 0.  1.
        -11    1    1    2    0    0 -0.84309838787E+02 -0.18555852981E+02 -0.74268325742E+02  0.11387823675E+03  0.00000000000E+00 0.  1.
         11    1    1    2    0    0 -0.11996037184E+03 -0.15709936021E+03 -0.15986633049E+03  0.25422026555E+03  0.00000000000E+00 0. -1.
</event>
<event>
 7    1  0.3001243E-009  0.1064095E+03  0.7561462E-02  0.1267367E+00
         -1   -1    0    0    0  501 -0.00000000000E+00  0.00000000000E+00  0.23956270387E+03  0.23956270387E+03  0.00000000000E+00 0.  1.
          1   -1    0    0  501    0  0.00000000000E+00 -0.00000000000E+00 -0.55892288531E+02  0.55892288531E+02  0.00000000000E+00 0. -1.
         25    2    1    2    0    0 -0.28841110306E+02  0.21141353189E+02  0.12848163359E+03  0.18284940118E+03  0.12509039485E+03 0.  0.
          5    1    3    3  502    0 -0.54936396268E+01  0.68557670747E+02  0.10325837847E+03  0.12413742151E+03  0.41800000000E+01 0. -1.
         -5    1    3    3    0  502 -0.23347470679E+02 -0.47416317558E+02  0.25223255114E+02  0.58711979667E+02  0.41800000000E+01 0. -1.
        -11    1    1    2    0    0 -0.56779766546E+01 -0.47266383644E+02  0.74916337431E+01  0.48192063847E+02  0.00000000000E+00 0. -1.
         11    1    1    2    0    0  0.34519086961E+02  0.26125030454E+02  0.47697148006E+02  0.64413527374E+02  0.00000000000E+00 0.  1.
</event>
<event>
 7    1  0.3001243E-009  0.1268091E+03  0.7561462E-02  0.1232269E+00
          1   -1    0    0  501    0  0.00000000000E+00  0.00000000000E+00  0.59426569801E+02  0.59426569801E+02  0.00000000000E+00 0. -1.
         -1   -1    0    0    0  501 -0.00000000000E+00 -0.00000000000E+00 -0.69855543947E+03  0.69855543947E+03  0.00000000000E+00 0.  1.
         25    2    1    2    0    0 -0.26643969036E+02 -0.12256045682E+03 -0.55280705315E+03  0.58049459651E+03  0.12508945559E+03 0.  0.
          5    1    3    3  502    0 -0.14483712941E+02 -0.82629048313E+02 -0.12477363335E+03  0.15041033723E+03  0.41800000000E+01 0. -1.
         -5    1    3    3    0  502 -0.12160256095E+02 -0.39931408510E+02 -0.42803341980E+03  0.43008425928E+03  0.41800000000E+01 0. -1.
        -11    1    1    2    0    0  0.21642025023E+02  0.44802166792E+02 -0.86245285287E+02  0.99568371638E+02  0.00000000000E+00 0.  1.
         11    1    1    2    0    0  0.50019440134E+01  0.77758290031E+02 -0.76531228117E-01  0.77919041123E+02  0.00000000000E+00 0. -1.
</event>
<event>
 7    1  0.3001243E-009  0.2356462E+03  0.7561462E-02  0.1122728E+00
          1   -1    0    0  501    0  0.00000000000E+00  0.00000000000E+00  0.34252483439E+03  0.34252483439E+03  0.00000000000E+00 0. -1.
         -1   -1    0    0    0  501 -0.00000000000E+00 -0.00000000000E+00 -0.17516123856E+03  0.17516123856E+03  0.00000000000E+00 0.  1.
         25    2    1    2    0    0  0.19357316292E+03 -0.99056019162E+02  0.67598263855E+02  0.25980658124E+03  0.12508904846E+03 0.  0.
          5    1    3    3  502    0  0.16914242951E+03 -0.11873104024E+03  0.85231192343E+02  0.22358007497E+03  0.41800000000E+01 0. -1.
         -5    1    3    3    0  502  0.24430733410E+02  0.19675021076E+02 -0.17632928488E+02  0.36226506268E+02  0.41800000000E+01 0. -1.
        -11    1    1    2    0    0 -0.14065802739E+03  0.11042748490E+03  0.53447522042E+02  0.18664283459E+03  0.00000000000E+00 0.  1.
         11    1    1    2    0    0 -0.52915135534E+02 -0.11371465737E+02  0.46317809935E+02  0.71236657128E+02  0.00000000000E+00 0. -1.
</event>
<event>
 7    1  0.3001243E-009  0.1061943E+03  0.7561462E-02  0.1267784E+00
         -2   -1    0    0    0  501 -0.00000000000E+00  0.00000000000E+00  0.65877325575E+02  0.65877325575E+02  0.00000000000E+00 0.  1.
          2   -1    0    0  501    0  0.00000000000E+00 -0.00000000000E+00 -0.27285816923E+03  0.27285816923E+03  0.00000000000E+00 0. -1.
         25    2    1    2    0    0 -0.25777705554E+02  0.61701657646E+02 -0.17774407078E+03  0.22740288044E+03  0.12509009024E+03 0.  0.
          5    1    3    3  502    0  0.46359483658E+01  0.73549876668E+02 -0.17987094676E+03  0.19442763760E+03  0.41800000000E+01 0.  1.
         -5    1    3    3    0  502 -0.30413653919E+02 -0.11848219022E+02  0.21268759818E+01  0.32975242837E+02  0.41800000000E+01 0.  1.
        -11    1    1    2    0    0 -0.10116400791E+01 -0.75518455943E+02 -0.11604065582E+02  0.76411484357E+02  0.00000000000E+00 0. -1.
         11    1    1    2    0    0  0.26789345633E+02  0.13816798296E+02 -0.17632707296E+02  0.34921130010E+02  0.00000000000E+00 0.  1.
</event>
<event>
 7    1  0.3001243E-009  0.1708637E+03  0.7561462E-02  0.1176950E+00
         -1   -1    0    0    0  501 -0.00000000000E+00  0.00000000000E+00  0.26634041324E+03  0.26634041324E+03  0.00000000000E+00 0.  1.
          1   -1    0    0  501    0  0.00000000000E+00 -0.00000000000E+00 -0.11587183540E+03  0.11587183540E+03  0.00000000000E+00 0. -1.
         25    2    1    2    0    0 -0.51296827642E+02 -0.12711869681E+03  0.63107596267E+02  0.19601147201E+03  0.12508957130E+03 0.  0.
          5    1    3    3  502    0 -0.88492395921E+02 -0.89579116042E+02  0.67297709426E+02  0.14283478659E+03  0.41800000000E+01 0.  1.
         -5    1    3    3    0  502  0.37195568279E+02 -0.37539580769E+02 -0.41901131588E+01  0.53176685419E+02  0.41800000000E+01 0.  1.
        -11    1    1    2    0    0 -0.23180089352E+02  0.52074521181E+02  0.18095554412E+02  0.59804024848E+02  0.00000000000E+00 0. -1.
         11    1    1    2    0    0  0.74476916994E+02  0.75044175630E+02  0.69265427163E+02  0.12639675178E+03  0.00000000000E+00 0.  1.
</event>
<event>
 7    1  0.3001243E-009  0.5970245E+02  0.7561462E-02  0.1399085E+00
         -3   -1    0    0    0  501 -0.00000000000E+00  0.00000000000E+00  0.13309582030E+03  0.13309582030E+03  0.00000000000E+00 0.  1.
          3   -1    0    0  501    0  0.00000000000E+00 -0.00000000000E+00 -0.11132411503E+03  0.11132411503E+03  0.00000000000E+00 0. -1.
         25    2    1    2    0    0  0.16953009374E+02 -0.34798187175E+02 -0.25260768350E+02  0.13330511377E+03  0.12503530934E+03 0.  0.
          5    1    3    3  502    0  0.23849698994E+02 -0.54213439925E+02 -0.65191705297E+02  0.88177865987E+02  0.41800000000E+01 0. -1.
         -5    1    3    3    0  502 -0.68966896203E+01  0.19415252750E+02  0.39930936946E+02  0.45127247783E+02  0.41800000000E+01 0. -1.
        -11    1    1    2    0    0 -0.72752153684E+01  0.98382350708E+01 -0.28480105115E+02  0.30997354973E+02  0.00000000000E+00 0. -1.
         11    1    1    2    0    0 -0.96777940053E+01  0.24959952104E+02  0.75512578729E+02  0.80117466586E+02  0.00000000000E+00 0.  1.
</event>
<event>
 7    1  0.3001243E-009  0.1084845E+03  0.7561462E-02  0.1263402E+00
          1   -1    0    0  501    0  0.00000000000E+00  0.00000000000E+00  0.58689146635E+03  0.58689146635E+03  0.00000000000E+00 0. -1.
         -1   -1    0    0    0  501 -0.00000000000E+00 -0.00000000000E+00 -0.24490339375E+02  0.24490339375E+02  0.00000000000E+00 0.  1.
         25    2    1    2    0    0  0.49357464960E+02  0.11408604692E+02  0.34339557574E+03  0.36896225885E+03  0.12508521660E+03 0.  0.
          5    1    3    3  502    0 -0.19355189427E+02  0.45400145201E+02  0.75614125867E+02  0.90392283812E+02  0.41800000000E+01 0. -1.
         -5    1    3    3    0  502  0.68712654387E+02 -0.33991540510E+02  0.26778144987E+03  0.27856997504E+03  0.41800000000E+01 0. -1.
        -11    1    1    2    0    0  0.91694855076E+01 -0.28299960921E+02  0.13741081441E+03  0.14059409365E+03  0.00000000000E+00 0. -1.
         11    1    1    2    0    0 -0.58526950468E+02  0.16891356229E+02  0.81594736831E+02  0.10182545323E+03  0.00000000000E+00 0.  1.
</event>
<event>
 7    1  0.3001243E-009  0.2755161E+03  0.7561462E-02  0.1098163E+00
         -1   -1    0    0    0  501 -0.00000000000E+00  0.00000000000E+00  0.10381691632E+03  0.10381691632E+03  0.00000000000E+00 0.  1.
          1   -1    0    0  501    0  0.00000000000E+00 -0.00000000000E+00 -0.79812266987E+03  0.79812266987E+03  0.00000000000E+00 0. -1.
         25    2    1    2    0    0  0.18773397009E+03  0.18419213298E+03 -0.28642577971E+03  0.40848250858E+03  0.12508975640E+03 0.  0.
          5    1    3    3  502    0  0.15373940125E+03  0.72088078656E+02 -0.20256955691E+03  0.26435656293E+03  0.41800000000E+01 0. -1.
         -5    1    3    3    0  502  0.33994568845E+02  0.11210405432E+03 -0.83856222805E+02  0.14412594565E+03  0.41800000000E+01 0. -1.
        -11    1    1    2    0    0 -0.88212944429E+02 -0.70983615464E+02 -0.25378576309E+03  0.27789820219E+03  0.00000000000E+00 0. -1.
         11    1    1    2    0    0 -0.99521025665E+02 -0.11320851751E+03 -0.15409421074E+03  0.21555887542E+03  0.00000000000E+00 0.  1.
</event>
<event>
 7    1  0.3001243E-009  0.1502518E+03  0.7561462E-02  0.1200164E+00
         -1   -1    0    0    0  501 -0.00000000000E+00  0.00000000000E+00  0.39545207977E+02  0.39545207977E+02  0.00000000000E+00 0.  1.
          1   -1    0    0  501    0  0.00000000000E+00 -0.00000000000E+00 -0.68188180356E+03  0.68188180356E+03  0.00000000000E+00 0. -1.
         25    2    1    2    0    0 -0.10892025484E+03 -0.44476766681E+02 -0.42140898111E+03  0.45505521413E+03  0.12509162184E+03 0.  0.
          5    1    3    3  502    0  0.11995573508E+02  0.20121479321E+02 -0.20753201122E+02  0.31574284958E+02  0.41800000000E+01 0. -1.
         -5    1    3    3    0  502 -0.12091582834E+03 -0.64598246002E+02 -0.40065577999E+03  0.42348092917E+03  0.41800000000E+01 0. -1.
        -11    1    1    2    0    0  0.10767233960E+03  0.13457527239E+02 -0.20387231620E+03  0.23095098845E+03  0.00000000000E+00 0. -1.
         11    1    1    2    0    0  0.12479152334E+01  0.31019239442E+02 -0.17055298272E+02  0.35420808957E+02  0.00000000000E+00 0.  1.
</event>
<event>
 7    1  0.3001243E-009  0.1462037E+03  0.7561462E-02  0.1205217E+00
          1   -1    0    0  501    0  0.00000000000E+00  0.00000000000E+00  0.18103063777E+04  0.18103063777E+04  0.00000000000E+00 0. -1.
         -1   -1    0    0    0  501 -0.00000000000E+00 -0.00000000000E+00 -0.14809638413E+02  0.14809638413E+02  0.00000000000E+00 0.  1.
         25    2    1    2    0    0 -0.10987074811E+03 -0.42708420603E+02  0.11366438861E+04  0.11495662017E+04  0.12509011852E+03 0.  0.
          5    1    3    3  502    0 -0.81009602936E+02 -0.80199660914E+02  0.95603309151E+03  0.96281425303E+03  0.41800000000E+01 0.  1.
         -5    1    3    3    0  502 -0.28861145173E+02  0.37491240311E+02  0.18061079460E+03  0.18675194865E+03  0.41800000000E+01 0.  1.
        -11    1    1    2    0    0 -0.22949349315E+01  0.15170020673E+02  0.15130397635E+02  0.21548206101E+02  0.00000000000E+00 0.  1.
         11    1    1    2    0    0  0.11216568304E+03  0.27538399930E+02  0.64372245558E+03  0.65400160836E+03  0.00000000000E+00 0. -1.
</event>
<event>
 7    1  0.3001243E-009  0.1166080E+03  0.7561462E-02  0.1248800E+00
         -2   -1    0    0    0  501 -0.00000000000E+00  0.00000000000E+00  0.11484926179E+02  0.11484926179E+02  0.00000000000E+00 0. -1.
          2   -1    0    0  501    0  0.00000000000E+00 -0.00000000000E+00 -0.14170933004E+04  0.14170933004E+04  0.00000000000E+00 0.  1.
         25    2    1    2    0    0 -0.63209724524E+02 -0.10166380286E+02 -0.89148996023E+03  0.90249722320E+03  0.12509222247E+03 0.  0.
          5    1    3    3  502    0 -0.11825262299E+02  0.46633726178E+02 -0.16365106332E+03  0.17062732540E+03  0.41800000000E+01 0.  1.
         -5    1    3    3    0  502 -0.51384462225E+02 -0.56800106464E+02 -0.72783889691E+03  0.73186989780E+03  0.41800000000E+01 0.  1.
        -11    1    1    2    0    0  0.44286628696E+02 -0.36800863730E+02 -0.33628135800E+03  0.34117555714E+03  0.00000000000E+00 0.  1.
         11    1    1    2    0    0  0.18923095827E+02  0.46967244015E+02 -0.17783705598E+03  0.18490544623E+03  0.00000000000E+00 0. -1.
</event>
<event>
 7    1  0.3001243E-009  0.2289221E+03  0.7561462E-02  0.1127401E+00
          2   -1    0    0  501    0  0.00000000000E+00  0.00000000000E+00  0.15529953144E+03  0.15529953144E+03  0.00000000000E+00 0. -1.
         -2   -1    0    0    0  501 -0.00000000000E+00 -0.00000000000E+00 -0.41087358896E+03  0.41087358896E+03  0.00000000000E+00 0.  1.
         25    2    1    2    0    0 -0.17340332957E+03 -0.14759477005E+03 -0.14100291682E+03  0.29560534549E+03  0.12509103436E+03 0.  0.
          5    1    3    3  502    0 -0.49551705394E+02 -0.59121598192E+02 -0.11883132259E+03  0.14173598876E+03  0.41800000000E+01 0. -1.
         -5    1    3    3    0  502 -0.12385162417E+03 -0.88473171859E+02 -0.22171594229E+02  0.15386935673E+03  0.41800000000E+01 0. -1.
        -11    1    1    2    0    0  0.92379572716E+02  0.67642397290E+02 -0.10663362955E+03  0.15646152983E+03  0.00000000000E+00 0.  1.
         11    1    1    2    0    0  0.81023756852E+02  0.79952372761E+02 -0.79375111451E+01  0.11410624509E+03  0.00000000000E+00 0. -1.
</event>
<event>
 7    1  0.3001243E-009  0.1520581E+03  0.7561462E-02  0.1197967E+00
         -1   -1    0    0    0  501 -0.00000000000E+00  0.00000000000E+00  0.57163471293E+02  0.57163471293E+02  0.00000000000E+00 0.  1.
          1   -1    0    0  501    0  0.00000000000E+00 -0.00000000000E+00 -0.52980127593E+03  0.52980127593E+03  0.00000000000E+00 0. -1.
         25    2    1    2    0    0 -0.30149822167E+02  0.13226797931E+03 -0.24387194395E+03  0.30581816340E+03  0.12508954348E+03 0.  0.
          5    1    3    3  502    0 -0.63305641252E+00  0.90248555560E+02 -0.46067792834E+02  0.10141457724E+03  0.41800000000E+01 0. -1.
         -5    1    3    3    0  502 -0.29516765755E+02  0.42019423751E+02 -0.19780415112E+03  0.20440358615E+03  0.41800000000E+01 0. -1.
        -11    1    1    2    0    0  0.49150460721E+02 -0.28625641967E+02 -0.64572371682E+02  0.86051068278E+02  0.00000000000E+00 0.  1.
         11    1    1    2    0    0 -0.19000638554E+02 -0.10364233734E+03 -0.16419348900E+03  0.19509551555E+03  0.00000000000E+00 0. -1.
</event>
<event>
 7    1  0.3001243E-009  0.1588377E+03  0.7561462E-02  0.1190015E+00
         -4   -1    0    0    0  501 -0.00000000000E+00  0.00000000000E+00  0.73099200183E+02  0.73099200183E+02  0.00000000000E+00 0.  1.
          4   -1    0    0  501    0  0.00000000000E+00 -0.00000000000E+00 -0.35246695156E+03  0.35246695156E+03  0.00000000000E+00 0. -1.
         25    2    1    2    0    0 -0.11203162478E+03 -0.35806431933E+02 -0.14342969281E+03  0.22372298379E+03  0.12508681456E+03 0.  0.
          5    1    3    3  502    0 -0.24083390112E+02  0.45606177049E+02 -0.41165276723E+02  0.66120991160E+02  0.41800000000E+01 0. -1.
         -5    1    3    3    0  502 -0.87948234665E+02 -0.81412608982E+02 -0.10226441609E+03  0.15760199263E+03  0.41800000000E+01 0. -1.
        -11    1    1    2    0    0  0.11930592012E+03  0.10596962607E+02 -0.93499019440E+02  0.15194823075E+03  0.00000000000E+00 0. -1.
         11    1    1    2    0    0 -0.72742953454E+01  0.25209469326E+02 -0.42439039126E+02  0.49894937202E+02  0.00000000000E+00 0.  1.
</event>
<event>
 7    1  0.3001243E-009  0.1883950E+03  0.7561462E-02  0.1159917E+00
          1   -1    0    0  501    0  0.00000000000E+00  0.00000000000E+00  0.15910739662E+04  0.15910739662E+04  0.00000000000E+00 0. -1.
         -1   -1    0    0    0  501 -0.00000000000E+00 -0.00000000000E+00 -0.29240375920E+02  0.29240375920E+02  0.00000000000E+00 0.  1.
         25    2    1    2    0    0  0.96054274165E+02  0.11500127437E+03  0.11500830125E+04  0.11665291918E+04  0.12509077962E+03 0.  0.
          5    1    3    3  502    0  0.12131220863E+03  0.61973623834E+02  0.81008092225E+03  0.82146573575E+03  0.41800000000E+01 0.  1.
         -5    1    3    3    0  502 -0.25257934466E+02  0.53027650534E+02  0.34000209022E+03  0.34506345609E+03  0.41800000000E+01 0.  1.
        -11    1    1    2    0    0  0.55532588033E+01 -0.70453482272E+02  0.96710238985E+02  0.11978064189E+03  0.00000000000E+00 0.  1.
         11    1    1    2    0    0 -0.10160753297E+03 -0.44547792095E+02  0.31504033878E+03  0.33400450835E+03  0.00000000000E+00 0. -1.
</event>
<event>
 6    1  0.3001243E-009  0.1364343E+03  0.7561462E-02  0.1218209E+00
          4   -1    0    0  501    0  0.00000000000E+00  0.00000000000E+00  0.80855413075E+02  0.80855413075E+02  0.00000000000E+00 0. -1.
         -4   -1    0    0    0  501 -0.00000000000E+00 -0.00000000000E+00 -0.28731947741E+03  0.28731947741E+03  0.00000000000E+00 0.  1.
          5    1    1    2  502    0  0.13324649678E+02 -0.65207742887E+02 -0.30576016783E+02  0.73361851283E+02  0.41800000000E+01 0. -1.
         -5    1    1    2    0  502 -0.81637437681E+02  0.12452736831E+02 -0.53319495608E+01  0.82859181578E+02  0.41800000000E+01 0. -1.
        -11    1    1    2    0    0  0.20717347376E+02  0.69899940946E+02 -0.12015099218E+03  0.14053992724E+03  0.00000000000E+00 0.  1.
         11    1    1    2    0    0  0.47595440627E+02 -0.17144934890E+02 -0.50405105813E+02  0.71413930384E+02  0.00000000000E+00 0. -1.
</event>
<event>
 7    1  0.3001243E-009  0.1835146E+03  0.7561462E-02  0.1164444E+00
         -1   -1    0    0    0  501 -0.00000000000E+00  0.00000000000E+00  0.51069700371E+02  0.51069700371E+02  0.00000000000E+00 0.  1.
          1   -1    0    0  501    0  0.00000000000E+00 -0.00000000000E+00 -0.78618505060E+03  0.78618505060E+03  0.00000000000E+00 0. -1.
         25    2    1    2    0    0  0.16386682817E+03 -0.35482720933E+02 -0.36911660118E+03  0.42427698527E+03  0.12511008795E+03 0.  0.
          5    1    3    3  502    0  0.14624706655E+03  0.97276147840E+01 -0.33233832398E+03  0.36324793867E+03  0.41800000000E+01 0.  1.
         -5    1    3    3    0  502  0.17619761614E+02 -0.45210335717E+02 -0.36778277200E+02  0.61029046599E+02  0.41800000000E+01 0.  1.
        -11    1    1    2    0    0 -0.49848979288E+01  0.94673451385E+01  0.23737258861E+01  0.10959671798E+02  0.00000000000E+00 0.  1.
         11    1    1    2    0    0 -0.15888193024E+03  0.26015375794E+02 -0.36837247493E+03  0.40201809390E+03  0.00000000000E+00 0. -1.
</event>
<event>
 7    1  0.3001243E-009  0.7907935E+02  0.7561462E-02  0.1331685E+00
         -2   -1    0    0    0  501 -0.00000000000E+00  0.00000000000E+00  0.28212019954E+02  0.28212019954E+02  0.00000000000E+00 0.  1.
          2   -1    0    0  501    0  0.00000000000E+00 -0.00000000000E+00 -0.52235869655E+03  0.52235869655E+03  0.00000000000E+00 0. -1.
         25    2    1    2    0    0 -0.22133548851E+02 -0.35726499876E+02 -0.35276092169E+03  0.37663111046E+03  0.12507777067E+03 0.  0.
          5    1    3    3  502    0  0.85963449252E+01 -0.20236330347E+02 -0.21138916150E+00  0.22381315810E+02  0.41800000000E+01 0. -1.
         -5    1    3    3    0  502 -0.30729893776E+02 -0.15490169528E+02 -0.35254953253E+03  0.35424979465E+03  0.41800000000E+01 0. -1.
        -11    1    1    2    0    0  0.48652344971E+02 -0.86504475945E+01 -0.74624536227E+02  0.89502526902E+02  0.00000000000E+00 0. -1.
         11    1    1    2    0    0 -0.26518796120E+02  0.44376947470E+02 -0.66761218677E+02  0.84437079140E+02  0.00000000000E+00 0.  1.
</event>
<event>
 7    1  0.4099244E-009  0.1145819E+03  0.7561462E-02  0.1252313E+00
          2   -1    0    0  501    0  0.00000000000E+00  0.00000000000E+00  0.50370625357E+03  0.50370625357E+03  0.00000000000E+00 0. -1.
         -2   -1    0    0    0  501 -0.00000000000E+00 -0.00000000000E+00 -0.33171852192E+02  0.33171852192E+02  0.00000000000E+00 0.  1.
         25    2    1    2    0    0  0.65493215344E+02  0.14144192099E+02  0.22000293755E+03  0.26179835964E+03  0.12509064375E+03 0.  0.
          5    1    3    3  502    0 -0.28165482282E+02  0.23469987226E+02  0.11475333486E+03  0.12054017984E+03  0.41800000000E+01 0.  1.
         -5    1    3    3    0  502  0.93658697626E+02 -0.93257951271E+01  0.10524960269E+03  0.14125817980E+03  0.41800000000E+01 0.  1.
        -11    1    1    2    0    0 -0.71900276002E+02  0.10430555623E+02  0.10710057318E+03  0.12941784636E+03  0.00000000000E+00 0.  1.
         11    1    1    2    0    0  0.64070606585E+01 -0.24574747722E+02  0.14343089064E+03  0.14566189976E+03  0.00000000000E+00 0. -1.
</event>
<event>
 7    1  0.3001243E-009  0.1917239E+03  0.7561462E-02  0.1156916E+00
         -1   -1    0    0    0  501 -0.00000000000E+00  0.00000000000E+00  0.16019585830E+03  0.16019585830E+03  0.00000000000E+00 0.  1.
          1   -1    0    0  501    0  0.00000000000E+00 -0.00000000000E+00 -0.40347384740E+03  0.40347384740E+03  0.00000000000E+00 0. -1.
         25    2    1    2    0    0  0.15498416724E+03 -0.10536095016E+03 -0.27296764538E+03  0.35394817484E+03  0.12508778173E+03 0.  0.
          5    1    3    3  502    0  0.12187063241E+03 -0.51183215963E+02 -0.89313506308E+02  0.15958241585E+03  0.41800000000E+01 0. -1.
         -5    1    3    3    0  502  0.33113534837E+02 -0.54177734199E+02 -0.18365413907E+03  0.19436575900E+03  0.41800000000E+01 0. -1.
        -11    1    1    2    0    0 -0.99534951309E+02  0.63139628651E+02  0.61681676617E+02  0.13303551582E+03  0.00000000000E+00 0.  1.
         11    1    1    2    0    0 -0.55449215933E+02  0.42221321511E+02 -0.31992020334E+02  0.76686015040E+02  0.00000000000E+00 0. -1.
</event>
<event>
 7    1  0.3001243E-009  0.9221998E+02  0.7561462E-02  0.1297563E+00
          2   -1    0    0  501    0  0.00000000000E+00  0.00000000000E+00  0.10084861208E+03  0.10084861208E+03  0.00000000000E+00 0.  1.
         -2   -1    0    0    0  501 -0.00000000000E+00 -0.00000000000E+00 -0.12981016232E+03  0.12981016232E+03  0.00000000000E+00 0. -1.
         25    2    1    2    0    0 -0.25788798497E+02 -0.88732144926E+01  0.10488224461E+02  0.12846041903E+03  0.12509308671E+03 0.  0.
          5    1    3    3  502    0  0.36792062065E+02  0.33216547935E+01  0.42939092608E+02  0.56797247253E+02  0.41800000000E+01 0.  1.
         -5    1    3    3    0  502 -0.62580860561E+02 -0.12194869286E+02 -0.32450868147E+02  0.71663171776E+02  0.41800000000E+01 0.  1.
        -11    1    1    2    0    0 -0.27956547126E+02  0.97708594043E+01  0.78066043867E+01  0.30626480255E+02  0.00000000000E+00 0.  1.
         11    1    1    2    0    0  0.53745345623E+02 -0.89764491175E+00 -0.47256379093E+02  0.71571875115E+02  0.00000000000E+00 0. -1.
</event>
<event>
 7    1  0.3001243E-009  0.1414962E+03  0.7561462E-02  0.1211330E+00
          2   -1    0    0  501    0  0.00000000000E+00  0.00000000000E+00  0.20289229132E+04  0.20289229132E+04  0.00000000000E+00 0. -1.
         -2   -1    0    0    0  501 -0.00000000000E+00 -0.00000000000E+00 -0.16840127016E+02  0.16840127016E+02  0.00000000000E+00 0.  1.
         25    2    1    2    0    0  0.33543050488E+02 -0.11043808949E+03  0.15879268694E+04  0.15970227303E+04  0.12509256753E+03 0.  0.
          5    1    3    3  502    0  0.74544820168E+02 -0.65134453062E+02  0.12215892443E+04  0.12256007430E+04  0.41800000000E+01 0. -1.
         -5    1    3    3    0  502 -0.41001769681E+02 -0.45303636427E+02  0.36633762519E+03  0.37142198726E+03  0.41800000000E+01 0. -1.
        -11    1    1    2    0    0 -0.18060704353E+02  0.92329497729E+01  0.10973113557E+02  0.23061778430E+02  0.00000000000E+00 0.  1.
         11    1    1    2    0    0 -0.15482346135E+02  0.10120513972E+03  0.41318280322E+03  0.42567853155E+03  0.00000000000E+00 0. -1.
</event>
<event>
 7    1  0.3001243E-009  0.2458863E+03  0.7561462E-02  0.1115933E+00
          2   -1    0    0  501    0  0.00000000000E+00  0.00000000000E+00  0.10448447720E+04  0.10448447720E+04  0.00000000000E+00 0.  1.
         -2   -1    0    0    0  501 -0.00000000000E+00 -0.00000000000E+00 -0.67362628519E+02  0.67362628519E+02  0.00000000000E+00 0. -1.
         25    2    1    2    0    0 -0.44644858837E+02 -0.23255149920E+03  0.41521473820E+03  0.49408678779E+03  0.12508042155E+03 0.  0.
          5    1    3    3  502    0  0.16546436555E+01 -0.10475414353E+02 -0.79745125446E+01  0.13911772059E+02  0.41800000000E+01 0. -1.
         -5    1    3    3    0  502 -0.46299502493E+02 -0.22207608485E+03  0.42318925074E+03  0.48017501574E+03  0.41800000000E+01 0. -1.
        -11    1    1    2    0    0 -0.22877338605E+02  0.12056065456E+03  0.32165317918E+03  0.34426590264E+03  0.00000000000E+00 0.  1.
         11    1    1    2    0    0  0.67522197442E+02  0.11199084464E+03  0.24061422615E+03  0.27385471012E+03  0.00000000000E+00 0. -1.
</event>
<event>
 7    1  0.3001243E-009  0.1089185E+03  0.7561462E-02  0.1262586E+00
          2   -1    0    0  501    0  0.00000000000E+00  0.00000000000E+00  0.60587638534E+02  0.60587638534E+02  0.00000000000E+00 0. -1.
         -2   -1    0    0    0  501 -0.00000000000E+00 -0.00000000000E+00 -0.27356933589E+03  0.27356933589E+03  0.00000000000E+00 0.  1.
         25    2    1    2    0    0 -0.11557551951E+02  0.66593730599E+02 -0.13877900082E+03  0.19868322527E+03  0.12508841262E+03 0.  0.
          5    1    3    3  502    0  0.41988817939E+02  0.25522837789E+02 -0.59971453101E+01  0.49678106170E+02  0.41800000000E+01 0. -1.
         -5    1    3    3    0  502 -0.53546369890E+02  0.41070892810E+02 -0.13278185551E+03  0.14900511910E+03  0.41800000000E+01 0. -1.
        -11    1    1    2    0    0  0.33631244660E+02 -0.32007363776E+01 -0.56867348540E+02  0.66145299611E+02  0.00000000000E+00 0.  1.
         11    1    1    2    0    0 -0.22073692709E+02 -0.63392994221E+02 -0.17335347995E+02  0.69328449545E+02  0.00000000000E+00 0. -1.
</event>
<event>
 7    1  0.3001243E-009  0.8388694E+02  0.7561462E-02  0.1318369E+00
         -2   -1    0    0    0  501 -0.00000000000E+00  0.00000000000E+00  0.47882142194E+02  0.47882142194E+02  0.00000000000E+00 0.  1.
          2   -1    0    0  501    0  0.00000000000E+00 -0.00000000000E+00 -0.28548036734E+03  0.28548036734E+03  0.00000000000E+00 0. -1.
         25    2    1    2    0    0  0.19771010141E+02  0.59129361688E+01 -0.79997111353E+02  0.14991445057E+03  0.12509575936E+03 0.  0.
          5    1    3    3  502    0  0.64649053762E+02  0.31722722303E+02 -0.61461371804E+02  0.94767103399E+02  0.41800000000E+01 0.  1.
         -5    1    3    3    0  502 -0.44878043621E+02 -0.25809786135E+02 -0.18535739549E+02  0.55147347173E+02  0.41800000000E+01 0.  1.
        -11    1    1    2    0    0 -0.30197868168E+02 -0.10949148884E+02 -0.16604084048E+03  0.16911935374E+03  0.00000000000E+00 0. -1.
         11    1    1    2    0    0  0.10426858028E+02  0.50362127154E+01  0.84397266835E+01  0.14328705222E+02  0.00000000000E+00 0.  1.
</event>
<event>
 7    1  0.3001243E-009  0.2042902E+03  0.7561462E-02  0.1146169E+00
          1   -1    0    0  501    0  0.00000000000E+00  0.00000000000E+00  0.86454094785E+02  0.86454094785E+02  0.00000000000E+00 0. -1.
         -1   -1    0    0    0  501 -0.00000000000E+00 -0.00000000000E+00 -0.54300980208E+03  0.54300980208E+03  0.00000000000E+00 0.  1.
         25    2    1    2    0    0 -0.16239249979E+03  0.92959320667E+02 -0.22113709960E+03  0.31553478848E+03  0.12509127321E+03 0.  0.
          5    1    3    3  502    0  0.55997921914E+01  0.43779814681E+02 -0.19349974172E+02  0.48372758311E+02  0.41800000000E+01 0. -1.
         -5    1    3    3    0  502 -0.16799229199E+03  0.49179505986E+02 -0.20178712543E+03  0.26716203017E+03  0.41800000000E+01 0. -1.
        -11    1    1    2    0    0  0.43747433606E+02 -0.39803354529E+02 -0.14203738139E+03  0.15385955509E+03  0.00000000000E+00 0.  1.
         11    1    1    2    0    0  0.11864506619E+03 -0.53155966138E+02 -0.93381226301E+02  0.16006955330E+03  0.00000000000E+00 0. -1.
</event>
<event>
 7    1  0.3001243E-009  0.1042752E+03  0.7561462E-02  0.1271554E+00
          2   -1    0    0  501    0  0.00000000000E+00  0.00000000000E+00  0.68641870449E+02  0.68641870449E+02  0.00000000000E+00 0. -1.
         -2   -1    0    0    0  501 -0.00000000000E+00 -0.00000000000E+00 -0.25510343791E+03  0.25510343791E+03  0.00000000000E+00 0.  1.
         25    2    1    2    0    0  0.45428601329E+02  0.19355442862E+02 -0.38365140025E+02  0.13984957758E+03  0.12509048482E+03 0.  0.
          5    1    3    3  502    0  0.22991843530E+02  0.60970560759E+02 -0.59086450081E+02  0.88060860383E+02  0.41800000000E+01 0.  1.
         -5    1    3    3    0  502  0.22436757799E+02 -0.41615117897E+02  0.20721310056E+02  0.51788717194E+02  0.41800000000E+01 0.  1.
        -11    1    1    2    0    0 -0.16412623482E+01 -0.45011992675E+02 -0.11447873846E+03  0.12302095263E+03  0.00000000000E+00 0.  1.
         11    1    1    2    0    0 -0.43787338981E+02  0.25656549812E+02 -0.33617688979E+02  0.60874778157E+02  0.00000000000E+00 0. -1.
</event>
<event>
 7    1  0.3001243E-009  0.1280529E+03  0.7561462E-02  0.1230374E+00
          2   -1    0    0  501    0  0.00000000000E+00  0.00000000000E+00  0.64201753539E+03  0.64201753539E+03  0.00000000000E+00 0. -1.
         -2   -1    0    0    0  501 -0.00000000000E+00 -0.00000000000E+00 -0.29444716233E+02  0.29444716233E+02  0.00000000000E+00 0.  1.
         25    2    1    2    0    0 -0.20755910430E+02 -0.72235881527E+02  0.41948468575E+03  0.44414363240E+03  0.12508930502E+03 0.  0.
          5    1    3    3  502    0  0.12951720530E+02 -0.99538612746E+02  0.25765011297E+03  0.27654427422E+03  0.41800000000E+01 0. -1.
         -5    1    3    3    0  502 -0.33707630960E+02  0.27302731219E+02  0.16183457278E+03  0.16759935818E+03  0.41800000000E+01 0. -1.
        -11    1    1    2    0    0 -0.24586016317E+02  0.60383331741E+02  0.70239963236E+02  0.95834604324E+02  0.00000000000E+00 0.  1.
         11    1    1    2    0    0  0.45341926747E+02  0.11852549786E+02  0.12284817018E+03  0.13148401490E+03  0.00000000000E+00 0. -1.
</event>
<event>
 7    1  0.3001243E-009  0.5989464E+02  0.7561462E-02  0.1398274E+00
         -3   -1    0    0    0  501 -0.00000000000E+00  0.00000000000E+00  0.49807261597E+02  0.49807261597E+02  0.00000000000E+00 0.  1.
          3   -1    0    0  501    0  0.00000000000E+00 -0.00000000000E+00 -0.24617317409E+03  0.24617317409E+03  0.00000000000E+00 0. -1.
         25    2    1    2    0    0  0.37581187896E+01  0.16043200162E+02 -0.90000541041E+02  0.15497964815E+03  0.12508831370E+03 0.  0.
          5    1    3    3  502    0  0.12064317372E+02  0.14748317612E+02  0.29360400156E+02  0.35250051395E+02  0.41800000000E+01 0. -1.
         -5    1    3    3    0  502 -0.83061985822E+01  0.12948825499E+01 -0.11936094120E+03  0.11972959675E+03  0.41800000000E+01 0. -1.
        -11    1    1    2    0    0  0.39273681897E+02 -0.25511809974E+02 -0.41429041186E+02  0.62527114050E+02  0.00000000000E+00 0.  1.
         11    1    1    2    0    0 -0.43031800687E+02  0.94686098120E+01 -0.64936330266E+02  0.78473673487E+02  0.00000000000E+00 0. -1.
</event>
<event>
 7    1  0.3001243E-009  0.3194043E+03  0.7561462E-02  0.1075924E+00
          1   -1    0    0  501    0  0.00000000000E+00  0.00000000000E+00  0.11605750009E+03  0.11605750009E+03  0.00000000000E+00 0. -1.
         -1   -1    0    0    0  501 -0.00000000000E+00 -0.00000000000E+00 -0.89971241514E+03  0.89971241514E+03  0.00000000000E+00 0.  1.
         25    2    1    2    0    0 -0.21245092841E+03  0.20924309098E+03 -0.46005922483E+03  0.56233431006E+03  0.12508923940E+03 0.  0.
          5    1    3    3  502    0 -0.49350408377E+01  0.73926524120E+02 -0.12902580356E+03  0.14884426755E+03  0.41800000000E+01 0.  1.
         -5    1    3    3    0  502 -0.20751588757E+03  0.13531656686E+03 -0.33103342126E+03  0.41349004251E+03  0.41800000000E+01 0.  1.
        -11    1    1    2    0    0  0.12795828307E+03 -0.51602304236E+02 -0.12504252502E+03  0.18620352594E+03  0.00000000000E+00 0. -1.
         11    1    1    2    0    0  0.84492645344E+02 -0.15764078674E+03 -0.19855316520E+03  0.26723207924E+03  0.00000000000E+00 0.  1.
</event>
<event>
 7    1  0.3001243E-009  0.1284401E+03  0.7561462E-02  0.1229789E+00
          1   -1    0    0  501    0  0.00000000000E+00  0.00000000000E+00  0.77047483724E+03  0.77047483724E+03  0.00000000000E+00 0. -1.
         -1   -1    0    0    0  501 -0.00000000000E+00 -0.00000000000E+00 -0.28462825345E+02  0.28462825345E+02  0.00000000000E+00 0.  1.
         25    2    1    2    0    0  0.85691338558E+02 -0.53425685565E+02  0.38960664814E+03  0.42147219971E+03  0.12509262757E+03 0.  0.
          5    1    3    3  502    0  0.86787730861E+02  0.33846116018E+01  0.13508590956E+03  0.16065254802E+03  0.41800000000E+01 0. -1.
         -5    1    3    3    0  502 -0.10963923031E+01 -0.56810297166E+02  0.25452073858E+03  0.26081965169E+03  0.41800000000E+01 0. -1.
        -11    1    1    2    0    0 -0.38828598146E+02  0.53479611738E+02  0.94377248259E+02  0.11521629179E+03  0.00000000000E+00 0.  1.
         11    1    1    2    0    0 -0.46862740411E+02 -0.53926173125E-01  0.25802811550E+03  0.26224917108E+03  0.00000000000E+00 0. -1.
</event>
<event>
 7    1  0.3001243E-009  0.1132297E+03  0.7561462E-02  0.1254703E+00
         -2   -1    0    0    0  501 -0.00000000000E+00  0.00000000000E+00  0.46770973192E+03  0.46770973192E+03  0.00000000000E+00 0.  1.
          2   -1    0    0  501    0  0.00000000000E+00 -0.00000000000E+00 -0.30194941417E+02  0.30194941417E+02  0.00000000000E+00 0. -1.
         25    2    1    2    0    0 -0.37224099751E+02 -0.46253342367E+00  0.30826906311E+03  0.33475869218E+03  0.12509084371E+03 0.  0.
          5    1    3    3  502    0 -0.34061714671E+01 -0.59280697760E+02  0.10871092498E+03  0.12394087598E+03  0.41800000000E+01 0. -1.
         -5    1    3    3    0  502 -0.33817928284E+02  0.58818164336E+02  0.19955813814E+03  0.21081781620E+03  0.41800000000E+01 0. -1.
        -11    1    1    2    0    0  0.21990176459E+02 -0.45500881592E+02  0.74937954467E+02  0.90385812527E+02  0.00000000000E+00 0. -1.
         11    1    1    2    0    0  0.15233923292E+02  0.45963415016E+02  0.54307772919E+02  0.72760168624E+02  0.00000000000E+00 0.  1.
</event>
<event>
 7    1  0.3001243E-009  0.8707231E+02  0.7561462E-02  0.1310100E+00
         -1   -1    0    0    0  501 -0.00000000000E+00  0.00000000000E+00  0.22154912293E+02  0.22154912293E+02  0.00000000000E+00 0.  1.
          1   -1    0    0  501    0  0.00000000000E+00 -0.00000000000E+00 -0.81962340440E+03  0.81962340440E+03  0.00000000000E+00 0. -1.
         25    2    1    2    0    0  0.21425492210E+02 -0.55543111148E+02 -0.60975393112E+03  0.62528559657E+03  0.12505251634E+03 0.  0.
          5    1    3    3  502    0  0.32611981052E+02 -0.66579772412E+02 -0.17342057391E+03  0.18864934470E+03  0.41800000000E+01 0.  1.
         -5    1    3    3    0  502 -0.11186488841E+02  0.11036661264E+02 -0.43633335721E+03  0.43663625186E+03  0.41800000000E+01 0.  1.
        -11    1    1    2    0    0  0.10892349843E+02  0.49583055347E+02 -0.38529637816E+02  0.63731119972E+02  0.00000000000E+00 0.  1.
         11    1    1    2    0    0 -0.32317842054E+02  0.59600558007E+01 -0.14918492317E+03  0.15276160015E+03  0.00000000000E+00 0. -1.
</event>
<event>
 7    1  0.3001243E-009  0.1488128E+03  0.7561462E-02  0.1201939E+00
          2   -1    0    0  501    0  0.00000000000E+00  0.00000000000E+00  0.12029153704E+03  0.12029153704E+03  0.00000000000E+00 0. -1.
         -2   -1    0    0    0  501 -0.00000000000E+00 -0.00000000000E+00 -0.20317532166E+03  0.20317532166E+03  0.00000000000E+00 0.  1.
         25    2    1    2    0    0  0.10325782670E+03 -0.33157072230E+02 -0.10437455498E+02  0.16588495175E+03  0.12508919428E+03 0.  0.
          5    1    3    3  502    0  0.12945919238E+03 -0.19653184537E+02  0.73312384677E+01  0.13121413648E+03  0.41800000000E+01 0. -1.
         -5    1    3    3    0  502 -0.26201365679E+02 -0.13503887694E+02 -0.17768693966E+02  0.34670815270E+02  0.41800000000E+01 0. -1.
        -11    1    1    2    0    0 -0.22957343415E+02  0.49801076750E+02 -0.45514965578E+02  0.71265692684E+02  0.00000000000E+00 0.  1.
         11    1    1    2    0    0 -0.80300483286E+02 -0.16644004519E+02 -0.26931363549E+02  0.86316214265E+02  0.00000000000E+00 0. -1.
</event>
<event>
 7    1  0.3001243E-009  0.8782061E+02  0.7561462E-02  0.1308217E+00
         -1   -1    0    0    0  501 -0.00000000000E+00  0.00000000000E+00  0.28890657099E+02  0.28890657099E+02  0.00000000000E+00 0.  1.
          1   -1    0    0  501    0  0.00000000000E+00 -0.00000000000E+00 -0.59520022790E+03  0.59520022790E+03  0.00000000000E+00 0. -1.
         25    2    1    2    0    0 -0.25350579066E+02  0.68859373842E+01 -0.47513732950E+03  0.49202938826E+03  0.12508944415E+03 0.  0.
          5    1    3    3  502    0  0.13661722770E+02  0.33397466936E+02 -0.40942400131E+03  0.41103225995E+03  0.41800000000E+01 0.  1.
         -5    1    3    3    0  502 -0.39012301837E+02 -0.26511529552E+02 -0.65713328184E+02  0.80997128312E+02  0.41800000000E+01 0.  1.
        -11    1    1    2    0    0  0.58474633825E+02 -0.22644641078E+01 -0.74372159526E+02  0.94634183629E+02  0.00000000000E+00 0.  1.
         11    1    1    2    0    0 -0.33124054758E+02 -0.46214732764E+01 -0.16800081778E+02  0.37427313110E+02  0.00000000000E+00 0. -1.
</event>
<event>
 7    1  0.3001243E-009  0.1057862E+03  0.7561462E-02  0.1268578E+00
          1   -1    0    0  501    0  0.00000000000E+00  0.00000000000E+00  0.91763305969E+03  0.91763305969E+03  0.00000000000E+00 0. -1.
         -1   -1    0    0    0  501 -0.00000000000E+00 -0.00000000000E+00 -0.16349845967E+02  0.16349845967E+02  0.00000000000E+00 0.  1.
         25    2    1    2    0    0  0.31720168369E+02  0.33925918875E+02  0.56319995756E+03  0.57879139999E+03  0.12509258755E+03 0.  0.
          5    1    3    3  502    0  0.55350758754E+01  0.79910671076E+02  0.35190789983E+03  0.36093350465E+03  0.41800000000E+01 0. -1.
         -5    1    3    3    0  502  0.26185092494E+02 -0.45984752201E+02  0.21129205773E+03  0.21785789534E+03  0.41800000000E+01 0. -1.
        -11    1    1    2    0    0  0.19362821930E+02 -0.11202452651E+02  0.14151513866E+02  0.26470344977E+02  0.00000000000E+00 0.  1.
         11    1    1    2    0    0 -0.51082990299E+02 -0.22723466225E+02  0.32393174230E+03  0.32872116069E+03  0.00000000000E+00 0. -1.
</event>
<event>
 7    1  0.3001243E-009  0.1294000E+03  0.7561462E-02  0.1228349E+00
          2   -1    0    0  501    0  0.00000000000E+00  0.00000000000E+00  0.13513169465E+04  0.13513169465E+04  0.00000000000E+00 0. -1.
         -2   -1    0    0    0  501 -0.00000000000E+00 -0.00000000000E+00 -0.20784482583E+02  0.20784482583E+02  0.00000000000E+00 0.  1.
         25    2    1    2    0    0 -0.96875797821E+02 -0.10270357626E+02  0.10306918067E+04  0.10428148518E+04  0.12508722676E+03 0.  0.
          5    1    3    3  502    0 -0.78127569353E+02  0.25384756171E+02  0.30208349749E+03  0.31308180208E+03  0.41800000000E+01 0.  1.
         -5    1    3    3    0  502 -0.18748228468E+02 -0.35655113797E+02  0.72860830917E+03  0.72973304969E+03  0.41800000000E+01 0.  1.
        -11    1    1    2    0    0  0.90670960569E+02 -0.29842397051E+02  0.20578310475E+03  0.22684461191E+03  0.00000000000E+00 0.  1.
         11    1    1    2    0    0  0.62048372524E+01  0.40112754677E+02  0.94057552527E+02  0.10244196543E+03  0.00000000000E+00 0. -1.
</event>
<event>
 7    1  0.3001243E-009  0.8034818E+02  0.7561462E-02  0.1328066E+00
          2   -1    0    0  501    0  0.00000000000E+00  0.00000000000E+00  0.93423875545E+02  0.93423875545E+02  0.00000000000E+00 0. -1.
         -2   -1    0    0    0  501 -0.00000000000E+00 -0.00000000000E+00 -0.15920140372E+03  0.15920140372E+03  0.00000000000E+00 0.  1.
         25    2    1    2    0    0 -0.12436199310E+02 -0.46946850527E+02 -0.69452300319E+02  0.15109562679E+03  0.12509036969E+03 0.  0.
          5    1    3    3  502    0  0.25098261071E+02 -0.59895626420E+02  0.63876429070E+01  0.65388708160E+02  0.41800000000E+01 0. -1.
         -5    1    3    3    0  502 -0.37534460381E+02  0.12948775892E+02 -0.75839943226E+02  0.85706918634E+02  0.41800000000E+01 0. -1.
        -11    1    1    2    0    0 -0.87263221280E+01  0.11931033403E+02  0.42578932050E+02  0.45071761785E+02  0.00000000000E+00 0. -1.
         11    1    1    2    0    0  0.21162521438E+02  0.35015817125E+02 -0.38904159904E+02  0.56457890683E+02  0.00000000000E+00 0.  1.
</event>
<event>
 7    1  0.3001243E-009  0.1253251E+03  0.7561462E-02  0.1234562E+00
         -1   -1    0    0    0  501 -0.00000000000E+00  0.00000000000E+00  0.43435946538E+03  0.43435946538E+03  0.00000000000E+00 0.  1.
          1   -1    0    0  501    0  0.00000000000E+00 -0.00000000000E+00 -0.48133745908E+02  0.48133745908E+02  0.00000000000E+00 0. -1.
         25    2    1    2    0    0  0.55526434773E+02 -0.45988452360E+02  0.10476906739E+03  0.17838905636E+03  0.12509186720E+03 0.  0.
          5    1    3    3  502    0  0.14495657862E+02 -0.84085389615E+02  0.45661142519E+02  0.96865314637E+02  0.41800000000E+01 0. -1.
         -5    1    3    3    0  502  0.41030776911E+02  0.38096937256E+02  0.59107924875E+02  0.81523741727E+02  0.41800000000E+01 0. -1.
        -11    1    1    2    0    0  0.16384248552E+02 -0.88685290962E+01  0.19483832731E+02  0.26957636151E+02  0.00000000000E+00 0. -1.
         11    1    1    2    0    0 -0.71910683325E+02  0.54856981456E+02  0.26197281934E+03  0.27714651877E+03  0.00000000000E+00 0.  1.
</event>
<event>
 7    1  0.3001243E-009  0.8849730E+02  0.7561462E-02  0.1306532E+00
          1   -1    0    0  501    0  0.00000000000E+00  0.00000000000E+00  0.10473585249E+03  0.10473585249E+03  0.00000000000E+00 0. -1.
         -1   -1    0    0    0  501 -0.00000000000E+00 -0.00000000000E+00 -0.14143838792E+03  0.14143838792E+03  0.00000000000E+00 0.  1.
         25    2    1    2    0    0  0.10832113767E+02  0.50493287530E+02 -0.27946156640E+01  0.13535898008E+03  0.12508931544E+03 0.  0.
          5    1    3    3  502    0  0.59619347779E+02  0.11606154756E+02  0.26388590189E+02  0.66355101913E+02  0.41800000000E+01 0. -1.
         -5    1    3    3    0  502 -0.48787234012E+02  0.38887132774E+02 -0.29183205853E+02  0.69003878165E+02  0.41800000000E+01 0. -1.
        -11    1    1    2    0    0 -0.16464085881E+01 -0.38209366887E+02 -0.65414032770E+02  0.75773755762E+02  0.00000000000E+00 0.  1.
         11    1    1    2    0    0 -0.91857051785E+01 -0.12283920643E+02  0.31506113004E+02  0.35041504572E+02  0.00000000000E+00 0. -1.
</event>
<event>
 7    1  0.3001243E-009  0.1352926E+03  0.7561462E-02  0.1219807E+00
         -2   -1    0    0    0  501 -0.00000000000E+00  0.00000000000E+00  0.98363930129E+02  0.98363930129E+02  0.00000000000E+00 0.  1.
          2   -1    0    0  501    0  0.00000000000E+00 -0.00000000000E+00 -0.22005817679E+03  0.22005817679E+03  0.00000000000E+00 0. -1.
         25    2    1    2    0    0  0.66979894501E+02 -0.45113222522E+02 -0.11752634013E+03  0.18968887238E+03  0.12509164067E+03 0.  0.
          5    1    3    3  502    0  0.61748448279E+02  0.33229751924E+02 -0.56966563977E+02  0.90441965310E+02  0.41800000000E+01 0. -1.
         -5    1    3    3    0  502  0.52314462214E+01 -0.78342974446E+02 -0.60559776153E+02  0.99246907067E+02  0.41800000000E+01 0. -1.
        -11    1    1    2    0    0 -0.49940767482E+02 -0.20452489237E+02  0.18883832485E+02  0.57175026908E+02  0.00000000000E+00 0.  1.
         11    1    1    2    0    0 -0.17039127019E+02  0.65565711759E+02 -0.23051739015E+02  0.71558207633E+02  0.00000000000E+00 0. -1.
</event>
<event>
 7    1  0.3001243E-009  0.2292894E+03  0.7561462E-02  0.1127141E+00
         -1   -1    0    0    0  501 -0.00000000000E+00  0.00000000000E+00  0.17902015804E+03  0.17902015804E+03  0.00000000000E+00 0.  1.
          1   -1    0    0  501    0  0.00000000000E+00 -0.00000000000E+00 -0.88422752467E+03  0.88422752467E+03  0.00000000000E+00 0. -1.
         25    2    1    2    0    0  0.71209446115E+02  0.21040932944E+03 -0.77295781904E+03  0.81391290706E+03  0.12509020400E+03 0.  0.
          5    1    3    3  502    0  0.11285434997E+02  0.33668986934E+02 -0.34713342650E+03  0.34896998426E+03  0.41800000000E+01 0. -1.
         -5    1    3    3    0  502  0.59924011117E+02  0.17674034251E+03 -0.42582439254E+03  0.46494292280E+03  0.41800000000E+01 0.  1.
        -11    1    1    2    0    0 -0.88095991744E+02 -0.15566446122E+03  0.69817680681E+02  0.19200738732E+03  0.00000000000E+00 0. -1.
         11    1    1    2    0    0  0.16886545630E+02 -0.54744868223E+02 -0.20672282730E+01  0.57327388330E+02  0.00000000000E+00 0.  1.
</event>
<event>
 7    1  0.3001243E-009  0.3307030E+03  0.7561462E-02  0.1070826E+00
         -1   -1    0    0    0  501 -0.00000000000E+00  0.00000000000E+00  0.60237336932E+03  0.60237336932E+03  0.00000000000E+00 0.  1.
          1   -1    0    0  501    0  0.00000000000E+00 -0.00000000000E+00 -0.18767944080E+03  0.18767944080E+03  0.00000000000E+00 0. -1.
         25    2    1    2    0    0 -0.29676500538E+03 -0.96168290960E+02  0.14286248899E+03  0.36520522750E+03  0.12508940337E+03 0.  0.
          5    1    3    3  502    0 -0.29894058946E+03 -0.11211292120E+03  0.13314847132E+03  0.34594908721E+03  0.41800000000E+01 0.  1.
         -5    1    3    3    0  502  0.21755840852E+01  0.15944630243E+02  0.97140176662E+01  0.19256140291E+02  0.41800000000E+01 0.  1.
        -11    1    1    2    0    0  0.20031999664E+03  0.10921261921E+03  0.17482560462E+03  0.28743606120E+03  0.00000000000E+00 0.  1.
         11    1    1    2    0    0  0.96445008738E+02 -0.13044328250E+02  0.97005834910E+02  0.13741152141E+03  0.00000000000E+00 0. -1.
</event>
<event>
 7    1  0.3001243E-009  0.1316596E+03  0.7561462E-02  0.1225014E+00
         -1   -1    0    0    0  501 -0.00000000000E+00  0.00000000000E+00  0.33098544071E+03  0.33098544071E+03  0.00000000000E+00 0.  1.
          1   -1    0    0  501    0  0.00000000000E+00 -0.00000000000E+00 -0.94555564558E+02  0.94555564558E+02  0.00000000000E+00 0. -1.
         25    2    1    2    0    0  0.11179242572E+03 -0.67729256193E+02  0.66876563604E+02  0.19288602651E+03  0.12509095040E+03 0.  0.
          5    1    3    3  502    0  0.26733531273E+02 -0.22187656504E+02 -0.37086469959E+02  0.50988748263E+02  0.41800000000E+01 0.  1.
         -5    1    3    3    0  502  0.85058894448E+02 -0.45541599689E+02  0.10396303356E+03  0.14189727825E+03  0.41800000000E+01 0.  1.
        -11    1    1    2    0    0 -0.16072123663E+02  0.17101929344E+02  0.10280780812E+03  0.10545252276E+03  0.00000000000E+00 0.  1.
         11    1    1    2    0    0 -0.95720302057E+02  0.50627326849E+02  0.66745504430E+02  0.12720245600E+03  0.00000000000E+00 0. -1.
</event>
<event>
 7    1  0.3001243E-009  0.1307485E+03  0.7561462E-02  0.1226349E+00
          2   -1    0    0  501    0  0.00000000000E+00  0.00000000000E+00  0.29058315625E+03  0.29058315625E+03  0.00000000000E+00 0. -1.
         -2   -1    0    0    0  501 -0.00000000000E+00 -0.00000000000E+00 -0.92710654969E+02  0.92710654969E+02  0.00000000000E+00 0.  1.
         25    2    1    2    0    0  0.51489673665E+02  0.92446211671E+02  0.17758608630E+03  0.24162108042E+03  0.12508573023E+03 0.  0.
          5    1    3    3  502    0  0.52631846175E+02 -0.94897091136E+01  0.99871234897E+02  0.11336622853E+03  0.41800000000E+01 0.  1.
         -5    1    3    3    0  502 -0.11421725104E+01  0.10193592078E+03  0.77714851408E+02  0.12825485189E+03  0.41800000000E+01 0.  1.
        -11    1    1    2    0    0 -0.25586341239E+02 -0.44670744204E+02  0.56446656194E+02  0.76396081321E+02  0.00000000000E+00 0. -1.
         11    1    1    2    0    0 -0.25903332426E+02 -0.47775467467E+02 -0.36160241217E+02  0.65276649479E+02  0.00000000000E+00 0.  1.
</event>
<event>
 7    1  0.3001243E-009  0.8038363E+02  0.7561462E-02  0.1327966E+00
          1   -1    0    0  501    0  0.00000000000E+00  0.00000000000E+00  0.50187735538E+02  0.50187735538E+02  0.00000000000E+00 0. -1.
         -1   -1    0    0    0  501 -0.00000000000E+00 -0.00000000000E+00 -0.32394617014E+03  0.32394617014E+03  0.00000000000E+00 0.  1.
         25    2    1    2    0    0  0.54123257026E+02  0.19660848808E+02 -0.17490272375E+03  0.22261051113E+03  0.12509436822E+03 0.  0.
          5    1    3    3  502    0  0.49317895186E+02  0.15994968193E+02 -0.19468163607E+03  0.20151055957E+03  0.41800000000E+01 0. -1.
         -5    1    3    3    0  502  0.48053618394E+01  0.36658806153E+01  0.19778912322E+02  0.21099951558E+02  0.41800000000E+01 0. -1.
        -11    1    1    2    0    0 -0.16192971692E+02  0.32851193146E+02 -0.42580237592E+01  0.36871994653E+02  0.00000000000E+00 0. -1.
         11    1    1    2    0    0 -0.37930285334E+02 -0.52512041954E+02 -0.94597687091E+02  0.11465139990E+03  0.00000000000E+00 0.  1.
</event>
<event>
 7    1  0.3001243E-009  0.9314852E+02  0.7561462E-02  0.1295401E+00
         -1   -1    0    0    0  501 -0.00000000000E+00  0.00000000000E+00  0.25044029189E+02  0.25044029189E+02  0.00000000000E+00 0.  1.
          1   -1    0    0  501    0  0.00000000000E+00 -0.00000000000E+00 -0.57502582495E+03  0.57502582495E+03  0.00000000000E+00 0. -1.
         25    2    1    2    0    0 -0.44049591755E+02 -0.92173064454E+00 -0.39154993564E+03  0.41340274553E+03  0.12509700950E+03 0.  0.
          5    1    3    3  502    0 -0.73893073134E+02 -0.44698158927E+01 -0.36687724164E+03  0.37429473459E+03  0.41800000000E+01 0.  1.
         -5    1    3    3    0  502  0.29843481379E+02  0.35480852482E+01 -0.24672694004E+02  0.39108010933E+02  0.41800000000E+01 0.  1.
        -11    1    1    2    0    0 -0.18159542084E+02 -0.62086787045E+01 -0.34304353449E+01  0.19495757144E+02  0.00000000000E+00 0.  1.
         11    1    1    2    0    0  0.62209133839E+02  0.71304093491E+01 -0.15500142477E+03  0.16717135147E+03  0.00000000000E+00 0. -1.
</event>
<event>
 7    1  0.3001243E-009  0.1220423E+03  0.7561462E-02  0.1239765E+00
         -1   -1    0    0    0  501 -0.00000000000E+00  0.00000000000E+00  0.20948781465E+03  0.20948781465E+03  0.00000000000E+00 0.  1.
          1   -1    0    0  501    0  0.00000000000E+00 -0.00000000000E+00 -0.22625992454E+03  0.22625992454E+03  0.00000000000E+00 0. -1.
         25    2    1    2    0    0 -0.48735087354E+02 -0.68125304877E+02 -0.17794105248E+03  0.23308069787E+03  0.12508967847E+03 0.  0.
          5    1    3    3  502    0 -0.14307753373E+02  0.21883757316E+02  0.43587444787E+01  0.26834337970E+02  0.41800000000E+01 0.  1.
         -5    1    3    3    0  502 -0.34427333981E+02 -0.90009062193E+02 -0.18229979695E+03  0.20624635990E+03  0.41800000000E+01 0.  1.
        -11    1    1    2    0    0  0.21098829353E+02  0.85791218024E+02  0.10139458846E+03  0.13448478077E+03  0.00000000000E+00 0.  1.
         11    1    1    2    0    0  0.27636258001E+02 -0.17665913146E+02  0.59774354124E+02  0.68182260556E+02  0.00000000000E+00 0. -1.
</event>
<event>
 7    1  0.3001243E-009  0.8593635E+02  0.7561462E-02  0.1313002E+00
          1   -1    0    0  501    0  0.00000000000E+00  0.00000000000E+00  0.29555090378E+02  0.29555090378E+02  0.00000000000E+00 0. -1.
         -1   -1    0    0    0  501 -0.00000000000E+00 -0.00000000000E+00 -0.54714039645E+03  0.54714039645E+03  0.00000000000E+00 0.  1.
         25    2    1    2    0    0  0.52285605146E+02 -0.15094283932E+02 -0.37470717397E+03  0.39876561314E+03  0.12508767361E+03 0.  0.
          5    1    3    3  502    0  0.92573020752E+01  0.41897599865E+02 -0.26022887839E+03  0.26377575337E+03  0.41800000000E+01 0. -1.
         -5    1    3    3    0  502  0.43028303071E+02 -0.56991883797E+02 -0.11447829558E+03  0.13498985978E+03  0.41800000000E+01 0. -1.
        -11    1    1    2    0    0 -0.31677780048E+02  0.17971684493E+02 -0.15119635644E+03  0.15552106414E+03  0.00000000000E+00 0.  1.
         11    1    1    2    0    0 -0.20607825098E+02 -0.28774005613E+01  0.83182243296E+01  0.22408809546E+02  0.00000000000E+00 0. -1.
</event>
<event>
 7    1  0.3001243E-009  0.6670014E+02  0.7561462E-02  0.1371688E+00
          1   -1    0    0  501    0  0.00000000000E+00  0.00000000000E+00  0.19677127177E+03  0.19677127177E+03  0.00000000000E+00 0. -1.
         -1   -1    0    0    0  501 -0.00000000000E+00 -0.00000000000E+00 -0.61881825736E+02  0.61881825736E+02  0.00000000000E+00 0.  1.
         25    2    1    2    0    0  0.22399491682E+02 -0.54353156005E+01  0.81319160517E+02  0.15096783323E+03  0.12508877216E+03 0.  0.
          5    1    3    3  502    0 -0.26465593874E+02 -0.34306035945E+01  0.96005531662E+02  0.99733300406E+02  0.41800000000E+01 0. -1.
         -5    1    3    3    0  502  0.48865085555E+02 -0.20047120060E+01 -0.14686371145E+02  0.51234532827E+02  0.41800000000E+01 0. -1.
        -11    1    1    2    0    0  0.40549134052E+01  0.24412031418E+02  0.67784694140E+02  0.72160615022E+02  0.00000000000E+00 0. -1.
         11    1    1    2    0    0 -0.26454405087E+02 -0.18976715818E+02 -0.14214408626E+02  0.35524649250E+02  0.00000000000E+00 0.  1.
</event>
<event>
 7    1  0.3001243E-009  0.9212463E+02  0.7561462E-02  0.1297787E+00
         -1   -1    0    0    0  501 -0.00000000000E+00  0.00000000000E+00  0.36069664340E+03  0.36069664340E+03  0.00000000000E+00 0.  1.
          1   -1    0    0  501    0  0.00000000000E+00 -0.00000000000E+00 -0.36654860951E+02  0.36654860951E+02  0.00000000000E+00 0. -1.
         25    2    1    2    0    0 -0.15431009550E+02 -0.26608049761E+02  0.15020049345E+03  0.19786532326E+03  0.12507755014E+03 0.  0.
          5    1    3    3  502    0 -0.32336725795E+02  0.25573188739E+02  0.39676912666E+01  0.41627716625E+02  0.41800000000E+01 0.  1.
         -5    1    3    3    0  502  0.16905716246E+02 -0.52181238500E+02  0.14623280218E+03  0.15623760663E+03  0.41800000000E+01 0.  1.
        -11    1    1    2    0    0  0.40526660315E+02  0.41996973839E+02  0.67921426870E+02  0.89551528385E+02  0.00000000000E+00 0. -1.
         11    1    1    2    0    0 -0.25095650765E+02 -0.15388924078E+02  0.10591986213E+03  0.10993465271E+03  0.00000000000E+00 0.  1.
</event>
<event>
 7    1  0.3001243E-009  0.1158929E+03  0.7561462E-02  0.1250031E+00
          2   -1    0    0  501    0  0.00000000000E+00  0.00000000000E+00  0.71134060093E+03  0.71134060093E+03  0.00000000000E+00 0. -1.
         -2   -1    0    0    0  501 -0.00000000000E+00 -0.00000000000E+00 -0.33026430188E+02  0.33026430188E+02  0.00000000000E+00 0.  1.
         25    2    1    2    0    0  0.49205540444E+02  0.54421212298E+02  0.55445044103E+03  0.57310160516E+03  0.12508918706E+03 0.  0.
          5    1    3    3  502    0  0.54881651295E+02 -0.17374821296E+02  0.12561732794E+03  0.13824277754E+03  0.41800000000E+01 0. -1.
         -5    1    3    3    0  502 -0.56761108505E+01  0.71796033593E+02  0.42883311309E+03  0.43485882762E+03  0.41800000000E+01 0. -1.
        -11    1    1    2    0    0 -0.65402626016E+02 -0.28458808273E+02  0.39521438002E+02  0.81543554741E+02  0.00000000000E+00 0.  1.
         11    1    1    2    0    0  0.16197085571E+02 -0.25962404025E+02  0.84342291714E+02  0.89721871221E+02  0.00000000000E+00 0. -1.
</event>
<event>
 7    1  0.3001243E-009  0.4209595E+03  0.7561462E-02  0.1036754E+00
         -1   -1    0    0    0  501 -0.00000000000E+00  0.00000000000E+00  0.10148438678E+03  0.10148438678E+03  0.00000000000E+00 0.  1.
          1   -1    0    0  501    0  0.00000000000E+00 -0.00000000000E+00 -0.18170327206E+04  0.18170327206E+04  0.00000000000E+00 0. -1.
         25    2    1    2    0    0 -0.10796938692E+03  0.39899407699E+03 -0.95427879807E+03  0.10474479458E+04  0.12508202430E+03 0.  0.
          5    1    3    3  502    0 -0.10265129807E+03  0.16832067877E+03 -0.51026559743E+03  0.54704441521E+03  0.41800000000E+01 0.  1.
         -5    1    3    3    0  502 -0.53180888530E+01  0.23067339822E+03 -0.44401320065E+03  0.50040353063E+03  0.41800000000E+01 0.  1.
        -11    1    1    2    0    0  0.76745295036E+02 -0.31839385319E+03 -0.66761897008E+03  0.74362596463E+03  0.00000000000E+00 0.  1.
         11    1    1    2    0    0  0.31224091883E+02 -0.80600223795E+02 -0.93650565674E+02  0.12744319692E+03  0.00000000000E+00 0. -1.
</event>
<event>
 7    1  0.3001243E-009  0.1488588E+03  0.7561462E-02  0.1201882E+00
         -1   -1    0    0    0  501 -0.00000000000E+00  0.00000000000E+00  0.11460651966E+04  0.11460651966E+04  0.00000000000E+00 0.  1.
          1   -1    0    0  501    0  0.00000000000E+00 -0.00000000000E+00 -0.32671254263E+02  0.32671254263E+02  0.00000000000E+00 0. -1.
         25    2    1    2    0    0  0.11722903136E+03  0.46536054669E+01  0.89699961411E+03  0.91324640229E+03  0.12508549777E+03 0.  0.
          5    1    3    3  502    0  0.11725128021E+03 -0.39924421101E+02  0.72491098344E+03  0.73542860185E+03  0.41800000000E+01 0. -1.
         -5    1    3    3    0  502 -0.22248858770E-01  0.44578026568E+02  0.17208863067E+03  0.17781780044E+03  0.41800000000E+01 0. -1.
        -11    1    1    2    0    0 -0.10159477721E+03  0.16272758588E+02  0.90856277895E+02  0.13726312200E+03  0.00000000000E+00 0. -1.
         11    1    1    2    0    0 -0.15634254141E+02 -0.20926364055E+02  0.12553805033E+03  0.12822692657E+03  0.00000000000E+00 0.  1.
</event>
<event>
 7    1  0.3001243E-009  0.1038677E+03  0.7561462E-02  0.1272367E+00
          2   -1    0    0  501    0  0.00000000000E+00  0.00000000000E+00  0.22375551928E+03  0.22375551928E+03  0.00000000000E+00 0. -1.
         -2   -1    0    0    0  501 -0.00000000000E+00 -0.00000000000E+00 -0.53264632009E+02  0.53264632009E+02  0.00000000000E+00 0.  1.
         25    2    1    2    0    0 -0.12842631111E+02  0.19301430086E+01  0.10835440912E+03  0.16600425555E+03  0.12509227098E+03 0.  0.
          5    1    3    3  502    0  0.50203288235E+02  0.17325546428E+02  0.77447422620E+02  0.94000640312E+02  0.41800000000E+01 0.  1.
         -5    1    3    3    0  502 -0.63045919347E+02 -0.15395403419E+02  0.30906986503E+02  0.72003615238E+02  0.41800000000E+01 0.  1.
        -11    1    1    2    0    0  0.44020749368E+02  0.22854949640E+02  0.21325302390E+02  0.53990217818E+02  0.00000000000E+00 0.  1.
         11    1    1    2    0    0 -0.31178118256E+02 -0.24785092649E+02  0.40811175758E+02  0.57025677921E+02  0.00000000000E+00 0. -1.
</event>
<event>
 7    1  0.3001243E-009  0.8939780E+02  0.7561462E-02  0.1304317E+00
         -4   -1    0    0    0  501 -0.00000000000E+00  0.00000000000E+00  0.45740879730E+02  0.45740879730E+02  0.00000000000E+00 0. -1.
          4   -1    0    0  501    0  0.00000000000E+00 -0.00000000000E+00 -0.30191187327E+03  0.30191187327E+03  0.00000000000E+00 0.  1.
         25    2    1    2    0    0  0.37995174195E+02  0.81875045494E+01 -0.17598984126E+03  0.21938697834E+03  0.12509018165E+03 0.  0.
          5    1    3    3  502    0  0.34080859845E+02  0.64387807333E+02 -0.82368249773E+02  0.11004224512E+03  0.41800000000E+01 0. -1.
         -5    1    3    3    0  502  0.39143143496E+01 -0.56200302783E+02 -0.93621591490E+02  0.10934473322E+03  0.41800000000E+01 0. -1.
        -11    1    1    2    0    0 -0.29076172345E+02  0.86019257858E+01 -0.97771186736E+02  0.10236513997E+03  0.00000000000E+00 0.  1.
         11    1    1    2    0    0 -0.89190018502E+01 -0.16789430335E+02  0.17590034459E+02  0.25900634688E+02  0.00000000000E+00 0. -1.
</event>
<event>
 7    1  0.3001243E-009  0.3263010E+03  0.7561462E-02  0.1072785E+00
         -2   -1    0    0    0  501 -0.00000000000E+00  0.00000000000E+00  0.18994198610E+03  0.18994198610E+03  0.00000000000E+00 0.  1.
          2   -1    0    0  501    0  0.00000000000E+00 -0.00000000000E+00 -0.65294816316E+03  0.65294816316E+03  0.00000000000E+00 0. -1.
         25    2    1    2    0    0  0.79202796668E+02 -0.30346516894E+03 -0.95409844449E+02  0.35088403949E+03  0.12510946804E+03 0.  0.
          5    1    3    3  502    0 -0.20032425822E+02 -0.10083849991E+02 -0.23815466053E+02  0.32979250117E+02  0.41800000000E+01 0.  1.
         -5    1    3    3    0  502  0.99235222489E+02 -0.29338131894E+03 -0.71594378395E+02  0.31790478937E+03  0.41800000000E+01 0.  1.
        -11    1    1    2    0    0  0.68719633704E+01  0.84436362704E+02 -0.56104135291E+02  0.10160904105E+03  0.00000000000E+00 0.  1.
         11    1    1    2    0    0 -0.86074760038E+02  0.21902880623E+03 -0.31149219732E+03  0.39039706872E+03  0.00000000000E+00 0. -1.
</event>
<event>
 7    1  0.3001243E-009  0.1081867E+03  0.7561462E-02  0.1263965E+00
         -2   -1    0    0    0  501 -0.00000000000E+00  0.00000000000E+00  0.24087333630E+02  0.24087333630E+02  0.00000000000E+00 0.  1.
          2   -1    0    0  501    0  0.00000000000E+00 -0.00000000000E+00 -0.54737743093E+03  0.54737743093E+03  0.00000000000E+00 0. -1.
         25    2    1    2    0    0 -0.25099863472E+02  0.13687113535E+02 -0.23479085931E+03  0.26756356083E+03  0.12508465630E+03 0.  0.
          5    1    3    3  502    0 -0.25707289174E+02 -0.51360630972E+02 -0.71930766594E+02  0.92142751822E+02  0.41800000000E+01 0.  1.
         -5    1    3    3    0  502  0.60742570145E+00  0.65047744508E+02 -0.16286009272E+03  0.17542080901E+03  0.41800000000E+01 0.  1.
        -11    1    1    2    0    0 -0.92404044674E+00  0.36794996845E+02 -0.85039372521E+02  0.92662940394E+02  0.00000000000E+00 0.  1.
         11    1    1    2    0    0  0.26023903919E+02 -0.50482110381E+02 -0.20345986547E+03  0.21123826334E+03  0.00000000000E+00 0. -1.
</event>
<event>
 7    1  0.3001243E-009  0.1304948E+03  0.7561462E-02  0.1226723E+00
          2   -1    0    0  501    0  0.00000000000E+00  0.00000000000E+00  0.22573859378E+04  0.22573859378E+04  0.00000000000E+00 0. -1.
         -2   -1    0    0    0  501 -0.00000000000E+00 -0.00000000000E+00 -0.11076169251E+02  0.11076169251E+02  0.00000000000E+00 0.  1.
         25    2    1    2    0    0 -0.79316019011E+02  0.67172193159E+02  0.15936225686E+04  0.16019007530E+04  0.12509994768E+03 0.  0.
          5    1    3    3  502    0 -0.82285451449E+02  0.78206480192E+02  0.78404676376E+03  0.79223351938E+03  0.41800000000E+01 0. -1.
         -5    1    3    3    0  502  0.29694324381E+01 -0.11034287033E+02  0.80957580488E+03  0.80966723366E+03  0.41800000000E+01 0. -1.
        -11    1    1    2    0    0  0.20065942928E+02 -0.72981334569E+02  0.35492141791E+03  0.36290237000E+03  0.00000000000E+00 0.  1.
         11    1    1    2    0    0  0.59250076083E+02  0.58091414104E+01  0.29776578198E+03  0.30365898399E+03  0.00000000000E+00 0. -1.
</event>
<event>
 7    1  0.3001243E-009  0.9658310E+02  0.7561462E-02  0.1287650E+00
         -2   -1    0    0    0  501 -0.00000000000E+00  0.00000000000E+00  0.18798188529E+03  0.18798188529E+03  0.00000000000E+00 0. -1.
          2   -1    0    0  501    0  0.00000000000E+00 -0.00000000000E+00 -0.71006137628E+02  0.71006137628E+02  0.00000000000E+00 0.  1.
         25    2    1    2    0    0 -0.36318032121E+02  0.22720113298E+02  0.76264132135E+02  0.15264569730E+03  0.12509711446E+03 0.  0.
          5    1    3    3  502    0 -0.18896037952E+02  0.62110061616E+02  0.86446668390E+02  0.10819065986E+03  0.41800000000E+01 0. -1.
         -5    1    3    3    0  502 -0.17421994168E+02 -0.39389948318E+02 -0.10182536255E+02  0.44455037441E+02  0.41800000000E+01 0. -1.
        -11    1    1    2    0    0 -0.21963490907E+02 -0.13636897827E+02  0.39667014156E+02  0.47347987573E+02  0.00000000000E+00 0.  1.
         11    1    1    2    0    0  0.58281523028E+02 -0.90832154708E+01  0.10446013709E+01  0.58994338048E+02  0.00000000000E+00 0. -1.
</event>
<event>
 7    1  0.3001243E-009  0.1629229E+03  0.7561462E-02  0.1185436E+00
         -2   -1    0    0    0  501 -0.00000000000E+00  0.00000000000E+00  0.64862810943E+02  0.64862810943E+02  0.00000000000E+00 0. -1.
          2   -1    0    0  501    0  0.00000000000E+00 -0.00000000000E+00 -0.44245388961E+03  0.44245388961E+03  0.00000000000E+00 0.  1.
         25    2    1    2    0    0 -0.12532583436E+03  0.20245231555E+02 -0.15776025284E+03  0.23801883303E+03  0.12509289885E+03 0.  0.
          5    1    3    3  502    0 -0.11061877791E+03  0.61763099470E+02 -0.14364270214E+03  0.19157738061E+03  0.41800000000E+01 0. -1.
         -5    1    3    3    0  502 -0.14707056445E+02 -0.41517867915E+02 -0.14117550704E+02  0.46441452425E+02  0.41800000000E+01 0. -1.
        -11    1    1    2    0    0  0.13383396617E+03 -0.10439020507E+01 -0.18043973513E+03  0.22465778029E+03  0.00000000000E+00 0. -1.
         11    1    1    2    0    0 -0.85081318137E+01 -0.19201329504E+02 -0.39391090697E+02  0.44640087231E+02  0.00000000000E+00 0.  1.
</event>
<event>
 7    1  0.3001243E-009  0.1131196E+03  0.7561462E-02  0.1254900E+00
          1   -1    0    0  501    0  0.00000000000E+00  0.00000000000E+00  0.10653354532E+03  0.10653354532E+03  0.00000000000E+00 0. -1.
         -1   -1    0    0    0  501 -0.00000000000E+00 -0.00000000000E+00 -0.16294071571E+03  0.16294071571E+03  0.00000000000E+00 0.  1.
         25    2    1    2    0    0  0.63927083216E+02  0.43309265900E+02 -0.17157136824E+02  0.14800188790E+03  0.12509127466E+03 0.  0.
          5    1    3    3  502    0  0.59742238094E+02 -0.22004304296E+02 -0.43614443112E+02  0.77285292702E+02  0.41800000000E+01 0. -1.
         -5    1    3    3    0  502  0.41848451216E+01  0.65313570196E+02  0.26457306288E+02  0.70716595198E+02  0.41800000000E+01 0. -1.
        -11    1    1    2    0    0 -0.79220327055E+01  0.14401937807E+02 -0.37601219994E+02  0.41036887794E+02  0.00000000000E+00 0.  1.
         11    1    1    2    0    0 -0.56005050510E+02 -0.57711203706E+02 -0.16488135752E+01  0.80435485341E+02  0.00000000000E+00 0. -1.
</event>
<event>
 7    1  0.3001243E-009  0.3131987E+03  0.7561462E-02  0.1078823E+00
          2   -1    0    0  501    0  0.00000000000E+00  0.00000000000E+00  0.58051372773E+03  0.58051372773E+03  0.00000000000E+00 0. -1.
         -2   -1    0    0    0  501 -0.00000000000E+00 -0.00000000000E+00 -0.19585181292E+03  0.19585181292E+03  0.00000000000E+00 0.  1.
         25    2    1    2    0    0 -0.22641889144E+03  0.19892684955E+03  0.31512551326E+03  0.45363958923E+03  0.12508949572E+03 0.  0.
          5    1    3    3  502    0 -0.21260216223E+03  0.21400419978E+03  0.27410264581E+03  0.40761159178E+03  0.41800000000E+01 0.  1.
         -5    1    3    3    0  502 -0.13816729200E+02 -0.15077350231E+02  0.41022867446E+02  0.46027997450E+02  0.41800000000E+01 0.  1.
        -11    1    1    2    0    0  0.87553349268E+02 -0.10235608003E+03  0.73685551667E+02  0.15353148411E+03  0.00000000000E+00 0.  1.
         11    1    1    2    0    0  0.13886554217E+03 -0.96570769518E+02 -0.41491501121E+01  0.16919446732E+03  0.00000000000E+00 0. -1.
</event>
<event>
 7    1  0.3001243E-009  0.9453184E+02  0.7561462E-02  0.1292234E+00
         -3   -1    0    0    0  501 -0.00000000000E+00  0.00000000000E+00  0.14977484593E+03  0.14977484593E+03  0.00000000000E+00 0.  1.
          3   -1    0    0  501    0  0.00000000000E+00 -0.00000000000E+00 -0.14254304841E+03  0.14254304841E+03  0.00000000000E+00 0. -1.
         25    2    1    2    0    0 -0.23029367065E+02  0.37329826641E+02 -0.83660103404E+02  0.15674881124E+03  0.12508920504E+03 0.  0.
          5    1    3    3  502    0 -0.13895750614E+02 -0.37112609349E+02 -0.69785380680E+02  0.80361118798E+02  0.41800000000E+01 0. -1.
         -5    1    3    3    0  502 -0.91336164510E+01  0.74442435990E+02 -0.13874722724E+02  0.76387692440E+02  0.41800000000E+01 0. -1.
        -11    1    1    2    0    0  0.36235337052E+02 -0.18977971651E+01  0.90772268576E+02  0.97755849072E+02  0.00000000000E+00 0.  1.
         11    1    1    2    0    0 -0.13205969988E+02 -0.35432029476E+02  0.11963235114E+00  0.37813234032E+02  0.00000000000E+00 0. -1.
</event>
<event>
 7    1  0.3001243E-009  0.9837371E+02  0.7561462E-02  0.1283753E+00
          2   -1    0    0  501    0  0.00000000000E+00  0.00000000000E+00  0.95589490956E+02  0.95589490956E+02  0.00000000000E+00 0. -1.
         -2   -1    0    0    0  501 -0.00000000000E+00 -0.00000000000E+00 -0.35654081940E+03  0.35654081940E+03  0.00000000000E+00 0.  1.
         25    2    1    2    0    0 -0.60933645670E+02  0.32466177415E+02 -0.29941301909E+03  0.33175664125E+03  0.12508937271E+03 0.  0.
          5    1    3    3  502    0  0.87209402324E+01  0.74192621237E+01 -0.22959350900E+03  0.22991683719E+03  0.41800000000E+01 0.  1.
         -5    1    3    3    0  502 -0.69654585902E+02  0.25046915292E+02 -0.69819510092E+02  0.10183980407E+03  0.41800000000E+01 0.  1.
        -11    1    1    2    0    0 -0.34062721351E+01  0.24348201914E+02 -0.34972915066E+01  0.24832814464E+02  0.00000000000E+00 0. -1.
         11    1    1    2    0    0  0.64339917805E+02 -0.56814379330E+02  0.41958982152E+02  0.95540854638E+02  0.00000000000E+00 0.  1.
</event>
<event>
 7    1  0.3001243E-009  0.1776095E+03  0.7561462E-02  0.1170137E+00
         -2   -1    0    0    0  501 -0.00000000000E+00  0.00000000000E+00  0.36710688440E+03  0.36710688440E+03  0.00000000000E+00 0.  1.
          2   -1    0    0  501    0  0.00000000000E+00 -0.00000000000E+00 -0.10727325508E+03  0.10727325508E+03  0.00000000000E+00 0. -1.
         25    2    1    2    0    0  0.12897702412E+03 -0.65936763360E+02  0.22960647462E+03  0.29891511595E+03  0.12509350041E+03 0.  0.
          5    1    3    3  502    0  0.15271945501E+03 -0.63394950976E+02  0.18511462489E+03  0.24824795769E+03  0.41800000000E+01 0. -1.
         -5    1    3    3    0  502 -0.23742430885E+02 -0.25418123838E+01  0.44491849722E+02  0.50667158261E+02  0.41800000000E+01 0. -1.
        -11    1    1    2    0    0  0.11091409480E+02  0.86625641341E+00  0.17182732679E+02  0.20469881943E+02  0.00000000000E+00 0.  1.
         11    1    1    2    0    0 -0.14006843360E+03  0.65070506946E+02  0.13044422025E+02  0.15499514158E+03  0.00000000000E+00 0. -1.
</event>
<event>
 7    1  0.3001243E-009  0.1659729E+03  0.7561462E-02  0.1182114E+00
         -1   -1    0    0    0  501 -0.00000000000E+00  0.00000000000E+00  0.35309421508E+02  0.35309421508E+02  0.00000000000E+00 0.  1.
          1   -1    0    0  501    0  0.00000000000E+00 -0.00000000000E+00 -0.98840845978E+03  0.98840845978E+03  0.00000000000E+00 0. -1.
         25    2    1    2    0    0 -0.13825050582E+03 -0.35239194842E+02 -0.62370667947E+03  0.65192928208E+03  0.12508702411E+03 0.  0.
          5    1    3    3  502    0 -0.24264268455E+02 -0.41543294674E+02 -0.37672923393E+03  0.37981177990E+03  0.41800000000E+01 0.  1.
         -5    1    3    3    0  502 -0.11398623736E+03  0.63040998321E+01 -0.24697744554E+03  0.27211750217E+03  0.41800000000E+01 0.  1.
        -11    1    1    2    0    0  0.63046987797E+02  0.63118460083E+02 -0.13867620225E+03  0.16489375896E+03  0.00000000000E+00 0. -1.
         11    1    1    2    0    0  0.75203518022E+02 -0.27879265241E+02 -0.19071615655E+03  0.20689484025E+03  0.00000000000E+00 0.  1.
</event>
<event>
 7    1  0.3001243E-009  0.2467535E+03  0.7561462E-02  0.1115374E+00
         -2   -1    0    0    0  501 -0.00000000000E+00  0.00000000000E+00  0.15135727336E+03  0.15135727336E+03  0.00000000000E+00 0. -1.
          2   -1    0    0  501    0  0.00000000000E+00 -0.00000000000E+00 -0.64235091366E+03  0.64235091366E+03  0.00000000000E+00 0.  1.
         25    2    1    2    0    0 -0.19870943898E+03  0.11860280432E+03 -0.47710407361E+03  0.54481577482E+03  0.12507543766E+03 0.  0.
          5    1    3    3  502    0 -0.21392516532E+03  0.11985567400E+03 -0.46133850430E+03  0.52247492465E+03  0.41800000000E+01 0. -1.
         -5    1    3    3    0  502  0.15215726338E+02 -0.12528696755E+01 -0.15765569317E+02  0.22340850170E+02  0.41800000000E+01 0. -1.
        -11    1    1    2    0    0  0.11971712587E+03 -0.58954037333E+02 -0.51452041791E+02  0.14302126188E+03  0.00000000000E+00 0.  1.
         11    1    1    2    0    0  0.78992313107E+02 -0.59648766991E+02  0.37562475105E+02  0.10587115032E+03  0.00000000000E+00 0. -1.
</event>
<event>
 7    1  0.3001243E-009  0.9735785E+02  0.7561462E-02  0.1285952E+00
          1   -1    0    0  501    0  0.00000000000E+00  0.00000000000E+00  0.27284601545E+03  0.27284601545E+03  0.00000000000E+00 0. -1.
         -1   -1    0    0    0  501 -0.00000000000E+00 -0.00000000000E+00 -0.54308521143E+02  0.54308521143E+02  0.00000000000E+00 0.  1.
         25    2    1    2    0    0  0.13718712566E+02 -0.36749974968E+02  0.17603678555E+03  0.21948817137E+03  0.12508934315E+03 0.  0.
          5    1    3    3  502    0 -0.49044566617E+02 -0.29622445831E+02  0.41715052492E+02  0.70996315511E+02  0.41800000000E+01 0.  1.
         -5    1    3    3    0  502  0.62763279183E+02 -0.71275291368E+01  0.13432173305E+03  0.14849185586E+03  0.41800000000E+01 0.  1.
        -11    1    1    2    0    0  0.25227497533E+02  0.13735643167E+02 -0.16648930976E+02  0.33200623905E+02  0.00000000000E+00 0.  1.
         11    1    1    2    0    0 -0.38946210099E+02  0.23014331801E+02  0.59149639732E+02  0.74465741316E+02  0.00000000000E+00 0. -1.
</event>
<event>
 7    1  0.4206595E-009  0.1753588E+03  0.7561462E-02  0.1172372E+00
         -1   -1    0    0    0  501 -0.00000000000E+00  0.00000000000E+00  0.79017862192E+02  0.79017862192E+02  0.00000000000E+00 0.  1.
          1   -1    0    0  501    0  0.00000000000E+00 -0.00000000000E+00 -0.42550548313E+03  0.42550548313E+03  0.00000000000E+00 0. -1.
         25    2    1    2    0    0 -0.14134991920E+03 -0.42595491916E+02 -0.19090582555E+03  0.27182907969E+03  0.12510730893E+03 0.  0.
          5    1    3    3  502    0 -0.14183442847E+03 -0.74121577328E+02 -0.17132268881E+03  0.23447803613E+03  0.41800000000E+01 0.  1.
         -5    1    3    3    0  502  0.48450927158E+00  0.31526085412E+02 -0.19583136737E+02  0.37351043561E+02  0.41800000000E+01 0.  1.
        -11    1    1    2    0    0  0.10526213850E+03  0.30783600764E+01 -0.55102890400E+02  0.11885252472E+03  0.00000000000E+00 0.  1.
         11    1    1    2    0    0  0.36087780697E+02  0.39517131840E+02 -0.10047890499E+03  0.11384174090E+03  0.00000000000E+00 0. -1.
</event>
<event>
 7    1  0.3001243E-009  0.1170972E+03  0.7561462E-02  0.1247964E+00
          2   -1    0    0  501    0  0.00000000000E+00  0.00000000000E+00  0.36210951553E+03  0.36210951553E+03  0.00000000000E+00 0. -1.
         -2   -1    0    0    0  501 -0.00000000000E+00 -0.00000000000E+00 -0.47898832170E+02  0.47898832170E+02  0.00000000000E+00 0.  1.
         25    2    1    2    0    0 -0.18119157216E+02  0.55845049976E+02  0.23664201477E+03  0.27403450801E+03  0.12509394454E+03 0.  0.
          5    1    3    3  502    0 -0.28524539474E+02  0.86989105494E+02  0.21696812661E+03  0.23552790534E+03  0.41800000000E+01 0. -1.
         -5    1    3    3    0  502  0.10405382259E+02 -0.31144055518E+02  0.19673888154E+02  0.38506602670E+02  0.41800000000E+01 0. -1.
        -11    1    1    2    0    0  0.55846217527E+02 -0.27421077710E+02  0.30495625781E+02  0.69287074600E+02  0.00000000000E+00 0.  1.
         11    1    1    2    0    0 -0.37727060311E+02 -0.28423972266E+02  0.47073042813E+02  0.66686765095E+02  0.00000000000E+00 0. -1.
</event>
<event>
 7    1  0.4208975E-009  0.1012681E+03  0.7561462E-02  0.1277652E+00
          1   -1    0    0  501    0  0.00000000000E+00  0.00000000000E+00  0.95849383061E+02  0.95849383061E+02  0.00000000000E+00 0. -1.
         -1   -1    0    0    0  501 -0.00000000000E+00 -0.00000000000E+00 -0.22541055991E+03  0.22541055991E+03  0.00000000000E+00 0.  1.
         25    2    1    2    0    0  0.42823277724E+02 -0.88468839919E+02 -0.79562448302E+02  0.17787381083E+03  0.12509332775E+03 0.  0.
          5    1    3    3  502    0  0.22013343082E+02 -0.46663922152E+02  0.29202690864E+02  0.59433815778E+02  0.41800000000E+01 0.  1.
         -5    1    3    3    0  502  0.20809934642E+02 -0.41804917767E+02 -0.10876513917E+03  0.11843999505E+03  0.41800000000E+01 0.  1.
        -11    1    1    2    0    0 -0.42124003728E+02  0.49862461348E+02 -0.73408032396E+02  0.98231542603E+02  0.00000000000E+00 0.  1.
         11    1    1    2    0    0 -0.69927399566E+00  0.38606378570E+02  0.23409303845E+02  0.45154589545E+02  0.00000000000E+00 0. -1.
</event>
<event>
 7    1  0.3001243E-009  0.1250265E+03  0.7561462E-02  0.1235028E+00
         -1   -1    0    0    0  501 -0.00000000000E+00  0.00000000000E+00  0.39812660409E+02  0.39812660409E+02  0.00000000000E+00 0.  1.
          1   -1    0    0  501    0  0.00000000000E+00 -0.00000000000E+00 -0.67531245352E+03  0.67531245352E+03  0.00000000000E+00 0. -1.
         25    2    1    2    0    0  0.71167409072E+02  0.27040173169E+02 -0.12948438628E+03  0.19547141326E+03  0.12508755346E+03 0.  0.
          5    1    3    3  502    0 -0.14285327882E+02  0.45342051934E+02 -0.12396213342E+02  0.49306295455E+02  0.41800000000E+01 0. -1.
         -5    1    3    3    0  502  0.85452736955E+02 -0.18301878765E+02 -0.11708817294E+03  0.14616511780E+03  0.41800000000E+01 0. -1.
        -11    1    1    2    0    0 -0.70742785454E+02  0.15398339655E+02 -0.37535154485E+03  0.38227010448E+03  0.00000000000E+00 0.  1.
         11    1    1    2    0    0 -0.42462361854E+00 -0.42438512823E+02 -0.13066386198E+03  0.13738359619E+03  0.00000000000E+00 0. -1.
</event>
<event>
 7    1  0.3001243E-009  0.1185112E+03  0.7561462E-02  0.1245573E+00
         -1   -1    0    0    0  501 -0.00000000000E+00  0.00000000000E+00  0.54118205918E+02  0.54118205918E+02  0.00000000000E+00 0.  1.
          1   -1    0    0  501    0  0.00000000000E+00 -0.00000000000E+00 -0.26390751951E+03  0.26390751951E+03  0.00000000000E+00 0. -1.
         25    2    1    2    0    0  0.38631477664E+02 -0.30182136943E+02 -0.13520708155E+03  0.19060952134E+03  0.12509069617E+03 0.  0.
          5    1    3    3  502    0 -0.62435992852E+01 -0.71953191818E+02 -0.81726559656E+02  0.10914644886E+03  0.41800000000E+01 0. -1.
         -5    1    3    3    0  502  0.44875076949E+02  0.41771054875E+02 -0.53480521890E+02  0.81463072482E+02  0.41800000000E+01 0. -1.
        -11    1    1    2    0    0  0.29907290639E+02  0.12720911839E+02 -0.21189903833E+02  0.38797933654E+02  0.00000000000E+00 0.  1.
         11    1    1    2    0    0 -0.68538768303E+02  0.17461225103E+02 -0.53392328208E+02  0.88618270430E+02  0.00000000000E+00 0. -1.
</event>
<event>
 7    1  0.3001243E-009  0.1637641E+03  0.7561462E-02  0.1184511E+00
         -1   -1    0    0    0  501 -0.00000000000E+00  0.00000000000E+00  0.34876977703E+03  0.34876977703E+03  0.00000000000E+00 0.  1.
          1   -1    0    0  501    0  0.00000000000E+00 -0.00000000000E+00 -0.95406452899E+02  0.95406452899E+02  0.00000000000E+00 0. -1.
         25    2    1    2    0    0 -0.86243315590E+02 -0.10728900571E+03  0.19666332767E+03  0.27068953722E+03  0.12509005109E+03 0.  0.
          5    1    3    3  502    0 -0.63816637754E+02 -0.12122265984E+03  0.20132933076E+03  0.24355383047E+03  0.41800000000E+01 0. -1.
         -5    1    3    3    0  502 -0.22426677836E+02  0.13933654133E+02 -0.46660030852E+01  0.27135706754E+02  0.41800000000E+01 0. -1.
        -11    1    1    2    0    0  0.10481513949E+03  0.95064982914E+02  0.45854477536E+02  0.14874877329E+03  0.00000000000E+00 0.  1.
         11    1    1    2    0    0 -0.18571823904E+02  0.12224022797E+02  0.10845518924E+02  0.24737919419E+02  0.00000000000E+00 0. -1.
</event>
<event>
 7    1  0.3001243E-009  0.2313372E+03  0.7561462E-02  0.1125702E+00
         -2   -1    0    0    0  501 -0.00000000000E+00  0.00000000000E+00  0.63937528374E+03  0.63937528374E+03  0.00000000000E+00 0. -1.
          2   -1    0    0  501    0  0.00000000000E+00 -0.00000000000E+00 -0.91571876089E+02  0.91571876089E+02  0.00000000000E+00 0.  1.
         25    2    1    2    0    0 -0.15157563835E+03 -0.15316570482E+03  0.26759351455E+03  0.36563283264E+03  0.12508465935E+03 0.  0.
          5    1    3    3  502    0  0.27563195370E+01 -0.72025895917E+02  0.55683106805E+02  0.91177890760E+02  0.41800000000E+01 0. -1.
         -5    1    3    3    0  502 -0.15433195789E+03 -0.81139808898E+02  0.21191040774E+03  0.27445494188E+03  0.41800000000E+01 0. -1.
        -11    1    1    2    0    0  0.12526761257E+02  0.19567910239E+02  0.95524068580E+02  0.98309056229E+02  0.00000000000E+00 0. -1.
         11    1    1    2    0    0  0.13904887710E+03  0.13359779458E+03  0.18468582452E+03  0.26700527096E+03  0.00000000000E+00 0.  1.
</event>
<event>
 7    1  0.3001243E-009  0.1133745E+03  0.7561462E-02  0.1254445E+00
         -2   -1    0    0    0  501 -0.00000000000E+00  0.00000000000E+00  0.42473578590E+02  0.42473578590E+02  0.00000000000E+00 0.  1.
          2   -1    0    0  501    0  0.00000000000E+00 -0.00000000000E+00 -0.44257150180E+03  0.44257150180E+03  0.00000000000E+00 0. -1.
         25    2    1    2    0    0 -0.58774375599E+02  0.60539576132E+02 -0.21622465850E+03  0.26366564428E+03  0.12508797515E+03 0.  0.
          5    1    3    3  502    0  0.30099160474E+02  0.39774457525E+02 -0.12458064146E+03  0.13426010413E+03  0.41800000000E+01 0.  1.
         -5    1    3    3    0  502 -0.88873536073E+02  0.20765118607E+02 -0.91644017033E+02  0.12940554016E+03  0.41800000000E+01 0.  1.
        -11    1    1    2    0    0  0.36866570603E+01 -0.96717222844E+01  0.94555434583E+01  0.14019306485E+02  0.00000000000E+00 0.  1.
         11    1    1    2    0    0  0.55087718538E+02 -0.50867853848E+02 -0.19332880818E+03  0.20736012963E+03  0.00000000000E+00 0. -1.
</event>
<event>
 7    1  0.3001243E-009  0.1403567E+03  0.7561462E-02  0.1212850E+00
          2   -1    0    0  501    0  0.00000000000E+00  0.00000000000E+00  0.77790689201E+03  0.77790689201E+03  0.00000000000E+00 0. -1.
         -2   -1    0    0    0  501 -0.00000000000E+00 -0.00000000000E+00 -0.32457677821E+02  0.32457677821E+02  0.00000000000E+00 0.  1.
         25    2    1    2    0    0 -0.53786146858E+02 -0.99807430359E+02  0.46300124465E+03  0.49282038403E+03  0.12508919066E+03 0.  0.
          5    1    3    3  502    0 -0.57177097050E+02 -0.13904403833E+02  0.32401287612E+03  0.32933929186E+03  0.41800000000E+01 0.  1.
         -5    1    3    3    0  502  0.33909501925E+01 -0.85903026526E+02  0.13898836853E+03  0.16348109217E+03  0.41800000000E+01 0.  1.
        -11    1    1    2    0    0  0.30639902057E+02 -0.25145621082E+01  0.25281375477E+02  0.39802946708E+02  0.00000000000E+00 0.  1.
         11    1    1    2    0    0  0.23146244801E+02  0.10232199247E+03  0.25716659406E+03  0.27774123909E+03  0.00000000000E+00 0. -1.
</event>
<event>
 7    1  0.3001243E-009  0.1322914E+03  0.7561462E-02  0.1224095E+00
         -1   -1    0    0    0  501 -0.00000000000E+00  0.00000000000E+00  0.59068335556E+03  0.59068335556E+03  0.00000000000E+00 0.  1.
          1   -1    0    0  501    0  0.00000000000E+00 -0.00000000000E+00 -0.33868754423E+02  0.33868754423E+02  0.00000000000E+00 0. -1.
         25    2    1    2    0    0 -0.76512364310E+02 -0.82220447627E+01  0.33304602576E+03  0.36399192811E+03  0.12509486218E+03 0.  0.
          5    1    3    3  502    0 -0.44891255952E+02  0.57757552698E+02  0.15463082404E+03  0.17111202149E+03  0.41800000000E+01 0. -1.
         -5    1    3    3    0  502 -0.31621108358E+02 -0.65979597460E+02  0.17841520171E+03  0.19287990662E+03  0.41800000000E+01 0. -1.
        -11    1    1    2    0    0 -0.89962885171E+01  0.28719689430E+02  0.14171003250E+02  0.33265163477E+02  0.00000000000E+00 0. -1.
         11    1    1    2    0    0  0.85508652827E+02 -0.20497644667E+02  0.20959757213E+03  0.22729501840E+03  0.00000000000E+00 0.  1.
</event>
<event>
 7    1  0.3001243E-009  0.1001883E+03  0.7561462E-02  0.1279901E+00
         -1   -1    0    0    0  501 -0.00000000000E+00  0.00000000000E+00  0.20670126111E+03  0.20670126111E+03  0.00000000000E+00 0.  1.
          1   -1    0    0  501    0  0.00000000000E+00 -0.00000000000E+00 -0.87865448604E+02  0.87865448604E+02  0.00000000000E+00 0. -1.
         25    2    1    2    0    0 -0.36289696635E+02 -0.91939767893E+01 -0.26309372677E+02  0.13319524559E+03  0.12508924441E+03 0.  0.
          5    1    3    3  502    0  0.25169648690E+02 -0.49911695243E+02 -0.18066610554E+02  0.58894510390E+02  0.41800000000E+01 0. -1.
         -5    1    3    3    0  502 -0.61459345325E+02  0.40717718454E+02 -0.82427621238E+01  0.74300735200E+02  0.41800000000E+01 0. -1.
        -11    1    1    2    0    0 -0.16793460442E+02  0.23342635148E+01  0.37413946202E+02  0.41076422314E+02  0.00000000000E+00 0.  1.
         11    1    1    2    0    0  0.53083157077E+02  0.68597132744E+01  0.10773123898E+03  0.12029504181E+03  0.00000000000E+00 0. -1.
</event>
<event>
 7    1  0.3001243E-009  0.1110244E+03  0.7561462E-02  0.1258685E+00
          1   -1    0    0  501    0  0.00000000000E+00  0.00000000000E+00  0.31431645770E+03  0.31431645770E+03  0.00000000000E+00 0. -1.
         -1   -1    0    0    0  501 -0.00000000000E+00 -0.00000000000E+00 -0.61089848324E+02  0.61089848324E+02  0.00000000000E+00 0.  1.
         25    2    1    2    0    0  0.58295015707E+02 -0.49045586564E+02  0.19737260252E+03  0.24577747116E+03  0.12508734022E+03 0.  0.
          5    1    3    3  502    0  0.50259346420E+02  0.31707587677E+02  0.11800328394E+03  0.13218782258E+03  0.41800000000E+01 0. -1.
         -5    1    3    3    0  502  0.80356692877E+01 -0.80753174242E+02  0.79369318586E+02  0.11358964858E+03  0.41800000000E+01 0. -1.
        -11    1    1    2    0    0 -0.82562242084E+01  0.23757457695E+02 -0.22185387840E+02  0.33537642552E+02  0.00000000000E+00 0.  1.
         11    1    1    2    0    0 -0.50038791499E+02  0.25288128869E+02  0.78039394690E+02  0.96091192312E+02  0.00000000000E+00 0. -1.
</event>
<event>
 7    1  0.3001243E-009  0.1099580E+03  0.7561462E-02  0.1260648E+00
          3   -1    0    0  501    0  0.00000000000E+00  0.00000000000E+00  0.31157926504E+03  0.31157926504E+03  0.00000000000E+00 0. -1.
         -3   -1    0    0    0  501 -0.00000000000E+00 -0.00000000000E+00 -0.50381999857E+02  0.50381999857E+02  0.00000000000E+00 0.  1.
         25    2    1    2    0    0 -0.54708123397E+02  0.31035184991E+02  0.13446549828E+03  0.19412707709E+03  0.12509272704E+03 0.  0.
          5    1    3    3  502    0 -0.46124677133E+02  0.71190112497E+02  0.46186127299E+02  0.96675481446E+02  0.41800000000E+01 0. -1.
         -5    1    3    3    0  502 -0.85834462640E+01 -0.40154927506E+02  0.88279370985E+02  0.97451595648E+02  0.41800000000E+01 0. -1.
        -11    1    1    2    0    0  0.23069182849E+02 -0.51225285352E+02  0.29169203102E+02  0.63301338583E+02  0.00000000000E+00 0.  1.
         11    1    1    2    0    0  0.31638940548E+02  0.20190100361E+02  0.97562563798E+02  0.10453284922E+03  0.00000000000E+00 0. -1.
</event>
<event>
 7    1  0.3001243E-009  0.1217664E+03  0.7561462E-02  0.1240211E+00
          3   -1    0    0  501    0  0.00000000000E+00  0.00000000000E+00  0.67634279812E+03  0.67634279812E+03  0.00000000000E+00 0. -1.
         -3   -1    0    0    0  501 -0.00000000000E+00 -0.00000000000E+00 -0.26990087205E+02  0.26990087205E+02  0.00000000000E+00 0.  1.
         25    2    1    2    0    0  0.28517835128E+02 -0.47538148535E+02  0.21226901946E+03  0.25254379148E+03  0.12508831882E+03 0.  0.
          5    1    3    3  502    0  0.54115417892E+02  0.23161399390E+02  0.11759719170E+03  0.13157317648E+03  0.41800000000E+01 0.  1.
         -5    1    3    3    0  502 -0.25597582764E+02 -0.70699547925E+02  0.94671827766E+02  0.12097061500E+03  0.41800000000E+01 0.  1.
        -11    1    1    2    0    0  0.11941708149E+02  0.64314780771E+02  0.22983290343E+03  0.23896058026E+03  0.00000000000E+00 0.  1.
         11    1    1    2    0    0 -0.40459543276E+02 -0.16776632236E+02  0.20725078803E+03  0.21182851359E+03  0.00000000000E+00 0. -1.
</event>
<event>
 7    1  0.3001243E-009  0.3331068E+03  0.7561462E-02  0.1069770E+00
         -2   -1    0    0    0  501 -0.00000000000E+00  0.00000000000E+00  0.21914495484E+03  0.21914495484E+03  0.00000000000E+00 0.  1.
          2   -1    0    0  501    0  0.00000000000E+00 -0.00000000000E+00 -0.53110599886E+03  0.53110599886E+03  0.00000000000E+00 0. -1.
         25    2    1    2    0    0  0.30930176492E+03 -0.90854957920E+02 -0.13272970740E+03  0.37038071616E+03  0.12506995850E+03 0.  0.
          5    1    3    3  502    0  0.60838283493E+02 -0.59867599212E+02 -0.74278779792E+02  0.11322647968E+03  0.41800000000E+01 0. -1.
         -5    1    3    3    0  502  0.24846348142E+03 -0.30987358707E+02 -0.58450927610E+02  0.25715423648E+03  0.41800000000E+01 0. -1.
        -11    1    1    2    0    0 -0.17406044984E+03  0.88048349438E+02 -0.13624735891E+03  0.23793464407E+03  0.00000000000E+00 0.  1.
         11    1    1    2    0    0 -0.13524131507E+03  0.28066084820E+01 -0.42983977706E+02  0.14193559347E+03  0.00000000000E+00 0. -1.
</event>
<event>
 7    1  0.3001243E-009  0.2825940E+03  0.7561462E-02  0.1094281E+00
         -1   -1    0    0    0  501 -0.00000000000E+00  0.00000000000E+00  0.10102691033E+03  0.10102691033E+03  0.00000000000E+00 0.  1.
          1   -1    0    0  501    0  0.00000000000E+00 -0.00000000000E+00 -0.87475820700E+03  0.87475820700E+03  0.00000000000E+00 0. -1.
         25    2    1    2    0    0 -0.16121995468E+03 -0.21459062429E+03 -0.29255510944E+03  0.41626536694E+03  0.12508938337E+03 0.  0.
          5    1    3    3  502    0 -0.13238363778E+02 -0.11485805167E+03 -0.92286592335E+02  0.14799295197E+03  0.41800000000E+01 0.  1.
         -5    1    3    3    0  502 -0.14798159090E+03 -0.99732572625E+02 -0.20026851711E+03  0.26827241497E+03  0.41800000000E+01 0.  1.
        -11    1    1    2    0    0  0.11928099327E+03  0.12909711999E+03 -0.38956331501E+03  0.42737992249E+03  0.00000000000E+00 0. -1.
         11    1    1    2    0    0  0.41938961410E+02  0.85493504306E+02 -0.91612872222E+02  0.13213982791E+03  0.00000000000E+00 0.  1.
</event>
<event>
 7    1  0.3001243E-009  0.1470713E+03  0.7561462E-02  0.1204119E+00
          1   -1    0    0  501    0  0.00000000000E+00  0.00000000000E+00  0.21874220982E+03  0.21874220982E+03  0.00000000000E+00 0. -1.
         -1   -1    0    0    0  501 -0.00000000000E+00 -0.00000000000E+00 -0.15723651260E+03  0.15723651260E+03  0.00000000000E+00 0.  1.
         25    2    1    2    0    0 -0.78497883064E+02  0.11382714635E+03 -0.29749294448E+02  0.18881374797E+03  0.12508826488E+03 0.  0.
          5    1    3    3  502    0 -0.56193843013E+02  0.37577572668E+02 -0.71904578157E+02  0.98780376190E+02  0.41800000000E+01 0.  1.
         -5    1    3    3    0  502 -0.22304040051E+02  0.76249573686E+02  0.42155283709E+02  0.90033371782E+02  0.41800000000E+01 0.  1.
        -11    1    1    2    0    0  0.12038752037E+02 -0.60395844368E+02 -0.92481118925E+00  0.61590947738E+02  0.00000000000E+00 0.  1.
         11    1    1    2    0    0  0.66459131027E+02 -0.53431301985E+02  0.92179802858E+02  0.12557402671E+03  0.00000000000E+00 0. -1.
</event>
<event>
 7    1  0.3001243E-009  0.1545465E+03  0.7561462E-02  0.1194995E+00
          2   -1    0    0  501    0  0.00000000000E+00  0.00000000000E+00  0.47579118738E+03  0.47579118738E+03  0.00000000000E+00 0. -1.
         -2   -1    0    0    0  501 -0.00000000000E+00 -0.00000000000E+00 -0.77961969566E+02  0.77961969566E+02  0.00000000000E+00 0.  1.
         25    2    1    2    0    0  0.36357612674E+02  0.11409109779E+03  0.36194309833E+03  0.40123532574E+03  0.12509326759E+03 0.  0.
          5    1    3    3  502    0 -0.30689157429E+02 -0.31966400057E+00  0.13362282254E+03  0.13716580358E+03  0.41800000000E+01 0.  1.
         -5    1    3    3    0  502  0.67046770103E+02  0.11441076179E+03  0.22832027579E+03  0.26406952216E+03  0.41800000000E+01 0.  1.
        -11    1    1    2    0    0 -0.41169424473E+02 -0.11507158118E+02 -0.26488765201E+01  0.42829344452E+02  0.00000000000E+00 0.  1.
         11    1    1    2    0    0  0.48118117988E+01 -0.10258393967E+03  0.38534996006E+02  0.10968848676E+03  0.00000000000E+00 0. -1.
</event>
<event>
 7    1  0.3001243E-009  0.1025134E+03  0.7561462E-02  0.1275098E+00
          2   -1    0    0  501    0  0.00000000000E+00  0.00000000000E+00  0.10664612958E+04  0.10664612958E+04  0.00000000000E+00 0. -1.
         -2   -1    0    0    0  501 -0.00000000000E+00 -0.00000000000E+00 -0.59013136664E+02  0.59013136664E+02  0.00000000000E+00 0.  1.
         25    2    1    2    0    0  0.37792247697E+02 -0.54013916522E+02  0.10049712890E+04  0.10148699033E+04  0.12509145354E+03 0.  0.
          5    1    3    3  502    0 -0.37345669518E+02 -0.51530787296E+02  0.37087195083E+03  0.37631582133E+03  0.41800000000E+01 0.  1.
         -5    1    3    3    0  502  0.75137917216E+02 -0.24831292254E+01  0.63409933820E+03  0.63855408200E+03  0.41800000000E+01 0.  1.
        -11    1    1    2    0    0 -0.14696091511E+02  0.19284951359E+02 -0.42709464642E+02  0.49111941772E+02  0.00000000000E+00 0.  1.
         11    1    1    2    0    0 -0.23096156186E+02  0.34728965163E+02  0.45186334731E+02  0.61492587344E+02  0.00000000000E+00 0. -1.
</event>
<event>
 7    1  0.3001243E-009  0.1250982E+03  0.7561462E-02  0.1234916E+00
         -1   -1    0    0    0  501 -0.00000000000E+00  0.00000000000E+00  0.14032272323E+03  0.14032272323E+03  0.00000000000E+00 0.  1.
          1   -1    0    0  501    0  0.00000000000E+00 -0.00000000000E+00 -0.13079530424E+03  0.13079530424E+03  0.00000000000E+00 0. -1.
         25    2    1    2    0    0 -0.65989620258E+02  0.41437632247E+02  0.24402503748E+02  0.14937774205E+03  0.12508605151E+03 0.  0.
          5    1    3    3  502    0 -0.39828209816E+02  0.77847667656E+02 -0.15865032959E+02  0.88970317115E+02  0.41800000000E+01 0.  1.
         -5    1    3    3    0  502 -0.26161410442E+02 -0.36410035409E+02  0.40267536707E+02  0.60407424935E+02  0.41800000000E+01 0.  1.
        -11    1    1    2    0    0  0.82212961063E+02 -0.10752111812E+02  0.24442158384E+01  0.82949099249E+02  0.00000000000E+00 0.  1.
         11    1    1    2    0    0 -0.16223340805E+02 -0.30685520435E+02 -0.17319300603E+02  0.38791186172E+02  0.00000000000E+00 0. -1.
</event>
<event>
 7    1  0.3001243E-009  0.8073562E+02  0.7561462E-02  0.1326977E+00
         -1   -1    0    0    0  501 -0.00000000000E+00  0.00000000000E+00  0.28198904339E+03  0.28198904339E+03  0.00000000000E+00 0.  1.
          1   -1    0    0  501    0  0.00000000000E+00 -0.00000000000E+00 -0.59378271766E+02  0.59378271766E+02  0.00000000000E+00 0. -1.
         25    2    1    2    0    0  0.63401852379E+02 -0.11458593109E+02  0.14537467042E+03  0.20231264100E+03  0.12508203574E+03 0.  0.
          5    1    3    3  502    0  0.25263146027E+02  0.12860957380E+02  0.15351250130E+03  0.15616398826E+03  0.41800000000E+01 0. -1.
         -5    1    3    3    0  502  0.38138706352E+02 -0.24319550489E+02 -0.81378308824E+01  0.46148652739E+02  0.41800000000E+01 0. -1.
        -11    1    1    2    0    0 -0.73876450221E+02  0.30169171031E+01  0.15081008671E+02  0.75460377077E+02  0.00000000000E+00 0. -1.
         11    1    1    2    0    0  0.10474597843E+02  0.84416760060E+01  0.62155092528E+02  0.63594297079E+02  0.00000000000E+00 0.  1.
</event>
<event>
 7    1  0.3001243E-009  0.6246345E+02  0.7561462E-02  0.1387775E+00
         -4   -1    0    0    0  501 -0.00000000000E+00  0.00000000000E+00  0.77746610987E+02  0.77746610987E+02  0.00000000000E+00 0.  1.
          4   -1    0    0  501    0  0.00000000000E+00 -0.00000000000E+00 -0.17438316638E+03  0.17438316638E+03  0.00000000000E+00 0. -1.
         25    2    1    2    0    0  0.98369472516E+00 -0.17862791678E+02 -0.20970025308E+02  0.12809063177E+03  0.12508965186E+03 0.  0.
          5    1    3    3  502    0  0.22573923227E+02  0.18440815075E-01 -0.68780154712E+02  0.72510443607E+02  0.41800000000E+01 0.  1.
         -5    1    3    3    0  502 -0.21590228502E+02 -0.17881232493E+02  0.47810129403E+02  0.55580188159E+02  0.41800000000E+01 0.  1.
        -11    1    1    2    0    0 -0.83617379601E+01  0.44863055961E+02 -0.25029588564E+01  0.45704236728E+02  0.00000000000E+00 0.  1.
         11    1    1    2    0    0  0.73780432349E+01 -0.27000264283E+02 -0.73163571228E+02  0.78334908873E+02  0.00000000000E+00 0. -1.
</event>
<event>
 7    1  0.3001243E-009  0.7523860E+02  0.7561462E-02  0.1343134E+00
         -1   -1    0    0    0  501 -0.00000000000E+00  0.00000000000E+00  0.46882852675E+03  0.46882852675E+03  0.00000000000E+00 0.  1.
          1   -1    0    0  501    0  0.00000000000E+00 -0.00000000000E+00 -0.24732606216E+02  0.24732606216E+02  0.00000000000E+00 0. -1.
         25    2    1    2    0    0  0.18061765858E+02  0.21912497434E+02  0.23660537507E+03  0.26913618708E+03  0.12508316733E+03 0.  0.
          5    1    3    3  502    0 -0.38309591241E+02  0.24373376862E+02  0.29186361677E+02  0.54138732795E+02  0.41800000000E+01 0. -1.
         -5    1    3    3    0  502  0.56371357099E+02 -0.24608794273E+01  0.20741901340E+03  0.21499745428E+03  0.41800000000E+01 0. -1.
        -11    1    1    2    0    0 -0.12348929685E+02 -0.33323791054E+02  0.20860911299E+03  0.21161458631E+03  0.00000000000E+00 0.  1.
         11    1    1    2    0    0 -0.57128361730E+01  0.11411293620E+02 -0.11185675365E+01  0.12810359579E+02  0.00000000000E+00 0. -1.
</event>
<event>
 7    1  0.3001243E-009  0.1197165E+03  0.7561462E-02  0.1243565E+00
          2   -1    0    0  501    0  0.00000000000E+00  0.00000000000E+00  0.38238113249E+03  0.38238113249E+03  0.00000000000E+00 0. -1.
         -2   -1    0    0    0  501 -0.00000000000E+00 -0.00000000000E+00 -0.47560121132E+02  0.47560121132E+02  0.00000000000E+00 0.  1.
         25    2    1    2    0    0 -0.71786387757E+02 -0.40373480691E+02  0.16484659106E+03  0.22272235623E+03  0.12509015137E+03 0.  0.
          5    1    3    3  502    0 -0.95155283969E+01  0.41649593901E+02  0.27405826185E+02  0.50929222080E+02  0.41800000000E+01 0.  1.
         -5    1    3    3    0  502 -0.62270859360E+02 -0.82023074593E+02  0.13744076487E+03  0.17179313415E+03  0.41800000000E+01 0.  1.
        -11    1    1    2    0    0  0.11853122129E+01  0.19891258075E+02 -0.21611001664E+01  0.20043389603E+02  0.00000000000E+00 0.  1.
         11    1    1    2    0    0  0.70601075544E+02  0.20482222616E+02  0.17213552047E+03  0.18717550780E+03  0.00000000000E+00 0. -1.
</event>
<event>
 7    1  0.3001243E-009  0.1033030E+03  0.7561462E-02  0.1273500E+00
          2   -1    0    0  501    0  0.00000000000E+00  0.00000000000E+00  0.31832393143E+03  0.31832393143E+03  0.00000000000E+00 0. -1.
         -2   -1    0    0    0  501 -0.00000000000E+00 -0.00000000000E+00 -0.50862584859E+02  0.50862584859E+02  0.00000000000E+00 0.  1.
         25    2    1    2    0    0  0.49412153097E+02 -0.21182164192E+02  0.20617113591E+03  0.24707006458E+03  0.12508730782E+03 0.  0.
          5    1    3    3  502    0  0.42647520015E+01  0.50258713228E+02  0.63599532295E+02  0.81280374465E+02  0.41800000000E+01 0.  1.
         -5    1    3    3    0  502  0.45147401095E+02 -0.71440877420E+02  0.14257160361E+03  0.16578969012E+03  0.41800000000E+01 0.  1.
        -11    1    1    2    0    0 -0.31521235361E+02  0.36214881237E+02 -0.82855963693E+01  0.48721217235E+02  0.00000000000E+00 0.  1.
         11    1    1    2    0    0 -0.17890917736E+02 -0.15032717045E+02  0.69575807031E+02  0.73395234472E+02  0.00000000000E+00 0. -1.
</event>
<event>
 7    1  0.3001243E-009  0.1565687E+03  0.7561462E-02  0.1192626E+00
         -1   -1    0    0    0  501 -0.00000000000E+00  0.00000000000E+00  0.73413527186E+02  0.73413527186E+02  0.00000000000E+00 0.  1.
          1   -1    0    0  501    0  0.00000000000E+00 -0.00000000000E+00 -0.38256827674E+03  0.38256827674E+03  0.00000000000E+00 0. -1.
         25    2    1    2    0    0  0.11360551507E+03 -0.59732620922E+01 -0.87845736397E+02  0.19054140940E+03  0.12508901782E+03 0.  0.
          5    1    3    3  502    0  0.13995118136E+03 -0.60641275774E+01 -0.61486969731E+02  0.15303995117E+03  0.41800000000E+01 0. -1.
         -5    1    3    3    0  502 -0.26345666294E+02  0.90865485174E-01 -0.26358766666E+02  0.37501458227E+02  0.41800000000E+01 0. -1.
        -11    1    1    2    0    0 -0.32935848761E+02 -0.41293592213E+02 -0.72601606206E+02  0.89782649299E+02  0.00000000000E+00 0.  1.
         11    1    1    2    0    0 -0.80669666305E+02  0.47266854305E+02 -0.14870740695E+03  0.17565774523E+03  0.00000000000E+00 0. -1.
</event>
<event>
 7    1  0.3001243E-009  0.2692728E+03  0.7561462E-02  0.1101696E+00
         -2   -1    0    0    0  501 -0.00000000000E+00  0.00000000000E+00  0.58381982413E+02  0.58381982413E+02  0.00000000000E+00 0.  1.
          2   -1    0    0  501    0  0.00000000000E+00 -0.00000000000E+00 -0.13801036833E+04  0.13801036833E+04  0.00000000000E+00 0. -1.
         25    2    1    2    0    0 -0.25374630851E+03  0.76563799736E+00 -0.50526660639E+03  0.57907658777E+03  0.12509027014E+03 0.  0.
          5    1    3    3  502    0 -0.19352087429E+03 -0.53127724572E+02 -0.38381052710E+03  0.43312916898E+03  0.41800000000E+01 0.  1.
         -5    1    3    3    0  502 -0.60225434220E+02  0.53893362569E+02 -0.12145607929E+03  0.14594741880E+03  0.41800000000E+01 0.  1.
        -11    1    1    2    0    0  0.13076524362E+03  0.19641292316E+02 -0.29534880048E+03  0.32359889253E+03  0.00000000000E+00 0.  1.
         11    1    1    2    0    0  0.12298106489E+03 -0.20406930314E+02 -0.52110629400E+03  0.53581018540E+03  0.00000000000E+00 0. -1.
</event>
<event>
 7    1  0.3001243E-009  0.1279340E+03  0.7561462E-02  0.1230554E+00
         -2   -1    0    0    0  501 -0.00000000000E+00  0.00000000000E+00  0.39391462037E+03  0.39391462037E+03  0.00000000000E+00 0.  1.
          2   -1    0    0  501    0  0.00000000000E+00 -0.00000000000E+00 -0.70090184291E+02  0.70090184291E+02  0.00000000000E+00 0. -1.
         25    2    1    2    0    0 -0.10330807592E+03  0.32177367879E+01  0.25538155422E+03  0.30257197933E+03  0.12508857685E+03 0.  0.
          5    1    3    3  502    0 -0.10507168940E+03 -0.35933386699E+02  0.23069922505E+03  0.25606810233E+03  0.41800000000E+01 0. -1.
         -5    1    3    3    0  502  0.17636134730E+01  0.39151123487E+02  0.24682329167E+02  0.46503876998E+02  0.41800000000E+01 0. -1.
        -11    1    1    2    0    0  0.80498238294E+02  0.60143475039E+01 -0.80084635601E+01  0.81118889495E+02  0.00000000000E+00 0. -1.
         11    1    1    2    0    0  0.22809837629E+02 -0.92320842918E+01  0.76451345422E+02  0.80313935838E+02  0.00000000000E+00 0.  1.
</event>
<event>
 7    1  0.3001243E-009  0.1435945E+03  0.7561462E-02  0.1208573E+00
         -1   -1    0    0    0  501 -0.00000000000E+00  0.00000000000E+00  0.56792483349E+03  0.56792483349E+03  0.00000000000E+00 0.  1.
          1   -1    0    0  501    0  0.00000000000E+00 -0.00000000000E+00 -0.44798972475E+02  0.44798972475E+02  0.00000000000E+00 0. -1.
         25    2    1    2    0    0  0.62966574801E+02 -0.92083473178E+02  0.34156336454E+03  0.38047163669E+03  0.12509587822E+03 0.  0.
          5    1    3    3  502    0 -0.33182572676E+02 -0.13995947054E+02  0.13310473260E+03  0.13795402097E+03  0.41800000000E+01 0. -1.
         -5    1    3    3    0  502  0.96149147476E+02 -0.78087526124E+02  0.20845863195E+03  0.24251761571E+03  0.41800000000E+01 0. -1.
        -11    1    1    2    0    0  0.10701595257E+02  0.25678992841E+02  0.10013730930E+03  0.10392985869E+03  0.00000000000E+00 0.  1.
         11    1    1    2    0    0 -0.73668170058E+02  0.66404480338E+02  0.81425187175E+02  0.12832231059E+03  0.00000000000E+00 0. -1.
</event>
<event>
 7    1  0.3001243E-009  0.1076817E+03  0.7561462E-02  0.1264924E+00
         -1   -1    0    0    0  501 -0.00000000000E+00  0.00000000000E+00  0.12178769625E+03  0.12178769625E+03  0.00000000000E+00 0.  1.
          1   -1    0    0  501    0  0.00000000000E+00 -0.00000000000E+00 -0.11064194207E+03  0.11064194207E+03  0.00000000000E+00 0. -1.
         25    2    1    2    0    0  0.20154005968E+02  0.37736575749E+02  0.35888660037E+01  0.13224887230E+03  0.12508657466E+03 0.  0.
          5    1    3    3  502    0 -0.12577366952E+02  0.71852732265E+02 -0.24541095156E+02  0.77076215818E+02  0.41800000000E+01 0.  1.
         -5    1    3    3    0  502  0.32731372920E+02 -0.34116156516E+02  0.28129961160E+02  0.55172656484E+02  0.41800000000E+01 0.  1.
        -11    1    1    2    0    0 -0.38878190795E+02  0.12808623600E+02  0.18919000733E+02  0.45094380434E+02  0.00000000000E+00 0.  1.
         11    1    1    2    0    0  0.18724184827E+02 -0.50545199349E+02 -0.11362112556E+02  0.55086385582E+02  0.00000000000E+00 0. -1.
</event>
<event>
 7    1  0.3001243E-009  0.6566279E+02  0.7561462E-02  0.1375496E+00
          3   -1    0    0  501    0  0.00000000000E+00  0.00000000000E+00  0.13518008659E+03  0.13518008659E+03  0.00000000000E+00 0. -1.
         -3   -1    0    0    0  501 -0.00000000000E+00 -0.00000000000E+00 -0.12159289680E+03  0.12159289680E+03  0.00000000000E+00 0.  1.
         25    2    1    2    0    0 -0.37819803429E+02 -0.23525326401E+02 -0.44578552302E+02  0.14006506279E+03  0.12508875240E+03 0.  0.
          5    1    3    3  502    0 -0.37244013811E+02 -0.42126066355E+02 -0.81151833893E+02  0.98817076336E+02  0.41800000000E+01 0. -1.
         -5    1    3    3    0  502 -0.57578961734E+00  0.18600739954E+02  0.36573281592E+02  0.41247986459E+02  0.41800000000E+01 0. -1.
        -11    1    1    2    0    0  0.97950086412E+00  0.18685382666E+02  0.73991884353E+02  0.76321044918E+02  0.00000000000E+00 0. -1.
         11    1    1    2    0    0  0.36840302565E+02  0.48399437348E+01 -0.15826142253E+02  0.40386875678E+02  0.00000000000E+00 0.  1.
</event>
<event>
 7    1  0.3001243E-009  0.2133304E+03  0.7561462E-02  0.1138956E+00
         -2   -1    0    0    0  501 -0.00000000000E+00  0.00000000000E+00  0.64576631971E+02  0.64576631971E+02  0.00000000000E+00 0. -1.
          2   -1    0    0  501    0  0.00000000000E+00 -0.00000000000E+00 -0.11047977550E+04  0.11047977550E+04  0.00000000000E+00 0.  1.
         25    2    1    2    0    0 -0.18037155171E+03  0.98274413923E+02 -0.82036511413E+03  0.85489065400E+03  0.12508937890E+03 0.  0.
          5    1    3    3  502    0 -0.15347983819E+03  0.43304320569E+02 -0.40956421545E+03  0.43953571401E+03  0.41800000000E+01 0.  1.
         -5    1    3    3    0  502 -0.26891713526E+02  0.54970093354E+02 -0.41080089868E+03  0.41535493999E+03  0.41800000000E+01 0.  1.
        -11    1    1    2    0    0  0.46292328307E+02 -0.19042006493E+02 -0.67118564440E+01  0.50503729449E+02  0.00000000000E+00 0. -1.
         11    1    1    2    0    0  0.13407922340E+03 -0.79232407430E+02 -0.21314415247E+03  0.26398000354E+03  0.00000000000E+00 0.  1.
</event>
<event>
 7    1  0.3174506E-009  0.2533715E+03  0.7561462E-02  0.1111192E+00
          2   -1    0    0  501    0  0.00000000000E+00  0.00000000000E+00  0.10756495095E+04  0.10756495095E+04  0.00000000000E+00 0. -1.
         -2   -1    0    0    0  501 -0.00000000000E+00 -0.00000000000E+00 -0.67606886898E+02  0.67606886898E+02  0.00000000000E+00 0.  1.
         25    2    1    2    0    0  0.19519919333E+03 -0.14537882451E+03  0.43432801942E+03  0.51334612913E+03  0.12508274119E+03 0.  0.
          5    1    3    3  502    0  0.14692000144E+03 -0.67407194273E+02  0.36200148969E+03  0.39647417016E+03  0.41800000000E+01 0.  1.
         -5    1    3    3    0  502  0.48279191896E+02 -0.77971630236E+02  0.72326529734E+02  0.11687195898E+03  0.41800000000E+01 0.  1.
        -11    1    1    2    0    0 -0.97597098076E+02  0.29974124388E+02  0.16374022727E+03  0.19296244120E+03  0.00000000000E+00 0.  1.
         11    1    1    2    0    0 -0.97602095259E+02  0.11540470012E+03  0.40997437594E+03  0.43694782610E+03  0.00000000000E+00 0. -1.
</event>
<event>
 7    1  0.3001243E-009  0.1056507E+03  0.7561462E-02  0.1268843E+00
          3   -1    0    0  501    0  0.00000000000E+00  0.00000000000E+00  0.40762657804E+03  0.40762657804E+03  0.00000000000E+00 0. -1.
         -3   -1    0    0    0  501 -0.00000000000E+00 -0.00000000000E+00 -0.35751791396E+02  0.35751791396E+02  0.00000000000E+00 0.  1.
         25    2    1    2    0    0  0.28140848037E+02  0.27344396727E+02  0.27927179754E+03  0.30851180237E+03  0.12508865631E+03 0.  0.
          5    1    3    3  502    0  0.11277713054E+02 -0.45222202814E+02  0.55322998335E+02  0.72459236705E+02  0.41800000000E+01 0.  1.
         -5    1    3    3    0  502  0.16863134984E+02  0.72566599541E+02  0.22394879920E+03  0.23605256566E+03  0.41800000000E+01 0.  1.
        -11    1    1    2    0    0  0.19168255577E+01 -0.51372559374E+02  0.25200648132E+02  0.57252831748E+02  0.00000000000E+00 0.  1.
         11    1    1    2    0    0 -0.30057673595E+02  0.24028162647E+02  0.67402340975E+02  0.77613735325E+02  0.00000000000E+00 0. -1.
</event>
<event>
 7    1  0.3001243E-009  0.1410377E+03  0.7561462E-02  0.1211939E+00
          2   -1    0    0  501    0  0.00000000000E+00  0.00000000000E+00  0.10946291578E+03  0.10946291578E+03  0.00000000000E+00 0. -1.
         -2   -1    0    0    0  501 -0.00000000000E+00 -0.00000000000E+00 -0.24589603448E+03  0.24589603448E+03  0.00000000000E+00 0.  1.
         25    2    1    2    0    0 -0.13800690609E+02  0.11684360130E+03 -0.11413870464E+03  0.20620068625E+03  0.12509273714E+03 0.  0.
          5    1    3    3  502    0 -0.43491618978E+02  0.49109882049E+02 -0.11461422954E+03  0.13212568051E+03  0.41800000000E+01 0.  1.
         -5    1    3    3    0  502  0.29690928369E+02  0.67733719256E+02  0.47552489749E+00  0.74075005742E+02  0.41800000000E+01 0.  1.
        -11    1    1    2    0    0  0.44400371364E+02 -0.40797859510E+02 -0.29007401991E+02  0.66912537600E+02  0.00000000000E+00 0. -1.
         11    1    1    2    0    0 -0.30599680755E+02 -0.76045741794E+02  0.67129879338E+01  0.82245726420E+02  0.00000000000E+00 0.  1.
</event>
<event>
 7    1  0.3001243E-009  0.1079670E+03  0.7561462E-02  0.1264382E+00
          1   -1    0    0  501    0  0.00000000000E+00  0.00000000000E+00  0.23888233503E+03  0.23888233503E+03  0.00000000000E+00 0. -1.
         -1   -1    0    0    0  501 -0.00000000000E+00 -0.00000000000E+00 -0.52438702880E+02  0.52438702880E+02  0.00000000000E+00 0.  1.
         25    2    1    2    0    0  0.23646334075E+02  0.14807393993E+02  0.79717450804E+02  0.15093986766E+03  0.12509821603E+03 0.  0.
          5    1    3    3  502    0 -0.25133168404E+02 -0.44321288185E+02  0.26995823857E+02  0.57812625317E+02  0.41800000000E+01 0.  1.
         -5    1    3    3    0  502  0.48779502479E+02  0.59128682177E+02  0.52721626947E+02  0.93127242341E+02  0.41800000000E+01 0.  1.
        -11    1    1    2    0    0  0.12780561435E+02 -0.41151207199E+02  0.34026400917E+02  0.54905014014E+02  0.00000000000E+00 0.  1.
         11    1    1    2    0    0 -0.36426895510E+02  0.26343813206E+02  0.72699780428E+02  0.85476156237E+02  0.00000000000E+00 0. -1.
</event>
<event>
 7    1  0.3001243E-009  0.1456963E+03  0.7561462E-02  0.1205863E+00
          4   -1    0    0  501    0  0.00000000000E+00  0.00000000000E+00  0.52549975991E+03  0.52549975991E+03  0.00000000000E+00 0. -1.
         -4   -1    0    0    0  501 -0.00000000000E+00 -0.00000000000E+00 -0.56425667993E+02  0.56425667993E+02  0.00000000000E+00 0.  1.
         25    2    1    2    0    0 -0.34581545276E+02 -0.12471153477E+03  0.19645967560E+03  0.26644327356E+03  0.12508702454E+03 0.  0.
          5    1    3    3  502    0 -0.36823566933E+02 -0.68287528663E+02  0.18743563649E+02  0.79924684740E+02  0.41800000000E+01 0.  1.
         -5    1    3    3    0  502  0.22420216578E+01 -0.56424006109E+02  0.17771611195E+03  0.18651858882E+03  0.41800000000E+01 0.  1.
        -11    1    1    2    0    0  0.61697422108E+02  0.56455331926E+02  0.16795536192E+03  0.18762403896E+03  0.00000000000E+00 0. -1.
         11    1    1    2    0    0 -0.27115876832E+02  0.68256202846E+02  0.10465905439E+03  0.12785811538E+03  0.00000000000E+00 0.  1.
</event>
<event>
 6    1  0.3001243E-009  0.7719579E+02  0.7561462E-02  0.1337203E+00
          1   -1    0    0  501    0  0.00000000000E+00  0.00000000000E+00  0.31763744293E+03  0.31763744293E+03  0.00000000000E+00 0. -1.
         -1   -1    0    0    0  501 -0.00000000000E+00 -0.00000000000E+00 -0.51935288746E+02  0.51935288746E+02  0.00000000000E+00 0.  1.
          5    1    1    2  502    0 -0.24019300148E+02  0.65881340214E+02  0.66718631351E+02  0.96882020712E+02  0.41800000000E+01 0. -1.
         -5    1    1    2    0  502  0.11034517393E+02 -0.36004243600E+02  0.15753524585E+03  0.16202744279E+03  0.41800000000E+01 0. -1.
        -11    1    1    2    0    0 -0.11005657285E+02 -0.66256962922E+01  0.67240450394E+02  0.68456573919E+02  0.00000000000E+00 0. -1.
         11    1    1    2    0    0  0.23990440040E+02 -0.23251400321E+02 -0.25792173415E+02  0.42206694252E+02  0.00000000000E+00 0.  1.
</event>
<event>
 7    1  0.3001243E-009  0.9019384E+02  0.7561462E-02  0.1302383E+00
          1   -1    0    0  501    0  0.00000000000E+00  0.00000000000E+00  0.31007177332E+03  0.31007177332E+03  0.00000000000E+00 0. -1.
         -1   -1    0    0    0  501 -0.00000000000E+00 -0.00000000000E+00 -0.57834774555E+02  0.57834774555E+02  0.00000000000E+00 0.  1.
         25    2    1    2    0    0  0.37077798842E+02 -0.23938995042E+02  0.47297425239E+02  0.14082468702E+03  0.12508679942E+03 0.  0.
          5    1    3    3  502    0  0.58123794129E+02 -0.35035973107E+02  0.76878192891E+02  0.10263344386E+03  0.41800000000E+01 0. -1.
         -5    1    3    3    0  502 -0.21045995287E+02  0.11096978064E+02 -0.29580767652E+02  0.38191243167E+02  0.41800000000E+01 0. -1.
        -11    1    1    2    0    0 -0.40479479812E+02 -0.19312564302E+02  0.54876707842E+02  0.70873242408E+02  0.00000000000E+00 0.  1.
         11    1    1    2    0    0  0.34016809699E+01  0.43251559344E+02  0.15006286568E+03  0.15620861844E+03  0.00000000000E+00 0. -1.
</event>
<event>
 7    1  0.3001243E-009  0.9987652E+02  0.7561462E-02  0.1280556E+00
          2   -1    0    0  501    0  0.00000000000E+00  0.00000000000E+00  0.43303430230E+02  0.43303430230E+02  0.00000000000E+00 0. -1.
         -2   -1    0    0    0  501 -0.00000000000E+00 -0.00000000000E+00 -0.29461007456E+03  0.29461007456E+03  0.00000000000E+00 0.  1.
         25    2    1    2    0    0 -0.73197194101E+01  0.10527273043E+01 -0.18906353637E+03  0.22681887293E+03  0.12508834401E+03 0.  0.
          5    1    3    3  502    0 -0.50579018754E+02 -0.25814270302E+02 -0.40937781148E+02  0.70128368117E+02  0.41800000000E+01 0. -1.
         -5    1    3    3    0  502  0.43259299344E+02  0.26866997607E+02 -0.14812575522E+03  0.15669050481E+03  0.41800000000E+01 0. -1.
        -11    1    1    2    0    0  0.48224835243E+02  0.10205431181E+02 -0.37918516210E+02  0.62190026784E+02  0.00000000000E+00 0.  1.
         11    1    1    2    0    0 -0.40905115833E+02 -0.11258158485E+02 -0.24324591757E+02  0.48904605079E+02  0.00000000000E+00 0. -1.
</event>
<event>
 7    1  0.3247171E-009  0.9436048E+02  0.7561462E-02  0.1292623E+00
         -2   -1    0    0    0  501 -0.00000000000E+00  0.00000000000E+00  0.57960172964E+02  0.57960172964E+02  0.00000000000E+00 0.  1.
          2   -1    0    0  501    0  0.00000000000E+00 -0.00000000000E+00 -0.28801038968E+03  0.28801038968E+03  0.00000000000E+00 0. -1.
         25    2    1    2    0    0 -0.57869121530E+02 -0.86918579963E+01 -0.17945743823E+03  0.22644487433E+03  0.12509166779E+03 0.  0.
          5    1    3    3  502    0 -0.91952209118E+02 -0.15670949532E+02 -0.16273385183E+03  0.18761813972E+03  0.41800000000E+01 0. -1.
         -5    1    3    3    0  502  0.34083087587E+02  0.69790915362E+01 -0.16723586403E+02  0.38826734608E+02  0.41800000000E+01 0. -1.
        -11    1    1    2    0    0  0.40363864999E+02  0.12768252268E+02  0.19898965062E+02  0.46778613427E+02  0.00000000000E+00 0.  1.
         11    1    1    2    0    0  0.17505256531E+02 -0.40763942719E+01 -0.70491743552E+02  0.72747074893E+02  0.00000000000E+00 0. -1.
</event>
<event>
 7    1  0.3001243E-009  0.1375505E+03  0.7561462E-02  0.1216663E+00
          2   -1    0    0  501    0  0.00000000000E+00  0.00000000000E+00  0.51845777050E+03  0.51845777050E+03  0.00000000000E+00 0. -1.
         -2   -1    0    0    0  501 -0.00000000000E+00 -0.00000000000E+00 -0.50852768058E+02  0.50852768058E+02  0.00000000000E+00 0.  1.
         25    2    1    2    0    0 -0.89246714662E+02 -0.27382725114E+02  0.38439465303E+03  0.41487525086E+03  0.12508970694E+03 0.  0.
          5    1    3    3  502    0 -0.11881435889E+03 -0.30889729332E+02  0.27058815574E+03  0.29716401142E+03  0.41800000000E+01 0. -1.
         -5    1    3    3    0  502  0.29567644231E+02  0.35070042177E+01  0.11380649729E+03  0.11771123943E+03  0.41800000000E+01 0. -1.
        -11    1    1    2    0    0  0.19498560142E+02  0.46039785861E+02  0.88238665297E+01  0.50771215765E+02  0.00000000000E+00 0.  1.
         11    1    1    2    0    0  0.69748154520E+02 -0.18657060747E+02  0.74386482881E+02  0.10366407193E+03  0.00000000000E+00 0. -1.
</event>
<event>
 7    1  0.3001243E-009  0.1024767E+03  0.7561462E-02  0.1275172E+00
          2   -1    0    0  501    0  0.00000000000E+00  0.00000000000E+00  0.29771251714E+03  0.29771251714E+03  0.00000000000E+00 0. -1.
         -2   -1    0    0    0  501 -0.00000000000E+00 -0.00000000000E+00 -0.55117888066E+02  0.55117888066E+02  0.00000000000E+00 0.  1.
         25    2    1    2    0    0 -0.31133757542E+01  0.53911396650E+02  0.19727593294E+03  0.23975430967E+03  0.12509277953E+03 0.  0.
          5    1    3    3  502    0  0.34113998086E+02  0.54071101592E+02  0.19139480945E+03  0.20183382863E+03  0.41800000000E+01 0. -1.
         -5    1    3    3    0  502 -0.37227373840E+02 -0.15970494128E+00  0.58811234838E+01  0.37920481038E+02  0.41800000000E+01 0. -1.
        -11    1    1    2    0    0 -0.11230036222E+02  0.22781701195E+02  0.14000949495E+02  0.29002520747E+02  0.00000000000E+00 0. -1.
         11    1    1    2    0    0  0.14343411977E+02 -0.76693097846E+02  0.31317746644E+02  0.84073574797E+02  0.00000000000E+00 0.  1.
</event>
<event>
 7    1  0.3001243E-009  0.1088061E+03  0.7561462E-02  0.1262797E+00
          1   -1    0    0  501    0  0.00000000000E+00  0.00000000000E+00  0.77548266048E+02  0.77548266048E+02  0.00000000000E+00 0. -1.
         -1   -1    0    0    0  501 -0.00000000000E+00 -0.00000000000E+00 -0.27498007326E+03  0.27498007326E+03  0.00000000000E+00 0.  1.
         25    2    1    2    0    0  0.65982654644E+02 -0.61901320736E+01 -0.20095318599E+02  0.14299250339E+03  0.12510397974E+03 0.  0.
          5    1    3    3  502    0 -0.44294197866E+01 -0.33607238144E+02  0.35367749608E+02  0.49167228188E+02  0.41800000000E+01 0.  1.
         -5    1    3    3    0  502  0.70412074431E+02  0.27417106071E+02 -0.55463068208E+02  0.93825275198E+02  0.41800000000E+01 0.  1.
        -11    1    1    2    0    0 -0.16090108928E+02 -0.37915242699E+02 -0.95676674292E+02  0.10416565287E+03  0.00000000000E+00 0.  1.
         11    1    1    2    0    0 -0.49892545716E+02  0.44105374773E+02 -0.81659814322E+02  0.10537018305E+03  0.00000000000E+00 0. -1.
</event>
<event>
 7    1  0.3001243E-009  0.1686747E+03  0.7561462E-02  0.1179237E+00
         -2   -1    0    0    0  501 -0.00000000000E+00  0.00000000000E+00  0.16800361568E+03  0.16800361568E+03  0.00000000000E+00 0.  1.
          2   -1    0    0  501    0  0.00000000000E+00 -0.00000000000E+00 -0.20355116452E+03  0.20355116452E+03  0.00000000000E+00 0. -1.
         25    2    1    2    0    0  0.83806098440E+02 -0.12267933019E+03 -0.32684734253E+02  0.19695086882E+03  0.12509065786E+03 0.  0.
          5    1    3    3  502    0  0.50498285160E+02  0.84660810492E+01 -0.33938558439E+02  0.61571498937E+02  0.41800000000E+01 0. -1.
         -5    1    3    3    0  502  0.33307813280E+02 -0.13114541124E+03  0.12538241854E+01  0.13537936988E+03  0.41800000000E+01 0. -1.
        -11    1    1    2    0    0 -0.11853208382E+02  0.36271204853E+02  0.39053995848E+02  0.54601405129E+02  0.00000000000E+00 0.  1.
         11    1    1    2    0    0 -0.71952890058E+02  0.86408125335E+02 -0.41916810432E+02  0.12000250626E+03  0.00000000000E+00 0. -1.
</event>
<event>
 7    1  0.3001243E-009  0.8376637E+02  0.7561462E-02  0.1318691E+00
          2   -1    0    0  501    0  0.00000000000E+00  0.00000000000E+00  0.65486710776E+02  0.65486710776E+02  0.00000000000E+00 0. -1.
         -2   -1    0    0    0  501 -0.00000000000E+00 -0.00000000000E+00 -0.31883329684E+03  0.31883329684E+03  0.00000000000E+00 0.  1.
         25    2    1    2    0    0  0.45032765575E+02 -0.53530111915E+02 -0.51654463142E+02  0.15234846744E+03  0.12509376128E+03 0.  0.
          5    1    3    3  502    0  0.26503725585E+02 -0.15059224709E+02  0.40402369151E+02  0.50784363260E+02  0.41800000000E+01 0.  1.
         -5    1    3    3    0  502  0.18529039990E+02 -0.38470887206E+02 -0.92056832293E+02  0.10156410418E+03  0.41800000000E+01 0.  1.
        -11    1    1    2    0    0 -0.23411989558E+02  0.65210212733E+02 -0.19433976797E+03  0.20632120229E+03  0.00000000000E+00 0.  1.
         11    1    1    2    0    0 -0.21620776017E+02 -0.11680100817E+02 -0.73523549548E+01  0.25650337894E+02  0.00000000000E+00 0. -1.
</event>
<event>
 7    1  0.3001243E-009  0.1099623E+03  0.7561462E-02  0.1260640E+00
          2   -1    0    0  501    0  0.00000000000E+00  0.00000000000E+00  0.24234394156E+03  0.24234394156E+03  0.00000000000E+00 0. -1.
         -2   -1    0    0    0  501 -0.00000000000E+00 -0.00000000000E+00 -0.66575493235E+02  0.66575493235E+02  0.00000000000E+00 0.  1.
         25    2    1    2    0    0 -0.68136640205E+01  0.13735331015E+02  0.17148220430E+03  0.21281104941E+03  0.12508921226E+03 0.  0.
          5    1    3    3  502    0  0.29791930203E+02  0.59857420855E+02  0.91758120903E+02  0.11361115741E+03  0.41800000000E+01 0. -1.
         -5    1    3    3    0  502 -0.36605594223E+02 -0.46122089840E+02  0.79724083400E+02  0.99199892004E+02  0.41800000000E+01 0. -1.
        -11    1    1    2    0    0 -0.19243026683E+02 -0.47500907959E+02 -0.76515755748E+01  0.51818692975E+02  0.00000000000E+00 0.  1.
         11    1    1    2    0    0  0.26056690703E+02  0.33765576944E+02  0.11937819600E+02  0.44289692407E+02  0.00000000000E+00 0. -1.
</event>
<event>
 7    1  0.4399491E-009  0.1089963E+03  0.7561462E-02  0.1262440E+00
          2   -1    0    0  501    0  0.00000000000E+00  0.00000000000E+00  0.84438725409E+03  0.84438725409E+03  0.00000000000E+00 0. -1.
         -2   -1    0    0    0  501 -0.00000000000E+00 -0.00000000000E+00 -0.18838033187E+02  0.18838033187E+02  0.00000000000E+00 0.  1.
         25    2    1    2    0    0  0.53341295826E+02 -0.31227105850E+02  0.52278048894E+03  0.54108678626E+03  0.12512012097E+03 0.  0.
          5    1    3    3  502    0 -0.35703292730E+02 -0.32161873941E+02  0.23141213481E+03  0.23638561670E+03  0.41800000000E+01 0.  1.
         -5    1    3    3    0  502  0.89044588555E+02  0.93476809049E+00  0.29136835413E+03  0.30470116956E+03  0.41800000000E+01 0.  1.
        -11    1    1    2    0    0 -0.82390143377E+01  0.34422815466E+02  0.32304032431E+02  0.47920372423E+02  0.00000000000E+00 0.  1.
         11    1    1    2    0    0 -0.45102281488E+02 -0.31957096154E+01  0.27046469954E+03  0.27421812860E+03  0.00000000000E+00 0. -1.
</event>
<event>
 7    1  0.3001243E-009  0.1048613E+03  0.7561462E-02  0.1270393E+00
          2   -1    0    0  501    0  0.00000000000E+00  0.00000000000E+00  0.18344481517E+04  0.18344481517E+04  0.00000000000E+00 0. -1.
         -2   -1    0    0    0  501 -0.00000000000E+00 -0.00000000000E+00 -0.11422017507E+02  0.11422017507E+02  0.00000000000E+00 0.  1.
         25    2    1    2    0    0  0.29027153576E+02 -0.50121708829E+02  0.14872535757E+04  0.14936281913E+04  0.12508882401E+03 0.  0.
          5    1    3    3  502    0 -0.48357582620E+02 -0.16523284361E+02  0.44104644761E+03  0.44401679706E+03  0.41800000000E+01 0.  1.
         -5    1    3    3    0  502  0.77384736195E+02 -0.33598424468E+02  0.10462071281E+04  0.10496113942E+04  0.41800000000E+01 0.  1.
        -11    1    1    2    0    0  0.12691300279E+02  0.12186872134E+02  0.74412199493E+01  0.19103944868E+02  0.00000000000E+00 0. -1.
         11    1    1    2    0    0 -0.41718453855E+02  0.37934836694E+02  0.32833133852E+03  0.33313803307E+03  0.00000000000E+00 0.  1.
</event>
<event>
 7    1  0.3644729E-009  0.1998995E+03  0.7561462E-02  0.1149824E+00
         -2   -1    0    0    0  501 -0.00000000000E+00  0.00000000000E+00  0.38374197821E+02  0.38374197821E+02  0.00000000000E+00 0.  1.
          2   -1    0    0  501    0  0.00000000000E+00 -0.00000000000E+00 -0.11756082637E+04  0.11756082637E+04  0.00000000000E+00 0. -1.
         25    2    1    2    0    0  0.46301730479E+00  0.17707343119E+03 -0.46729229673E+03  0.51513539380E+03  0.12508864431E+03 0.  0.
          5    1    3    3  502    0 -0.47908662386E+02  0.15480084456E+03 -0.37430510284E+03  0.40789744278E+03  0.41800000000E+01 0.  1.
         -5    1    3    3    0  502  0.48371679691E+02  0.22272586631E+02 -0.92987193890E+02  0.10723795102E+03  0.41800000000E+01 0.  1.
        -11    1    1    2    0    0 -0.25638059920E+02 -0.80600925026E+02 -0.44251115421E+03  0.45052185389E+03  0.00000000000E+00 0.  1.
         11    1    1    2    0    0  0.25175042615E+02 -0.96472506166E+02 -0.22743061493E+03  0.24832521383E+03  0.00000000000E+00 0. -1.
</event>
<event>
 7    1  0.3001243E-009  0.8736604E+02  0.7561462E-02  0.1309359E+00
          2   -1    0    0  501    0  0.00000000000E+00  0.00000000000E+00  0.35837487461E+03  0.35837487461E+03  0.00000000000E+00 0. -1.
         -2   -1    0    0    0  501 -0.00000000000E+00 -0.00000000000E+00 -0.50375737913E+02  0.50375737913E+02  0.00000000000E+00 0.  1.
         25    2    1    2    0    0 -0.35792806457E+01  0.62392933246E+02  0.93752330489E+02  0.16834044721E+03  0.12507324784E+03 0.  0.
          5    1    3    3  502    0 -0.23122608209E+02  0.31798526745E+02 -0.23179107935E+02  0.45831700364E+02  0.41800000000E+01 0. -1.
         -5    1    3    3    0  502  0.19543327563E+02  0.30594406501E+02  0.11693143842E+03  0.12250874684E+03  0.41800000000E+01 0. -1.
        -11    1    1    2    0    0  0.25752636186E+02  0.62623846561E+01  0.20014958731E+02  0.33211659174E+02  0.00000000000E+00 0.  1.
         11    1    1    2    0    0 -0.22173355540E+02 -0.68655317902E+02  0.19423184748E+03  0.20719850614E+03  0.00000000000E+00 0. -1.
</event>
<event>
 7    1  0.3001243E-009  0.1284825E+03  0.7561462E-02  0.1229725E+00
          1   -1    0    0  501    0  0.00000000000E+00  0.00000000000E+00  0.33736427262E+02  0.33736427262E+02  0.00000000000E+00 0. -1.
         -1   -1    0    0    0  501 -0.00000000000E+00 -0.00000000000E+00 -0.55640470420E+03  0.55640470420E+03  0.00000000000E+00 0.  1.
         25    2    1    2    0    0  0.52105295909E+02  0.54149380538E+01 -0.34699303433E+03  0.37255407126E+03  0.12509231279E+03 0.  0.
          5    1    3    3  502    0 -0.39334430843E+02 -0.51723592229E+01 -0.14765151725E+03  0.15294572140E+03  0.41800000000E+01 0.  1.
         -5    1    3    3    0  502  0.91439726752E+02  0.10587297277E+02 -0.19934151708E+03  0.21960834985E+03  0.41800000000E+01 0.  1.
        -11    1    1    2    0    0  0.29237502636E+02  0.24613399563E+02 -0.32336838865E+02  0.50063181543E+02  0.00000000000E+00 0.  1.
         11    1    1    2    0    0 -0.81342798545E+02 -0.30028337617E+02 -0.14333840373E+03  0.16752387866E+03  0.00000000000E+00 0. -1.
</event>
<event>
 7    1  0.3001243E-009  0.1469633E+03  0.7561462E-02  0.1204255E+00
         -2   -1    0    0    0  501 -0.00000000000E+00  0.00000000000E+00  0.20655023505E+02  0.20655023505E+02  0.00000000000E+00 0.  1.
          2   -1    0    0  501    0  0.00000000000E+00 -0.00000000000E+00 -0.15969206825E+04  0.15969206825E+04  0.00000000000E+00 0. -1.
         25    2    1    2    0    0 -0.38369345606E+02  0.11423620605E+03 -0.11963805931E+04  0.12089233991E+04  0.12508854353E+03 0.  0.
          5    1    3    3  502    0 -0.84044259541E+02  0.80791378161E+02 -0.83599801594E+03  0.84409764803E+03  0.41800000000E+01 0. -1.
         -5    1    3    3    0  502  0.45674913935E+02  0.33444827890E+02 -0.36038257721E+03  0.36482575105E+03  0.41800000000E+01 0. -1.
        -11    1    1    2    0    0  0.13642467870E+02 -0.40905457590E+02 -0.36016488333E+02  0.56183278848E+02  0.00000000000E+00 0.  1.
         11    1    1    2    0    0  0.24726877736E+02 -0.73330748461E+02 -0.34386857747E+03  0.35246902803E+03  0.00000000000E+00 0. -1.
</event>
<event>
 7    1  0.3001243E-009  0.8441274E+02  0.7561462E-02  0.1316975E+00
          2   -1    0    0  501    0  0.00000000000E+00  0.00000000000E+00  0.61242681297E+02  0.61242681297E+02  0.00000000000E+00 0.  1.
         -2   -1    0    0    0  501 -0.00000000000E+00 -0.00000000000E+00 -0.22708406676E+03  0.22708406676E+03  0.00000000000E+00 0. -1.
         25    2    1    2    0    0  0.27402110895E+02  0.14119465354E+02 -0.13844521444E+03  0.18912009100E+03  0.12509634861E+03 0.  0.
          5    1    3    3  502    0  0.23311666193E+02  0.46403112977E+02 -0.57324896718E+01  0.52411988252E+02  0.41800000000E+01 0. -1.
         -5    1    3    3    0  502  0.40904447016E+01 -0.32283647623E+02 -0.13271272477E+03  0.13670810275E+03  0.41800000000E+01 0. -1.
        -11    1    1    2    0    0 -0.51404947982E+02 -0.25468426196E+02  0.46903011243E+01  0.57559606797E+02  0.00000000000E+00 0.  1.
         11    1    1    2    0    0  0.24002837088E+02  0.11348960843E+02 -0.32086472142E+02  0.41647050256E+02  0.00000000000E+00 0. -1.
</event>
<event>
 7    1  0.3001243E-009  0.9807338E+02  0.7561462E-02  0.1284400E+00
         -1   -1    0    0    0  501 -0.00000000000E+00  0.00000000000E+00  0.15372035396E+02  0.15372035396E+02  0.00000000000E+00 0.  1.
          1   -1    0    0  501    0  0.00000000000E+00 -0.00000000000E+00 -0.93894193213E+03  0.93894193213E+03  0.00000000000E+00 0. -1.
         25    2    1    2    0    0 -0.36210245964E+02 -0.14732696815E+02 -0.63995966261E+03  0.65324112284E+03  0.12508941017E+03 0.  0.
          5    1    3    3  502    0  0.24490739817E+02 -0.44029181868E+02 -0.14215863329E+03  0.15088046464E+03  0.41800000000E+01 0.  1.
         -5    1    3    3    0  502 -0.60700985782E+02  0.29296485054E+02 -0.49780102933E+03  0.50236065820E+03  0.41800000000E+01 0.  1.
        -11    1    1    2    0    0  0.28004697677E+02 -0.24969412447E+02 -0.42986041122E+02  0.57057290343E+02  0.00000000000E+00 0.  1.
         11    1    1    2    0    0  0.82055482872E+01  0.39702109261E+02 -0.24062419300E+03  0.24401555434E+03  0.00000000000E+00 0. -1.
</event>
<event>
 7    1  0.3001243E-009  0.8786735E+02  0.7561462E-02  0.1308100E+00
          4   -1    0    0  501    0  0.00000000000E+00  0.00000000000E+00  0.26450956537E+03  0.26450956537E+03  0.00000000000E+00 0. -1.
         -4   -1    0    0    0  501 -0.00000000000E+00 -0.00000000000E+00 -0.88509317838E+02  0.88509317838E+02  0.00000000000E+00 0.  1.
         25    2    1    2    0    0  0.41728461049E+02  0.61100121299E+02  0.18460975515E+03  0.23495161703E+03  0.12508801447E+03 0.  0.
          5    1    3    3  502    0  0.34573986476E+01  0.13250650423E+02 -0.18136952754E+02  0.23107461939E+02  0.41800000000E+01 0. -1.
         -5    1    3    3    0  502  0.38271062402E+02  0.47849470876E+02  0.20274670790E+03  0.21184415509E+03  0.41800000000E+01 0. -1.
        -11    1    1    2    0    0 -0.48183798883E+02 -0.10916097667E+02  0.26899356025E+02  0.56253133403E+02  0.00000000000E+00 0. -1.
         11    1    1    2    0    0  0.64553378334E+01 -0.50184023632E+02 -0.35508863638E+02  0.61814132780E+02  0.00000000000E+00 0.  1.
</event>
<event>
 7    1  0.3001243E-009  0.1703865E+03  0.7561462E-02  0.1177445E+00
         -2   -1    0    0    0  501 -0.00000000000E+00  0.00000000000E+00  0.16459805655E+02  0.16459805655E+02  0.00000000000E+00 0.  1.
          2   -1    0    0  501    0  0.00000000000E+00 -0.00000000000E+00 -0.26615287951E+04  0.26615287951E+04  0.00000000000E+00 0. -1.
         25    2    1    2    0    0 -0.15684582652E+03 -0.38212106808E+02 -0.18720583749E+04  0.18831659773E+04  0.12510300033E+03 0.  0.
          5    1    3    3  502    0 -0.54088048951E+02 -0.13646456996E+02 -0.19740390316E+03  0.20517679257E+03  0.41800000000E+01 0.  1.
         -5    1    3    3    0  502 -0.10275777757E+03 -0.24565649812E+02 -0.16746544717E+04  0.16779891847E+04  0.41800000000E+01 0.  1.
        -11    1    1    2    0    0  0.22606758758E+02 -0.22385641494E+02 -0.75457814531E+02  0.81890562706E+02  0.00000000000E+00 0. -1.
         11    1    1    2    0    0  0.13423906776E+03  0.60597748301E+02 -0.69755280009E+03  0.71293206080E+03  0.00000000000E+00 0.  1.
</event>
<event>
 7    1  0.3001243E-009  0.2035101E+03  0.7561462E-02  0.1146811E+00
          1   -1    0    0  501    0  0.00000000000E+00  0.00000000000E+00  0.36816831567E+03  0.36816831567E+03  0.00000000000E+00 0. -1.
         -1   -1    0    0    0  501 -0.00000000000E+00 -0.00000000000E+00 -0.15175833836E+03  0.15175833836E+03  0.00000000000E+00 0.  1.
         25    2    1    2    0    0  0.13441113218E+03 -0.12754498356E+03  0.21841632842E+03  0.31255253353E+03  0.12509723582E+03 0.  0.
          5    1    3    3  502    0 -0.22976252828E+02 -0.12286318195E+02  0.13662780732E+02  0.29715413276E+02  0.41800000000E+01 0. -1.
         -5    1    3    3    0  502  0.15738738501E+03 -0.11525866536E+03  0.20475354769E+03  0.28283712025E+03  0.41800000000E+01 0. -1.
        -11    1    1    2    0    0 -0.74838776267E+02  0.64878224765E+02 -0.47305501609E+02  0.10976263920E+03  0.00000000000E+00 0.  1.
         11    1    1    2    0    0 -0.59572355914E+02  0.62666758793E+02  0.45299150493E+02  0.97611481303E+02  0.00000000000E+00 0. -1.
</event>
<event>
 7    1  0.3001243E-009  0.3039608E+03  0.7561462E-02  0.1083277E+00
         -2   -1    0    0    0  501 -0.00000000000E+00  0.00000000000E+00  0.78141239058E+02  0.78141239058E+02  0.00000000000E+00 0.  1.
          2   -1    0    0  501    0  0.00000000000E+00 -0.00000000000E+00 -0.12714331405E+04  0.12714331405E+04  0.00000000000E+00 0. -1.
         25    2    1    2    0    0  0.22720115624E+03  0.18497580368E+03 -0.52384760173E+03  0.61310726422E+03  0.12509114382E+03 0.  0.
          5    1    3    3  502    0  0.82989883747E+02  0.13964615656E+03 -0.32426140546E+03  0.36270001560E+03  0.41800000000E+01 0.  1.
         -5    1    3    3    0  502  0.14421127249E+03  0.45329647126E+02 -0.19958619626E+03  0.25040724862E+03  0.41800000000E+01 0.  1.
        -11    1    1    2    0    0 -0.99400744202E+02 -0.98154497494E+02 -0.21427127288E+03  0.25578700457E+03  0.00000000000E+00 0.  1.
         11    1    1    2    0    0 -0.12780041204E+03 -0.86821306190E+02 -0.45517302684E+03  0.48068011076E+03  0.00000000000E+00 0. -1.
</event>
<event>
 7    1  0.3001243E-009  0.1161203E+03  0.7561462E-02  0.1249638E+00
          1   -1    0    0  501    0  0.00000000000E+00  0.00000000000E+00  0.24214904575E+03  0.24214904575E+03  0.00000000000E+00 0. -1.
         -1   -1    0    0    0  501 -0.00000000000E+00 -0.00000000000E+00 -0.78748059563E+02  0.78748059563E+02  0.00000000000E+00 0.  1.
         25    2    1    2    0    0  0.50199442901E+02 -0.84106324542E+00  0.10201487782E+02  0.13517524254E+03  0.12509030493E+03 0.  0.
          5    1    3    3  502    0 -0.32802158034E+02  0.30231492072E+02  0.12171146466E+02  0.46427727609E+02  0.41800000000E+01 0. -1.
         -5    1    3    3    0  502  0.83001600935E+02 -0.31072555318E+02 -0.19696586832E+01  0.88747514934E+02  0.41800000000E+01 0. -1.
        -11    1    1    2    0    0 -0.93572039179E+01 -0.39924033969E+02  0.96369554546E+02  0.10473097344E+03  0.00000000000E+00 0. -1.
         11    1    1    2    0    0 -0.40842238983E+02  0.40765097214E+02  0.56829943855E+02  0.80990889331E+02  0.00000000000E+00 0.  1.
</event>
<event>
 7    1  0.3001243E-009  0.9269000E+02  0.7561462E-02  0.1296465E+00
         -2   -1    0    0    0  501 -0.00000000000E+00  0.00000000000E+00  0.29712009113E+02  0.29712009113E+02  0.00000000000E+00 0.  1.
          2   -1    0    0  501    0  0.00000000000E+00 -0.00000000000E+00 -0.42535600137E+03  0.42535600137E+03  0.00000000000E+00 0. -1.
         25    2    1    2    0    0  0.10768328847E+02  0.46923778055E+01 -0.17055703893E+03  0.21183893843E+03  0.12509219397E+03 0.  0.
          5    1    3    3  502    0 -0.23319425163E+02  0.39612256552E+02 -0.14658793958E+02  0.48428081724E+02  0.41800000000E+01 0. -1.
         -5    1    3    3    0  502  0.34087754010E+02 -0.34919878747E+02 -0.15589824497E+03  0.16341085671E+03  0.41800000000E+01 0. -1.
        -11    1    1    2    0    0 -0.45409880383E+02 -0.23175255573E+02 -0.10200010683E+03  0.11403144962E+03  0.00000000000E+00 0.  1.
         11    1    1    2    0    0  0.34641551536E+02  0.18482877768E+02 -0.12308684650E+03  0.12919762244E+03  0.00000000000E+00 0. -1.
</event>
<event>
 7    1  0.3001243E-009  0.1822487E+03  0.7561462E-02  0.1165644E+00
         -2   -1    0    0    0  501 -0.00000000000E+00  0.00000000000E+00  0.39052219576E+02  0.39052219576E+02  0.00000000000E+00 0.  1.
          2   -1    0    0  501    0  0.00000000000E+00 -0.00000000000E+00 -0.94708317674E+03  0.94708317674E+03  0.00000000000E+00 0. -1.
         25    2    1    2    0    0  0.12788331847E+03 -0.80696284736E+02 -0.35697489050E+03  0.40736334257E+03  0.12509111442E+03 0.  0.
          5    1    3    3  502    0  0.96543327356E+02  0.62492571693E+01 -0.23579166962E+03  0.25490164992E+03  0.41800000000E+01 0.  1.
         -5    1    3    3    0  502  0.31339991114E+02 -0.86945541905E+02 -0.12118322088E+03  0.15246169264E+03  0.41800000000E+01 0.  1.
        -11    1    1    2    0    0 -0.94204452714E+02  0.99129754805E+02 -0.46145087406E+03  0.48128795577E+03  0.00000000000E+00 0. -1.
         11    1    1    2    0    0 -0.33678865756E+02 -0.18433470069E+02 -0.89605192597E+02  0.97484097973E+02  0.00000000000E+00 0.  1.
</event>
<event>
 7    1  0.3001243E-009  0.1011933E+03  0.7561462E-02  0.1277806E+00
          1   -1    0    0  501    0  0.00000000000E+00  0.00000000000E+00  0.97032562268E+03  0.97032562268E+03  0.00000000000E+00 0. -1.
         -1   -1    0    0    0  501 -0.00000000000E+00 -0.00000000000E+00 -0.18329897078E+02  0.18329897078E+02  0.00000000000E+00 0.  1.
         25    2    1    2    0    0  0.27364198215E+02  0.24390326573E+02  0.73823641638E+03  0.74965632731E+03  0.12509162736E+03 0.  0.
          5    1    3    3  502    0  0.99622451455E+01  0.75390949399E+02  0.44884603765E+03  0.45526177030E+03  0.41800000000E+01 0.  1.
         -5    1    3    3    0  502  0.17401953069E+02 -0.51000622826E+02  0.28939037872E+03  0.29439455701E+03  0.41800000000E+01 0.  1.
        -11    1    1    2    0    0 -0.16675391852E+02 -0.45530004569E+02  0.20936544480E+03  0.21490681582E+03  0.00000000000E+00 0. -1.
         11    1    1    2    0    0 -0.10688806362E+02  0.21139677996E+02  0.43938644315E+01  0.24092376634E+02  0.00000000000E+00 0.  1.
</event>
<event>
 7    1  0.3001243E-009  0.2256342E+03  0.7561462E-02  0.1129751E+00
          1   -1    0    0  501    0  0.00000000000E+00  0.00000000000E+00  0.24414643843E+04  0.24414643843E+04  0.00000000000E+00 0. -1.
         -1   -1    0    0    0  501 -0.00000000000E+00 -0.00000000000E+00 -0.22765820410E+02  0.22765820410E+02  0.00000000000E+00 0.  1.
         25    2    1    2    0    0 -0.19547903326E+03 -0.39274530364E+02  0.15821442173E+04  0.15995574209E+04  0.12509627167E+03 0.  0.
          5    1    3    3  502    0 -0.11734826904E+03 -0.82793143816E+02  0.86584981119E+03  0.87768940340E+03  0.41800000000E+01 0. -1.
         -5    1    3    3    0  502 -0.78130764224E+02  0.43518613453E+02  0.71629440609E+03  0.72186801746E+03  0.41800000000E+01 0. -1.
        -11    1    1    2    0    0  0.60917021219E+02  0.55646738825E+02  0.34950444058E+03  0.35911112068E+03  0.00000000000E+00 0. -1.
         11    1    1    2    0    0  0.13456201204E+03 -0.16372208462E+02  0.48704990607E+03  0.50556166320E+03  0.00000000000E+00 0.  1.
</event>
<event>
 7    1  0.3001243E-009  0.9909439E+02  0.7561462E-02  0.1282212E+00
          2   -1    0    0  501    0  0.00000000000E+00  0.00000000000E+00  0.21291603730E+03  0.21291603730E+03  0.00000000000E+00 0. -1.
         -2   -1    0    0    0  501 -0.00000000000E+00 -0.00000000000E+00 -0.92358688175E+02  0.92358688175E+02  0.00000000000E+00 0.  1.
         25    2    1    2    0    0  0.31116824514E+02  0.57335674627E+02  0.13934849203E+03  0.19829625488E+03  0.12509103132E+03 0.  0.
          5    1    3    3  502    0 -0.38256488133E+02 -0.52447593234E+01  0.75966362806E+02  0.85319558499E+02  0.41800000000E+01 0. -1.
         -5    1    3    3    0  502  0.69373312646E+02  0.62580433950E+02  0.63382129224E+02  0.11297669638E+03  0.41800000000E+01 0. -1.
        -11    1    1    2    0    0 -0.28245774695E+02 -0.44759292380E+02 -0.50247582835E+02  0.72979706928E+02  0.00000000000E+00 0.  1.
         11    1    1    2    0    0 -0.28710498187E+01 -0.12576382247E+02  0.31456439934E+02  0.33998763666E+02  0.00000000000E+00 0. -1.
</event>
<event>
 7    1  0.3001243E-009  0.1113827E+03  0.7561462E-02  0.1258031E+00
         -2   -1    0    0    0  501 -0.00000000000E+00  0.00000000000E+00  0.37239627066E+02  0.37239627066E+02  0.00000000000E+00 0.  1.
          2   -1    0    0  501    0  0.00000000000E+00 -0.00000000000E+00 -0.41932175261E+03  0.41932175261E+03  0.00000000000E+00 0. -1.
         25    2    1    2    0    0  0.50443157487E+02  0.23902418431E+02 -0.16342896604E+03  0.21324249128E+03  0.12508994925E+03 0.  0.
          5    1    3    3  502    0  0.36228898078E+02 -0.46934168220E+02 -0.10318414414E+03  0.11907892006E+03  0.41800000000E+01 0. -1.
         -5    1    3    3    0  502  0.14214259409E+02  0.70836586651E+02 -0.60244821899E+02  0.94163571218E+02  0.41800000000E+01 0. -1.
        -11    1    1    2    0    0 -0.46092836860E+02  0.17518399675E+02 -0.52501302742E+02  0.72026597356E+02  0.00000000000E+00 0.  1.
         11    1    1    2    0    0 -0.43503206266E+01 -0.41420818107E+02 -0.16615185677E+03  0.17129229104E+03  0.00000000000E+00 0. -1.
</event>
<event>
 7    1  0.3001243E-009  0.1364524E+03  0.7561462E-02  0.1218184E+00
          1   -1    0    0  501    0  0.00000000000E+00  0.00000000000E+00  0.20439141459E+03  0.20439141459E+03  0.00000000000E+00 0. -1.
         -1   -1    0    0    0  501 -0.00000000000E+00 -0.00000000000E+00 -0.11873859641E+03  0.11873859641E+03  0.00000000000E+00 0.  1.
         25    2    1    2    0    0 -0.11007585360E+03 -0.86890889559E+01  0.23849836768E+02  0.16854881445E+03  0.12509074436E+03 0.  0.
          5    1    3    3  502    0 -0.10578212744E+03  0.40117199206E+02  0.34269775501E+02  0.11828414125E+03  0.41800000000E+01 0.  1.
         -5    1    3    3    0  502 -0.42937261603E+01 -0.48806288162E+02 -0.10419938733E+02  0.50264673198E+02  0.41800000000E+01 0.  1.
        -11    1    1    2    0    0  0.86394718230E+02  0.48503270890E+01 -0.18571896639E+01  0.86550691299E+02  0.00000000000E+00 0.  1.
         11    1    1    2    0    0  0.23681135370E+02  0.38387618669E+01  0.63660171073E+02  0.68030505261E+02  0.00000000000E+00 0. -1.
</event>
<event>
 7    1  0.3001243E-009  0.1041179E+03  0.7561462E-02  0.1271867E+00
         -2   -1    0    0    0  501 -0.00000000000E+00  0.00000000000E+00  0.16794729441E+03  0.16794729441E+03  0.00000000000E+00 0.  1.
          2   -1    0    0  501    0  0.00000000000E+00 -0.00000000000E+00 -0.87867974225E+02  0.87867974225E+02  0.00000000000E+00 0. -1.
         25    2    1    2    0    0  0.24318846525E+02  0.17677690188E+02 -0.38726595999E+01  0.12871005785E+03  0.12508946587E+03 0.  0.
          5    1    3    3  502    0  0.44328748023E+01 -0.47765319203E+02 -0.28428302053E+02  0.55917947523E+02  0.41800000000E+01 0.  1.
         -5    1    3    3    0  502  0.19885971723E+02  0.65443009391E+02  0.24555642453E+02  0.72792110326E+02  0.41800000000E+01 0.  1.
        -11    1    1    2    0    0 -0.16616858770E+02  0.34776034497E+02  0.53590131390E+02  0.66010565466E+02  0.00000000000E+00 0.  1.
         11    1    1    2    0    0 -0.77019877550E+01 -0.52453724685E+02  0.30361848395E+02  0.61094645319E+02  0.00000000000E+00 0. -1.
</event>
<event>
 7    1  0.3001243E-009  0.1101808E+03  0.7561462E-02  0.1260235E+00
         -1   -1    0    0    0  501 -0.00000000000E+00  0.00000000000E+00  0.43258164223E+02  0.43258164223E+02  0.00000000000E+00 0.  1.
          1   -1    0    0  501    0  0.00000000000E+00 -0.00000000000E+00 -0.45418545165E+03  0.45418545165E+03  0.00000000000E+00 0. -1.
         25    2    1    2    0    0 -0.68573006297E+02 -0.37581549426E+02 -0.15599912543E+03  0.21470355516E+03  0.12508900597E+03 0.  0.
          5    1    3    3  502    0 -0.25646780527E+02  0.15684382302E+02  0.12479946672E+02  0.32817353162E+02  0.41800000000E+01 0. -1.
         -5    1    3    3    0  502 -0.42926225770E+02 -0.53265931729E+02 -0.16847907210E+03  0.18188620200E+03  0.41800000000E+01 0. -1.
        -11    1    1    2    0    0 -0.80639814886E+01  0.43844372341E+02 -0.10969851248E+03  0.11841081211E+03  0.00000000000E+00 0.  1.
         11    1    1    2    0    0  0.76636987786E+02 -0.62628229150E+01 -0.14522964951E+03  0.16432924860E+03  0.00000000000E+00 0. -1.
</event>
<event>
 7    1  0.3001243E-009  0.9974616E+02  0.7561462E-02  0.1280831E+00
         -2   -1    0    0    0  501 -0.00000000000E+00  0.00000000000E+00  0.20375726355E+03  0.20375726355E+03  0.00000000000E+00 0.  1.
          2   -1    0    0  501    0  0.00000000000E+00 -0.00000000000E+00 -0.16145677679E+03  0.16145677679E+03  0.00000000000E+00 0. -1.
         25    2    1    2    0    0  0.26680834173E+02 -0.80655014315E+02  0.12379824145E+03  0.19542158329E+03  0.12508593998E+03 0.  0.
          5    1    3    3  502    0  0.34078221767E+02 -0.88508007025E+02  0.14380240597E+03  0.17231249772E+03  0.41800000000E+01 0. -1.
         -5    1    3    3    0  502 -0.73973875935E+01  0.78529927095E+01 -0.20004164519E+02  0.23109085568E+02  0.41800000000E+01 0. -1.
        -11    1    1    2    0    0 -0.31230991641E+02  0.34212640343E+02 -0.10701201114E+03  0.11660810489E+03  0.00000000000E+00 0.  1.
         11    1    1    2    0    0  0.45501574679E+01  0.46442373972E+02  0.25514256445E+02  0.53184352164E+02  0.00000000000E+00 0. -1.
</event>
<event>
 7    1  0.3001243E-009  0.1179980E+03  0.7561462E-02  0.1246437E+00
          4   -1    0    0  501    0  0.00000000000E+00  0.00000000000E+00  0.35428954426E+03  0.35428954426E+03  0.00000000000E+00 0. -1.
         -4   -1    0    0    0  501 -0.00000000000E+00 -0.00000000000E+00 -0.41705101627E+02  0.41705101627E+02  0.00000000000E+00 0.  1.
         25    2    1    2    0    0  0.44477315377E+01  0.52887053771E+02  0.15217563612E+03  0.20401585139E+03  0.12509284799E+03 0.  0.
          5    1    3    3  502    0 -0.58000508553E+02  0.42007541295E+02  0.90401736486E+02  0.11540640744E+03  0.41800000000E+01 0.  1.
         -5    1    3    3    0  502  0.62448240091E+02  0.10879512476E+02  0.61773899631E+02  0.88609443954E+02  0.41800000000E+01 0.  1.
        -11    1    1    2    0    0 -0.35801443129E+02 -0.58785131505E+02  0.80363805653E+02  0.10581009534E+03  0.00000000000E+00 0. -1.
         11    1    1    2    0    0  0.31353711591E+02  0.58980777343E+01  0.80045000867E+02  0.86168699162E+02  0.00000000000E+00 0.  1.
</event>
<event>
 7    1  0.3001243E-009  0.1487898E+03  0.7561462E-02  0.1201968E+00
         -4   -1    0    0    0  501 -0.00000000000E+00  0.00000000000E+00  0.98621033396E+02  0.98621033396E+02  0.00000000000E+00 0.  1.
          4   -1    0    0  501    0  0.00000000000E+00 -0.00000000000E+00 -0.27371920987E+03  0.27371920987E+03  0.00000000000E+00 0. -1.
         25    2    1    2    0    0  0.12128526073E+03  0.19943951870E+02 -0.10136555388E+03  0.20255691022E+03  0.12508577329E+03 0.  0.
          5    1    3    3  502    0  0.13505144978E+03  0.32514076197E+02 -0.11391882754E+03  0.17969705313E+03  0.41800000000E+01 0.  1.
         -5    1    3    3    0  502 -0.13766189048E+02 -0.12570124327E+02  0.12553273656E+02  0.22859857086E+02  0.41800000000E+01 0.  1.
        -11    1    1    2    0    0 -0.74981355881E+02  0.20812259073E+02 -0.75012554143E+02  0.10808439821E+03  0.00000000000E+00 0. -1.
         11    1    1    2    0    0 -0.46303904850E+02 -0.40756210943E+02  0.12799315501E+01  0.61698934833E+02  0.00000000000E+00 0.  1.
</event>
<event>
 7    1  0.3001243E-009  0.1832188E+03  0.7561462E-02  0.1164724E+00
          2   -1    0    0  501    0  0.00000000000E+00  0.00000000000E+00  0.74905311290E+03  0.74905311290E+03  0.00000000000E+00 0.  1.
         -2   -1    0    0    0  501 -0.00000000000E+00 -0.00000000000E+00 -0.10376518511E+03  0.10376518511E+03  0.00000000000E+00 0. -1.
         25    2    1    2    0    0  0.14729660109E+03 -0.33066803624E+02  0.13076828534E+02  0.19650280616E+03  0.12511053989E+03 0.  0.
          5    1    3    3  502    0  0.14806787696E+03  0.98962762351E+01  0.27503631117E+02  0.15098329243E+03  0.41800000000E+01 0. -1.
         -5    1    3    3    0  502 -0.77127587080E+00 -0.42963079859E+02 -0.14426802583E+02  0.45519513730E+02  0.41800000000E+01 0. -1.
        -11    1    1    2    0    0  0.16723642490E+01  0.25596950813E+02  0.12612176152E+03  0.12870392155E+03  0.00000000000E+00 0. -1.
         11    1    1    2    0    0 -0.14896896533E+03  0.74698528106E+01  0.50608933774E+03  0.52761157029E+03  0.00000000000E+00 0.  1.
</event>
<event>
 7    1  0.3001243E-009  0.1269083E+03  0.7561462E-02  0.1232117E+00
         -1   -1    0    0    0  501 -0.00000000000E+00  0.00000000000E+00  0.14205581208E+03  0.14205581208E+03  0.00000000000E+00 0.  1.
          1   -1    0    0  501    0  0.00000000000E+00 -0.00000000000E+00 -0.15441683411E+03  0.15441683411E+03  0.00000000000E+00 0. -1.
         25    2    1    2    0    0 -0.68369055727E+01  0.10110968091E+03 -0.66302630207E+01  0.16112355594E+03  0.12508768540E+03 0.  0.
          5    1    3    3  502    0  0.49585516707E+02  0.20188226449E+02 -0.27305174581E+02  0.60243945033E+02  0.41800000000E+01 0. -1.
         -5    1    3    3    0  502 -0.56422422280E+02  0.80921454464E+02  0.20674911561E+02  0.10087961091E+03  0.41800000000E+01 0. -1.
        -11    1    1    2    0    0  0.40406510013E+01 -0.39858115699E+02  0.41702543908E+02  0.57828180120E+02  0.00000000000E+00 0.  1.
         11    1    1    2    0    0  0.27962545713E+01 -0.61251565213E+02 -0.47433302922E+02  0.77520910126E+02  0.00000000000E+00 0. -1.
</event>
<event>
 7    1  0.3001243E-009  0.2095243E+03  0.7561462E-02  0.1141943E+00
          1   -1    0    0  501    0  0.00000000000E+00  0.00000000000E+00  0.64954362361E+03  0.64954362361E+03  0.00000000000E+00 0. -1.
         -1   -1    0    0    0  501 -0.00000000000E+00 -0.00000000000E+00 -0.75566117600E+02  0.75566117600E+02  0.00000000000E+00 0.  1.
         25    2    1    2    0    0  0.18685362145E+03 -0.13613194070E+01  0.42111779033E+03  0.47739308261E+03  0.12509129845E+03 0.  0.
          5    1    3    3  502    0  0.46550841323E+02  0.56157012896E+02  0.14394383786E+03  0.16142456995E+03  0.41800000000E+01 0. -1.
         -5    1    3    3    0  502  0.14030278013E+03 -0.57518332303E+02  0.27717395248E+03  0.31596851266E+03  0.41800000000E+01 0. -1.
        -11    1    1    2    0    0 -0.56844678202E+02 -0.24224417229E+02  0.58108118123E+02  0.84821537487E+02  0.00000000000E+00 0.  1.
         11    1    1    2    0    0 -0.13000894325E+03  0.25585736636E+02  0.94751597557E+02  0.16289512112E+03  0.00000000000E+00 0. -1.
</event>
<event>
 7    1  0.3001243E-009  0.1440315E+03  0.7561462E-02  0.1208005E+00
          2   -1    0    0  501    0  0.00000000000E+00  0.00000000000E+00  0.58875870124E+03  0.58875870124E+03  0.00000000000E+00 0. -1.
         -2   -1    0    0    0  501 -0.00000000000E+00 -0.00000000000E+00 -0.43244913559E+02  0.43244913559E+02  0.00000000000E+00 0.  1.
         25    2    1    2    0    0 -0.88652298884E+02  0.75125562499E+02  0.28707769828E+03  0.33401559408E+03  0.12509888888E+03 0.  0.
          5    1    3    3  502    0 -0.11891831262E+03  0.47770624549E+02  0.19715905242E+03  0.23518665353E+03  0.41800000000E+01 0. -1.
         -5    1    3    3    0  502  0.30266013733E+02  0.27354937949E+02  0.89918645857E+02  0.98828940550E+02  0.41800000000E+01 0. -1.
        -11    1    1    2    0    0  0.22699316400E+02 -0.34728922698E+02  0.19075371628E+03  0.19521356846E+03  0.00000000000E+00 0. -1.
         11    1    1    2    0    0  0.65952982484E+02 -0.40396639800E+02  0.67682373122E+02  0.10277445226E+03  0.00000000000E+00 0.  1.
</event>
<event>
 7    1  0.3001243E-009  0.9068331E+02  0.7561462E-02  0.1301205E+00
          2   -1    0    0  501    0  0.00000000000E+00  0.00000000000E+00  0.64159756046E+03  0.64159756046E+03  0.00000000000E+00 0. -1.
         -2   -1    0    0    0  501 -0.00000000000E+00 -0.00000000000E+00 -0.21185027082E+02  0.21185027082E+02  0.00000000000E+00 0.  1.
         25    2    1    2    0    0 -0.25337565745E+02 -0.33869114786E+02  0.33255817831E+03  0.35781428357E+03  0.12508801057E+03 0.  0.
          5    1    3    3  502    0 -0.43967061599E+01 -0.59473876136E+02  0.65489489125E+02  0.88672535509E+02  0.41800000000E+01 0.  1.
         -5    1    3    3    0  502 -0.20940859586E+02  0.25604761351E+02  0.26706868919E+03  0.26914174806E+03  0.41800000000E+01 0.  1.
        -11    1    1    2    0    0  0.27815374887E+02 -0.20036781579E+02  0.47183790970E+02  0.58322189829E+02  0.00000000000E+00 0. -1.
         11    1    1    2    0    0 -0.24778091411E+01  0.53905896364E+02  0.24067056409E+03  0.24664611414E+03  0.00000000000E+00 0.  1.
</event>
<event>
 7    1  0.3001243E-009  0.1439199E+03  0.7561462E-02  0.1208150E+00
         -1   -1    0    0    0  501 -0.00000000000E+00  0.00000000000E+00  0.96431059459E+02  0.96431059459E+02  0.00000000000E+00 0.  1.
          1   -1    0    0  501    0  0.00000000000E+00 -0.00000000000E+00 -0.26963669669E+03  0.26963669669E+03  0.00000000000E+00 0. -1.
         25    2    1    2    0    0 -0.10862637700E+03  0.18339848545E+02 -0.14462981003E+03  0.22068428958E+03  0.12509090252E+03 0.  0.
          5    1    3    3  502    0 -0.12251703291E+03 -0.11990876080E+01 -0.67801696738E+02  0.14009426700E+03  0.41800000000E+01 0. -1.
         -5    1    3    3    0  502  0.13890655915E+02  0.19538936153E+02 -0.76828113289E+02  0.80590022579E+02  0.41800000000E+01 0. -1.
        -11    1    1    2    0    0  0.11826854194E+03  0.21255089423E+01 -0.15623390918E+02  0.11931494518E+03  0.00000000000E+00 0. -1.
         11    1    1    2    0    0 -0.96421649381E+01 -0.20465357488E+02 -0.12952436285E+02  0.26068521391E+02  0.00000000000E+00 0.  1.
</event>
<event>
 7    1  0.3001243E-009  0.1237674E+03  0.7561462E-02  0.1237008E+00
         -2   -1    0    0    0  501 -0.00000000000E+00  0.00000000000E+00  0.12662447632E+02  0.12662447632E+02  0.00000000000E+00 0.  1.
          2   -1    0    0  501    0  0.00000000000E+00 -0.00000000000E+00 -0.14181800636E+04  0.14181800636E+04  0.00000000000E+00 0. -1.
         25    2    1    2    0    0 -0.33426220849E+02  0.83823295255E+02 -0.86153942504E+03  0.87523816691E+03  0.12509200948E+03 0.  0.
          5    1    3    3  502    0 -0.19249456206E+02 -0.22598010768E+02 -0.40989215705E+03  0.41098693953E+03  0.41800000000E+01 0.  1.
         -5    1    3    3    0  502 -0.14176764644E+02  0.10642130602E+03 -0.45164726800E+03  0.46425122738E+03  0.41800000000E+01 0.  1.
        -11    1    1    2    0    0  0.41942632797E+02 -0.21351762506E+02 -0.17210927056E+03  0.17842837000E+03  0.00000000000E+00 0.  1.
         11    1    1    2    0    0 -0.85164119477E+01 -0.62471532748E+02 -0.37186892036E+03  0.37717597432E+03  0.00000000000E+00 0. -1.
</event>
<event>
 7    1  0.3001243E-009  0.2669104E+03  0.7561462E-02  0.1103061E+00
          2   -1    0    0  501    0  0.00000000000E+00  0.00000000000E+00  0.10382397423E+03  0.10382397423E+03  0.00000000000E+00 0.  1.
         -2   -1    0    0    0  501 -0.00000000000E+00 -0.00000000000E+00 -0.74570343358E+03  0.74570343358E+03  0.00000000000E+00 0. -1.
         25    2    1    2    0    0  0.20999752178E+03 -0.13076784200E+03 -0.44543767530E+03  0.52465231860E+03  0.12508455212E+03 0.  0.
          5    1    3    3  502    0  0.16704931628E+03 -0.15419107815E+03 -0.35090040533E+03  0.41812549494E+03  0.41800000000E+01 0.  1.
         -5    1    3    3    0  502  0.42948205496E+02  0.23423236151E+02 -0.94537269965E+02  0.10652682366E+03  0.41800000000E+01 0.  1.
        -11    1    1    2    0    0 -0.15848079629E+03  0.59216248569E+02 -0.14486087991E+03  0.22272719056E+03  0.00000000000E+00 0.  1.
         11    1    1    2    0    0 -0.51516725491E+02  0.71551593434E+02 -0.51580904142E+02  0.10214789866E+03  0.00000000000E+00 0. -1.
</event>
<event>
 7    1  0.3001243E-009  0.1315984E+03  0.7561462E-02  0.1225103E+00
         -1   -1    0    0    0  501 -0.00000000000E+00  0.00000000000E+00  0.10790720762E+03  0.10790720762E+03  0.00000000000E+00 0.  1.
          1   -1    0    0  501    0  0.00000000000E+00 -0.00000000000E+00 -0.28816837829E+03  0.28816837829E+03  0.00000000000E+00 0. -1.
         25    2    1    2    0    0 -0.27982902263E+02 -0.11004011330E+03 -0.80736934004E+01  0.16912842630E+03  0.12508945080E+03 0.  0.
          5    1    3    3  502    0 -0.36204008521E+02 -0.91526359466E+02 -0.58534482725E+02  0.11459303111E+03  0.41800000000E+01 0.  1.
         -5    1    3    3    0  502  0.82211062581E+01 -0.18513753837E+02  0.50460789325E+02  0.54535395190E+02  0.41800000000E+01 0.  1.
        -11    1    1    2    0    0  0.59999468369E+02  0.80779986287E+02 -0.14226246263E+03  0.17425254851E+03  0.00000000000E+00 0. -1.
         11    1    1    2    0    0 -0.32016566106E+02  0.29260127017E+02 -0.29925014634E+02  0.52694611101E+02  0.00000000000E+00 0.  1.
</event>
<event>
 7    1  0.3001243E-009  0.2639760E+03  0.7561462E-02  0.1104778E+00
         -2   -1    0    0    0  501 -0.00000000000E+00  0.00000000000E+00  0.30185189106E+02  0.30185189106E+02  0.00000000000E+00 0.  1.
          2   -1    0    0  501    0  0.00000000000E+00 -0.00000000000E+00 -0.30942755051E+04  0.30942755051E+04  0.00000000000E+00 0. -1.
         25    2    1    2    0    0 -0.24013972476E+03  0.16319588986E+02 -0.23483808121E+04  0.23639952457E+04  0.12509063427E+03 0.  0.
          5    1    3    3  502    0 -0.25463113831E+03  0.20765199083E+02 -0.22193999492E+04  0.22340594927E+04  0.41800000000E+01 0.  1.
         -5    1    3    3    0  502  0.14491413545E+02 -0.44456100978E+01 -0.12898086295E+03  0.12993575306E+03  0.41800000000E+01 0.  1.
        -11    1    1    2    0    0  0.19499703595E+03 -0.48913217585E+02 -0.57558420029E+03  0.60968312959E+03  0.00000000000E+00 0.  1.
         11    1    1    2    0    0  0.45142688813E+02  0.32593628599E+02 -0.14012530355E+03  0.15078231883E+03  0.00000000000E+00 0. -1.
</event>
<event>
 7    1  0.3001243E-009  0.1360362E+03  0.7561462E-02  0.1218764E+00
         -2   -1    0    0    0  501 -0.00000000000E+00  0.00000000000E+00  0.85409394373E+02  0.85409394373E+02  0.00000000000E+00 0. -1.
          2   -1    0    0  501    0  0.00000000000E+00 -0.00000000000E+00 -0.38302066016E+03  0.38302066016E+03  0.00000000000E+00 0.  1.
         25    2    1    2    0    0 -0.10550899468E+03  0.60452806963E+02 -0.25743015032E+03  0.31097497989E+03  0.12509382876E+03 0.  0.
          5    1    3    3  502    0 -0.86869879736E+02  0.45235428397E+02 -0.26724228474E+03  0.28465510910E+03  0.41800000000E+01 0. -1.
         -5    1    3    3    0  502 -0.18639114948E+02  0.15217378565E+02  0.98121344133E+01  0.26319870786E+02  0.41800000000E+01 0. -1.
        -11    1    1    2    0    0  0.87457559842E+02 -0.97593198377E+00 -0.90241482734E+01  0.87927313553E+02  0.00000000000E+00 0. -1.
         11    1    1    2    0    0  0.18051434843E+02 -0.59476874979E+02 -0.31156967185E+02  0.69527761084E+02  0.00000000000E+00 0.  1.
</event>
<event>
 7    1  0.3001243E-009  0.1317947E+03  0.7561462E-02  0.1224817E+00
         -1   -1    0    0    0  501 -0.00000000000E+00  0.00000000000E+00  0.47413758237E+02  0.47413758237E+02  0.00000000000E+00 0.  1.
          1   -1    0    0  501    0  0.00000000000E+00 -0.00000000000E+00 -0.52993228580E+03  0.52993228580E+03  0.00000000000E+00 0. -1.
         25    2    1    2    0    0  0.32103462316E+02  0.11040605200E+03 -0.28230559200E+03  0.32948943189E+03  0.12508680921E+03 0.  0.
          5    1    3    3  502    0  0.56231511980E+02  0.10394741814E+03 -0.28013394817E+03  0.30407161985E+03  0.41800000000E+01 0.  1.
         -5    1    3    3    0  502 -0.24128049664E+02  0.64586338628E+01 -0.21716438279E+01  0.25417812039E+02  0.41800000000E+01 0.  1.
        -11    1    1    2    0    0 -0.38544213544E+02 -0.78421851029E+02 -0.19645817006E+03  0.21501501273E+03  0.00000000000E+00 0. -1.
         11    1    1    2    0    0  0.64407512280E+01 -0.31984200974E+02 -0.37547655005E+01  0.32841599417E+02  0.00000000000E+00 0.  1.
</event>
<event>
 7    1  0.3001243E-009  0.1208013E+03  0.7561462E-02  0.1241781E+00
          2   -1    0    0  501    0  0.00000000000E+00  0.00000000000E+00  0.10771089059E+04  0.10771089059E+04  0.00000000000E+00 0. -1.
         -2   -1    0    0    0  501 -0.00000000000E+00 -0.00000000000E+00 -0.23956677497E+02  0.23956677497E+02  0.00000000000E+00 0.  1.
         25    2    1    2    0    0  0.67902755208E+02  0.84883374331E+02  0.72101111202E+03  0.73981106934E+03  0.12508966090E+03 0.  0.
          5    1    3    3  502    0  0.81458589097E+02  0.78354181477E+02  0.33682122159E+03  0.35530393637E+03  0.41800000000E+01 0. -1.
         -5    1    3    3    0  502 -0.13555833889E+02  0.65291928541E+01  0.38418989043E+03  0.38450713297E+03  0.41800000000E+01 0. -1.
        -11    1    1    2    0    0 -0.69465386721E+02 -0.72522043585E+02  0.33389680994E+03  0.34867171731E+03  0.00000000000E+00 0. -1.
         11    1    1    2    0    0  0.15626315131E+01 -0.12361330746E+02 -0.17556935283E+01  0.12582796781E+02  0.00000000000E+00 0.  1.
</event>
<event>
 7    1  0.3001243E-009  0.1174703E+03  0.7561462E-02  0.1247329E+00
         -2   -1    0    0    0  501 -0.00000000000E+00  0.00000000000E+00  0.28600520624E+02  0.28600520624E+02  0.00000000000E+00 0.  1.
          2   -1    0    0  501    0  0.00000000000E+00 -0.00000000000E+00 -0.58267459562E+03  0.58267459562E+03  0.00000000000E+00 0. -1.
         25    2    1    2    0    0 -0.69250316968E+02 -0.32604033222E+01 -0.28307520056E+03  0.31715220171E+03  0.12509082001E+03 0.  0.
          5    1    3    3  502    0 -0.77845758963E+02 -0.51683844352E+02 -0.19153204509E+03  0.21315060087E+03  0.41800000000E+01 0. -1.
         -5    1    3    3    0  502  0.85954419951E+01  0.48423441030E+02 -0.91543155470E+02  0.10400160084E+03  0.41800000000E+01 0. -1.
        -11    1    1    2    0    0  0.37075748899E+02  0.31948350221E+02 -0.22815874174E+03  0.23334892259E+03  0.00000000000E+00 0.  1.
         11    1    1    2    0    0  0.32174568069E+02 -0.28687946899E+02 -0.42840132693E+02  0.60773991944E+02  0.00000000000E+00 0. -1.
</event>
<event>
 7    1  0.3001243E-009  0.1195455E+03  0.7561462E-02  0.1243849E+00
          2   -1    0    0  501    0  0.00000000000E+00  0.00000000000E+00  0.24213039759E+03  0.24213039759E+03  0.00000000000E+00 0. -1.
         -2   -1    0    0    0  501 -0.00000000000E+00 -0.00000000000E+00 -0.78902391999E+02  0.78902391999E+02  0.00000000000E+00 0.  1.
         25    2    1    2    0    0  0.66396368992E+02 -0.56686770414E+02  0.10761243834E+03  0.18667967106E+03  0.12508794885E+03 0.  0.
          5    1    3    3  502    0 -0.23250474060E+02  0.21967590012E+02  0.14748644050E+02  0.35470473020E+02  0.41800000000E+01 0. -1.
         -5    1    3    3    0  502  0.89646843052E+02 -0.78654360426E+02  0.92863794286E+02  0.15120919804E+03  0.41800000000E+01 0. -1.
        -11    1    1    2    0    0 -0.78167648558E+01  0.93247755074E+01 -0.22658037983E+02  0.25718474611E+02  0.00000000000E+00 0.  1.
         11    1    1    2    0    0 -0.58579604136E+02  0.47361994906E+02  0.78273605238E+02  0.10863464392E+03  0.00000000000E+00 0. -1.
</event>
<event>
 7    1  0.3001243E-009  0.9439557E+02  0.7561462E-02  0.1292543E+00
         -2   -1    0    0    0  501 -0.00000000000E+00  0.00000000000E+00  0.54615090475E+02  0.54615090475E+02  0.00000000000E+00 0. -1.
          2   -1    0    0  501    0  0.00000000000E+00 -0.00000000000E+00 -0.27661684953E+03  0.27661684953E+03  0.00000000000E+00 0.  1.
         25    2    1    2    0    0 -0.32340184997E+02 -0.21814375162E+02 -0.18511761915E+03  0.22679806419E+03  0.12508826671E+03 0.  0.
          5    1    3    3  502    0  0.28905393190E+02  0.46610343411E+01  0.42492040516E+00  0.29578707780E+02  0.41800000000E+01 0.  1.
         -5    1    3    3    0  502 -0.61245578187E+02 -0.26475409504E+02 -0.18554253956E+03  0.19721935641E+03  0.41800000000E+01 0.  1.
        -11    1    1    2    0    0 -0.28703751133E+02  0.71647639426E+01  0.34973881732E+01  0.29790449736E+02  0.00000000000E+00 0. -1.
         11    1    1    2    0    0  0.61043936130E+02  0.14649611220E+02 -0.40381528069E+02  0.74643426076E+02  0.00000000000E+00 0.  1.
</event>
<event>
 7    1  0.3001243E-009  0.9798480E+02  0.7561462E-02  0.1284592E+00
          1   -1    0    0  501    0  0.00000000000E+00  0.00000000000E+00  0.75762422346E+02  0.75762422346E+02  0.00000000000E+00 0. -1.
         -1   -1    0    0    0  501 -0.00000000000E+00 -0.00000000000E+00 -0.24749475904E+03  0.24749475904E+03  0.00000000000E+00 0.  1.
         25    2    1    2    0    0 -0.30105333192E+02 -0.70463584295E+02 -0.52816141654E+02  0.15590936566E+03  0.12508692051E+03 0.  0.
          5    1    3    3  502    0  0.16991090506E+01 -0.84256080536E+02 -0.76357208113E+02  0.11379749430E+03  0.41800000000E+01 0.  1.
         -5    1    3    3    0  502 -0.31804442242E+02  0.13792496241E+02  0.23541066460E+02  0.42111871354E+02  0.41800000000E+01 0.  1.
        -11    1    1    2    0    0  0.18201492111E+02  0.45972681166E+02 -0.12912377738E+03  0.13826688545E+03  0.00000000000E+00 0.  1.
         11    1    1    2    0    0  0.11903841081E+02  0.24490903129E+02  0.10207582337E+02  0.29080930276E+02  0.00000000000E+00 0. -1.
</event>
<event>
 7    1  0.3001243E-009  0.7533451E+02  0.7561462E-02  0.1342838E+00
          2   -1    0    0  501    0  0.00000000000E+00  0.00000000000E+00  0.75290824921E+02  0.75290824921E+02  0.00000000000E+00 0. -1.
         -2   -1    0    0    0  501 -0.00000000000E+00 -0.00000000000E+00 -0.16639071699E+03  0.16639071699E+03  0.00000000000E+00 0.  1.
         25    2    1    2    0    0  0.24039516051E+01  0.27743922132E+02 -0.55463786556E+02  0.13965124844E+03  0.12510289914E+03 0.  0.
          5    1    3    3  502    0 -0.95568254093E+01  0.53363755902E+02  0.20793259664E+02  0.58213876381E+02  0.41800000000E+01 0.  1.
         -5    1    3    3    0  502  0.11960777014E+02 -0.25619833770E+02 -0.76257046220E+02  0.81437372056E+02  0.41800000000E+01 0.  1.
        -11    1    1    2    0    0 -0.19596984493E+02  0.12982340656E+02 -0.50245227682E+02  0.55472208131E+02  0.00000000000E+00 0.  1.
         11    1    1    2    0    0  0.17193032888E+02 -0.40726262788E+02  0.14609122166E+02  0.46558085345E+02  0.00000000000E+00 0. -1.
</event>
<event>
 7    1  0.3001243E-009  0.1345753E+03  0.7561462E-02  0.1220821E+00
         -2   -1    0    0    0  501 -0.00000000000E+00  0.00000000000E+00  0.51943299027E+02  0.51943299027E+02  0.00000000000E+00 0.  1.
          2   -1    0    0  501    0  0.00000000000E+00 -0.00000000000E+00 -0.42207570752E+03  0.42207570752E+03  0.00000000000E+00 0. -1.
         25    2    1    2    0    0 -0.37674855590E+02  0.88964459224E+02 -0.23103822779E+03  0.27992626004E+03  0.12508388631E+03 0.  0.
          5    1    3    3  502    0 -0.70571589916E+02  0.90508048323E+02 -0.12945022339E+03  0.17305169416E+03  0.41800000000E+01 0.  1.
         -5    1    3    3    0  502  0.32896734326E+02 -0.15435890988E+01 -0.10158800439E+03  0.10687456589E+03  0.41800000000E+01 0.  1.
        -11    1    1    2    0    0  0.56206616199E+02 -0.40663250657E+02 -0.34666824284E+02  0.77553029370E+02  0.00000000000E+00 0.  1.
         11    1    1    2    0    0 -0.18531760609E+02 -0.48301208567E+02 -0.10442735642E+03  0.11653971713E+03  0.00000000000E+00 0. -1.
</event>
<event>
 7    1  0.3001243E-009  0.1072832E+03  0.7561462E-02  0.1265685E+00
         -3   -1    0    0    0  501 -0.00000000000E+00  0.00000000000E+00  0.12042283088E+03  0.12042283088E+03  0.00000000000E+00 0.  1.
          3   -1    0    0  501    0  0.00000000000E+00 -0.00000000000E+00 -0.18259753451E+03  0.18259753451E+03  0.00000000000E+00 0. -1.
         25    2    1    2    0    0  0.78518293504E+02 -0.34829159592E+02  0.22697538421E+02  0.15343055220E+03  0.12509022074E+03 0.  0.
          5    1    3    3  502    0  0.57577811606E+01  0.55235281044E+01 -0.45119962275E+02  0.46010268444E+02  0.41800000000E+01 0.  1.
         -5    1    3    3    0  502  0.72760512343E+02 -0.40352687696E+02  0.67817500696E+02  0.10742028375E+03  0.41800000000E+01 0.  1.
        -11    1    1    2    0    0  0.23932161502E+01  0.41034127289E+02 -0.20073627090E+02  0.45743607099E+02  0.00000000000E+00 0. -1.
         11    1    1    2    0    0 -0.80911509654E+02 -0.62049676972E+01 -0.64798614962E+02  0.10384620609E+03  0.00000000000E+00 0.  1.
</event>
<event>
 7    1  0.3001243E-009  0.8250003E+02  0.7561462E-02  0.1322103E+00
         -1   -1    0    0    0  501 -0.00000000000E+00  0.00000000000E+00  0.45583509190E+03  0.45583509190E+03  0.00000000000E+00 0.  1.
          1   -1    0    0  501    0  0.00000000000E+00 -0.00000000000E+00 -0.30332564829E+02  0.30332564829E+02  0.00000000000E+00 0. -1.
         25    2    1    2    0    0  0.29159826940E+02 -0.19181558100E+02  0.28968604448E+03  0.31746437992E+03  0.12508956981E+03 0.  0.
          5    1    3    3  502    0  0.65644202668E+02 -0.21579336977E+02  0.26312494365E+03  0.27207910155E+03  0.41800000000E+01 0. -1.
         -5    1    3    3    0  502 -0.36484375728E+02  0.23977788764E+01  0.26561100824E+02  0.45385278371E+02  0.41800000000E+01 0. -1.
        -11    1    1    2    0    0 -0.32988760130E+02 -0.59754980240E+01  0.13906582980E+03  0.14304988602E+03  0.00000000000E+00 0.  1.
         11    1    1    2    0    0  0.38289331893E+01  0.25157056124E+02 -0.32493471987E+01  0.25653390798E+02  0.00000000000E+00 0. -1.
</event>
<event>
 7    1  0.3001243E-009  0.1290345E+03  0.7561462E-02  0.1228895E+00
          1   -1    0    0  501    0  0.00000000000E+00  0.00000000000E+00  0.95538357491E+02  0.95538357491E+02  0.00000000000E+00 0. -1.
         -1   -1    0    0    0  501 -0.00000000000E+00 -0.00000000000E+00 -0.25062219882E+03  0.25062219882E+03  0.00000000000E+00 0.  1.
         25    2    1    2    0    0  0.51665438587E+02  0.76794488142E+02 -0.14886358933E+03  0.21534992153E+03  0.12509400273E+03 0.  0.
          5    1    3    3  502    0  0.25818131758E+02 -0.32072917677E+02 -0.57437971421E+02  0.70794356673E+02  0.41800000000E+01 0.  1.
         -5    1    3    3    0  502  0.25847306829E+02  0.10886740582E+03 -0.91425617911E+02  0.14455556485E+03  0.41800000000E+01 0.  1.
        -11    1    1    2    0    0 -0.52036912393E+02 -0.34541470740E+02  0.35155361367E+02  0.71671841647E+02  0.00000000000E+00 0. -1.
         11    1    1    2    0    0  0.37147380582E+00 -0.42253017402E+02 -0.41375613363E+02  0.59138793135E+02  0.00000000000E+00 0.  1.
</event>
<event>
 7    1  0.3001243E-009  0.1818204E+03  0.7561462E-02  0.1166053E+00
          2   -1    0    0  501    0  0.00000000000E+00  0.00000000000E+00  0.11279268468E+03  0.11279268468E+03  0.00000000000E+00 0. -1.
         -2   -1    0    0    0  501 -0.00000000000E+00 -0.00000000000E+00 -0.29843346964E+03  0.29843346964E+03  0.00000000000E+00 0.  1.
         25    2    1    2    0    0 -0.68250174303E+02  0.13069263689E+03 -0.10802489362E+03  0.22148581354E+03  0.12509171167E+03 0.  0.
          5    1    3    3  502    0 -0.10397435400E+03  0.11173859023E+03 -0.86294459415E+02  0.17538638762E+03  0.41800000000E+01 0. -1.
         -5    1    3    3    0  502  0.35724179695E+02  0.18954046658E+02 -0.21730434200E+02  0.46099425920E+02  0.41800000000E+01 0. -1.
        -11    1    1    2    0    0  0.48902160409E+02 -0.12424196004E+02 -0.39197331490E+02  0.63892196198E+02  0.00000000000E+00 0.  1.
         11    1    1    2    0    0  0.19348013894E+02 -0.11826844089E+03 -0.38418559856E+02  0.12584814458E+03  0.00000000000E+00 0. -1.
</event>
<event>
 7    1  0.3001243E-009  0.1143288E+03  0.7561462E-02  0.1252757E+00
         -2   -1    0    0    0  501 -0.00000000000E+00  0.00000000000E+00  0.13789474853E+03  0.13789474853E+03  0.00000000000E+00 0.  1.
          2   -1    0    0  501    0  0.00000000000E+00 -0.00000000000E+00 -0.13463894730E+03  0.13463894730E+03  0.00000000000E+00 0. -1.
         25    2    1    2    0    0 -0.28934468298E+02 -0.57334849678E+02 -0.52625531220E+02  0.15013924756E+03  0.12509140129E+03 0.  0.
          5    1    3    3  502    0 -0.72721691034E+02 -0.33255655880E+02 -0.38222362474E+01  0.80165234889E+02  0.41800000000E+01 0.  1.
         -5    1    3    3    0  502  0.43787222736E+02 -0.24079193798E+02 -0.48803294973E+02  0.69974012670E+02  0.41800000000E+01 0.  1.
        -11    1    1    2    0    0 -0.22612031591E+02  0.36295183851E+02  0.50926652437E+02  0.66499385500E+02  0.00000000000E+00 0.  1.
         11    1    1    2    0    0  0.51546499889E+02  0.21039665827E+02  0.49546800146E+01  0.55895062778E+02  0.00000000000E+00 0. -1.
</event>
<event>
 7    1  0.3001243E-009  0.1268751E+03  0.7561462E-02  0.1232168E+00
          2   -1    0    0  501    0  0.00000000000E+00  0.00000000000E+00  0.39165798939E+03  0.39165798939E+03  0.00000000000E+00 0. -1.
         -2   -1    0    0    0  501 -0.00000000000E+00 -0.00000000000E+00 -0.53569756821E+02  0.53569756821E+02  0.00000000000E+00 0.  1.
         25    2    1    2    0    0  0.56400848274E+02  0.38007860014E+02  0.81853550565E+02  0.16423660573E+03  0.12509198941E+03 0.  0.
          5    1    3    3  502    0  0.72051072363E+02 -0.23816985847E+02  0.29156781815E+02  0.81401450659E+02  0.41800000000E+01 0. -1.
         -5    1    3    3    0  502 -0.15650224089E+02  0.61824845861E+02  0.52696768750E+02  0.82835155076E+02  0.41800000000E+01 0. -1.
        -11    1    1    2    0    0  0.17286700018E+01  0.26756510830E+02  0.42908032921E+02  0.50596427354E+02  0.00000000000E+00 0. -1.
         11    1    1    2    0    0 -0.58129518276E+02 -0.64764370844E+02  0.21332664908E+03  0.23039471312E+03  0.00000000000E+00 0.  1.
</event>
<event>
 7    1  0.3001243E-009  0.1162776E+03  0.7561462E-02  0.1249367E+00
         -1   -1    0    0    0  501 -0.00000000000E+00  0.00000000000E+00  0.25371508503E+02  0.25371508503E+02  0.00000000000E+00 0.  1.
          1   -1    0    0  501    0  0.00000000000E+00 -0.00000000000E+00 -0.84445868311E+03  0.84445868311E+03  0.00000000000E+00 0. -1.
         25    2    1    2    0    0 -0.69811223334E+02 -0.70111038959E+02 -0.48622280261E+03  0.51171217279E+03  0.12509024468E+03 0.  0.
          5    1    3    3  502    0  0.37501090447E+01 -0.19914391136E+02 -0.36964055961E+01  0.21018613334E+02  0.41800000000E+01 0. -1.
         -5    1    3    3    0  502 -0.73561332379E+02 -0.50196647824E+02 -0.48252639701E+03  0.49069355945E+03  0.41800000000E+01 0. -1.
        -11    1    1    2    0    0  0.61135837917E+02  0.99661488280E+01 -0.23410091579E+03  0.24215729098E+03  0.00000000000E+00 0.  1.
         11    1    1    2    0    0  0.86753854171E+01  0.60144890131E+02 -0.98763456210E+02  0.11596072785E+03  0.00000000000E+00 0. -1.
</event>
<event>
 7    1  0.3001243E-009  0.3089827E+03  0.7561462E-02  0.1080835E+00
          1   -1    0    0  501    0  0.00000000000E+00  0.00000000000E+00  0.28272718451E+03  0.28272718451E+03  0.00000000000E+00 0. -1.
         -1   -1    0    0    0  501 -0.00000000000E+00 -0.00000000000E+00 -0.46994154626E+03  0.46994154626E+03  0.00000000000E+00 0.  1.
         25    2    1    2    0    0 -0.28045260300E+03 -0.12309633980E+03 -0.26540003818E+03  0.42413616221E+03  0.12509169608E+03 0.  0.
          5    1    3    3  502    0 -0.25257301410E+03 -0.10742048298E+03 -0.27688980586E+03  0.38989450446E+03  0.41800000000E+01 0.  1.
         -5    1    3    3    0  502 -0.27879588902E+02 -0.15675856824E+02  0.11489767682E+02  0.34241657756E+02  0.41800000000E+01 0.  1.
        -11    1    1    2    0    0  0.13977527583E+03  0.31315927588E+02  0.72317238570E+02  0.16046058098E+03  0.00000000000E+00 0. -1.
         11    1    1    2    0    0  0.14067732717E+03  0.91780412217E+02  0.58684378538E+01  0.16807198758E+03  0.00000000000E+00 0.  1.
</event>
<event>
 7    1  0.3001243E-009  0.2027480E+03  0.7561462E-02  0.1147441E+00
          2   -1    0    0  501    0  0.00000000000E+00  0.00000000000E+00  0.67712803783E+03  0.67712803783E+03  0.00000000000E+00 0.  1.
         -2   -1    0    0    0  501 -0.00000000000E+00 -0.00000000000E+00 -0.78258474405E+02  0.78258474405E+02  0.00000000000E+00 0. -1.
         25    2    1    2    0    0 -0.18055829635E+03 -0.89955014746E+02  0.27258590284E+03  0.36144384293E+03  0.12508146986E+03 0.  0.
          5    1    3    3  502    0 -0.88682474349E+02 -0.54563118871E+02  0.45134191757E+02  0.11356180195E+03  0.41800000000E+01 0. -1.
         -5    1    3    3    0  502 -0.91875822004E+02 -0.35391895874E+02  0.22745171108E+03  0.24788204097E+03  0.41800000000E+01 0. -1.
        -11    1    1    2    0    0  0.89815962668E+02  0.56067894990E+02  0.91410756541E+02  0.13988010012E+03  0.00000000000E+00 0. -1.
         11    1    1    2    0    0  0.90742333684E+02  0.33887119756E+02  0.23487290405E+03  0.25406256919E+03  0.00000000000E+00 0.  1.
</event>
<event>
 7    1  0.3001243E-009  0.8851209E+02  0.7561462E-02  0.1306495E+00
         -3   -1    0    0    0  501 -0.00000000000E+00  0.00000000000E+00  0.17660900477E+02  0.17660900477E+02  0.00000000000E+00 0.  1.
          3   -1    0    0  501    0  0.00000000000E+00 -0.00000000000E+00 -0.76321328000E+03  0.76321328000E+03  0.00000000000E+00 0. -1.
         25    2    1    2    0    0 -0.35598314807E+02  0.12036282277E+02 -0.35637850723E+03  0.37955183763E+03  0.12506736155E+03 0.  0.
          5    1    3    3  502    0 -0.41457789565E+02 -0.20679555392E+02 -0.39841117691E+02  0.61246872456E+02  0.41800000000E+01 0. -1.
         -5    1    3    3    0  502  0.58594747577E+01  0.32715837670E+02 -0.31653738954E+03  0.31830496517E+03  0.41800000000E+01 0. -1.
        -11    1    1    2    0    0  0.65895785045E+02 -0.99075291897E+01 -0.29227263065E+03  0.29977275435E+03  0.00000000000E+00 0.  1.
         11    1    1    2    0    0 -0.30297470238E+02 -0.21287530874E+01 -0.96901241639E+02  0.10154958850E+03  0.00000000000E+00 0. -1.
</event>
<event>
 7    1  0.3001243E-009  0.1041872E+03  0.7561462E-02  0.1271729E+00
          1   -1    0    0  501    0  0.00000000000E+00  0.00000000000E+00  0.11025609667E+03  0.11025609667E+03  0.00000000000E+00 0. -1.
         -1   -1    0    0    0  501 -0.00000000000E+00 -0.00000000000E+00 -0.14675557128E+03  0.14675557128E+03  0.00000000000E+00 0.  1.
         25    2    1    2    0    0 -0.44441586860E+02 -0.26146030028E+02  0.25979839344E+02  0.13777133267E+03  0.12508924224E+03 0.  0.
          5    1    3    3  502    0  0.69931931880E+01  0.44560123386E+02 -0.34285563411E+01  0.45428369394E+02  0.41800000000E+01 0.  1.
         -5    1    3    3    0  502 -0.51434780048E+02 -0.70706153415E+02  0.29408395686E+02  0.92342963273E+02  0.41800000000E+01 0.  1.
        -11    1    1    2    0    0  0.31338044793E+02 -0.13248960791E+02  0.10216520057E+02  0.35524432375E+02  0.00000000000E+00 0.  1.
         11    1    1    2    0    0  0.13103542067E+02  0.39394990819E+02 -0.72695834019E+02  0.83715902910E+02  0.00000000000E+00 0. -1.
</event>
<event>
 7    1  0.3001243E-009  0.2563468E+03  0.7561462E-02  0.1109358E+00
         -2   -1    0    0    0  501 -0.00000000000E+00  0.00000000000E+00  0.63509797869E+02  0.63509797869E+02  0.00000000000E+00 0. -1.
          2   -1    0    0  501    0  0.00000000000E+00 -0.00000000000E+00 -0.12103081257E+04  0.12103081257E+04  0.00000000000E+00 0.  1.
         25    2    1    2    0    0  0.21061336080E+03 -0.10666340945E+03 -0.80257416666E+03  0.84587772751E+03  0.12509502881E+03 0.  0.
          5    1    3    3  502    0  0.22524235655E+03 -0.11100343980E+03 -0.74647107357E+03  0.78758645171E+03  0.41800000000E+01 0. -1.
         -5    1    3    3    0  502 -0.14628995745E+02  0.43400303549E+01 -0.56103093093E+02  0.58291275802E+02  0.41800000000E+01 0. -1.
        -11    1    1    2    0    0 -0.13360983955E+02  0.32246818930E+02 -0.17358348343E+02  0.38983143544E+02  0.00000000000E+00 0.  1.
         11    1    1    2    0    0 -0.19725237685E+03  0.74416590517E+02 -0.32686581287E+03  0.38895705256E+03  0.00000000000E+00 0. -1.
</event>
<event>
 7    1  0.3001243E-009  0.1363326E+03  0.7561462E-02  0.1218351E+00
         -1   -1    0    0    0  501 -0.00000000000E+00  0.00000000000E+00  0.19089310523E+02  0.19089310523E+02  0.00000000000E+00 0.  1.
          1   -1    0    0  501    0  0.00000000000E+00 -0.00000000000E+00 -0.12789616397E+04  0.12789616397E+04  0.00000000000E+00 0. -1.
         25    2    1    2    0    0  0.49649063520E+02  0.98578460948E+02 -0.74213577681E+03  0.76065502245E+03  0.12509120464E+03 0.  0.
          5    1    3    3  502    0  0.39537377459E+02 -0.56030314745E+01 -0.42000000091E+03  0.42191476787E+03  0.41800000000E+01 0. -1.
         -5    1    3    3    0  502  0.10111686061E+02  0.10418149242E+03 -0.32213577590E+03  0.33874025458E+03  0.41800000000E+01 0. -1.
        -11    1    1    2    0    0 -0.64005122078E+01 -0.80713846421E+02 -0.43385441755E+03  0.44134492995E+03  0.00000000000E+00 0. -1.
         11    1    1    2    0    0 -0.43248551312E+02 -0.17864614527E+02 -0.83882134794E+02  0.96050997811E+02  0.00000000000E+00 0.  1.
</event>
<event>
 7    1  0.3001243E-009  0.1214586E+03  0.7561462E-02  0.1240710E+00
         -2   -1    0    0    0  501 -0.00000000000E+00  0.00000000000E+00  0.33955447355E+03  0.33955447355E+03  0.00000000000E+00 0.  1.
          2   -1    0    0  501    0  0.00000000000E+00 -0.00000000000E+00 -0.59112880329E+02  0.59112880329E+02  0.00000000000E+00 0. -1.
         25    2    1    2    0    0 -0.66660137485E+02  0.26518340788E+02  0.22895952011E+03  0.27058570382E+03  0.12508942777E+03 0.  0.
          5    1    3    3  502    0 -0.73504379013E+02 -0.26916760359E+02  0.79450022992E+02  0.11161175689E+03  0.41800000000E+01 0.  1.
         -5    1    3    3    0  502  0.68442415281E+01  0.53435101147E+02  0.14950949711E+03  0.15897394693E+03  0.41800000000E+01 0.  1.
        -11    1    1    2    0    0  0.40736075302E+02  0.28471884333E+02  0.20763136278E+01  0.49743211665E+02  0.00000000000E+00 0. -1.
         11    1    1    2    0    0  0.25924062183E+02 -0.54990225121E+02  0.49405759488E+02  0.78338438391E+02  0.00000000000E+00 0.  1.
</event>
<event>
 7    1  0.3001243E-009  0.1225049E+03  0.7561462E-02  0.1239021E+00
          2   -1    0    0  501    0  0.00000000000E+00  0.00000000000E+00  0.15448295872E+03  0.15448295872E+03  0.00000000000E+00 0. -1.
         -2   -1    0    0    0  501 -0.00000000000E+00 -0.00000000000E+00 -0.17390258984E+03  0.17390258984E+03  0.00000000000E+00 0.  1.
         25    2    1    2    0    0  0.11685186086E+03 -0.35366379292E+02 -0.10180323905E+02  0.17509925058E+03  0.12510383843E+03 0.  0.
          5    1    3    3  502    0  0.93633222597E+02 -0.31570320265E+02 -0.62906139745E+02  0.11721143423E+03  0.41800000000E+01 0. -1.
         -5    1    3    3    0  502  0.23218638260E+02 -0.37960590270E+01  0.52725815840E+02  0.57887816358E+02  0.41800000000E+01 0. -1.
        -11    1    1    2    0    0 -0.31642441344E+02  0.70075522607E+01 -0.45982257395E+02  0.56255825281E+02  0.00000000000E+00 0.  1.
         11    1    1    2    0    0 -0.85209419513E+02  0.28358827032E+02  0.36742950179E+02  0.97030472699E+02  0.00000000000E+00 0. -1.
</event>
<event>
 7    1  0.3001243E-009  0.9955431E+02  0.7561462E-02  0.1281236E+00
          3   -1    0    0  501    0  0.00000000000E+00  0.00000000000E+00  0.16373068146E+03  0.16373068146E+03  0.00000000000E+00 0. -1.
         -3   -1    0    0    0  501 -0.00000000000E+00 -0.00000000000E+00 -0.93163136503E+02  0.93163136503E+02  0.00000000000E+00 0.  1.
         25    2    1    2    0    0 -0.24883905824E+02 -0.27826274731E+02 -0.62895427593E+01  0.13069219242E+03  0.12508948988E+03 0.  0.
          5    1    3    3  502    0 -0.22760690734E+02  0.47165256513E+02 -0.16025027288E+02  0.54926171942E+02  0.41800000000E+01 0. -1.
         -5    1    3    3    0  502 -0.21232150898E+01 -0.74991531244E+02  0.97354845289E+01  0.75766020482E+02  0.41800000000E+01 0. -1.
        -11    1    1    2    0    0 -0.19491113625E+02  0.86423273216E+00 -0.12273366705E+02  0.23049640753E+02  0.00000000000E+00 0.  1.
         11    1    1    2    0    0  0.44375019450E+02  0.26962041999E+02  0.89130454419E+02  0.10315198478E+03  0.00000000000E+00 0. -1.
</event>
<event>
 7    1  0.3001243E-009  0.1004816E+03  0.7561462E-02  0.1279286E+00
          3   -1    0    0  501    0  0.00000000000E+00  0.00000000000E+00  0.71386167970E+03  0.71386167970E+03  0.00000000000E+00 0. -1.
         -3   -1    0    0    0  501 -0.00000000000E+00 -0.00000000000E+00 -0.21939303147E+02  0.21939303147E+02  0.00000000000E+00 0.  1.
         25    2    1    2    0    0 -0.18777366818E+02  0.26439709426E+02  0.53833021075E+03  0.55362317028E+03  0.12509017197E+03 0.  0.
          5    1    3    3  502    0 -0.81339133515E+01 -0.49793683405E+02  0.25603207089E+03  0.26098939667E+03  0.41800000000E+01 0. -1.
         -5    1    3    3    0  502 -0.10643453467E+02  0.76233392831E+02  0.28229813986E+03  0.29263377361E+03  0.41800000000E+01 0. -1.
        -11    1    1    2    0    0  0.47375150481E+01  0.22161417357E+02  0.11840786791E+03  0.12055702240E+03  0.00000000000E+00 0. -1.
         11    1    1    2    0    0  0.14039851770E+02 -0.48601126782E+02  0.35184297895E+02  0.61620790166E+02  0.00000000000E+00 0.  1.
</event>
<event>
 7    1  0.3001243E-009  0.3531143E+03  0.7561462E-02  0.1061344E+00
         -3   -1    0    0    0  501 -0.00000000000E+00  0.00000000000E+00  0.26874145669E+03  0.26874145669E+03  0.00000000000E+00 0.  1.
          3   -1    0    0  501    0  0.00000000000E+00 -0.00000000000E+00 -0.52306720102E+03  0.52306720102E+03  0.00000000000E+00 0. -1.
         25    2    1    2    0    0  0.33974436816E+03 -0.89901478564E+02 -0.20498268169E+03  0.42564589852E+03  0.12509204445E+03 0.  0.
          5    1    3    3  502    0  0.28723807052E+03 -0.84196754406E+02 -0.21892168010E+03  0.37086247724E+03  0.41800000000E+01 0. -1.
         -5    1    3    3    0  502  0.52506297641E+02 -0.57047241581E+01  0.13938998411E+02  0.54783421273E+02  0.41800000000E+01 0. -1.
        -11    1    1    2    0    0 -0.20072268769E+03  0.31823955428E+02  0.11780302884E+02  0.20357096313E+03  0.00000000000E+00 0.  1.
         11    1    1    2    0    0 -0.13902168047E+03  0.58077523136E+02 -0.61123365526E+02  0.16259179607E+03  0.00000000000E+00 0. -1.
</event>
<event>
 7    1  0.3001243E-009  0.1411732E+03  0.7561462E-02  0.1211759E+00
         -2   -1    0    0    0  501 -0.00000000000E+00  0.00000000000E+00  0.20752201302E+03  0.20752201302E+03  0.00000000000E+00 0. -1.
          2   -1    0    0  501    0  0.00000000000E+00 -0.00000000000E+00 -0.41285413808E+03  0.41285413808E+03  0.00000000000E+00 0.  1.
         25    2    1    2    0    0  0.43463280425E+02  0.86672713612E+02  0.16415943389E+03  0.22803081258E+03  0.12509402751E+03 0.  0.
          5    1    3    3  502    0 -0.17731892225E+02  0.92559061164E+02  0.79781261108E+02  0.12354805474E+03  0.41800000000E+01 0. -1.
         -5    1    3    3    0  502  0.61195172651E+02 -0.58863475520E+01  0.84378172784E+02  0.10448275784E+03  0.41800000000E+01 0. -1.
        -11    1    1    2    0    0 -0.38515630500E+02 -0.10266489346E+03 -0.34935619894E+03  0.36616019428E+03  0.00000000000E+00 0.  1.
         11    1    1    2    0    0 -0.49476499252E+01  0.15992179848E+02 -0.20135360012E+02  0.26185144240E+02  0.00000000000E+00 0. -1.
</event>
<event>
 7    1  0.3001243E-009  0.1374602E+03  0.7561462E-02  0.1216788E+00
          2   -1    0    0  501    0  0.00000000000E+00  0.00000000000E+00  0.44480769995E+03  0.44480769995E+03  0.00000000000E+00 0. -1.
         -2   -1    0    0    0  501 -0.00000000000E+00 -0.00000000000E+00 -0.49157902753E+02  0.49157902753E+02  0.00000000000E+00 0.  1.
         25    2    1    2    0    0 -0.31033567503E+02 -0.92288648133E+02  0.18358295624E+03  0.24254991558E+03  0.12508989903E+03 0.  0.
          5    1    3    3  502    0 -0.24398031754E+02 -0.11894669502E+03  0.17579133842E+03  0.21369054090E+03  0.41800000000E+01 0.  1.
         -5    1    3    3    0  502 -0.66355357491E+01  0.26658046885E+02  0.77916178204E+01  0.28859374675E+02  0.41800000000E+01 0.  1.
        -11    1    1    2    0    0  0.26072458816E+02  0.10699038614E+03  0.14224111360E+03  0.17988677059E+03  0.00000000000E+00 0.  1.
         11    1    1    2    0    0  0.49611086870E+01 -0.14701738004E+02  0.69825727360E+02  0.71528916538E+02  0.00000000000E+00 0. -1.
</event>
<event>
 7    1  0.3001243E-009  0.8811244E+02  0.7561462E-02  0.1307488E+00
          2   -1    0    0  501    0  0.00000000000E+00  0.00000000000E+00  0.70673859030E+02  0.70673859030E+02  0.00000000000E+00 0. -1.
         -2   -1    0    0    0  501 -0.00000000000E+00 -0.00000000000E+00 -0.26429228226E+03  0.26429228226E+03  0.00000000000E+00 0.  1.
         25    2    1    2    0    0 -0.65296331600E+02  0.13857245522E+02 -0.56976383243E+02  0.15280537722E+03  0.12509013105E+03 0.  0.
          5    1    3    3  502    0 -0.34887999788E+02  0.17692610881E+02  0.36916030446E+02  0.53948741532E+02  0.41800000000E+01 0.  1.
         -5    1    3    3    0  502 -0.30408331813E+02 -0.38353653596E+01 -0.93892413689E+02  0.98856635687E+02  0.41800000000E+01 0.  1.
        -11    1    1    2    0    0  0.78545493167E+02  0.94799664387E+01 -0.55353589437E+02  0.96557154702E+02  0.00000000000E+00 0. -1.
         11    1    1    2    0    0 -0.13249161567E+02 -0.23337211960E+02 -0.81288450553E+02  0.85603609373E+02  0.00000000000E+00 0.  1.
</event>
<event>
 7    1  0.3001243E-009  0.9825248E+02  0.7561462E-02  0.1284014E+00
          1   -1    0    0  501    0  0.00000000000E+00  0.00000000000E+00  0.15175708807E+03  0.15175708807E+03  0.00000000000E+00 0. -1.
         -1   -1    0    0    0  501 -0.00000000000E+00 -0.00000000000E+00 -0.10891078280E+03  0.10891078280E+03  0.00000000000E+00 0.  1.
         25    2    1    2    0    0 -0.42764699658E+02  0.31138679491E+02  0.61530844276E+02  0.14909966616E+03  0.12508488620E+03 0.  0.
          5    1    3    3  502    0  0.39379410341E+02  0.35857437479E+02  0.23722568207E+02  0.58452770881E+02  0.41800000000E+01 0. -1.
         -5    1    3    3    0  502 -0.82144109999E+02 -0.47187579886E+01  0.37808276069E+02  0.90646895280E+02  0.41800000000E+01 0. -1.
        -11    1    1    2    0    0 -0.30415964384E+01 -0.96170112104E+01 -0.50692173456E+02  0.51685923260E+02  0.00000000000E+00 0.  1.
         11    1    1    2    0    0  0.45806296097E+02 -0.21521668280E+02  0.32007634454E+02  0.59882281444E+02  0.00000000000E+00 0. -1.
</event>
<event>
 7    1  0.3001243E-009  0.1123161E+03  0.7561462E-02  0.1256340E+00
         -1   -1    0    0    0  501 -0.00000000000E+00  0.00000000000E+00  0.78316545821E+02  0.78316545821E+02  0.00000000000E+00 0.  1.
          1   -1    0    0  501    0  0.00000000000E+00 -0.00000000000E+00 -0.32013658359E+03  0.32013658359E+03  0.00000000000E+00 0. -1.
         25    2    1    2    0    0  0.52106667617E+02  0.92437889659E+02 -0.74111518348E+02  0.17999960238E+03  0.12508985351E+03 0.  0.
          5    1    3    3  502    0  0.61376120077E+02  0.77506153051E+02 -0.10495993869E+03  0.14425079898E+03  0.41800000000E+01 0.  1.
         -5    1    3    3    0  502 -0.92694524607E+01  0.14931736608E+02  0.30848420342E+02  0.35748803401E+02  0.41800000000E+01 0.  1.
        -11    1    1    2    0    0 -0.10987989434E+02 -0.36963577310E+02 -0.13799214998E+03  0.14327901248E+03  0.00000000000E+00 0. -1.
         11    1    1    2    0    0 -0.41118678182E+02 -0.55474312349E+02 -0.29716369442E+02  0.75174514557E+02  0.00000000000E+00 0.  1.
</event>
<event>
 7    1  0.3001243E-009  0.8633313E+02  0.7561462E-02  0.1311983E+00
         -2   -1    0    0    0  501 -0.00000000000E+00  0.00000000000E+00  0.34677235830E+03  0.34677235830E+03  0.00000000000E+00 0.  1.
          2   -1    0    0  501    0  0.00000000000E+00 -0.00000000000E+00 -0.81091801333E+02  0.81091801333E+02  0.00000000000E+00 0. -1.
         25    2    1    2    0    0 -0.67537820051E+02  0.32728309709E+01  0.41971622730E+01  0.14225506990E+03  0.12508725027E+03 0.  0.
          5    1    3    3  502    0 -0.40475614451E+01 -0.35397754394E+01 -0.54797463963E+02  0.55219083844E+02  0.41800000000E+01 0. -1.
         -5    1    3    3    0  502 -0.63490258606E+02  0.68126064103E+01  0.58994626235E+02  0.87035986055E+02  0.41800000000E+01 0. -1.
        -11    1    1    2    0    0  0.84563019662E+01  0.31970167167E+02  0.15746008726E+03  0.16089524453E+03  0.00000000000E+00 0.  1.
         11    1    1    2    0    0  0.59081518085E+02 -0.35242998138E+02  0.10402330744E+03  0.12471384521E+03  0.00000000000E+00 0. -1.
</event>
<event>
 7    1  0.3001243E-009  0.1036739E+03  0.7561462E-02  0.1272755E+00
          2   -1    0    0  501    0  0.00000000000E+00  0.00000000000E+00  0.10904937854E+03  0.10904937854E+03  0.00000000000E+00 0. -1.
         -2   -1    0    0    0  501 -0.00000000000E+00 -0.00000000000E+00 -0.12227282899E+03  0.12227282899E+03  0.00000000000E+00 0.  1.
         25    2    1    2    0    0 -0.34073108661E+02  0.58040547942E+01  0.12412274165E+02  0.13036329834E+03  0.12508341704E+03 0.  0.
          5    1    3    3  502    0 -0.30094991028E+02  0.60474926283E+02 -0.14407952194E+02  0.69195279321E+02  0.41800000000E+01 0. -1.
         -5    1    3    3    0  502 -0.39781176326E+01 -0.54670871489E+02  0.26820226359E+02  0.61168019023E+02  0.41800000000E+01 0. -1.
        -11    1    1    2    0    0  0.23927562826E+02  0.35139702193E+02  0.12269694151E+02  0.44247851106E+02  0.00000000000E+00 0. -1.
         11    1    1    2    0    0  0.10145545835E+02 -0.40943756987E+02 -0.37905418766E+02  0.56711058078E+02  0.00000000000E+00 0.  1.
</event>
<event>
 7    1  0.3001243E-009  0.1002449E+03  0.7561462E-02  0.1279782E+00
         -1   -1    0    0    0  501 -0.00000000000E+00  0.00000000000E+00  0.30154906194E+03  0.30154906194E+03  0.00000000000E+00 0.  1.
          1   -1    0    0  501    0  0.00000000000E+00 -0.00000000000E+00 -0.74143790119E+02  0.74143790119E+02  0.00000000000E+00 0. -1.
         25    2    1    2    0    0  0.66152643303E+01  0.71512511451E+02  0.21265666838E+03  0.25696013475E+03  0.12509137151E+03 0.  0.
          5    1    3    3  502    0 -0.16806319325E+01  0.96264635518E+02  0.91279553342E+02  0.13273708537E+03  0.41800000000E+01 0.  1.
         -5    1    3    3    0  502  0.82958962627E+01 -0.24752124068E+02  0.12137711504E+03  0.12422304937E+03  0.41800000000E+01 0.  1.
        -11    1    1    2    0    0 -0.15506804885E+02 -0.64556470750E+02  0.49098549790E+02  0.82575217257E+02  0.00000000000E+00 0.  1.
         11    1    1    2    0    0  0.88915405544E+01 -0.69560407003E+01 -0.34349946352E+02  0.36157500053E+02  0.00000000000E+00 0. -1.
</event>
<event>
 7    1  0.3001243E-009  0.1128019E+03  0.7561462E-02  0.1255467E+00
          2   -1    0    0  501    0  0.00000000000E+00  0.00000000000E+00  0.33799145900E+02  0.33799145900E+02  0.00000000000E+00 0.  1.
         -2   -1    0    0    0  501 -0.00000000000E+00 -0.00000000000E+00 -0.42556595229E+03  0.42556595229E+03  0.00000000000E+00 0. -1.
         25    2    1    2    0    0 -0.31653027034E+02 -0.16639595044E+02 -0.15132901677E+03  0.19956637618E+03  0.12508987545E+03 0.  0.
          5    1    3    3  502    0  0.42668849312E+02 -0.30791268633E+02 -0.47368163220E+02  0.70922127805E+02  0.41800000000E+01 0.  1.
         -5    1    3    3    0  502 -0.74321876346E+02  0.14151673589E+02 -0.10396085355E+03  0.12864424838E+03  0.41800000000E+01 0.  1.
        -11    1    1    2    0    0  0.54029435529E+02  0.38045345640E+02 -0.14237079655E+03  0.15695882243E+03  0.00000000000E+00 0. -1.
         11    1    1    2    0    0 -0.22376408495E+02 -0.21405750596E+02 -0.98066993071E+02  0.10283989958E+03  0.00000000000E+00 0.  1.
</event>
<event>
 7    1  0.3001243E-009  0.1175764E+03  0.7561462E-02  0.1247150E+00
         -4   -1    0    0    0  501 -0.00000000000E+00  0.00000000000E+00  0.52145875233E+03  0.52145875233E+03  0.00000000000E+00 0.  1.
          4   -1    0    0  501    0  0.00000000000E+00 -0.00000000000E+00 -0.42453994394E+02  0.42453994394E+02  0.00000000000E+00 0. -1.
         25    2    1    2    0    0 -0.54074429560E+01 -0.77822846724E+02  0.13604113165E+03  0.20060288293E+03  0.12509472902E+03 0.  0.
          5    1    3    3  502    0  0.45916125942E+02 -0.33586154979E+01  0.84777385684E+02  0.96562148086E+02  0.41800000000E+01 0. -1.
         -5    1    3    3    0  502 -0.51323568898E+02 -0.74464231227E+02  0.51263745963E+02  0.10404073484E+03  0.41800000000E+01 0. -1.
        -11    1    1    2    0    0 -0.23457900120E+02  0.60105737709E+02  0.30779276313E+03  0.31448268286E+03  0.00000000000E+00 0.  1.
         11    1    1    2    0    0  0.28865343076E+02  0.17717109015E+02  0.35170863159E+02  0.48827180936E+02  0.00000000000E+00 0. -1.
</event>
<event>
 7    1  0.3001243E-009  0.1093426E+03  0.7561462E-02  0.1261792E+00
         -1   -1    0    0    0  501 -0.00000000000E+00  0.00000000000E+00  0.18134669581E+02  0.18134669581E+02  0.00000000000E+00 0.  1.
          1   -1    0    0  501    0  0.00000000000E+00 -0.00000000000E+00 -0.11288067797E+04  0.11288067797E+04  0.00000000000E+00 0. -1.
         25    2    1    2    0    0 -0.35645297122E+02  0.32638859758E+02 -0.93159807552E+03  0.94120058737E+03  0.12509072306E+03 0.  0.
          5    1    3    3  502    0 -0.45599703946E+02 -0.37401216520E+02 -0.54145151362E+03  0.54466998999E+03  0.41800000000E+01 0. -1.
         -5    1    3    3    0  502  0.99544068242E+01  0.70040076278E+02 -0.39014656190E+03  0.39653059738E+03  0.41800000000E+01 0. -1.
        -11    1    1    2    0    0 -0.22129428491E+02 -0.19382893643E+02 -0.18939041950E+02  0.34987075918E+02  0.00000000000E+00 0.  1.
         11    1    1    2    0    0  0.57774725613E+02 -0.13255966116E+02 -0.16013499264E+03  0.17075378598E+03  0.00000000000E+00 0. -1.
</event>
<event>
 7    1  0.3001243E-009  0.1478136E+03  0.7561462E-02  0.1203186E+00
          1   -1    0    0  501    0  0.00000000000E+00  0.00000000000E+00  0.64010575318E+02  0.64010575318E+02  0.00000000000E+00 0. -1.
         -1   -1    0    0    0  501 -0.00000000000E+00 -0.00000000000E+00 -0.43153271698E+03  0.43153271698E+03  0.00000000000E+00 0.  1.
         25    2    1    2    0    0  0.12027326710E+03  0.19400511926E+02 -0.23673208325E+03  0.29416226894E+03  0.12508925847E+03 0.  0.
          5    1    3    3  502    0  0.12986077965E+03  0.51641675674E+02 -0.20166638045E+03  0.24539251448E+03  0.41800000000E+01 0. -1.
         -5    1    3    3    0  502 -0.95875125588E+01 -0.32241163748E+02 -0.35065702801E+02  0.48769754458E+02  0.41800000000E+01 0. -1.
        -11    1    1    2    0    0 -0.80268529191E+02 -0.10716445440E+02 -0.20206558382E+02  0.83463668641E+02  0.00000000000E+00 0. -1.
         11    1    1    2    0    0 -0.40004737904E+02 -0.86840664858E+01 -0.11058350003E+03  0.11791735472E+03  0.00000000000E+00 0.  1.
</event>
<event>
 7    1  0.3001243E-009  0.9300810E+02  0.7561462E-02  0.1295726E+00
          2   -1    0    0  501    0  0.00000000000E+00  0.00000000000E+00  0.80564517344E+03  0.80564517344E+03  0.00000000000E+00 0. -1.
         -2   -1    0    0    0  501 -0.00000000000E+00 -0.00000000000E+00 -0.15221013729E+02  0.15221013729E+02  0.00000000000E+00 0.  1.
         25    2    1    2    0    0 -0.86211091565E+01  0.44277534696E+01  0.36665559992E+03  0.38752773724E+03  0.12508992627E+03 0.  0.
          5    1    3    3  502    0  0.43178982793E+02  0.16747889127E+01  0.29918684913E+03  0.30232014912E+03  0.41800000000E+01 0.  1.
         -5    1    3    3    0  502 -0.51800091949E+02  0.27529645569E+01  0.67468750787E+02  0.85207588116E+02  0.41800000000E+01 0.  1.
        -11    1    1    2    0    0  0.48806795633E+02  0.56469700742E+01  0.22752700244E+03  0.23277140806E+03  0.00000000000E+00 0.  1.
         11    1    1    2    0    0 -0.40185686477E+02 -0.10074723544E+02  0.19624155736E+03  0.20056704187E+03  0.00000000000E+00 0. -1.
</event>
<event>
 7    1  0.3001243E-009  0.1076806E+03  0.7561462E-02  0.1264926E+00
         -1   -1    0    0    0  501 -0.00000000000E+00  0.00000000000E+00  0.63229602787E+02  0.63229602787E+02  0.00000000000E+00 0.  1.
          1   -1    0    0  501    0  0.00000000000E+00 -0.00000000000E+00 -0.23184449887E+03  0.23184449887E+03  0.00000000000E+00 0. -1.
         25    2    1    2    0    0 -0.25404162456E+02 -0.43213367515E+02 -0.69933041439E+02  0.15182142574E+03  0.12508536456E+03 0.  0.
          5    1    3    3  502    0  0.28085322708E+02  0.19068553832E+02  0.11525244149E+02  0.36092918274E+02  0.41800000000E+01 0. -1.
         -5    1    3    3    0  502 -0.53489485164E+02 -0.62281921347E+02 -0.81458285588E+02  0.11572850747E+03  0.41800000000E+01 0. -1.
        -11    1    1    2    0    0 -0.17822199718E+00  0.65212348578E+02 -0.84288941637E+02  0.10657067070E+03  0.00000000000E+00 0. -1.
         11    1    1    2    0    0  0.25582384453E+02 -0.21998981063E+02 -0.14392913009E+02  0.36682005221E+02  0.00000000000E+00 0.  1.
</event>
<event>
 7    1  0.3001243E-009  0.1120857E+03  0.7561462E-02  0.1256756E+00
          2   -1    0    0  501    0  0.00000000000E+00  0.00000000000E+00  0.14977506641E+03  0.14977506641E+03  0.00000000000E+00 0.  1.
         -2   -1    0    0    0  501 -0.00000000000E+00 -0.00000000000E+00 -0.11937596955E+03  0.11937596955E+03  0.00000000000E+00 0. -1.
         25    2    1    2    0    0 -0.14236167104E+02  0.72154171553E+02  0.45356729037E+02  0.15202748914E+03  0.12508489780E+03 0.  0.
          5    1    3    3  502    0 -0.49971771369E+02  0.13752217036E+02  0.62520284338E+02  0.81317647291E+02  0.41800000000E+01 0.  1.
         -5    1    3    3    0  502  0.35735604265E+02  0.58401954517E+02 -0.17163555301E+02  0.70709841848E+02  0.41800000000E+01 0.  1.
        -11    1    1    2    0    0 -0.29309318881E+02 -0.19285072150E+02 -0.30953035378E+02  0.46787183931E+02  0.00000000000E+00 0. -1.
         11    1    1    2    0    0  0.43545485985E+02 -0.52869099403E+02  0.15995403194E+02  0.70336362891E+02  0.00000000000E+00 0.  1.
</event>
<event>
 7    1  0.3001243E-009  0.1516869E+03  0.7561462E-02  0.1198415E+00
          2   -1    0    0  501    0  0.00000000000E+00  0.00000000000E+00  0.50159481262E+03  0.50159481262E+03  0.00000000000E+00 0. -1.
         -2   -1    0    0    0  501 -0.00000000000E+00 -0.00000000000E+00 -0.93990362058E+02  0.93990362058E+02  0.00000000000E+00 0.  1.
         25    2    1    2    0    0  0.13274293322E+03  0.52836438711E+02  0.44722999879E+02  0.19508906056E+03  0.12508884545E+03 0.  0.
          5    1    3    3  502    0  0.90638196640E+02 -0.24673169500E+01 -0.27423096422E+02  0.94820192789E+02  0.41800000000E+01 0. -1.
         -5    1    3    3    0  502  0.42104736576E+02  0.55303755661E+02  0.72146096301E+02  0.10026886777E+03  0.41800000000E+01 0. -1.
        -11    1    1    2    0    0 -0.70191095769E+02 -0.30817915027E+02  0.29807189556E+03  0.30777165031E+03  0.00000000000E+00 0. -1.
         11    1    1    2    0    0 -0.62551837447E+02 -0.22018523684E+02  0.64809555120E+02  0.92724463806E+02  0.00000000000E+00 0.  1.
</event>
<event>
 7    1  0.3001243E-009  0.1124249E+03  0.7561462E-02  0.1256144E+00
         -2   -1    0    0    0  501 -0.00000000000E+00  0.00000000000E+00  0.15769082710E+03  0.15769082710E+03  0.00000000000E+00 0.  1.
          2   -1    0    0  501    0  0.00000000000E+00 -0.00000000000E+00 -0.16204156538E+03  0.16204156538E+03  0.00000000000E+00 0. -1.
         25    2    1    2    0    0 -0.72931625807E+02 -0.72922820004E+02  0.60199080089E+02  0.17293760062E+03  0.12508686879E+03 0.  0.
          5    1    3    3  502    0 -0.23399908428E+02  0.65505616263E+01 -0.32706447327E+02  0.40959121925E+02  0.41800000000E+01 0.  1.
         -5    1    3    3    0  502 -0.49531717378E+02 -0.79473381630E+02  0.92905527416E+02  0.13197847870E+03  0.41800000000E+01 0.  1.
        -11    1    1    2    0    0  0.49526734231E+02  0.30962374186E+02 -0.77488833434E+02  0.97036515425E+02  0.00000000000E+00 0. -1.
         11    1    1    2    0    0  0.23404891575E+02  0.41960445818E+02  0.12939015068E+02  0.49758276436E+02  0.00000000000E+00 0.  1.
</event>
<event>
 7    1  0.3001243E-009  0.8349605E+02  0.7561462E-02  0.1319413E+00
         -3   -1    0    0    0  501 -0.00000000000E+00  0.00000000000E+00  0.88846208832E+02  0.88846208832E+02  0.00000000000E+00 0.  1.
          3   -1    0    0  501    0  0.00000000000E+00 -0.00000000000E+00 -0.15935115644E+03  0.15935115644E+03  0.00000000000E+00 0. -1.
         25    2    1    2    0    0  0.54682726041E+02 -0.92812467615E+01 -0.49977260256E+02  0.14568003435E+03  0.12509437956E+03 0.  0.
          5    1    3    3  502    0 -0.64948714225E+01 -0.68653146896E+01 -0.77669159051E+02  0.78353599587E+02  0.41800000000E+01 0. -1.
         -5    1    3    3    0  502  0.61177597464E+02 -0.24159320719E+01  0.27691898795E+02  0.67326434764E+02  0.41800000000E+01 0. -1.
        -11    1    1    2    0    0 -0.71852610311E+02 -0.62688908143E+01 -0.86211312238E+00  0.72130713566E+02  0.00000000000E+00 0. -1.
         11    1    1    2    0    0  0.17169884270E+02  0.15550137576E+02 -0.19665574230E+02  0.30386617355E+02  0.00000000000E+00 0.  1.
</event>
<event>
 7    1  0.3367184E-009  0.6872752E+02  0.7561462E-02  0.1364474E+00
          1   -1    0    0  501    0  0.00000000000E+00  0.00000000000E+00  0.26766831778E+03  0.26766831778E+03  0.00000000000E+00 0. -1.
         -1   -1    0    0    0  501 -0.00000000000E+00 -0.00000000000E+00 -0.71121432426E+02  0.71121432426E+02  0.00000000000E+00 0.  1.
         25    2    1    2    0    0  0.47411669501E+02 -0.31398719194E+02  0.18530408627E+03  0.23069238802E+03  0.12509047738E+03 0.  0.
          5    1    3    3  502    0 -0.24551111923E+01 -0.25987404501E+02  0.17785719581E+03  0.17981108771E+03  0.41800000000E+01 0. -1.
         -5    1    3    3    0  502  0.49866780694E+02 -0.54113146932E+01  0.74468904634E+01  0.50881300308E+02  0.41800000000E+01 0. -1.
        -11    1    1    2    0    0 -0.25891611874E+02  0.45684674834E+01 -0.39105814458E+02  0.47122300294E+02  0.00000000000E+00 0.  1.
         11    1    1    2    0    0 -0.21520057628E+02  0.26830251711E+02  0.50348613535E+02  0.60975061887E+02  0.00000000000E+00 0. -1.
</event>
<event>
 7    1  0.3001243E-009  0.1135719E+03  0.7561462E-02  0.1254095E+00
         -2   -1    0    0    0  501 -0.00000000000E+00  0.00000000000E+00  0.26070557556E+02  0.26070557556E+02  0.00000000000E+00 0.  1.
          2   -1    0    0  501    0  0.00000000000E+00 -0.00000000000E+00 -0.56339456820E+03  0.56339456820E+03  0.00000000000E+00 0. -1.
         25    2    1    2    0    0 -0.24181271475E+02  0.46808782450E+02 -0.31013965314E+03  0.33854221405E+03  0.12509368584E+03 0.  0.
          5    1    3    3  502    0  0.80361444913E+01  0.76461867922E+02 -0.11423999063E+03  0.13776517965E+03  0.41800000000E+01 0.  1.
         -5    1    3    3    0  502 -0.32217415966E+02 -0.29653085473E+02 -0.19589966251E+03  0.20077703440E+03  0.41800000000E+01 0.  1.
        -11    1    1    2    0    0  0.18037415767E+02  0.26795734579E+02 -0.79090619715E+02  0.85432346836E+02  0.00000000000E+00 0.  1.
         11    1    1    2    0    0  0.61438557073E+01 -0.73604517028E+02 -0.14809373778E+03  0.16549056487E+03  0.00000000000E+00 0. -1.
</event>
<event>
 7    1  0.3001243E-009  0.1314004E+03  0.7561462E-02  0.1225393E+00
         -1   -1    0    0    0  501 -0.00000000000E+00  0.00000000000E+00  0.29055243585E+03  0.29055243585E+03  0.00000000000E+00 0.  1.
          1   -1    0    0  501    0  0.00000000000E+00 -0.00000000000E+00 -0.89502612014E+02  0.89502612014E+02  0.00000000000E+00 0. -1.
         25    2    1    2    0    0 -0.26764507941E+02  0.11151918694E+03  0.70496437394E+02  0.18376736777E+03  0.12509128600E+03 0.  0.
          5    1    3    3  502    0 -0.32072447039E+02  0.76742796538E+02 -0.20800095328E+02  0.85838307563E+02  0.41800000000E+01 0. -1.
         -5    1    3    3    0  502  0.53079390977E+01  0.34776390401E+02  0.91296532722E+02  0.97929060211E+02  0.41800000000E+01 0. -1.
        -11    1    1    2    0    0  0.57297734526E+02 -0.52823849703E+02  0.88357684525E+02  0.11781540601E+03  0.00000000000E+00 0.  1.
         11    1    1    2    0    0 -0.30533226585E+02 -0.58695337237E+02  0.42195701919E+02  0.78472274081E+02  0.00000000000E+00 0. -1.
</event>
<event>
 7    1  0.3001243E-009  0.1131602E+03  0.7561462E-02  0.1254827E+00
          2   -1    0    0  501    0  0.00000000000E+00  0.00000000000E+00  0.89667221814E+02  0.89667221814E+02  0.00000000000E+00 0. -1.
         -2   -1    0    0    0  501 -0.00000000000E+00 -0.00000000000E+00 -0.22087223674E+03  0.22087223674E+03  0.00000000000E+00 0.  1.
         25    2    1    2    0    0  0.64438136522E+02 -0.39686801380E+02 -0.20149898324E+02  0.14758388664E+03  0.12509064534E+03 0.  0.
          5    1    3    3  502    0  0.36112273928E+02 -0.80323229086E+02 -0.36254234804E+02  0.95329740377E+02  0.41800000000E+01 0.  1.
         -5    1    3    3    0  502  0.28325862594E+02  0.40636427707E+02  0.16104336480E+02  0.52254146265E+02  0.41800000000E+01 0.  1.
        -11    1    1    2    0    0 -0.28601925419E+02  0.43862846057E+02 -0.11529439297E+03  0.12662865573E+03  0.00000000000E+00 0.  1.
         11    1    1    2    0    0 -0.35836211102E+02 -0.41760446770E+01  0.42392763655E+01  0.36326916184E+02  0.00000000000E+00 0. -1.
</event>
<event>
 7    1  0.3001243E-009  0.1258670E+03  0.7561462E-02  0.1233720E+00
         -2   -1    0    0    0  501 -0.00000000000E+00  0.00000000000E+00  0.66777547048E+02  0.66777547048E+02  0.00000000000E+00 0.  1.
          2   -1    0    0  501    0  0.00000000000E+00 -0.00000000000E+00 -0.31096636134E+03  0.31096636134E+03  0.00000000000E+00 0. -1.
         25    2    1    2    0    0 -0.16118338676E+02 -0.37714834518E+01 -0.33626458656E+02  0.13059301754E+03  0.12509905107E+03 0.  0.
          5    1    3    3  502    0 -0.66943112664E+02  0.13622476445E+02 -0.34624636610E+02  0.76702607896E+02  0.41800000000E+01 0. -1.
         -5    1    3    3    0  502  0.50824773989E+02 -0.17393959897E+02  0.99817795338E+00  0.53890409640E+02  0.41800000000E+01 0. -1.
        -11    1    1    2    0    0 -0.55817031977E+02  0.11728351370E+02 -0.92491528819E+02  0.10866360103E+03  0.00000000000E+00 0. -1.
         11    1    1    2    0    0  0.71935370653E+02 -0.79568679185E+01 -0.11807082682E+03  0.13848728982E+03  0.00000000000E+00 0.  1.
</event>
<event>
 7    1  0.3001243E-009  0.1097115E+03  0.7561462E-02  0.1261105E+00
          2   -1    0    0  501    0  0.00000000000E+00  0.00000000000E+00  0.73448529288E+03  0.73448529288E+03  0.00000000000E+00 0. -1.
         -2   -1    0    0    0  501 -0.00000000000E+00 -0.00000000000E+00 -0.23086205096E+02  0.23086205096E+02  0.00000000000E+00 0.  1.
         25    2    1    2    0    0 -0.33651203035E+02  0.63884719047E+02  0.37768162050E+03  0.40435339143E+03  0.12507836707E+03 0.  0.
          5    1    3    3  502    0 -0.42428508478E+02 -0.20528320170E+02  0.65433311513E+02  0.80750114033E+02  0.41800000000E+01 0.  1.
         -5    1    3    3    0  502  0.87773054431E+01  0.84413039216E+02  0.31224830899E+03  0.32360327740E+03  0.41800000000E+01 0.  1.
        -11    1    1    2    0    0  0.41245357989E+02 -0.26590905614E+02  0.29453130003E+03  0.29859159820E+03  0.00000000000E+00 0. -1.
         11    1    1    2    0    0 -0.75941549537E+01 -0.37293813433E+02  0.39186167256E+02  0.54626508346E+02  0.00000000000E+00 0.  1.
</event>
<event>
 7    1  0.3001243E-009  0.9905721E+02  0.7561462E-02  0.1282291E+00
          2   -1    0    0  501    0  0.00000000000E+00  0.00000000000E+00  0.25650450929E+03  0.25650450929E+03  0.00000000000E+00 0. -1.
         -2   -1    0    0    0  501 -0.00000000000E+00 -0.00000000000E+00 -0.60517239966E+02  0.60517239966E+02  0.00000000000E+00 0.  1.
         25    2    1    2    0    0  0.54557084805E+02 -0.46346966730E+01  0.19409813237E+03  0.23731654887E+03  0.12508838261E+03 0.  0.
          5    1    3    3  502    0  0.33317888762E+02 -0.63520877369E+02  0.12340916006E+03  0.14280152927E+03  0.41800000000E+01 0. -1.
         -5    1    3    3    0  502  0.21239196043E+02  0.58886180696E+02  0.70688972307E+02  0.94515019607E+02  0.41800000000E+01 0. -1.
        -11    1    1    2    0    0 -0.72458286168E+01  0.13564760497E+02 -0.21294865797E+02  0.26267395550E+02  0.00000000000E+00 0.  1.
         11    1    1    2    0    0 -0.47311256188E+02 -0.89300638241E+01  0.23184002757E+02  0.53437804838E+02  0.00000000000E+00 0. -1.
</event>
<event>
 7    1  0.3001243E-009  0.1102041E+03  0.7561462E-02  0.1260192E+00
          1   -1    0    0  501    0  0.00000000000E+00  0.00000000000E+00  0.85119055411E+02  0.85119055411E+02  0.00000000000E+00 0. -1.
         -1   -1    0    0    0  501 -0.00000000000E+00 -0.00000000000E+00 -0.15758479107E+03  0.15758479107E+03  0.00000000000E+00 0.  1.
         25    2    1    2    0    0  0.26764436994E+02 -0.26456749073E+02 -0.47827175293E+02  0.13910831880E+03  0.12508953195E+03 0.  0.
          5    1    3    3  502    0 -0.40075542161E+02 -0.45654240766E+02 -0.20063957393E+02  0.64112351116E+02  0.41800000000E+01 0.  1.
         -5    1    3    3    0  502  0.66839979154E+02  0.19197491693E+02 -0.27763217900E+02  0.74995967684E+02  0.41800000000E+01 0.  1.
        -11    1    1    2    0    0 -0.40490960116E+02 -0.17268334752E+02 -0.35437559865E+02  0.56511360676E+02  0.00000000000E+00 0. -1.
         11    1    1    2    0    0  0.13726523123E+02  0.43725083825E+02  0.10798999499E+02  0.47084167007E+02  0.00000000000E+00 0.  1.
</event>
<event>
 7    1  0.3001243E-009  0.9825148E+02  0.7561462E-02  0.1284016E+00
         -4   -1    0    0    0  501 -0.00000000000E+00  0.00000000000E+00  0.21360175052E+02  0.21360175052E+02  0.00000000000E+00 0.  1.
          4   -1    0    0  501    0  0.00000000000E+00 -0.00000000000E+00 -0.57791365414E+03  0.57791365414E+03  0.00000000000E+00 0. -1.
         25    2    1    2    0    0  0.16924396933E+02 -0.12711496394E+02 -0.25633834244E+03  0.28601532173E+03  0.12508957234E+03 0.  0.
          5    1    3    3  502    0  0.60204152902E+02 -0.33316194237E+02 -0.93162136238E+02  0.11589290252E+03  0.41800000000E+01 0.  1.
         -5    1    3    3    0  502 -0.43279755969E+02  0.20604697843E+02 -0.16317620620E+03  0.17012241922E+03  0.41800000000E+01 0.  1.
        -11    1    1    2    0    0 -0.52203094262E+01  0.44899701812E+02 -0.23785288612E+03  0.24210995495E+03  0.00000000000E+00 0.  1.
         11    1    1    2    0    0 -0.11704087506E+02 -0.32188205418E+02 -0.62362250530E+02  0.71148552505E+02  0.00000000000E+00 0. -1.
</event>
<event>
 7    1  0.3001243E-009  0.6298963E+02  0.7561462E-02  0.1385697E+00
         -2   -1    0    0    0  501 -0.00000000000E+00  0.00000000000E+00  0.70521280486E+02  0.70521280486E+02  0.00000000000E+00 0.  1.
          2   -1    0    0  501    0  0.00000000000E+00 -0.00000000000E+00 -0.18960192883E+03  0.18960192883E+03  0.00000000000E+00 0. -1.
         25    2    1    2    0    0 -0.13664152168E+02  0.23793598253E+02 -0.39062890944E+02  0.13389023100E+03  0.12509132718E+03 0.  0.
          5    1    3    3  502    0 -0.30667727879E+02  0.38092987687E+02  0.32483144789E+02  0.58857559749E+02  0.41800000000E+01 0.  1.
         -5    1    3    3    0  502  0.17003575711E+02 -0.14299389434E+02 -0.71546035734E+02  0.75032671246E+02  0.41800000000E+01 0.  1.
        -11    1    1    2    0    0  0.86426971019E+01 -0.38131424120E+02 -0.96317864726E+02  0.10395110766E+03  0.00000000000E+00 0. -1.
         11    1    1    2    0    0  0.50214550663E+01  0.14337825866E+02  0.16300107322E+02  0.22281870664E+02  0.00000000000E+00 0.  1.
</event>
<event>
 7    1  0.3001243E-009  0.8443770E+02  0.7561462E-02  0.1316910E+00
          3   -1    0    0  501    0  0.00000000000E+00  0.00000000000E+00  0.19992993372E+03  0.19992993372E+03  0.00000000000E+00 0. -1.
         -3   -1    0    0    0  501 -0.00000000000E+00 -0.00000000000E+00 -0.71288562939E+02  0.71288562939E+02  0.00000000000E+00 0.  1.
         25    2    1    2    0    0 -0.42950643570E+02  0.18192833434E+02  0.94564566799E+02  0.16363761500E+03  0.12513622488E+03 0.  0.
          5    1    3    3  502    0  0.65466005093E+01 -0.34817740509E+02  0.82650029632E+02  0.90020180129E+02  0.41800000000E+01 0. -1.
         -5    1    3    3    0  502 -0.49497244079E+02  0.53010573943E+02  0.11914537167E+02  0.73617434872E+02  0.41800000000E+01 0. -1.
        -11    1    1    2    0    0  0.30750534067E+02  0.79014430601E+01 -0.25946786306E+02  0.41003217770E+02  0.00000000000E+00 0.  1.
         11    1    1    2    0    0  0.12200109503E+02 -0.26094276494E+02  0.60023590290E+02  0.66577663889E+02  0.00000000000E+00 0. -1.
</event>
<event>
 7    1  0.3001243E-009  0.1390114E+03  0.7561462E-02  0.1214665E+00
         -2   -1    0    0    0  501 -0.00000000000E+00  0.00000000000E+00  0.30783458673E+03  0.30783458673E+03  0.00000000000E+00 0.  1.
          2   -1    0    0  501    0  0.00000000000E+00 -0.00000000000E+00 -0.72722578713E+02  0.72722578713E+02  0.00000000000E+00 0. -1.
         25    2    1    2    0    0 -0.81853913830E+02  0.41601060709E+02  0.67458876843E+02  0.16920142675E+03  0.12509081216E+03 0.  0.
          5    1    3    3  502    0 -0.11103411503E+03  0.53573668170E+02  0.53943773411E+02  0.13463326376E+03  0.41800000000E+01 0.  1.
         -5    1    3    3    0  502  0.29180201200E+02 -0.11972607461E+02  0.13515103432E+02  0.34568162986E+02  0.41800000000E+01 0.  1.
        -11    1    1    2    0    0  0.97704591393E+02 -0.43380463541E+02  0.16265649496E+03  0.19464117537E+03  0.00000000000E+00 0.  1.
         11    1    1    2    0    0 -0.15850677563E+02  0.17794028318E+01  0.49966362126E+01  0.16714563323E+02  0.00000000000E+00 0. -1.
</event>
<event>
 7    1  0.3001243E-009  0.1050392E+03  0.7561462E-02  0.1270042E+00
          1   -1    0    0  501    0  0.00000000000E+00  0.00000000000E+00  0.75928826273E+02  0.75928826273E+02  0.00000000000E+00 0. -1.
         -1   -1    0    0    0  501 -0.00000000000E+00 -0.00000000000E+00 -0.17436869942E+03  0.17436869942E+03  0.00000000000E+00 0.  1.
         25    2    1    2    0    0 -0.69897412696E+00 -0.12638228830E+02 -0.87780644729E+02  0.15332716528E+03  0.12507423648E+03 0.  0.
          5    1    3    3  502    0 -0.56265132723E+00 -0.68903627839E+02 -0.53186397133E+02  0.87145233638E+02  0.41800000000E+01 0. -1.
         -5    1    3    3    0  502 -0.13632279973E+00  0.56265399009E+02 -0.34594247596E+02  0.66181931645E+02  0.41800000000E+01 0. -1.
        -11    1    1    2    0    0 -0.41471180779E+02  0.50453567876E+01 -0.28483023570E+02  0.50562803443E+02  0.00000000000E+00 0.  1.
         11    1    1    2    0    0  0.42170154906E+02  0.75928720421E+01  0.17823795147E+02  0.46407556972E+02  0.00000000000E+00 0. -1.
</event>
<event>
 7    1  0.3001243E-009  0.7309364E+02  0.7561462E-02  0.1349878E+00
          1   -1    0    0  501    0  0.00000000000E+00  0.00000000000E+00  0.53116570644E+02  0.53116570644E+02  0.00000000000E+00 0. -1.
         -1   -1    0    0    0  501 -0.00000000000E+00 -0.00000000000E+00 -0.34413040046E+03  0.34413040046E+03  0.00000000000E+00 0.  1.
         25    2    1    2    0    0  0.65595945698E+00  0.27314176471E+02 -0.26754220917E+03  0.29659731976E+03  0.12507854286E+03 0.  0.
          5    1    3    3  502    0 -0.19430112736E+02 -0.13746225466E+02  0.97524530984E+00  0.24184943641E+02  0.41800000000E+01 0.  1.
         -5    1    3    3    0  502  0.20086072193E+02  0.41060401937E+02 -0.26851745448E+03  0.27241237612E+03  0.41800000000E+01 0.  1.
        -11    1    1    2    0    0 -0.27385669460E+02  0.10909533914E+02 -0.41278267302E+02  0.50723645112E+02  0.00000000000E+00 0.  1.
         11    1    1    2    0    0  0.26729710003E+02 -0.38223710385E+02  0.17806646659E+02  0.49926006226E+02  0.00000000000E+00 0. -1.
</event>
<event>
 7    1  0.3001243E-009  0.1155605E+03  0.7561462E-02  0.1250606E+00
          1   -1    0    0  501    0  0.00000000000E+00  0.00000000000E+00  0.29371867729E+02  0.29371867729E+02  0.00000000000E+00 0. -1.
         -1   -1    0    0    0  501 -0.00000000000E+00 -0.00000000000E+00 -0.50065285556E+03  0.50065285556E+03  0.00000000000E+00 0.  1.
         25    2    1    2    0    0  0.40428948453E+02  0.36804985399E+02 -0.29457523293E+03  0.32467037534E+03  0.12508868030E+03 0.  0.
          5    1    3    3  502    0  0.83957151518E+02  0.23157964987E+02 -0.22565965703E+03  0.24191909359E+03  0.41800000000E+01 0. -1.
         -5    1    3    3    0  502 -0.43528203065E+02  0.13647020412E+02 -0.68915575904E+02  0.82751281745E+02  0.41800000000E+01 0. -1.
        -11    1    1    2    0    0  0.23638752714E+02 -0.22156099195E+02 -0.28186662618E+02  0.42943815747E+02  0.00000000000E+00 0.  1.
         11    1    1    2    0    0 -0.64067701167E+02 -0.14648886204E+02 -0.14851909228E+03  0.16241053220E+03  0.00000000000E+00 0. -1.
</event>
<event>
 6    1  0.3001243E-009  0.5224320E+02  0.7561462E-02  0.1433605E+00
          2   -1    0    0  501    0  0.00000000000E+00  0.00000000000E+00  0.12357843005E+03  0.12357843005E+03  0.00000000000E+00 0. -1.
         -2   -1    0    0    0  501 -0.00000000000E+00 -0.00000000000E+00 -0.10910388642E+03  0.10910388642E+03  0.00000000000E+00 0.  1.
          5    1    1    2  502    0  0.16042598264E+01 -0.40154622254E+02 -0.44763645964E+02  0.60301108928E+02  0.41800000000E+01 0. -1.
         -5    1    1    2    0  502  0.12571760494E+02  0.57641465005E+01  0.71535012964E+02  0.72979483600E+02  0.41800000000E+01 0. -1.
        -11    1    1    2    0    0 -0.20720012521E+02  0.76209784555E+01 -0.48860113076E+02  0.53616311709E+02  0.00000000000E+00 0.  1.
         11    1    1    2    0    0  0.65439922002E+01  0.26769497298E+02  0.36563289704E+02  0.45785412235E+02  0.00000000000E+00 0. -1.
</event>
<event>
 7    1  0.3001243E-009  0.1038289E+03  0.7561462E-02  0.1272444E+00
          1   -1    0    0  501    0  0.00000000000E+00  0.00000000000E+00  0.59898758250E+02  0.59898758250E+02  0.00000000000E+00 0.  1.
         -1   -1    0    0    0  501 -0.00000000000E+00 -0.00000000000E+00 -0.23131665568E+03  0.23131665568E+03  0.00000000000E+00 0. -1.
         25    2    1    2    0    0  0.19992930029E+02 -0.15491983255E+02 -0.56986455861E+02  0.13976933729E+03  0.12509313610E+03 0.  0.
          5    1    3    3  502    0  0.45543768480E+02 -0.58046333110E+02 -0.50571493415E+02  0.89546412441E+02  0.41800000000E+01 0.  1.
         -5    1    3    3    0  502 -0.25550838451E+02  0.42554349855E+02 -0.64149624461E+01  0.50222924848E+02  0.41800000000E+01 0.  1.
        -11    1    1    2    0    0  0.26883721434E+02 -0.12177813160E+02 -0.84108394684E+02  0.89136163636E+02  0.00000000000E+00 0. -1.
         11    1    1    2    0    0 -0.46876651462E+02  0.27669796415E+02 -0.30323046882E+02  0.62309913001E+02  0.00000000000E+00 0.  1.
</event>
<event>
 7    1  0.3001243E-009  0.1090019E+03  0.7561462E-02  0.1262429E+00
          1   -1    0    0  501    0  0.00000000000E+00  0.00000000000E+00  0.86488770797E+03  0.86488770797E+03  0.00000000000E+00 0. -1.
         -1   -1    0    0    0  501 -0.00000000000E+00 -0.00000000000E+00 -0.16028047753E+02  0.16028047753E+02  0.00000000000E+00 0.  1.
         25    2    1    2    0    0  0.16313910154E+02  0.27850818617E+02  0.56538534409E+03  0.57995616264E+03  0.12508697580E+03 0.  0.
          5    1    3    3  502    0 -0.18532274072E+02  0.68363896082E+02  0.24307472059E+03  0.25321899546E+03  0.41800000000E+01 0. -1.
         -5    1    3    3    0  502  0.34846184227E+02 -0.40513077465E+02  0.32231062350E+03  0.32673716718E+03  0.41800000000E+01 0. -1.
        -11    1    1    2    0    0  0.35816685470E+02 -0.19091457605E+02  0.18279352257E+03  0.18724526858E+03  0.00000000000E+00 0. -1.
         11    1    1    2    0    0 -0.52130595625E+02 -0.87593610120E+01  0.10068079357E+03  0.11371432451E+03  0.00000000000E+00 0.  1.
</event>
<event>
 7    1  0.3001243E-009  0.1140330E+03  0.7561462E-02  0.1253279E+00
          2   -1    0    0  501    0  0.00000000000E+00  0.00000000000E+00  0.12195519649E+02  0.12195519649E+02  0.00000000000E+00 0. -1.
         -2   -1    0    0    0  501 -0.00000000000E+00 -0.00000000000E+00 -0.19381460054E+04  0.19381460054E+04  0.00000000000E+00 0.  1.
         25    2    1    2    0    0  0.64179511555E+02 -0.14406483959E+02 -0.15818497824E+04  0.15881508694E+04  0.12509154076E+03 0.  0.
          5    1    3    3  502    0  0.24664797386E+01  0.37900258811E+02 -0.18243154361E+03  0.18639005779E+03  0.41800000000E+01 0.  1.
         -5    1    3    3    0  502  0.61713031816E+02 -0.52306742770E+02 -0.13994182388E+04  0.14017608116E+04  0.41800000000E+01 0.  1.
        -11    1    1    2    0    0 -0.43853832211E+02 -0.34558588942E+02 -0.22498158399E+03  0.23180631528E+03  0.00000000000E+00 0.  1.
         11    1    1    2    0    0 -0.20325679344E+02  0.48965072902E+02 -0.11911911943E+03  0.13038434039E+03  0.00000000000E+00 0. -1.
</event>
<event>
 7    1  0.3001243E-009  0.1379776E+03  0.7561462E-02  0.1216076E+00
          1   -1    0    0  501    0  0.00000000000E+00  0.00000000000E+00  0.45662201602E+03  0.45662201602E+03  0.00000000000E+00 0. -1.
         -1   -1    0    0    0  501 -0.00000000000E+00 -0.00000000000E+00 -0.43284999262E+02  0.43284999262E+02  0.00000000000E+00 0.  1.
         25    2    1    2    0    0 -0.70202246180E+02  0.51988611594E+02  0.24301914626E+03  0.28693648701E+03  0.12507226322E+03 0.  0.
          5    1    3    3  502    0 -0.90871805268E+02 -0.53659243247E+01  0.15453649127E+03  0.17940311500E+03  0.41800000000E+01 0.  1.
         -5    1    3    3    0  502  0.20669559088E+02  0.57354535919E+02  0.88482654990E+02  0.10753337202E+03  0.41800000000E+01 0.  1.
        -11    1    1    2    0    0 -0.11057069519E+01 -0.52399846977E+02  0.46398455430E+02  0.69998451535E+02  0.00000000000E+00 0.  1.
         11    1    1    2    0    0  0.71307953132E+02  0.41123538224E+00  0.12391941507E+03  0.14297207673E+03  0.00000000000E+00 0. -1.
</event>
<event>
 7    1  0.3001243E-009  0.1555153E+03  0.7561462E-02  0.1193855E+00
          2   -1    0    0  501    0  0.00000000000E+00  0.00000000000E+00  0.11448830835E+04  0.11448830835E+04  0.00000000000E+00 0.  1.
         -2   -1    0    0    0  501 -0.00000000000E+00 -0.00000000000E+00 -0.26410973509E+02  0.26410973509E+02  0.00000000000E+00 0. -1.
         25    2    1    2    0    0 -0.11711557713E+03 -0.49713130975E+02  0.74979978811E+03  0.77073736813E+03  0.12509562173E+03 0.  0.
          5    1    3    3  502    0 -0.10036691802E+03 -0.80436341138E+02  0.68491640807E+03  0.69690134284E+03  0.41800000000E+01 0. -1.
         -5    1    3    3    0  502 -0.16748659108E+02  0.30723210163E+02  0.64883380047E+02  0.73836025292E+02  0.41800000000E+01 0. -1.
        -11    1    1    2    0    0  0.91281939529E+01 -0.17617578836E+02  0.11558909156E+03  0.11727975570E+03  0.00000000000E+00 0.  1.
         11    1    1    2    0    0  0.10798738317E+03  0.67330709811E+02  0.25308323036E+03  0.28327693322E+03  0.00000000000E+00 0. -1.
</event>
<event>
 7    1  0.3001243E-009  0.4925943E+02  0.7561462E-02  0.1449377E+00
         -1   -1    0    0    0  501 -0.00000000000E+00  0.00000000000E+00  0.73687482532E+02  0.73687482532E+02  0.00000000000E+00 0.  1.
          1   -1    0    0  501    0  0.00000000000E+00 -0.00000000000E+00 -0.21322526288E+03  0.21322526288E+03  0.00000000000E+00 0. -1.
         25    2    1    2    0    0  0.22933532030E+02 -0.12576169066E+02 -0.14439707425E+03  0.19282263373E+03  0.12508375637E+03 0.  0.
          5    1    3    3  502    0 -0.65565009162E+01 -0.21540924710E+02 -0.15743790583E+03  0.15909483251E+03  0.41800000000E+01 0. -1.
         -5    1    3    3    0  502  0.29490032946E+02  0.89647556441E+01  0.13040831574E+02  0.33727801219E+02  0.41800000000E+01 0. -1.
        -11    1    1    2    0    0 -0.49589065588E+01  0.23138937518E+02 -0.38948698529E+02  0.45574140703E+02  0.00000000000E+00 0. -1.
         11    1    1    2    0    0 -0.17974625471E+02 -0.10562768453E+02  0.43807992436E+02  0.48515970973E+02  0.00000000000E+00 0.  1.
</event>
<event>
 7    1  0.3088326E-009  0.1507286E+03  0.7561462E-02  0.1199581E+00
         -1   -1    0    0    0  501 -0.00000000000E+00  0.00000000000E+00  0.16839891569E+02  0.16839891569E+02  0.00000000000E+00 0.  1.
          1   -1    0    0  501    0  0.00000000000E+00 -0.00000000000E+00 -0.15528391209E+04  0.15528391209E+04  0.00000000000E+00 0. -1.
         25    2    1    2    0    0 -0.10039849846E+03  0.28984061278E+02 -0.11026834448E+04  0.11146651473E+04  0.12509067490E+03 0.  0.
          5    1    3    3  502    0 -0.36551787246E+02  0.75238767758E+02 -0.53421000833E+03  0.54073534259E+03  0.41800000000E+01 0.  1.
         -5    1    3    3    0  502 -0.63846711218E+02 -0.46254706480E+02 -0.56847343645E+03  0.57392980473E+03  0.41800000000E+01 0.  1.
        -11    1    1    2    0    0  0.30408072063E+02 -0.56005595122E+02 -0.20678137826E+03  0.21637887126E+03  0.00000000000E+00 0.  1.
         11    1    1    2    0    0  0.69990426401E+02  0.27021533844E+02 -0.22653440633E+03  0.23863499393E+03  0.00000000000E+00 0. -1.
</event>
<event>
 7    1  0.3001243E-009  0.1485883E+03  0.7561462E-02  0.1202218E+00
         -1   -1    0    0    0  501 -0.00000000000E+00  0.00000000000E+00  0.20711841222E+02  0.20711841222E+02  0.00000000000E+00 0.  1.
          1   -1    0    0  501    0  0.00000000000E+00 -0.00000000000E+00 -0.13856459525E+04  0.13856459525E+04  0.00000000000E+00 0. -1.
         25    2    1    2    0    0  0.10945498491E+03 -0.54870959325E+02 -0.90536018212E+03  0.92212553587E+03  0.12508888293E+03 0.  0.
          5    1    3    3  502    0  0.51198450230E+02 -0.67652305211E+02 -0.76308472995E+03  0.76779808101E+03  0.41800000000E+01 0.  1.
         -5    1    3    3    0  502  0.58256534676E+02  0.12781345885E+02 -0.14227545217E+03  0.15432745486E+03  0.41800000000E+01 0.  1.
        -11    1    1    2    0    0 -0.80614014196E+02 -0.10210323470E+02 -0.25413425968E+03  0.26680909267E+03  0.00000000000E+00 0.  1.
         11    1    1    2    0    0 -0.28840970710E+02  0.65081282795E+02 -0.20543966946E+03  0.21742316517E+03  0.00000000000E+00 0. -1.
</event>
<event>
 7    1  0.3001243E-009  0.1308554E+03  0.7561462E-02  0.1226192E+00
          2   -1    0    0  501    0  0.00000000000E+00  0.00000000000E+00  0.50023586927E+03  0.50023586927E+03  0.00000000000E+00 0. -1.
         -2   -1    0    0    0  501 -0.00000000000E+00 -0.00000000000E+00 -0.38387361814E+02  0.38387361814E+02  0.00000000000E+00 0.  1.
         25    2    1    2    0    0 -0.11121869483E+02  0.84169610809E+02  0.24607495602E+03  0.28880453910E+03  0.12508780300E+03 0.  0.
          5    1    3    3  502    0 -0.49330257855E+02 -0.49094861046E+01  0.11858498625E+03  0.12859801226E+03  0.41800000000E+01 0. -1.
         -5    1    3    3    0  502  0.38208388372E+02  0.89079096914E+02  0.12748996977E+03  0.16020652683E+03  0.41800000000E+01 0. -1.
        -11    1    1    2    0    0  0.25934267696E+02 -0.93770902296E+02  0.20966709026E+03  0.23114034069E+03  0.00000000000E+00 0.  1.
         11    1    1    2    0    0 -0.14812398213E+02  0.96012914868E+01  0.61064611829E+01  0.18678351298E+02  0.00000000000E+00 0. -1.
</event>
<event>
 7    1  0.3001243E-009  0.1646759E+03  0.7561462E-02  0.1183517E+00
          2   -1    0    0  501    0  0.00000000000E+00  0.00000000000E+00  0.61481833740E+03  0.61481833740E+03  0.00000000000E+00 0. -1.
         -2   -1    0    0    0  501 -0.00000000000E+00 -0.00000000000E+00 -0.57816773098E+02  0.57816773098E+02  0.00000000000E+00 0.  1.
         25    2    1    2    0    0 -0.96127315875E+02  0.95908715950E+02  0.42206738138E+03  0.46068203427E+03  0.12509244430E+03 0.  0.
          5    1    3    3  502    0 -0.65228179083E+02 -0.13348117157E+02  0.11088079034E+03  0.12940212380E+03  0.41800000000E+01 0.  1.
         -5    1    3    3    0  502 -0.30899136793E+02  0.10925683311E+03  0.31118659105E+03  0.33127991047E+03  0.41800000000E+01 0.  1.
        -11    1    1    2    0    0  0.90490900809E+02 -0.51224443807E+02  0.13025829959E+03  0.16667264738E+03  0.00000000000E+00 0. -1.
         11    1    1    2    0    0  0.56364150659E+01 -0.44684272143E+02  0.46758833310E+01  0.45280428848E+02  0.00000000000E+00 0.  1.
</event>
<event>
 7    1  0.3001243E-009  0.1234291E+03  0.7561462E-02  0.1237545E+00
         -1   -1    0    0    0  501 -0.00000000000E+00  0.00000000000E+00  0.20697239736E+03  0.20697239736E+03  0.00000000000E+00 0.  1.
          1   -1    0    0  501    0  0.00000000000E+00 -0.00000000000E+00 -0.11272661558E+03  0.11272661558E+03  0.00000000000E+00 0. -1.
         25    2    1    2    0    0 -0.26767742746E+02 -0.93838006183E+02  0.24911293249E+01  0.15867310934E+03  0.12509542936E+03 0.  0.
          5    1    3    3  502    0  0.33292507848E+02 -0.32202561317E+02  0.43113622001E+02  0.63416502870E+02  0.41800000000E+01 0.  1.
         -5    1    3    3    0  502 -0.60060250595E+02 -0.61635444866E+02 -0.40622492676E+02  0.95256606472E+02  0.41800000000E+01 0.  1.
        -11    1    1    2    0    0 -0.16861021920E+02  0.48154176369E+02  0.17313895619E+01  0.51050136844E+02  0.00000000000E+00 0. -1.
         11    1    1    2    0    0  0.43628764667E+02  0.45683829814E+02  0.90023262884E+02  0.10997576675E+03  0.00000000000E+00 0.  1.
</event>
<event>
 7    1  0.3001243E-009  0.1787267E+03  0.7561462E-02  0.1169041E+00
          2   -1    0    0  501    0  0.00000000000E+00  0.00000000000E+00  0.11297474090E+04  0.11297474090E+04  0.00000000000E+00 0. -1.
         -2   -1    0    0    0  501 -0.00000000000E+00 -0.00000000000E+00 -0.31342502149E+02  0.31342502149E+02  0.00000000000E+00 0.  1.
         25    2    1    2    0    0  0.31987934749E+01 -0.15343090504E+03  0.55386618036E+03  0.58818942364E+03  0.12509107655E+03 0.  0.
          5    1    3    3  502    0  0.45800288292E+02 -0.44819967647E+02  0.94739649896E+02  0.11445335106E+03  0.41800000000E+01 0. -1.
         -5    1    3    3    0  502 -0.42601494817E+02 -0.10861093740E+03  0.45912653046E+03  0.47373607257E+03  0.41800000000E+01 0. -1.
        -11    1    1    2    0    0 -0.29336050877E+02  0.10447931399E+02  0.12784933152E+03  0.13158728936E+03  0.00000000000E+00 0. -1.
         11    1    1    2    0    0  0.26137257402E+02  0.14298297365E+03  0.41668939498E+03  0.44131319815E+03  0.00000000000E+00 0.  1.
</event>
<event>
 7    1  0.3001243E-009  0.1254018E+03  0.7561462E-02  0.1234443E+00
         -2   -1    0    0    0  501 -0.00000000000E+00  0.00000000000E+00  0.21893599202E+03  0.21893599202E+03  0.00000000000E+00 0.  1.
          2   -1    0    0  501    0  0.00000000000E+00 -0.00000000000E+00 -0.74243526396E+02  0.74243526396E+02  0.00000000000E+00 0. -1.
         25    2    1    2    0    0  0.59432573834E+02  0.40910275279E+02  0.86993096931E+02  0.16858576129E+03  0.12508988184E+03 0.  0.
          5    1    3    3  502    0 -0.16277312106E+02  0.61789619015E+02  0.52072090979E+02  0.82534132129E+02  0.41800000000E+01 0.  1.
         -5    1    3    3    0  502  0.75709885940E+02 -0.20879343736E+02  0.34921005953E+02  0.86051629157E+02  0.41800000000E+01 0.  1.
        -11    1    1    2    0    0 -0.45365809569E+02 -0.65569113506E+02  0.30770544189E+02  0.85464564081E+02  0.00000000000E+00 0. -1.
         11    1    1    2    0    0 -0.14066764264E+02  0.24658838227E+02  0.26928824507E+02  0.39129193052E+02  0.00000000000E+00 0.  1.
</event>
<event>
 7    1  0.3001243E-009  0.8144825E+02  0.7561462E-02  0.1324991E+00
          2   -1    0    0  501    0  0.00000000000E+00  0.00000000000E+00  0.16983312921E+03  0.16983312921E+03  0.00000000000E+00 0. -1.
         -2   -1    0    0    0  501 -0.00000000000E+00 -0.00000000000E+00 -0.88976566079E+02  0.88976566079E+02  0.00000000000E+00 0.  1.
         25    2    1    2    0    0 -0.12313995262E+02  0.29743677076E+02  0.96499219395E+02  0.16123305710E+03  0.12509068132E+03 0.  0.
          5    1    3    3  502    0 -0.28723181933E+02  0.40440908856E+02 -0.11749496690E+02  0.51146958482E+02  0.41800000000E+01 0.  1.
         -5    1    3    3    0  502  0.16409186672E+02 -0.10697231780E+02  0.10824871608E+03  0.11008609862E+03  0.41800000000E+01 0.  1.
        -11    1    1    2    0    0  0.38246603353E+02  0.15235031440E+02 -0.19421339720E+02  0.45520295336E+02  0.00000000000E+00 0.  1.
         11    1    1    2    0    0 -0.25932608091E+02 -0.44978708516E+02  0.37786834535E+01  0.52056342849E+02  0.00000000000E+00 0. -1.
</event>
<event>
 7    1  0.3001243E-009  0.1434483E+03  0.7561462E-02  0.1208763E+00
         -2   -1    0    0    0  501 -0.00000000000E+00  0.00000000000E+00  0.17020885369E+03  0.17020885369E+03  0.00000000000E+00 0.  1.
          2   -1    0    0  501    0  0.00000000000E+00 -0.00000000000E+00 -0.13203820048E+03  0.13203820048E+03  0.00000000000E+00 0. -1.
         25    2    1    2    0    0 -0.94657118615E+02  0.28098178787E+02 -0.10722806925E+02  0.15973352932E+03  0.12510133510E+03 0.  0.
          5    1    3    3  502    0 -0.51475489513E+02  0.74910085835E+02  0.12445532809E+02  0.91834692069E+02  0.41800000000E+01 0. -1.
         -5    1    3    3    0  502 -0.43181629102E+02 -0.46811907048E+02 -0.23168339734E+02  0.67898837247E+02  0.41800000000E+01 0. -1.
        -11    1    1    2    0    0  0.10785635371E+03 -0.39279977991E+02  0.49947525520E+02  0.12518252678E+03  0.00000000000E+00 0.  1.
         11    1    1    2    0    0 -0.13199235090E+02  0.11181799204E+02 -0.10540653848E+01  0.17330998074E+02  0.00000000000E+00 0. -1.
</event>
<event>
 7    1  0.3001243E-009  0.2874754E+03  0.7561462E-02  0.1091675E+00
         -3   -1    0    0    0  501 -0.00000000000E+00  0.00000000000E+00  0.56546119360E+03  0.56546119360E+03  0.00000000000E+00 0.  1.
          3   -1    0    0  501    0  0.00000000000E+00 -0.00000000000E+00 -0.26686701745E+03  0.26686701745E+03  0.00000000000E+00 0. -1.
         25    2    1    2    0    0 -0.17245069885E+03  0.21304886602E+03  0.42179051726E+03  0.51834922273E+03  0.12509841491E+03 0.  0.
          5    1    3    3  502    0 -0.17735907229E+02 -0.48750891471E+01 -0.15869082232E+00  0.18863363491E+02  0.41800000000E+01 0.  1.
         -5    1    3    3    0  502 -0.15471479162E+03  0.21792395516E+03  0.42194920808E+03  0.49948585924E+03  0.41800000000E+01 0.  1.
        -11    1    1    2    0    0  0.17893297137E+03 -0.17529655437E+03 -0.10629718485E+03  0.27211207567E+03  0.00000000000E+00 0.  1.
         11    1    1    2    0    0 -0.64822725242E+01 -0.37752311647E+02 -0.16899156259E+02  0.41866912640E+02  0.00000000000E+00 0. -1.
</event>
<event>
 7    1  0.3001243E-009  0.1420436E+03  0.7561462E-02  0.1210605E+00
         -3   -1    0    0    0  501 -0.00000000000E+00  0.00000000000E+00  0.97682368497E+03  0.97682368497E+03  0.00000000000E+00 0.  1.
          3   -1    0    0  501    0  0.00000000000E+00 -0.00000000000E+00 -0.22031329702E+02  0.22031329702E+02  0.00000000000E+00 0. -1.
         25    2    1    2    0    0  0.59214041499E+02  0.80602443225E+02  0.59497716782E+03  0.61615621956E+03  0.12509036777E+03 0.  0.
          5    1    3    3  502    0  0.68295338582E+02 -0.97408683819E+01  0.24384157706E+03  0.25344688771E+03  0.41800000000E+01 0.  1.
         -5    1    3    3    0  502 -0.90812970830E+01  0.90343311607E+02  0.35113559077E+03  0.36270933185E+03  0.41800000000E+01 0.  1.
        -11    1    1    2    0    0 -0.46069458940E+02 -0.94388436499E+02  0.24879731501E+03  0.27005865279E+03  0.00000000000E+00 0.  1.
         11    1    1    2    0    0 -0.13144582559E+02  0.13785993275E+02  0.11101787243E+03  0.11264014231E+03  0.00000000000E+00 0. -1.
</event>
<event>
 7    1  0.3001243E-009  0.1830750E+03  0.7561462E-02  0.1164860E+00
         -2   -1    0    0    0  501 -0.00000000000E+00  0.00000000000E+00  0.48579404276E+03  0.48579404276E+03  0.00000000000E+00 0.  1.
          2   -1    0    0  501    0  0.00000000000E+00 -0.00000000000E+00 -0.78991090819E+02  0.78991090819E+02  0.00000000000E+00 0. -1.
         25    2    1    2    0    0 -0.16128423157E+03 -0.22847449587E+02  0.21543166171E+03  0.29764639365E+03  0.12509182819E+03 0.  0.
          5    1    3    3  502    0  0.92700560556E+01  0.23146527872E+02  0.47856647792E+02  0.54124179714E+02  0.41800000000E+01 0.  1.
         -5    1    3    3    0  502 -0.17055428763E+03 -0.45993977459E+02  0.16757501392E+03  0.24352221394E+03  0.41800000000E+01 0.  1.
        -11    1    1    2    0    0  0.14031873999E+03  0.26750823514E+02  0.10268318329E+03  0.17592268609E+03  0.00000000000E+00 0. -1.
         11    1    1    2    0    0  0.20965491587E+02 -0.39033739263E+01  0.88688106937E+02  0.91216053836E+02  0.00000000000E+00 0.  1.
</event>
<event>
 7    1  0.3001243E-009  0.1674899E+03  0.7561462E-02  0.1180491E+00
         -2   -1    0    0    0  501 -0.00000000000E+00  0.00000000000E+00  0.23005386470E+03  0.23005386470E+03  0.00000000000E+00 0.  1.
          2   -1    0    0  501    0  0.00000000000E+00 -0.00000000000E+00 -0.16691670673E+03  0.16691670673E+03  0.00000000000E+00 0. -1.
         25    2    1    2    0    0 -0.75222574156E+02  0.10093512528E+03 -0.69235141277E+02  0.19049210422E+03  0.12508957513E+03 0.  0.
          5    1    3    3  502    0  0.31701935013E+02  0.47117356222E+02 -0.30559573147E+02  0.64625210652E+02  0.41800000000E+01 0.  1.
         -5    1    3    3    0  502 -0.10692450917E+03  0.53817769054E+02 -0.38675568130E+02  0.12586689357E+03  0.41800000000E+01 0.  1.
        -11    1    1    2    0    0  0.90110833381E+02 -0.45669544199E+02  0.89500227375E+02  0.13496651533E+03  0.00000000000E+00 0.  1.
         11    1    1    2    0    0 -0.14888259225E+02 -0.55265581076E+02  0.42872071873E+02  0.71511951876E+02  0.00000000000E+00 0. -1.
</event>
<event>
 7    1  0.3001243E-009  0.1174172E+03  0.7561462E-02  0.1247420E+00
          2   -1    0    0  501    0  0.00000000000E+00  0.00000000000E+00  0.64658371957E+03  0.64658371957E+03  0.00000000000E+00 0.  1.
         -2   -1    0    0    0  501 -0.00000000000E+00 -0.00000000000E+00 -0.51256600928E+02  0.51256600928E+02  0.00000000000E+00 0. -1.
         25    2    1    2    0    0 -0.27251759211E+02  0.34343967235E+02  0.57760653398E+03  0.59262044017E+03  0.12509001376E+03 0.  0.
          5    1    3    3  502    0  0.36216531082E+02  0.54654194654E+02  0.29696403720E+03  0.30414442277E+03  0.41800000000E+01 0.  1.
         -5    1    3    3    0  502 -0.63468290293E+02 -0.20310227419E+02  0.28064249678E+03  0.28847601739E+03  0.41800000000E+01 0.  1.
        -11    1    1    2    0    0  0.78853117505E+00 -0.63205085460E+02  0.19118362617E+02  0.66037992085E+02  0.00000000000E+00 0.  1.
         11    1    1    2    0    0  0.26463228036E+02  0.28861118225E+02 -0.13977779532E+01  0.39181888246E+02  0.00000000000E+00 0. -1.
</event>
<event>
 7    1  0.3001243E-009  0.6259181E+02  0.7561462E-02  0.1387266E+00
         -2   -1    0    0    0  501 -0.00000000000E+00  0.00000000000E+00  0.18295115503E+02  0.18295115503E+02  0.00000000000E+00 0.  1.
          2   -1    0    0  501    0  0.00000000000E+00 -0.00000000000E+00 -0.83327389193E+03  0.83327389193E+03  0.00000000000E+00 0. -1.
         25    2    1    2    0    0 -0.18901916162E+02 -0.17568434810E+02 -0.65333410397E+03  0.66570175054E+03  0.12508971552E+03 0.  0.
          5    1    3    3  502    0 -0.22324704081E+02 -0.25724430491E+02 -0.65489628895E+03  0.65579475480E+03  0.41800000000E+01 0. -1.
         -5    1    3    3    0  502  0.34227879189E+01  0.81559956815E+01  0.15621849859E+01  0.99069957416E+01  0.41800000000E+01 0. -1.
        -11    1    1    2    0    0 -0.66360716572E+01  0.43902283142E+02 -0.43500077355E+02  0.62158705279E+02  0.00000000000E+00 0.  1.
         11    1    1    2    0    0  0.25537987819E+02 -0.26333848332E+02 -0.11814459511E+03  0.12370855162E+03  0.00000000000E+00 0. -1.
</event>
<event>
 7    1  0.3001243E-009  0.1332700E+03  0.7561462E-02  0.1222683E+00
         -2   -1    0    0    0  501 -0.00000000000E+00  0.00000000000E+00  0.24191160936E+03  0.24191160936E+03  0.00000000000E+00 0.  1.
          2   -1    0    0  501    0  0.00000000000E+00 -0.00000000000E+00 -0.13693874065E+03  0.13693874065E+03  0.00000000000E+00 0. -1.
         25    2    1    2    0    0 -0.67095076503E+02  0.64186862865E+02 -0.62409126895E+02  0.16781880997E+03  0.12508617512E+03 0.  0.
          5    1    3    3  502    0 -0.21119257520E+01  0.85776915857E+02 -0.23995660668E+02  0.89193069547E+02  0.41800000000E+01 0.  1.
         -5    1    3    3    0  502 -0.64983150751E+02 -0.21590052991E+02 -0.38413466228E+02  0.78625740425E+02  0.41800000000E+01 0.  1.
        -11    1    1    2    0    0  0.78140971550E+02 -0.45776127358E+02  0.79311587458E+02  0.12038186398E+03  0.00000000000E+00 0. -1.
         11    1    1    2    0    0 -0.11045895047E+02 -0.18410735507E+02  0.88070408145E+02  0.90649676062E+02  0.00000000000E+00 0.  1.
</event>
<event>
 7    1  0.3001243E-009  0.8028676E+02  0.7561462E-02  0.1328240E+00
          1   -1    0    0  501    0  0.00000000000E+00  0.00000000000E+00  0.49378341358E+03  0.49378341358E+03  0.00000000000E+00 0. -1.
         -1   -1    0    0    0  501 -0.00000000000E+00 -0.00000000000E+00 -0.25718639164E+02  0.25718639164E+02  0.00000000000E+00 0.  1.
         25    2    1    2    0    0 -0.35533868522E+02  0.11711980445E+02  0.26754234577E+03  0.29770208182E+03  0.12509115253E+03 0.  0.
          5    1    3    3  502    0  0.14609580045E+02  0.20690875814E+02  0.35921380674E+00  0.25673986944E+02  0.41800000000E+01 0.  1.
         -5    1    3    3    0  502 -0.50143448567E+02 -0.89788953690E+01  0.26718313196E+03  0.27202809487E+03  0.41800000000E+01 0.  1.
        -11    1    1    2    0    0  0.52029571296E+02 -0.29270694716E+02  0.85483554283E+02  0.10426546845E+03  0.00000000000E+00 0.  1.
         11    1    1    2    0    0 -0.16495702774E+02  0.17558714271E+02  0.11503887436E+03  0.11753450247E+03  0.00000000000E+00 0. -1.
</event>
<event>
 7    1  0.3001243E-009  0.1088251E+03  0.7561462E-02  0.1262761E+00
         -1   -1    0    0    0  501 -0.00000000000E+00  0.00000000000E+00  0.77519669592E+02  0.77519669592E+02  0.00000000000E+00 0.  1.
          1   -1    0    0  501    0  0.00000000000E+00 -0.00000000000E+00 -0.24671142281E+03  0.24671142281E+03  0.00000000000E+00 0. -1.
         25    2    1    2    0    0  0.52165920182E+02  0.64332675714E+02 -0.11148855738E+03  0.18691224186E+03  0.12508601576E+03 0.  0.
          5    1    3    3  502    0 -0.18483247211E+02  0.59859862618E+02 -0.95380763115E+02  0.11419192595E+03  0.41800000000E+01 0.  1.
         -5    1    3    3    0  502  0.70649167394E+02  0.44728130964E+01 -0.16107794262E+02  0.72720315912E+02  0.41800000000E+01 0.  1.
        -11    1    1    2    0    0 -0.22434717791E+02 -0.38512427365E+02  0.21033516838E+02  0.49284200861E+02  0.00000000000E+00 0.  1.
         11    1    1    2    0    0 -0.29731202391E+02 -0.25820248349E+02 -0.78736712675E+02  0.88034649675E+02  0.00000000000E+00 0. -1.
</event>
<event>
 7    1  0.3001243E-009  0.1903884E+03  0.7561462E-02  0.1158112E+00
         -2   -1    0    0    0  501 -0.00000000000E+00  0.00000000000E+00  0.10313432668E+03  0.10313432668E+03  0.00000000000E+00 0.  1.
          2   -1    0    0  501    0  0.00000000000E+00 -0.00000000000E+00 -0.39356362285E+03  0.39356362285E+03  0.00000000000E+00 0. -1.
         25    2    1    2    0    0  0.13844417391E+03 -0.91930693549E+02 -0.11114176277E+03  0.23583833745E+03  0.12509671568E+03 0.  0.
          5    1    3    3  502    0  0.73889084947E+01 -0.61242998158E+02 -0.95026973417E+00  0.61835881208E+02  0.41800000000E+01 0. -1.
         -5    1    3    3    0  502  0.13105526542E+03 -0.30687695390E+02 -0.11019149304E+03  0.17400245625E+03  0.41800000000E+01 0. -1.
        -11    1    1    2    0    0  0.61317473342E+00 -0.11162029229E+02  0.62031913457E+00  0.11196056252E+02  0.00000000000E+00 0.  1.
         11    1    1    2    0    0 -0.13905734865E+03  0.10309272278E+03 -0.17990785254E+03  0.24966355583E+03  0.00000000000E+00 0. -1.
</event>
<event>
 7    1  0.3001243E-009  0.2267332E+03  0.7561462E-02  0.1128960E+00
          2   -1    0    0  501    0  0.00000000000E+00  0.00000000000E+00  0.16332434957E+04  0.16332434957E+04  0.00000000000E+00 0. -1.
         -2   -1    0    0    0  501 -0.00000000000E+00 -0.00000000000E+00 -0.33039165016E+02  0.33039165016E+02  0.00000000000E+00 0.  1.
         25    2    1    2    0    0  0.12748820051E+03 -0.15895914644E+03  0.87836716791E+03  0.91032532610E+03  0.12506824603E+03 0.  0.
          5    1    3    3  502    0  0.14948668833E+03 -0.15187530808E+03  0.74432832359E+03  0.77424447360E+03  0.41800000000E+01 0.  1.
         -5    1    3    3    0  502 -0.21998487811E+02 -0.70838383623E+01  0.13403884431E+03  0.13608085250E+03  0.41800000000E+01 0.  1.
        -11    1    1    2    0    0 -0.41590474826E+02  0.68503332434E+01  0.75932459996E+02  0.86847182699E+02  0.00000000000E+00 0.  1.
         11    1    1    2    0    0 -0.85897725689E+02  0.15210881319E+03  0.64590470278E+03  0.66911015192E+03  0.00000000000E+00 0. -1.
</event>
<event>
 7    1  0.3001243E-009  0.1009480E+03  0.7561462E-02  0.1278315E+00
         -1   -1    0    0    0  501 -0.00000000000E+00  0.00000000000E+00  0.32359877089E+02  0.32359877089E+02  0.00000000000E+00 0.  1.
          1   -1    0    0  501    0  0.00000000000E+00 -0.00000000000E+00 -0.42893716037E+03  0.42893716037E+03  0.00000000000E+00 0. -1.
         25    2    1    2    0    0  0.21958952981E+02 -0.46095985971E+02 -0.23165188054E+03  0.26817415376E+03  0.12509095671E+03 0.  0.
          5    1    3    3  502    0 -0.33103283415E+02  0.26855869848E+02 -0.87806151391E+02  0.97695740645E+02  0.41800000000E+01 0. -1.
         -5    1    3    3    0  502  0.55062236396E+02 -0.72951855819E+02 -0.14384572915E+03  0.17047841312E+03  0.41800000000E+01 0. -1.
        -11    1    1    2    0    0 -0.66200430692E+01 -0.85490691327E+01  0.64521674308E+01  0.12591346943E+02  0.00000000000E+00 0.  1.
         11    1    1    2    0    0 -0.15338909912E+02  0.54645055104E+02 -0.17137757017E+03  0.18053153675E+03  0.00000000000E+00 0. -1.
</event>
<event>
 7    1  0.3001243E-009  0.1073468E+03  0.7561462E-02  0.1265564E+00
         -2   -1    0    0    0  501 -0.00000000000E+00  0.00000000000E+00  0.62802864617E+02  0.62802864617E+02  0.00000000000E+00 0.  1.
          2   -1    0    0  501    0  0.00000000000E+00 -0.00000000000E+00 -0.24420609054E+03  0.24420609054E+03  0.00000000000E+00 0. -1.
         25    2    1    2    0    0  0.14477488437E+02 -0.34457944571E+02 -0.44057574444E+02  0.13779066455E+03  0.12509296445E+03 0.  0.
          5    1    3    3  502    0 -0.52734143406E+02 -0.13272308444E+00 -0.62208023181E+01  0.53264230753E+02  0.41800000000E+01 0.  1.
         -5    1    3    3    0  502  0.67211631843E+02 -0.34325221487E+02 -0.37836772125E+02  0.84526433795E+02  0.41800000000E+01 0.  1.
        -11    1    1    2    0    0 -0.26603530973E+02  0.55712528438E+02 -0.52911436241E+02  0.81309616715E+02  0.00000000000E+00 0.  1.
         11    1    1    2    0    0  0.12126042536E+02 -0.21254583867E+02 -0.84434215233E+02  0.87908673890E+02  0.00000000000E+00 0. -1.
</event>
<event>
 7    1  0.3001243E-009  0.9664621E+02  0.7561462E-02  0.1287511E+00
          1   -1    0    0  501    0  0.00000000000E+00  0.00000000000E+00  0.73334994488E+03  0.73334994488E+03  0.00000000000E+00 0. -1.
         -1   -1    0    0    0  501 -0.00000000000E+00 -0.00000000000E+00 -0.17772570401E+02  0.17772570401E+02  0.00000000000E+00 0.  1.
         25    2    1    2    0    0  0.13784486018E+02 -0.13955529225E+02  0.42429661652E+03  0.44278706584E+03  0.12509195834E+03 0.  0.
          5    1    3    3  502    0 -0.24470896044E+02 -0.53421022590E+02  0.12165775245E+03  0.13516919597E+03  0.41800000000E+01 0. -1.
         -5    1    3    3    0  502  0.38255382062E+02  0.39465493365E+02  0.30263886407E+03  0.30761786987E+03  0.41800000000E+01 0. -1.
        -11    1    1    2    0    0  0.13609640132E+02  0.39516945797E+02  0.24617625795E+03  0.24969894131E+03  0.00000000000E+00 0. -1.
         11    1    1    2    0    0 -0.27394126150E+02 -0.25561416572E+02  0.45104500012E+02  0.58636508133E+02  0.00000000000E+00 0.  1.
</event>
<event>
 6    1  0.3001243E-009  0.1030147E+03  0.7561462E-02  0.1274081E+00
         -1   -1    0    0    0  501 -0.00000000000E+00  0.00000000000E+00  0.48273194990E+02  0.48273194990E+02  0.00000000000E+00 0.  1.
          1   -1    0    0  501    0  0.00000000000E+00 -0.00000000000E+00 -0.24503186082E+03  0.24503186082E+03  0.00000000000E+00 0. -1.
          5    1    1    2  502    0  0.39790567940E+02 -0.38576622375E+02 -0.57353237332E+02  0.79864330732E+02  0.41800000000E+01 0.  1.
         -5    1    1    2    0  502 -0.48884488923E+02  0.47213353856E+02 -0.43986172211E+02  0.81062011974E+02  0.41800000000E+01 0.  1.
        -11    1    1    2    0    0  0.44517070608E+02  0.41286462790E+01 -0.80092372011E+02  0.91725696236E+02  0.00000000000E+00 0. -1.
         11    1    1    2    0    0 -0.35423149625E+02 -0.12765377760E+02 -0.15326884272E+02  0.40653016865E+02  0.00000000000E+00 0.  1.
</event>
<event>
 7    1  0.3001243E-009  0.8290149E+02  0.7561462E-02  0.1321013E+00
         -1   -1    0    0    0  501 -0.00000000000E+00  0.00000000000E+00  0.55398846939E+03  0.55398846939E+03  0.00000000000E+00 0.  1.
          1   -1    0    0  501    0  0.00000000000E+00 -0.00000000000E+00 -0.26830375399E+02  0.26830375399E+02  0.00000000000E+00 0. -1.
         25    2    1    2    0    0 -0.34666880075E+02  0.41168954377E+02  0.32785013836E+03  0.35500615039E+03  0.12508788195E+03 0.  0.
          5    1    3    3  502    0  0.23310674156E+02  0.30283872886E+02  0.26844182160E+03  0.27118072290E+03  0.41800000000E+01 0. -1.
         -5    1    3    3    0  502 -0.57977554231E+02  0.10885081490E+02  0.59408316760E+02  0.83825427490E+02  0.41800000000E+01 0. -1.
        -11    1    1    2    0    0  0.44130046891E+02 -0.29004863647E+02  0.20317302769E+03  0.20992384889E+03  0.00000000000E+00 0.  1.
         11    1    1    2    0    0 -0.94631668155E+01 -0.12164090730E+02 -0.38650720619E+01  0.15888845506E+02  0.00000000000E+00 0. -1.
</event>
<event>
 7    1  0.3001243E-009  0.8633932E+02  0.7561462E-02  0.1311967E+00
         -1   -1    0    0    0  501 -0.00000000000E+00  0.00000000000E+00  0.48243077738E+03  0.48243077738E+03  0.00000000000E+00 0.  1.
          1   -1    0    0  501    0  0.00000000000E+00 -0.00000000000E+00 -0.27558521997E+02  0.27558521997E+02  0.00000000000E+00 0. -1.
         25    2    1    2    0    0  0.18763011541E+02 -0.24599165918E+02  0.31221630449E+03  0.33776310919E+03  0.12509087728E+03 0.  0.
          5    1    3    3  502    0  0.33783598800E+02 -0.51010044558E+02  0.29748276923E+03  0.30373808879E+03  0.41800000000E+01 0.  1.
         -5    1    3    3    0  502 -0.15020587259E+02  0.26410878640E+02  0.14733535257E+02  0.34025020401E+02  0.41800000000E+01 0.  1.
        -11    1    1    2    0    0  0.18914205522E+02  0.36551939656E+02  0.25107474277E+02  0.48209716113E+02  0.00000000000E+00 0. -1.
         11    1    1    2    0    0 -0.37677217063E+02 -0.11952773738E+02  0.11754847662E+03  0.12401647407E+03  0.00000000000E+00 0.  1.
</event>
<event>
 7    1  0.3001243E-009  0.2346706E+03  0.7561462E-02  0.1123395E+00
          1   -1    0    0  501    0  0.00000000000E+00  0.00000000000E+00  0.39099859823E+04  0.39099859823E+04  0.00000000000E+00 0. -1.
         -1   -1    0    0    0  501 -0.00000000000E+00 -0.00000000000E+00 -0.17885215384E+02  0.17885215384E+02  0.00000000000E+00 0.  1.
         25    2    1    2    0    0 -0.45088362509E+02 -0.21322810007E+03  0.27690405828E+04  0.27804193885E+04  0.12508814247E+03 0.  0.
          5    1    3    3  502    0 -0.62964975231E+02 -0.92987052577E+02  0.83078366243E+03  0.83834965630E+03  0.41800000000E+01 0. -1.
         -5    1    3    3    0  502  0.17876612722E+02 -0.12024104749E+03  0.19382569204E+04  0.19420697322E+04  0.41800000000E+01 0. -1.
        -11    1    1    2    0    0 -0.63580121811E+01  0.16400421753E+03  0.78045959351E+03  0.79753055414E+03  0.00000000000E+00 0.  1.
         11    1    1    2    0    0  0.51446374690E+02  0.49223882540E+02  0.34260059051E+03  0.34992125500E+03  0.00000000000E+00 0. -1.
</event>
<event>
 7    1  0.3001243E-009  0.1356187E+03  0.7561462E-02  0.1219349E+00
         -2   -1    0    0    0  501 -0.00000000000E+00  0.00000000000E+00  0.58780384509E+02  0.58780384509E+02  0.00000000000E+00 0.  1.
          2   -1    0    0  501    0  0.00000000000E+00 -0.00000000000E+00 -0.33958557081E+03  0.33958557081E+03  0.00000000000E+00 0. -1.
         25    2    1    2    0    0  0.20115482691E+02 -0.80409145400E+02 -0.98782505015E+02  0.17965120556E+03  0.12508520718E+03 0.  0.
          5    1    3    3  502    0  0.39880069846E+02 -0.10833166855E+03 -0.73644084123E+02  0.13699304328E+03  0.41800000000E+01 0. -1.
         -5    1    3    3    0  502 -0.19764587155E+02  0.27922523145E+02 -0.25138420892E+02  0.42658162281E+02  0.41800000000E+01 0. -1.
        -11    1    1    2    0    0  0.11407493277E+02  0.88080093846E+02 -0.13293777727E+03  0.15987709799E+03  0.00000000000E+00 0.  1.
         11    1    1    2    0    0 -0.31522975968E+02 -0.76709484461E+01 -0.49084904011E+02  0.58837651769E+02  0.00000000000E+00 0. -1.
</event>
<event>
 7    1  0.3001243E-009  0.2165303E+03  0.7561462E-02  0.1136497E+00
         -1   -1    0    0    0  501 -0.00000000000E+00  0.00000000000E+00  0.53718265141E+02  0.53718265141E+02  0.00000000000E+00 0.  1.
          1   -1    0    0  501    0  0.00000000000E+00 -0.00000000000E+00 -0.10356235719E+04  0.10356235719E+04  0.00000000000E+00 0. -1.
         25    2    1    2    0    0  0.20295461692E+03  0.26306237924E+02 -0.40913881736E+03  0.47426220918E+03  0.12508987369E+03 0.  0.
          5    1    3    3  502    0  0.20044864351E+03  0.39674935592E+02 -0.41185313398E+03  0.45977628861E+03  0.41800000000E+01 0.  1.
         -5    1    3    3    0  502  0.25059734174E+01 -0.13368697668E+02  0.27143166182E+01  0.14485920572E+02  0.41800000000E+01 0.  1.
        -11    1    1    2    0    0 -0.80319524206E+02 -0.42300326305E+02 -0.33487879797E+03  0.34696448363E+03  0.00000000000E+00 0. -1.
         11    1    1    2    0    0 -0.12263509272E+03  0.15994088381E+02 -0.23788769141E+03  0.26811514421E+03  0.00000000000E+00 0.  1.
</event>
<event>
 7    1  0.3001243E-009  0.1407296E+03  0.7561462E-02  0.1212351E+00
         -1   -1    0    0    0  501 -0.00000000000E+00  0.00000000000E+00  0.54503892013E+02  0.54503892013E+02  0.00000000000E+00 0.  1.
          1   -1    0    0  501    0  0.00000000000E+00 -0.00000000000E+00 -0.47071796719E+03  0.47071796719E+03  0.00000000000E+00 0. -1.
         25    2    1    2    0    0 -0.92638295641E+02 -0.12880742171E+02 -0.10754230617E+03  0.18963467228E+03  0.12509274150E+03 0.  0.
          5    1    3    3  502    0 -0.10535701733E+03 -0.46219250315E+02 -0.10093330043E+03  0.15310559669E+03  0.41800000000E+01 0.  1.
         -5    1    3    3    0  502  0.12718721691E+02  0.33338508143E+02 -0.66090057411E+01  0.36529075592E+02  0.41800000000E+01 0.  1.
        -11    1    1    2    0    0  0.15004502031E+02 -0.35769995366E+02 -0.11436033803E+03  0.12075973900E+03  0.00000000000E+00 0. -1.
         11    1    1    2    0    0  0.77633793610E+02  0.48650737538E+02 -0.19431143098E+03  0.21482744792E+03  0.00000000000E+00 0.  1.
</event>
<event>
 7    1  0.3001243E-009  0.1077168E+03  0.7561462E-02  0.1264857E+00
          1   -1    0    0  501    0  0.00000000000E+00  0.00000000000E+00  0.34896139552E+03  0.34896139552E+03  0.00000000000E+00 0. -1.
         -1   -1    0    0    0  501 -0.00000000000E+00 -0.00000000000E+00 -0.50853924370E+02  0.50853924370E+02  0.00000000000E+00 0.  1.
         25    2    1    2    0    0  0.89739911089E+01 -0.34920822397E+02  0.26168922899E+03  0.29228003830E+03  0.12508545825E+03 0.  0.
          5    1    3    3  502    0 -0.49949592066E+02  0.14957736360E+02  0.92570788661E+02  0.10632741386E+03  0.41800000000E+01 0.  1.
         -5    1    3    3    0  502  0.58923583175E+02 -0.49878558757E+02  0.16911844033E+03  0.18595262444E+03  0.41800000000E+01 0.  1.
        -11    1    1    2    0    0  0.31068025875E+02  0.33580113246E+02  0.47519038217E+02  0.65961391969E+02  0.00000000000E+00 0.  1.
         11    1    1    2    0    0 -0.40042016984E+02  0.13407091507E+01 -0.11100796055E+02  0.41573889621E+02  0.00000000000E+00 0. -1.
</event>
<event>
 7    1  0.3001243E-009  0.9932370E+02  0.7561462E-02  0.1281725E+00
          1   -1    0    0  501    0  0.00000000000E+00  0.00000000000E+00  0.42952750562E+03  0.42952750562E+03  0.00000000000E+00 0. -1.
         -1   -1    0    0    0  501 -0.00000000000E+00 -0.00000000000E+00 -0.37164175552E+02  0.37164175552E+02  0.00000000000E+00 0.  1.
         25    2    1    2    0    0 -0.43132759617E+02  0.42669941217E+02  0.25228759803E+03  0.28805815428E+03  0.12508920533E+03 0.  0.
          5    1    3    3  502    0  0.18488568911E+02 -0.20933904163E+02  0.15026769592E+03  0.15289835958E+03  0.41800000000E+01 0. -1.
         -5    1    3    3    0  502 -0.61621328528E+02  0.63603845381E+02  0.10201990211E+03  0.13515979470E+03  0.41800000000E+01 0. -1.
        -11    1    1    2    0    0  0.36885225170E+01 -0.42140689508E+02  0.13167237932E+03  0.13830060877E+03  0.00000000000E+00 0. -1.
         11    1    1    2    0    0  0.39444237100E+02 -0.52925170877E+00  0.84033527193E+01  0.40332918127E+02  0.00000000000E+00 0.  1.
</event>
<event>
 7    1  0.3001243E-009  0.1062191E+03  0.7561462E-02  0.1267736E+00
          2   -1    0    0  501    0  0.00000000000E+00  0.00000000000E+00  0.33728103002E+03  0.33728103002E+03  0.00000000000E+00 0. -1.
         -2   -1    0    0    0  501 -0.00000000000E+00 -0.00000000000E+00 -0.39434915080E+02  0.39434915080E+02  0.00000000000E+00 0.  1.
         25    2    1    2    0    0  0.22622334172E+02  0.17419031111E+02  0.22766465754E+03  0.26133260953E+03  0.12509334061E+03 0.  0.
          5    1    3    3  502    0  0.20924401200E+02  0.68522405336E+02  0.94759160879E+02  0.11886934663E+03  0.41800000000E+01 0.  1.
         -5    1    3    3    0  502  0.16979329714E+01 -0.51103374226E+02  0.13290549666E+03  0.14246326290E+03  0.41800000000E+01 0.  1.
        -11    1    1    2    0    0 -0.55136887195E+02 -0.11295740221E+02  0.31556991492E+02  0.64525295728E+02  0.00000000000E+00 0.  1.
         11    1    1    2    0    0  0.32514553024E+02 -0.61232908893E+01  0.38624465917E+02  0.50858039846E+02  0.00000000000E+00 0. -1.
</event>
<event>
 7    1  0.4814947E-009  0.1811249E+03  0.7561462E-02  0.1166719E+00
          1   -1    0    0  501    0  0.00000000000E+00  0.00000000000E+00  0.17348854263E+04  0.17348854263E+04  0.00000000000E+00 0. -1.
         -1   -1    0    0    0  501 -0.00000000000E+00 -0.00000000000E+00 -0.21828760950E+02  0.21828760950E+02  0.00000000000E+00 0.  1.
         25    2    1    2    0    0  0.38681838657E+02 -0.15100423469E+03  0.10789597743E+04  0.10973150520E+04  0.12509022833E+03 0.  0.
          5    1    3    3  502    0  0.69450936084E+02 -0.13783191859E+03  0.99373999563E+03  0.10056628270E+04  0.41800000000E+01 0.  1.
         -5    1    3    3    0  502 -0.30769097428E+02 -0.13172316107E+02  0.85219778709E+02  0.91652225021E+02  0.41800000000E+01 0.  1.
        -11    1    1    2    0    0  0.64101451805E+01  0.11816745617E+03  0.33862946006E+03  0.35871234838E+03  0.00000000000E+00 0. -1.
         11    1    1    2    0    0 -0.45091983837E+02  0.32836778524E+02  0.29546743097E+03  0.30068678686E+03  0.00000000000E+00 0.  1.
</event>
<event>
 7    1  0.3001243E-009  0.1297582E+03  0.7561462E-02  0.1227815E+00
          1   -1    0    0  501    0  0.00000000000E+00  0.00000000000E+00  0.13966720433E+04  0.13966720433E+04  0.00000000000E+00 0. -1.
         -1   -1    0    0    0  501 -0.00000000000E+00 -0.00000000000E+00 -0.15475408152E+02  0.15475408152E+02  0.00000000000E+00 0.  1.
         25    2    1    2    0    0 -0.78274807091E+02 -0.16103693809E+02  0.87627941352E+03  0.88876335143E+03  0.12509360458E+03 0.  0.
          5    1    3    3  502    0 -0.70042387663E+02 -0.50286584525E+02  0.80025708097E+03  0.80489971096E+03  0.41800000000E+01 0.  1.
         -5    1    3    3    0  502 -0.82324194279E+01  0.34182890716E+02  0.76022332552E+02  0.83863640477E+02  0.41800000000E+01 0.  1.
        -11    1    1    2    0    0 -0.42660699796E+01  0.48811556179E+02  0.18381197751E+03  0.19023041410E+03  0.00000000000E+00 0.  1.
         11    1    1    2    0    0  0.82540877070E+02 -0.32707862370E+02  0.32110524409E+03  0.33315368590E+03  0.00000000000E+00 0. -1.
</event>
<event>
 7    1  0.3001243E-009  0.1671919E+03  0.7561462E-02  0.1180808E+00
         -1   -1    0    0    0  501 -0.00000000000E+00  0.00000000000E+00  0.73828116140E+03  0.73828116140E+03  0.00000000000E+00 0.  1.
          1   -1    0    0  501    0  0.00000000000E+00 -0.00000000000E+00 -0.46606556096E+02  0.46606556096E+02  0.00000000000E+00 0. -1.
         25    2    1    2    0    0  0.43237902557E+02 -0.13134880154E+03  0.48827590962E+03  0.52267108211E+03  0.12509865016E+03 0.  0.
          5    1    3    3  502    0  0.52920597421E+02 -0.18888613365E+02  0.28122301894E+03  0.28681218267E+03  0.41800000000E+01 0.  1.
         -5    1    3    3    0  502 -0.96826948640E+01 -0.11246018818E+03  0.20705289068E+03  0.23585889944E+03  0.41800000000E+01 0.  1.
        -11    1    1    2    0    0 -0.18464035208E+02 -0.10396945797E+02  0.32622824117E+02  0.38900716336E+02  0.00000000000E+00 0.  1.
         11    1    1    2    0    0 -0.24773867349E+02  0.14174574734E+03  0.17077587157E+03  0.22331591905E+03  0.00000000000E+00 0. -1.
</event>
<event>
 7    1  0.3001243E-009  0.1526949E+03  0.7561462E-02  0.1197200E+00
         -3   -1    0    0    0  501 -0.00000000000E+00  0.00000000000E+00  0.14055733143E+03  0.14055733143E+03  0.00000000000E+00 0.  1.
          3   -1    0    0  501    0  0.00000000000E+00 -0.00000000000E+00 -0.20684430580E+03  0.20684430580E+03  0.00000000000E+00 0. -1.
         25    2    1    2    0    0  0.78348603402E+02  0.11063992162E+03 -0.42892999443E+02  0.18938493337E+03  0.12508855933E+03 0.  0.
          5    1    3    3  502    0  0.69974458064E+02  0.13034245976E+03 -0.79720252427E+01  0.14821135983E+03  0.41800000000E+01 0.  1.
         -5    1    3    3    0  502  0.83741453378E+01 -0.19702538136E+02 -0.34920974200E+02  0.41173573542E+02  0.41800000000E+01 0.  1.
        -11    1    1    2    0    0 -0.61348158058E+02 -0.85527826605E+02 -0.51043271178E+02  0.11697872094E+03  0.00000000000E+00 0. -1.
         11    1    1    2    0    0 -0.17000445344E+02 -0.25112095015E+02  0.27649296251E+02  0.41037982907E+02  0.00000000000E+00 0.  1.
</event>
<event>
 7    1  0.3001243E-009  0.9246408E+02  0.7561462E-02  0.1296992E+00
          3   -1    0    0  501    0  0.00000000000E+00  0.00000000000E+00  0.48888934746E+02  0.48888934746E+02  0.00000000000E+00 0. -1.
         -3   -1    0    0    0  501 -0.00000000000E+00 -0.00000000000E+00 -0.35294551543E+03  0.35294551543E+03  0.00000000000E+00 0.  1.
         25    2    1    2    0    0 -0.34525856661E+02 -0.64466813557E+02 -0.19886635727E+03  0.24605522343E+03  0.12508932845E+03 0.  0.
          5    1    3    3  502    0 -0.58546504879E+02 -0.62058626761E+02 -0.58415294710E+02  0.10348326167E+03  0.41800000000E+01 0. -1.
         -5    1    3    3    0  502  0.24020648218E+02 -0.24081867955E+01 -0.14045106256E+03  0.14257196176E+03  0.41800000000E+01 0. -1.
        -11    1    1    2    0    0  0.21659022749E+02  0.23006253666E+02 -0.10775510028E+03  0.11229230878E+03  0.00000000000E+00 0.  1.
         11    1    1    2    0    0  0.12866833911E+02  0.41460559891E+02  0.25648768721E+01  0.43486917972E+02  0.00000000000E+00 0. -1.
</event>
<event>
 7    1  0.3001243E-009  0.1266156E+03  0.7561462E-02  0.1232566E+00
          2   -1    0    0  501    0  0.00000000000E+00  0.00000000000E+00  0.74130832042E+03  0.74130832042E+03  0.00000000000E+00 0.  1.
         -2   -1    0    0    0  501 -0.00000000000E+00 -0.00000000000E+00 -0.34331444861E+02  0.34331444861E+02  0.00000000000E+00 0. -1.
         25    2    1    2    0    0  0.32328829652E+02  0.10582415589E+03  0.46533097613E+03  0.49439325224E+03  0.12509142782E+03 0.  0.
          5    1    3    3  502    0  0.13185788403E+02  0.73941892952E+02  0.90424299265E+02  0.11762353016E+03  0.41800000000E+01 0.  1.
         -5    1    3    3    0  502  0.19143041249E+02  0.31882262939E+02  0.37490667686E+03  0.37676972208E+03  0.41800000000E+01 0.  1.
        -11    1    1    2    0    0 -0.60646036553E+02 -0.52523486138E+02  0.16684377036E+03  0.18513104022E+03  0.00000000000E+00 0.  1.
         11    1    1    2    0    0  0.28317206901E+02 -0.53300669753E+02  0.74802129077E+02  0.96115472829E+02  0.00000000000E+00 0. -1.
</event>
<event>
 7    1  0.3001243E-009  0.8735195E+02  0.7561462E-02  0.1309394E+00
          2   -1    0    0  501    0  0.00000000000E+00  0.00000000000E+00  0.12474019115E+04  0.12474019115E+04  0.00000000000E+00 0. -1.
         -2   -1    0    0    0  501 -0.00000000000E+00 -0.00000000000E+00 -0.10761610415E+02  0.10761610415E+02  0.00000000000E+00 0.  1.
         25    2    1    2    0    0 -0.19099037531E+02 -0.16908995476E+02  0.80599473274E+03  0.81604255672E+03  0.12508899952E+03 0.  0.
          5    1    3    3  502    0 -0.35305505537E+02  0.18261217359E+02  0.72569796191E+03  0.72679774016E+03  0.41800000000E+01 0.  1.
         -5    1    3    3    0  502  0.16206468007E+02 -0.35170212835E+02  0.80296770831E+02  0.89244816555E+02  0.41800000000E+01 0.  1.
        -11    1    1    2    0    0 -0.37580497764E+02  0.77621188077E+01  0.11325348783E+03  0.11957799465E+03  0.00000000000E+00 0.  1.
         11    1    1    2    0    0  0.56679535294E+02  0.91468766680E+01  0.31739208054E+03  0.32254297057E+03  0.00000000000E+00 0. -1.
</event>
<event>
 7    1  0.3001243E-009  0.1241091E+03  0.7561462E-02  0.1236468E+00
         -2   -1    0    0    0  501 -0.00000000000E+00  0.00000000000E+00  0.10192745805E+02  0.10192745805E+02  0.00000000000E+00 0.  1.
          2   -1    0    0  501    0  0.00000000000E+00 -0.00000000000E+00 -0.24658056573E+04  0.24658056573E+04  0.00000000000E+00 0. -1.
         25    2    1    2    0    0  0.67452933553E+02 -0.32954546059E+01 -0.20606846986E+04  0.20655822903E+04  0.12509201680E+03 0.  0.
          5    1    3    3  502    0  0.70028405364E+02 -0.53222319844E+02 -0.15298847481E+04  0.15324168518E+04  0.41800000000E+01 0. -1.
         -5    1    3    3    0  502 -0.25754718110E+01  0.49926865238E+02 -0.53079995047E+03  0.53316543844E+03  0.41800000000E+01 0. -1.
        -11    1    1    2    0    0 -0.56954636158E+01 -0.36227010296E+02 -0.16723764311E+03  0.17121116743E+03  0.00000000000E+00 0. -1.
         11    1    1    2    0    0 -0.61757469937E+02  0.39522464902E+02 -0.22769056983E+03  0.23920494543E+03  0.00000000000E+00 0.  1.
</event>
<event>
 7    1  0.3001243E-009  0.2587301E+03  0.7561462E-02  0.1107909E+00
         -1   -1    0    0    0  501 -0.00000000000E+00  0.00000000000E+00  0.17809353868E+03  0.17809353868E+03  0.00000000000E+00 0.  1.
          1   -1    0    0  501    0  0.00000000000E+00 -0.00000000000E+00 -0.40132115772E+03  0.40132115772E+03  0.00000000000E+00 0. -1.
         25    2    1    2    0    0 -0.14611550333E+03 -0.18753848232E+03 -0.17345192424E+03  0.31977281169E+03  0.12509459783E+03 0.  0.
          5    1    3    3  502    0 -0.11252972491E+03 -0.49632765182E+02 -0.10666125211E+03  0.16285099161E+03  0.41800000000E+01 0.  1.
         -5    1    3    3    0  502 -0.33585778422E+02 -0.13790571714E+03 -0.66790672132E+02  0.15692182007E+03  0.41800000000E+01 0.  1.
        -11    1    1    2    0    0  0.51972498169E+02  0.13484760832E+03 -0.10752575855E+02  0.14491596159E+03  0.00000000000E+00 0.  1.
         11    1    1    2    0    0  0.94143005164E+02  0.52690874000E+02 -0.39023118948E+02  0.11472592312E+03  0.00000000000E+00 0. -1.
</event>
<event>
 7    1  0.3001243E-009  0.9172543E+02  0.7561462E-02  0.1298726E+00
         -2   -1    0    0    0  501 -0.00000000000E+00  0.00000000000E+00  0.34419591724E+02  0.34419591724E+02  0.00000000000E+00 0.  1.
          2   -1    0    0  501    0  0.00000000000E+00 -0.00000000000E+00 -0.39846491309E+03  0.39846491309E+03  0.00000000000E+00 0. -1.
         25    2    1    2    0    0 -0.33559641422E+02 -0.52140670883E+01 -0.25708144282E+03  0.28790968025E+03  0.12509068595E+03 0.  0.
          5    1    3    3  502    0  0.16754480938E+02 -0.25898412645E+02 -0.21941148004E+03  0.22160846189E+03  0.41800000000E+01 0. -1.
         -5    1    3    3    0  502 -0.50314122360E+02  0.20684345557E+02 -0.37669962780E+02  0.66301218359E+02  0.41800000000E+01 0. -1.
        -11    1    1    2    0    0  0.37748791722E+02 -0.38459178638E+02 -0.55756990422E+02  0.77543031143E+02  0.00000000000E+00 0.  1.
         11    1    1    2    0    0 -0.41891502998E+01  0.43673245726E+02 -0.51206888125E+02  0.67431793420E+02  0.00000000000E+00 0. -1.
</event>
<event>
 7    1  0.3001243E-009  0.1151696E+03  0.7561462E-02  0.1251285E+00
          1   -1    0    0  501    0  0.00000000000E+00  0.00000000000E+00  0.23360441146E+03  0.23360441146E+03  0.00000000000E+00 0. -1.
         -1   -1    0    0    0  501 -0.00000000000E+00 -0.00000000000E+00 -0.64215345685E+02  0.64215345685E+02  0.00000000000E+00 0.  1.
         25    2    1    2    0    0  0.19168643715E+02  0.52795993572E+02  0.98433105038E+02  0.16878827541E+03  0.12508218062E+03 0.  0.
          5    1    3    3  502    0 -0.29590373686E+02  0.65540660703E+02  0.93426370491E+02  0.11797087574E+03  0.41800000000E+01 0.  1.
         -5    1    3    3    0  502  0.48759017401E+02 -0.12744667131E+02  0.50067345472E+01  0.50817399668E+02  0.41800000000E+01 0.  1.
        -11    1    1    2    0    0 -0.50573809834E+02 -0.56828798077E+02  0.51551982843E+02  0.91895753259E+02  0.00000000000E+00 0.  1.
         11    1    1    2    0    0  0.31405166120E+02  0.40328045047E+01  0.19403977891E+02  0.37135728472E+02  0.00000000000E+00 0. -1.
</event>
<event>
 7    1  0.3001243E-009  0.1036322E+03  0.7561462E-02  0.1272838E+00
         -1   -1    0    0    0  501 -0.00000000000E+00  0.00000000000E+00  0.21865421669E+02  0.21865421669E+02  0.00000000000E+00 0.  1.
          1   -1    0    0  501    0  0.00000000000E+00 -0.00000000000E+00 -0.79425267862E+03  0.79425267862E+03  0.00000000000E+00 0. -1.
         25    2    1    2    0    0  0.94183218208E+01 -0.10817995584E+02 -0.65597528303E+03  0.66794985627E+03  0.12509078598E+03 0.  0.
          5    1    3    3  502    0  0.40555446199E+02  0.45676291003E+02 -0.32781922673E+03  0.33348760935E+03  0.41800000000E+01 0. -1.
         -5    1    3    3    0  502 -0.31137124378E+02 -0.56494286587E+02 -0.32815605629E+03  0.33446224692E+03  0.41800000000E+01 0. -1.
        -11    1    1    2    0    0  0.32607509862E+01 -0.34339130039E+02 -0.17455402215E+02  0.38658755998E+02  0.00000000000E+00 0.  1.
         11    1    1    2    0    0 -0.12679072807E+02  0.45157125623E+02 -0.98956571703E+02  0.10950948801E+03  0.00000000000E+00 0. -1.
</event>
<event>
 7    1  0.3001243E-009  0.1567921E+03  0.7561462E-02  0.1192367E+00
          1   -1    0    0  501    0  0.00000000000E+00  0.00000000000E+00  0.84193202176E+03  0.84193202176E+03  0.00000000000E+00 0. -1.
         -1   -1    0    0    0  501 -0.00000000000E+00 -0.00000000000E+00 -0.36934836109E+02  0.36934836109E+02  0.00000000000E+00 0.  1.
         25    2    1    2    0    0  0.13211986138E+03  0.43586237261E+00  0.32389868005E+03  0.37150346999E+03  0.12509446641E+03 0.  0.
          5    1    3    3  502    0  0.14820198938E+03  0.12927380128E+01  0.32232506073E+03  0.35479066786E+03  0.41800000000E+01 0. -1.
         -5    1    3    3    0  502 -0.16082128005E+02 -0.85687564022E+00  0.15736193222E+01  0.16712802123E+02  0.41800000000E+01 0. -1.
        -11    1    1    2    0    0 -0.79843313901E+02 -0.33756907938E+02  0.17795009418E+03  0.19794120245E+03  0.00000000000E+00 0. -1.
         11    1    1    2    0    0 -0.52276547474E+02  0.33321045566E+02  0.30314841142E+03  0.30942218544E+03  0.00000000000E+00 0.  1.
</event>
<event>
 7    1  0.3001243E-009  0.6829085E+02  0.7561462E-02  0.1366003E+00
          2   -1    0    0  501    0  0.00000000000E+00  0.00000000000E+00  0.27464300173E+03  0.27464300173E+03  0.00000000000E+00 0. -1.
         -2   -1    0    0    0  501 -0.00000000000E+00 -0.00000000000E+00 -0.47420424300E+02  0.47420424300E+02  0.00000000000E+00 0.  1.
         25    2    1    2    0    0 -0.27578358432E+02  0.20298622408E+02  0.14375489262E+03  0.19361159044E+03  0.12508948346E+03 0.  0.
          5    1    3    3  502    0  0.27311490702E+02  0.50838437087E+01 -0.98204394701E+01  0.29760316239E+02  0.41800000000E+01 0. -1.
         -5    1    3    3    0  502 -0.54889849134E+02  0.15214778699E+02  0.15357533209E+03  0.16385127420E+03  0.41800000000E+01 0. -1.
        -11    1    1    2    0    0  0.13816037863E+02  0.10689813221E+02  0.91872638977E+02  0.93518644138E+02  0.00000000000E+00 0. -1.
         11    1    1    2    0    0  0.13762320569E+02 -0.30988435629E+02 -0.84049541746E+01  0.34933191450E+02  0.00000000000E+00 0.  1.
</event>
<event>
 7    1  0.3001243E-009  0.1883137E+03  0.7561462E-02  0.1159991E+00
          1   -1    0    0  501    0  0.00000000000E+00  0.00000000000E+00  0.79434063504E+03  0.79434063504E+03  0.00000000000E+00 0. -1.
         -1   -1    0    0    0  501 -0.00000000000E+00 -0.00000000000E+00 -0.54222943131E+02  0.54222943131E+02  0.00000000000E+00 0.  1.
         25    2    1    2    0    0 -0.10015245005E+03  0.14216492284E+03  0.32677783330E+03  0.39073329086E+03  0.12508946283E+03 0.  0.
          5    1    3    3  502    0 -0.51831825581E+02  0.20411421501E+01  0.15658613105E+03  0.16500725209E+03  0.41800000000E+01 0. -1.
         -5    1    3    3    0  502 -0.48320624471E+02  0.14012378069E+03  0.17019170225E+03  0.22572603877E+03  0.41800000000E+01 0. -1.
        -11    1    1    2    0    0  0.24568174888E+02 -0.59085275671E+02  0.25998279629E+03  0.26774188949E+03  0.00000000000E+00 0. -1.
         11    1    1    2    0    0  0.75584275164E+02 -0.83079647166E+02  0.15335706231E+03  0.19008839782E+03  0.00000000000E+00 0.  1.
</event>
<event>
 7    1  0.3001243E-009  0.5985878E+02  0.7561462E-02  0.1398425E+00
         -1   -1    0    0    0  501 -0.00000000000E+00  0.00000000000E+00  0.14105772070E+02  0.14105772070E+02  0.00000000000E+00 0.  1.
          1   -1    0    0  501    0  0.00000000000E+00 -0.00000000000E+00 -0.97608165171E+03  0.97608165171E+03  0.00000000000E+00 0. -1.
         25    2    1    2    0    0 -0.88851425205E+01  0.29472322887E+02 -0.68322232670E+03  0.69526098282E+03  0.12509005939E+03 0.  0.
          5    1    3    3  502    0  0.77084792437E+01 -0.74369921141E+01 -0.61983218757E+03  0.61993882170E+03  0.41800000000E+01 0.  1.
         -5    1    3    3    0  502 -0.16593621764E+02  0.36909315001E+02 -0.63390139136E+02  0.75322161127E+02  0.41800000000E+01 0.  1.
        -11    1    1    2    0    0 -0.18382344115E+02  0.89312313722E+01 -0.11291455734E+02  0.23348970889E+02  0.00000000000E+00 0.  1.
         11    1    1    2    0    0  0.27267486636E+02 -0.38403554259E+02 -0.26746209720E+03  0.27157747007E+03  0.00000000000E+00 0. -1.
</event>
<event>
 7    1  0.3882522E-009  0.9422903E+02  0.7561462E-02  0.1292922E+00
          2   -1    0    0  501    0  0.00000000000E+00  0.00000000000E+00  0.18281490744E+04  0.18281490744E+04  0.00000000000E+00 0. -1.
         -2   -1    0    0    0  501 -0.00000000000E+00 -0.00000000000E+00 -0.12410591704E+02  0.12410591704E+02  0.00000000000E+00 0.  1.
         25    2    1    2    0    0 -0.23632215923E+02  0.44622008729E+02  0.15354241810E+04  0.15413384433E+04  0.12508867239E+03 0.  0.
          5    1    3    3  502    0 -0.65869220647E+02  0.32996774409E+02  0.54946765325E+03  0.55440032081E+03  0.41800000000E+01 0. -1.
         -5    1    3    3    0  502  0.42237004724E+02  0.11625234320E+02  0.98595652774E+03  0.98693812249E+03  0.41800000000E+01 0. -1.
        -11    1    1    2    0    0 -0.12003373593E+02  0.18009369513E+01 -0.71902889011E+00  0.12159003004E+02  0.00000000000E+00 0.  1.
         11    1    1    2    0    0  0.35635589515E+02 -0.46422945680E+02  0.28103333058E+03  0.28706221978E+03  0.00000000000E+00 0. -1.
</event>
<event>
 7    1  0.3001243E-009  0.1233222E+03  0.7561462E-02  0.1237715E+00
         -2   -1    0    0    0  501 -0.00000000000E+00  0.00000000000E+00  0.23644485918E+02  0.23644485918E+02  0.00000000000E+00 0.  1.
          2   -1    0    0  501    0  0.00000000000E+00 -0.00000000000E+00 -0.74873031524E+03  0.74873031524E+03  0.00000000000E+00 0. -1.
         25    2    1    2    0    0  0.59599915405E+02  0.43872655879E+02 -0.41374362185E+03  0.43852982193E+03  0.12509060814E+03 0.  0.
          5    1    3    3  502    0  0.96275253494E+02  0.43068103105E+02 -0.26441134926E+03  0.28470093073E+03  0.41800000000E+01 0.  1.
         -5    1    3    3    0  502 -0.36675338089E+02  0.80455277343E+00 -0.14933227259E+03  0.15382889120E+03  0.41800000000E+01 0.  1.
        -11    1    1    2    0    0  0.41342528138E+01 -0.40113354182E+02 -0.21167721198E+03  0.21548414164E+03  0.00000000000E+00 0. -1.
         11    1    1    2    0    0 -0.63734168219E+02 -0.37593016971E+01 -0.99664995494E+02  0.11836083759E+03  0.00000000000E+00 0.  1.
</event>
<event>
 7    1  0.3001243E-009  0.1017985E+03  0.7561462E-02  0.1276559E+00
          2   -1    0    0  501    0  0.00000000000E+00  0.00000000000E+00  0.64279982903E+03  0.64279982903E+03  0.00000000000E+00 0. -1.
         -2   -1    0    0    0  501 -0.00000000000E+00 -0.00000000000E+00 -0.24945973545E+02  0.24945973545E+02  0.00000000000E+00 0.  1.
         25    2    1    2    0    0 -0.38933868810E+02 -0.45677217181E+02  0.27824424662E+03  0.31091359968E+03  0.12508057953E+03 0.  0.
          5    1    3    3  502    0  0.40481102840E+02 -0.39986401864E+01  0.14180000227E+03  0.14757852775E+03  0.41800000000E+01 0.  1.
         -5    1    3    3    0  502 -0.79414971650E+02 -0.41678576994E+02  0.13644424436E+03  0.16333507192E+03  0.41800000000E+01 0.  1.
        -11    1    1    2    0    0  0.22896911567E+02  0.51096346651E+02  0.33449448283E+03  0.33914843984E+03  0.00000000000E+00 0. -1.
         11    1    1    2    0    0  0.16036957243E+02 -0.54191294699E+01  0.51151260363E+01  0.17683763066E+02  0.00000000000E+00 0.  1.
</event>
<event>
 7    1  0.3001243E-009  0.8606872E+02  0.7561462E-02  0.1312661E+00
          1   -1    0    0  501    0  0.00000000000E+00  0.00000000000E+00  0.63697387713E+03  0.63697387713E+03  0.00000000000E+00 0. -1.
         -1   -1    0    0    0  501 -0.00000000000E+00 -0.00000000000E+00 -0.19351184332E+02  0.19351184332E+02  0.00000000000E+00 0.  1.
         25    2    1    2    0    0 -0.19882855184E+01  0.23392103129E+01  0.27247598614E+03  0.29983687346E+03  0.12509821135E+03 0.  0.
          5    1    3    3  502    0 -0.31691641070E+01  0.42417413018E+02  0.25010911160E+03  0.25373474463E+03  0.41800000000E+01 0.  1.
         -5    1    3    3    0  502  0.11808785886E+01 -0.40078202705E+02  0.22366874539E+02  0.46102128833E+02  0.41800000000E+01 0.  1.
        -11    1    1    2    0    0 -0.40352008422E+02  0.15382529051E+02  0.15804292622E+03  0.16383672760E+03  0.00000000000E+00 0. -1.
         11    1    1    2    0    0  0.42340293940E+02 -0.17721739364E+02  0.18710378045E+03  0.19265146040E+03  0.00000000000E+00 0.  1.
</event>
<event>
 7    1  0.3001243E-009  0.1101501E+03  0.7561462E-02  0.1260292E+00
          2   -1    0    0  501    0  0.00000000000E+00  0.00000000000E+00  0.99536899451E+02  0.99536899451E+02  0.00000000000E+00 0. -1.
         -2   -1    0    0    0  501 -0.00000000000E+00 -0.00000000000E+00 -0.14311538108E+03  0.14311538108E+03  0.00000000000E+00 0.  1.
         25    2    1    2    0    0  0.13647028607E+02  0.26907352370E+02  0.20343747621E+02  0.13027691672E+03  0.12509180613E+03 0.  0.
          5    1    3    3  502    0 -0.53246569109E+02 -0.52304622690E+01  0.15157756201E+02  0.55765444771E+02  0.41800000000E+01 0. -1.
         -5    1    3    3    0  502  0.66893597717E+02  0.32137814639E+02  0.51859914196E+01  0.74511471951E+02  0.41800000000E+01 0. -1.
        -11    1    1    2    0    0  0.35888707174E+02  0.89506243643E-01 -0.22077566057E+02  0.42135807065E+02  0.00000000000E+00 0. -1.
         11    1    1    2    0    0 -0.49535735781E+02 -0.26996858614E+02 -0.41844663197E+02  0.70239556750E+02  0.00000000000E+00 0.  1.
</event>
<event>
 7    1  0.3001243E-009  0.9300008E+02  0.7561462E-02  0.1295745E+00
          1   -1    0    0  501    0  0.00000000000E+00  0.00000000000E+00  0.10377770546E+04  0.10377770546E+04  0.00000000000E+00 0. -1.
         -1   -1    0    0    0  501 -0.00000000000E+00 -0.00000000000E+00 -0.13133375624E+02  0.13133375624E+02  0.00000000000E+00 0.  1.
         25    2    1    2    0    0  0.18396512887E+01 -0.64392091461E+00  0.79733262312E+03  0.80708581451E+03  0.12507758052E+03 0.  0.
          5    1    3    3  502    0 -0.34384943317E+02  0.36553595188E+02  0.62568818173E+03  0.62771144868E+03  0.41800000000E+01 0.  1.
         -5    1    3    3    0  502  0.36224594606E+02 -0.37197516102E+02  0.17164444139E+03  0.17937436583E+03  0.41800000000E+01 0.  1.
        -11    1    1    2    0    0 -0.40317470794E+02  0.14216576766E+02  0.15509814094E+03  0.16088207740E+03  0.00000000000E+00 0. -1.
         11    1    1    2    0    0  0.38477819506E+02 -0.13572655852E+02  0.72212914952E+02  0.82942538342E+02  0.00000000000E+00 0.  1.
</event>
<event>
 7    1  0.3001243E-009  0.1082982E+03  0.7561462E-02  0.1263754E+00
         -2   -1    0    0    0  501 -0.00000000000E+00  0.00000000000E+00  0.57525557876E+02  0.57525557876E+02  0.00000000000E+00 0.  1.
          2   -1    0    0  501    0  0.00000000000E+00 -0.00000000000E+00 -0.30159653297E+03  0.30159653297E+03  0.00000000000E+00 0. -1.
         25    2    1    2    0    0 -0.50480378474E+01 -0.19547077500E+02 -0.23243538480E+03  0.26472782245E+03  0.12508813272E+03 0.  0.
          5    1    3    3  502    0 -0.28279119339E+01 -0.71932099450E+02 -0.15697325655E+03  0.17274345050E+03  0.41800000000E+01 0.  1.
         -5    1    3    3    0  502 -0.22201259135E+01  0.52385021950E+02 -0.75462128252E+02  0.91984371956E+02  0.41800000000E+01 0.  1.
        -11    1    1    2    0    0  0.47415175818E+02  0.99114065793E+01 -0.15279454557E+02  0.50792682640E+02  0.00000000000E+00 0.  1.
         11    1    1    2    0    0 -0.42367137970E+02  0.96356709206E+01  0.36438642623E+01  0.43601585758E+02  0.00000000000E+00 0. -1.
</event>
<event>
 7    1  0.3001243E-009  0.1024918E+03  0.7561462E-02  0.1275142E+00
          2   -1    0    0  501    0  0.00000000000E+00  0.00000000000E+00  0.38283114749E+03  0.38283114749E+03  0.00000000000E+00 0.  1.
         -2   -1    0    0    0  501 -0.00000000000E+00 -0.00000000000E+00 -0.32346424318E+02  0.32346424318E+02  0.00000000000E+00 0. -1.
         25    2    1    2    0    0  0.20147459441E+02 -0.91141947136E+01  0.22479111747E+03  0.25820189250E+03  0.12509269416E+03 0.  0.
          5    1    3    3  502    0  0.63397952393E+02  0.86008051466E+01  0.18782287401E+03  0.19846455254E+03  0.41800000000E+01 0. -1.
         -5    1    3    3    0  502 -0.43250492952E+02 -0.17714999860E+02  0.36968243464E+02  0.59737339960E+02  0.41800000000E+01 0. -1.
        -11    1    1    2    0    0  0.35351947280E+02 -0.72391389369E+01  0.44962552720E+02  0.57652375980E+02  0.00000000000E+00 0. -1.
         11    1    1    2    0    0 -0.55499406721E+02  0.16353333650E+02  0.80731052985E+02  0.99323303327E+02  0.00000000000E+00 0.  1.
</event>
<event>
 7    1  0.3001243E-009  0.7992506E+02  0.7561462E-02  0.1329264E+00
          2   -1    0    0  501    0  0.00000000000E+00  0.00000000000E+00  0.10073497111E+04  0.10073497111E+04  0.00000000000E+00 0. -1.
         -2   -1    0    0    0  501 -0.00000000000E+00 -0.00000000000E+00 -0.13807298650E+02  0.13807298650E+02  0.00000000000E+00 0.  1.
         25    2    1    2    0    0 -0.25602750518E+02  0.20791639834E+02  0.71307720075E+03  0.72471741524E+03  0.12509374327E+03 0.  0.
          5    1    3    3  502    0 -0.20236100075E+02 -0.17059564291E+02  0.28714362343E+02  0.39274870908E+02  0.41800000000E+01 0. -1.
         -5    1    3    3    0  502 -0.53666504428E+01  0.37851204125E+02  0.68436283841E+03  0.68544254434E+03  0.41800000000E+01 0. -1.
        -11    1    1    2    0    0 -0.86236310190E+01  0.31189463811E+02  0.73244389443E+02  0.80074279577E+02  0.00000000000E+00 0.  1.
         11    1    1    2    0    0  0.34226381537E+02 -0.51981103645E+02  0.20722082230E+03  0.21636531497E+03  0.00000000000E+00 0. -1.
</event>
<event>
 7    1  0.3001243E-009  0.1009838E+03  0.7561462E-02  0.1278241E+00
          1   -1    0    0  501    0  0.00000000000E+00  0.00000000000E+00  0.10238770148E+03  0.10238770148E+03  0.00000000000E+00 0. -1.
         -1   -1    0    0    0  501 -0.00000000000E+00 -0.00000000000E+00 -0.16138853462E+03  0.16138853462E+03  0.00000000000E+00 0.  1.
         25    2    1    2    0    0 -0.15400321937E+02 -0.41212235909E+02  0.21573209946E+02  0.13434368499E+03  0.12508878448E+03 0.  0.
          5    1    3    3  502    0  0.45511373452E+02 -0.45630339046E+02 -0.10186176135E+02  0.65380758172E+02  0.41800000000E+01 0. -1.
         -5    1    3    3    0  502 -0.60911695389E+02  0.44181031364E+01  0.31759386081E+02  0.68962926814E+02  0.41800000000E+01 0. -1.
        -11    1    1    2    0    0 -0.23922220796E+02  0.98405728832E+01 -0.74379464277E+02  0.78749058588E+02  0.00000000000E+00 0.  1.
         11    1    1    2    0    0  0.39322542733E+02  0.31371663026E+02 -0.61945788067E+01  0.50683492526E+02  0.00000000000E+00 0. -1.
</event>
<event>
 7    1  0.3001243E-009  0.9019769E+02  0.7561462E-02  0.1302374E+00
         -3   -1    0    0    0  501 -0.00000000000E+00  0.00000000000E+00  0.41402850463E+02  0.41402850463E+02  0.00000000000E+00 0.  1.
          3   -1    0    0  501    0  0.00000000000E+00 -0.00000000000E+00 -0.30735097205E+03  0.30735097205E+03  0.00000000000E+00 0. -1.
         25    2    1    2    0    0  0.27695462862E+02  0.12182517751E+02 -0.16361603100E+03  0.20816434936E+03  0.12508692315E+03 0.  0.
          5    1    3    3  502    0 -0.76435856145E+01 -0.48181184146E+02 -0.30369488068E+02  0.57616222649E+02  0.41800000000E+01 0. -1.
         -5    1    3    3    0  502  0.35339048476E+02  0.60363701898E+02 -0.13324654293E+03  0.15054812671E+03  0.41800000000E+01 0. -1.
        -11    1    1    2    0    0 -0.46549587808E+01 -0.31163234350E+02  0.24826357353E+01  0.31606633743E+02  0.00000000000E+00 0.  1.
         11    1    1    2    0    0 -0.23040504081E+02  0.18980716598E+02 -0.10481472633E+03  0.10898283941E+03  0.00000000000E+00 0. -1.
</event>
<event>
 7    1  0.3001243E-009  0.1198995E+03  0.7561462E-02  0.1243263E+00
         -1   -1    0    0    0  501 -0.00000000000E+00  0.00000000000E+00  0.13440442622E+02  0.13440442622E+02  0.00000000000E+00 0.  1.
          1   -1    0    0  501    0  0.00000000000E+00 -0.00000000000E+00 -0.13880966374E+04  0.13880966374E+04  0.00000000000E+00 0. -1.
         25    2    1    2    0    0 -0.63539060168E+02  0.49668171494E+02 -0.85436794933E+03  0.86723445948E+03  0.12508747119E+03 0.  0.
          5    1    3    3  502    0 -0.50261972120E+02  0.75419942149E+02 -0.80301298239E+03  0.80812236437E+03  0.41800000000E+01 0.  1.
         -5    1    3    3    0  502 -0.13277088047E+02 -0.25751770655E+02 -0.51354966941E+02  0.59112095110E+02  0.41800000000E+01 0.  1.
        -11    1    1    2    0    0  0.55886294083E+02  0.12410365437E+02 -0.29440273178E+03  0.29991709440E+03  0.00000000000E+00 0.  1.
         11    1    1    2    0    0  0.76527660852E+01 -0.62078536931E+02 -0.22588551371E+03  0.23438552617E+03  0.00000000000E+00 0. -1.
</event>
<event>
 7    1  0.3001243E-009  0.1281493E+03  0.7561462E-02  0.1230228E+00
          3   -1    0    0  501    0  0.00000000000E+00  0.00000000000E+00  0.12561510073E+04  0.12561510073E+04  0.00000000000E+00 0. -1.
         -3   -1    0    0    0  501 -0.00000000000E+00 -0.00000000000E+00 -0.16317989766E+02  0.16317989766E+02  0.00000000000E+00 0.  1.
         25    2    1    2    0    0  0.58552332511E+01  0.87631899253E+02  0.79212837574E+03  0.80673877033E+03  0.12508575609E+03 0.  0.
          5    1    3    3  502    0  0.40195328675E+00 -0.20702834715E+02  0.37895826778E+03  0.37954658483E+03  0.41800000000E+01 0. -1.
         -5    1    3    3    0  502  0.54532799644E+01  0.10833473397E+03  0.41317010795E+03  0.42719218550E+03  0.41800000000E+01 0. -1.
        -11    1    1    2    0    0  0.42056732718E+02 -0.52185124241E+02  0.19897030191E+03  0.20995532144E+03  0.00000000000E+00 0.  1.
         11    1    1    2    0    0 -0.47911965969E+02 -0.35446775012E+02  0.24873433992E+03  0.25577490533E+03  0.00000000000E+00 0. -1.
</event>
<event>
 7    1  0.3006826E-009  0.1962539E+03  0.7561462E-02  0.1152939E+00
          2   -1    0    0  501    0  0.00000000000E+00  0.00000000000E+00  0.81291515547E+03  0.81291515547E+03  0.00000000000E+00 0. -1.
         -2   -1    0    0    0  501 -0.00000000000E+00 -0.00000000000E+00 -0.73719646322E+02  0.73719646322E+02  0.00000000000E+00 0.  1.
         25    2    1    2    0    0  0.17432996240E+03  0.55538004269E+02  0.16268642261E+03  0.27493572915E+03  0.12508947740E+03 0.  0.
          5    1    3    3  502    0  0.53195883069E+02 -0.28316758489E+02  0.74301124799E+01  0.60863123139E+02  0.41800000000E+01 0. -1.
         -5    1    3    3    0  502  0.12113407933E+03  0.83854762757E+02  0.15525631013E+03  0.21407260602E+03  0.41800000000E+01 0. -1.
        -11    1    1    2    0    0 -0.64554140687E+02 -0.78577256990E+01  0.92236522581E+02  0.11285635574E+03  0.00000000000E+00 0. -1.
         11    1    1    2    0    0 -0.10977582171E+03 -0.47680278570E+02  0.48427256396E+03  0.49884271690E+03  0.00000000000E+00 0.  1.
</event>
<event>
 7    1  0.3001243E-009  0.6017342E+02  0.7561462E-02  0.1397105E+00
          3   -1    0    0  501    0  0.00000000000E+00  0.00000000000E+00  0.20618636190E+03  0.20618636190E+03  0.00000000000E+00 0. -1.
         -3   -1    0    0    0  501 -0.00000000000E+00 -0.00000000000E+00 -0.74749812278E+02  0.74749812278E+02  0.00000000000E+00 0.  1.
         25    2    1    2    0    0  0.24253704290E+02  0.10209062253E+02  0.14171794810E+03  0.19085191670E+03  0.12509200682E+03 0.  0.
          5    1    3    3  502    0  0.14943274500E+02 -0.18621715948E+02  0.15544874672E+03  0.15732722274E+03  0.41800000000E+01 0.  1.
         -5    1    3    3    0  502  0.93104297896E+01  0.28830778200E+02 -0.13730798620E+02  0.33524693962E+02  0.41800000000E+01 0.  1.
        -11    1    1    2    0    0  0.16582543579E+02 -0.17425567961E+02 -0.34502334532E+02  0.42059984052E+02  0.00000000000E+00 0.  1.
         11    1    1    2    0    0 -0.40836247869E+02  0.72165057083E+01  0.24220936052E+02  0.48024273424E+02  0.00000000000E+00 0. -1.
</event>
<event>
 7    1  0.3001243E-009  0.1378021E+03  0.7561462E-02  0.1216317E+00
         -3   -1    0    0    0  501 -0.00000000000E+00  0.00000000000E+00  0.30100278694E+02  0.30100278694E+02  0.00000000000E+00 0.  1.
          3   -1    0    0  501    0  0.00000000000E+00 -0.00000000000E+00 -0.76075475119E+03  0.76075475119E+03  0.00000000000E+00 0. -1.
         25    2    1    2    0    0  0.72470077200E+02  0.62816687284E+02 -0.52472340159E+03  0.54788750342E+03  0.12509284527E+03 0.  0.
          5    1    3    3  502    0 -0.35458712637E+02  0.20086302814E+02 -0.11835943889E+03  0.12524858896E+03  0.41800000000E+01 0. -1.
         -5    1    3    3    0  502  0.10792878984E+03  0.42730384470E+02 -0.40636396270E+03  0.42263891445E+03  0.41800000000E+01 0. -1.
        -11    1    1    2    0    0 -0.73517731805E+02 -0.20732088884E+02 -0.81925156213E+02  0.11201074779E+03  0.00000000000E+00 0.  1.
         11    1    1    2    0    0  0.10476546050E+01 -0.42084598401E+02 -0.12400591469E+03  0.13095677868E+03  0.00000000000E+00 0. -1.
</event>
<event>
 7    1  0.3001243E-009  0.1623637E+03  0.7561462E-02  0.1186054E+00
         -1   -1    0    0    0  501 -0.00000000000E+00  0.00000000000E+00  0.31696729534E+02  0.31696729534E+02  0.00000000000E+00 0.  1.
          1   -1    0    0  501    0  0.00000000000E+00 -0.00000000000E+00 -0.98242535901E+03  0.98242535901E+03  0.00000000000E+00 0. -1.
         25    2    1    2    0    0  0.13519523659E+03  0.24761676332E+02 -0.44360634604E+03  0.48096262156E+03  0.12509020937E+03 0.  0.
          5    1    3    3  502    0  0.81616468463E+02  0.73345129639E+02 -0.31160506079E+03  0.33038756374E+03  0.41800000000E+01 0.  1.
         -5    1    3    3    0  502  0.53578768128E+02 -0.48583453306E+02 -0.13200128525E+03  0.15057505782E+03  0.41800000000E+01 0.  1.
        -11    1    1    2    0    0 -0.84159307283E+02  0.33094035444E+01 -0.41998814040E+03  0.42835006622E+03  0.00000000000E+00 0.  1.
         11    1    1    2    0    0 -0.51035929308E+02 -0.28071079876E+02 -0.87134143040E+02  0.10480940077E+03  0.00000000000E+00 0. -1.
</event>
<event>
 7    1  0.3001243E-009  0.1128904E+03  0.7561462E-02  0.1255309E+00
         -1   -1    0    0    0  501 -0.00000000000E+00  0.00000000000E+00  0.12649705954E+03  0.12649705954E+03  0.00000000000E+00 0.  1.
          1   -1    0    0  501    0  0.00000000000E+00 -0.00000000000E+00 -0.17085250919E+03  0.17085250919E+03  0.00000000000E+00 0. -1.
         25    2    1    2    0    0 -0.89273826907E+02 -0.37524111937E+02 -0.43293273720E+01  0.15825274846E+03  0.12508922485E+03 0.  0.
          5    1    3    3  502    0 -0.16753103568E+02 -0.20370621633E+01 -0.58438713035E+02  0.60970252440E+02  0.41800000000E+01 0. -1.
         -5    1    3    3    0  502 -0.72520723339E+02 -0.35487049774E+02  0.54109385663E+02  0.97282496021E+02  0.41800000000E+01 0. -1.
        -11    1    1    2    0    0  0.46801246891E+02  0.62649580538E+02 -0.45734849897E+01  0.78334177835E+02  0.00000000000E+00 0.  1.
         11    1    1    2    0    0  0.42472580016E+02 -0.25125468601E+02 -0.35452637284E+02  0.60762642438E+02  0.00000000000E+00 0. -1.
</event>
<event>
 7    1  0.3001243E-009  0.1270355E+03  0.7561462E-02  0.1231922E+00
         -4   -1    0    0    0  501 -0.00000000000E+00  0.00000000000E+00  0.69671967971E+02  0.69671967971E+02  0.00000000000E+00 0.  1.
          4   -1    0    0  501    0  0.00000000000E+00 -0.00000000000E+00 -0.28627142673E+03  0.28627142673E+03  0.00000000000E+00 0. -1.
         25    2    1    2    0    0  0.18575510823E+02  0.78331650081E+02 -0.16945450983E+03  0.22548268765E+03  0.12508682793E+03 0.  0.
          5    1    3    3  502    0 -0.47521301611E+02  0.14931927763E+02 -0.95106544100E+02  0.10744283924E+03  0.41800000000E+01 0.  1.
         -5    1    3    3    0  502  0.66096812434E+02  0.63399722318E+02 -0.74347965727E+02  0.11803984841E+03  0.41800000000E+01 0.  1.
        -11    1    1    2    0    0 -0.68687155307E+01 -0.93213483369E+02 -0.56629723183E+02  0.10928338521E+03  0.00000000000E+00 0.  1.
         11    1    1    2    0    0 -0.11706795292E+02  0.14881833288E+02  0.94847742502E+01  0.21177321847E+02  0.00000000000E+00 0. -1.
</event>
<event>
 7    1  0.3001243E-009  0.2404605E+03  0.7561462E-02  0.1119486E+00
         -1   -1    0    0    0  501 -0.00000000000E+00  0.00000000000E+00  0.91177923670E+03  0.91177923670E+03  0.00000000000E+00 0.  1.
          1   -1    0    0  501    0  0.00000000000E+00 -0.00000000000E+00 -0.73956586814E+02  0.73956586814E+02  0.00000000000E+00 0. -1.
         25    2    1    2    0    0 -0.12550935281E+03  0.18886638693E+03  0.55259891580E+03  0.61027519196E+03  0.12508852236E+03 0.  0.
          5    1    3    3  502    0  0.24434547520E+01 -0.72026872341E+01 -0.14276358776E+01  0.87954373806E+01  0.41800000000E+01 0. -1.
         -5    1    3    3    0  502 -0.12795280756E+03  0.19606907417E+03  0.55402655168E+03  0.60147975458E+03  0.41800000000E+01 0. -1.
        -11    1    1    2    0    0  0.38077127370E+02 -0.12258537346E+03  0.11168848747E+03  0.17015099074E+03  0.00000000000E+00 0.  1.
         11    1    1    2    0    0  0.87432225442E+02 -0.66281013470E+02  0.17353524662E+03  0.20530964081E+03  0.00000000000E+00 0. -1.
</event>
<event>
 7    1  0.3001243E-009  0.9394169E+02  0.7561462E-02  0.1293578E+00
         -3   -1    0    0    0  501 -0.00000000000E+00  0.00000000000E+00  0.14613452842E+03  0.14613452842E+03  0.00000000000E+00 0. -1.
          3   -1    0    0  501    0  0.00000000000E+00 -0.00000000000E+00 -0.10397820140E+03  0.10397820140E+03  0.00000000000E+00 0.  1.
         25    2    1    2    0    0 -0.17649511405E+02  0.31764136452E+02 -0.24711680473E+02  0.13259066031E+03  0.12509656443E+03 0.  0.
          5    1    3    3  502    0 -0.44609367386E+02  0.54739272561E+02 -0.51905994616E+02  0.87738750254E+02  0.41800000000E+01 0. -1.
         -5    1    3    3    0  502  0.26959855981E+02 -0.22975136108E+02  0.27194314143E+02  0.44851910053E+02  0.41800000000E+01 0. -1.
        -11    1    1    2    0    0 -0.24936688071E+02  0.47452993923E+01 -0.54866267485E+01  0.25970355241E+02  0.00000000000E+00 0.  1.
         11    1    1    2    0    0  0.42586199476E+02 -0.36509435844E+02  0.72354634242E+02  0.91551714281E+02  0.00000000000E+00 0. -1.
</event>
<event>
 7    1  0.4005874E-009  0.1359913E+03  0.7561462E-02  0.1218827E+00
          1   -1    0    0  501    0  0.00000000000E+00  0.00000000000E+00  0.41729713067E+03  0.41729713067E+03  0.00000000000E+00 0. -1.
         -1   -1    0    0    0  501 -0.00000000000E+00 -0.00000000000E+00 -0.61928120521E+02  0.61928120521E+02  0.00000000000E+00 0.  1.
         25    2    1    2    0    0 -0.75218510804E+02  0.89835720500E+02  0.16851893708E+03  0.24035858758E+03  0.12508132325E+03 0.  0.
          5    1    3    3  502    0  0.24868567326E+02  0.21003357516E+02  0.29433154222E+00  0.32819897910E+02  0.41800000000E+01 0.  1.
         -5    1    3    3    0  502 -0.10008707813E+03  0.68832362985E+02  0.16822460554E+03  0.20753868967E+03  0.41800000000E+01 0.  1.
        -11    1    1    2    0    0  0.33448299483E+02 -0.47979599999E+02  0.19943398369E+02  0.61794578183E+02  0.00000000000E+00 0.  1.
         11    1    1    2    0    0  0.41770211320E+02 -0.41856120502E+02  0.16690667470E+03  0.17707208543E+03  0.00000000000E+00 0. -1.
</event>
<event>
 7    1  0.3001243E-009  0.9278908E+02  0.7561462E-02  0.1296235E+00
         -1   -1    0    0    0  501 -0.00000000000E+00  0.00000000000E+00  0.11442191805E+03  0.11442191805E+03  0.00000000000E+00 0.  1.
          1   -1    0    0  501    0  0.00000000000E+00 -0.00000000000E+00 -0.10925439233E+03  0.10925439233E+03  0.00000000000E+00 0. -1.
         25    2    1    2    0    0  0.21603261363E+02 -0.14600408458E+02 -0.51946606525E+01  0.12788687973E+03  0.12509275230E+03 0.  0.
          5    1    3    3  502    0  0.36231919640E+02 -0.62061922167E+02  0.15975265834E+02  0.73736800190E+02  0.41800000000E+01 0. -1.
         -5    1    3    3    0  502 -0.14628658277E+02  0.47461513709E+02 -0.21169926486E+02  0.54150079538E+02  0.41800000000E+01 0. -1.
        -11    1    1    2    0    0 -0.13376626278E+02 -0.22268187232E+02  0.40055081108E+02  0.47741133374E+02  0.00000000000E+00 0.  1.
         11    1    1    2    0    0 -0.82266350842E+01  0.36868595690E+02 -0.29692894743E+02  0.48048297276E+02  0.00000000000E+00 0. -1.
</event>
<event>
 7    1  0.3001243E-009  0.1129673E+03  0.7561462E-02  0.1255172E+00
          3   -1    0    0  501    0  0.00000000000E+00  0.00000000000E+00  0.30977893508E+02  0.30977893508E+02  0.00000000000E+00 0. -1.
         -3   -1    0    0    0  501 -0.00000000000E+00 -0.00000000000E+00 -0.54553513979E+03  0.54553513979E+03  0.00000000000E+00 0.  1.
         25    2    1    2    0    0 -0.50026435845E+02  0.61562525764E+02 -0.29600872780E+03  0.33099965282E+03  0.12508802649E+03 0.  0.
          5    1    3    3  502    0  0.38241218848E+02  0.36885509799E+02 -0.14278998167E+03  0.15241188575E+03  0.41800000000E+01 0.  1.
         -5    1    3    3    0  502 -0.88267654692E+02  0.24677015964E+02 -0.15321874613E+03  0.17858776707E+03  0.41800000000E+01 0.  1.
        -11    1    1    2    0    0  0.25306276646E+02 -0.43316181857E+02 -0.20650703730E+03  0.21251318948E+03  0.00000000000E+00 0.  1.
         11    1    1    2    0    0  0.24720159199E+02 -0.18246343907E+02 -0.12041481178E+02  0.33000190996E+02  0.00000000000E+00 0. -1.
</event>
<event>
 7    1  0.3001243E-009  0.1434678E+03  0.7561462E-02  0.1208737E+00
          2   -1    0    0  501    0  0.00000000000E+00  0.00000000000E+00  0.10900652460E+04  0.10900652460E+04  0.00000000000E+00 0.  1.
         -2   -1    0    0    0  501 -0.00000000000E+00 -0.00000000000E+00 -0.31685796149E+02  0.31685796149E+02  0.00000000000E+00 0. -1.
         25    2    1    2    0    0 -0.95344303314E+02  0.63014826283E+02  0.85108047975E+03  0.86778267041E+03  0.12508947013E+03 0.  0.
          5    1    3    3  502    0 -0.90251076536E+02  0.27149336949E+01  0.68564192800E+03  0.69157425741E+03  0.41800000000E+01 0. -1.
         -5    1    3    3    0  502 -0.50932267783E+01  0.60299892588E+02  0.16543855176E+03  0.17620841300E+03  0.41800000000E+01 0. -1.
        -11    1    1    2    0    0  0.12612169382E+02  0.16749349161E+02  0.78957877914E+02  0.81694271515E+02  0.00000000000E+00 0.  1.
         11    1    1    2    0    0  0.82732133933E+02 -0.79764175443E+02  0.12834109222E+03  0.17227410027E+03  0.00000000000E+00 0. -1.
</event>
<event>
 6    1  0.3001243E-009  0.1079226E+03  0.7561462E-02  0.1264466E+00
         -2   -1    0    0    0  501 -0.00000000000E+00  0.00000000000E+00  0.42297678812E+02  0.42297678812E+02  0.00000000000E+00 0.  1.
          2   -1    0    0  501    0  0.00000000000E+00 -0.00000000000E+00 -0.34249905205E+03  0.34249905205E+03  0.00000000000E+00 0. -1.
          5    1    1    2  502    0  0.30463567863E+02 -0.70106378334E+02 -0.10713600389E+03  0.13167584813E+03  0.41800000000E+01 0.  1.
         -5    1    1    2    0  502  0.21569017149E+02  0.53812142642E+02 -0.51579598283E+02  0.77710337507E+02  0.41800000000E+01 0.  1.
        -11    1    1    2    0    0  0.13475314605E+02 -0.69221201986E+00  0.47258353387E+01  0.14296740217E+02  0.00000000000E+00 0.  1.
         11    1    1    2    0    0 -0.65507899617E+02  0.16986447712E+02 -0.14621160640E+03  0.16111380501E+03  0.00000000000E+00 0. -1.
</event>
<event>
 7    1  0.3001243E-009  0.1094699E+03  0.7561462E-02  0.1261555E+00
          1   -1    0    0  501    0  0.00000000000E+00  0.00000000000E+00  0.20455977393E+03  0.20455977393E+03  0.00000000000E+00 0. -1.
         -1   -1    0    0    0  501 -0.00000000000E+00 -0.00000000000E+00 -0.61233584480E+02  0.61233584480E+02  0.00000000000E+00 0.  1.
         25    2    1    2    0    0 -0.15151110810E+02  0.98565341338E+01  0.86568642491E+02  0.15320059077E+03  0.12509829626E+03 0.  0.
          5    1    3    3  502    0 -0.70348358520E+01  0.65171837011E+02  0.25930778665E+02  0.70616817664E+02  0.41800000000E+01 0. -1.
         -5    1    3    3    0  502 -0.81162749577E+01 -0.55315302877E+02  0.60637863827E+02  0.82583773110E+02  0.41800000000E+01 0. -1.
        -11    1    1    2    0    0 -0.30543734353E+02  0.25201578090E+02  0.24864410484E+02  0.46757653439E+02  0.00000000000E+00 0.  1.
         11    1    1    2    0    0  0.45694845163E+02 -0.35058112224E+02  0.31893136476E+02  0.65835114198E+02  0.00000000000E+00 0. -1.
</event>
<event>
 7    1  0.3001243E-009  0.8074956E+02  0.7561462E-02  0.1326938E+00
         -2   -1    0    0    0  501 -0.00000000000E+00  0.00000000000E+00  0.11159924999E+03  0.11159924999E+03  0.00000000000E+00 0.  1.
          2   -1    0    0  501    0  0.00000000000E+00 -0.00000000000E+00 -0.20134451647E+03  0.20134451647E+03  0.00000000000E+00 0. -1.
         25    2    1    2    0    0 -0.45010534683E+02 -0.41008499334E+02 -0.13768239544E+03  0.19573546408E+03  0.12509310387E+03 0.  0.
          5    1    3    3  502    0 -0.54269318763E+02 -0.54991535010E+02 -0.24382165152E+02  0.81124535494E+02  0.41800000000E+01 0.  1.
         -5    1    3    3    0  502  0.92587840796E+01  0.13983035676E+02 -0.11330023028E+03  0.11461092859E+03  0.41800000000E+01 0.  1.
        -11    1    1    2    0    0  0.17446900079E+02  0.34286620272E+02  0.70929149856E+02  0.80690215958E+02  0.00000000000E+00 0.  1.
         11    1    1    2    0    0  0.27563634604E+02  0.67218790623E+01 -0.22992020895E+02  0.36518086417E+02  0.00000000000E+00 0. -1.
</event>
<event>
 7    1  0.3001243E-009  0.1287701E+03  0.7561462E-02  0.1229292E+00
         -1   -1    0    0    0  501 -0.00000000000E+00  0.00000000000E+00  0.10638704109E+03  0.10638704109E+03  0.00000000000E+00 0.  1.
          1   -1    0    0  501    0  0.00000000000E+00 -0.00000000000E+00 -0.27646542907E+03  0.27646542907E+03  0.00000000000E+00 0. -1.
         25    2    1    2    0    0 -0.85503054457E+02 -0.83066052429E+02 -0.25421361356E+02  0.17465436889E+03  0.12508861488E+03 0.  0.
          5    1    3    3  502    0 -0.79677678427E+01 -0.67504575233E+01  0.44077614100E+02  0.45490245832E+02  0.41800000000E+01 0.  1.
         -5    1    3    3    0  502 -0.77535286614E+02 -0.76315594905E+02 -0.69498975456E+02  0.12916412306E+03  0.41800000000E+01 0.  1.
        -11    1    1    2    0    0 -0.10526138907E+02  0.19795686696E+02 -0.63783183093E+02  0.67608899248E+02  0.00000000000E+00 0. -1.
         11    1    1    2    0    0  0.96029193364E+02  0.63270365733E+02 -0.80873843535E+02  0.14058920203E+03  0.00000000000E+00 0.  1.
</event>
<event>
 7    1  0.3001243E-009  0.1443532E+03  0.7561462E-02  0.1207589E+00
          2   -1    0    0  501    0  0.00000000000E+00  0.00000000000E+00  0.25949260331E+03  0.25949260331E+03  0.00000000000E+00 0. -1.
         -2   -1    0    0    0  501 -0.00000000000E+00 -0.00000000000E+00 -0.10252441098E+03  0.10252441098E+03  0.00000000000E+00 0.  1.
         25    2    1    2    0    0 -0.11937703490E+03  0.17827359767E+02  0.10088660243E+03  0.20098288426E+03  0.12508925613E+03 0.  0.
          5    1    3    3  502    0  0.22220487530E+02  0.27848249918E+01 -0.51980038626E+01  0.23366577851E+02  0.41800000000E+01 0.  1.
         -5    1    3    3    0  502 -0.14159752243E+03  0.15042534775E+02  0.10608460629E+03  0.17761630641E+03  0.41800000000E+01 0.  1.
        -11    1    1    2    0    0  0.16128091227E+02  0.65080601243E+01 -0.22918934700E+02  0.28770605502E+02  0.00000000000E+00 0.  1.
         11    1    1    2    0    0  0.10324894368E+03 -0.24335419891E+02  0.79000524605E+02  0.13226352452E+03  0.00000000000E+00 0. -1.
</event>
<event>
 7    1  0.3001243E-009  0.1990993E+03  0.7561462E-02  0.1150501E+00
          2   -1    0    0  501    0  0.00000000000E+00  0.00000000000E+00  0.14618292983E+04  0.14618292983E+04  0.00000000000E+00 0. -1.
         -2   -1    0    0    0  501 -0.00000000000E+00 -0.00000000000E+00 -0.41368250952E+02  0.41368250952E+02  0.00000000000E+00 0.  1.
         25    2    1    2    0    0 -0.16388123832E+03  0.92833979985E+02  0.10847591774E+04  0.11080736113E+04  0.12509774927E+03 0.  0.
          5    1    3    3  502    0 -0.13597302409E+03  0.34499033945E+02  0.48720051098E+03  0.50701149585E+03  0.41800000000E+01 0.  1.
         -5    1    3    3    0  502 -0.27908214226E+02  0.58334946040E+02  0.59755866646E+03  0.60106211543E+03  0.41800000000E+01 0.  1.
        -11    1    1    2    0    0  0.41388673968E+02 -0.46085920799E+02  0.46064504462E+02  0.77193736793E+02  0.00000000000E+00 0.  1.
         11    1    1    2    0    0  0.12249256435E+03 -0.46748059186E+02  0.28963736550E+03  0.31793020122E+03  0.00000000000E+00 0. -1.
</event>
<event>
 7    1  0.3001243E-009  0.1142138E+03  0.7561462E-02  0.1252960E+00
          1   -1    0    0  501    0  0.00000000000E+00  0.00000000000E+00  0.47111304717E+03  0.47111304717E+03  0.00000000000E+00 0. -1.
         -1   -1    0    0    0  501 -0.00000000000E+00 -0.00000000000E+00 -0.28076792413E+02  0.28076792413E+02  0.00000000000E+00 0.  1.
         25    2    1    2    0    0  0.46903172031E+02  0.57192280483E+01  0.28314726975E+03  0.31313336072E+03  0.12509000006E+03 0.  0.
          5    1    3    3  502    0  0.63278330108E+02  0.53281155372E+02  0.18765445136E+03  0.20512116930E+03  0.41800000000E+01 0. -1.
         -5    1    3    3    0  502 -0.16375158076E+02 -0.47561927324E+02  0.95492818385E+02  0.10801219142E+03  0.41800000000E+01 0. -1.
        -11    1    1    2    0    0 -0.70893810341E+02 -0.58305852880E+01  0.11786146688E+03  0.13766355162E+03  0.00000000000E+00 0.  1.
         11    1    1    2    0    0  0.23990638309E+02  0.11135723970E+00  0.42027518136E+02  0.48392927248E+02  0.00000000000E+00 0. -1.
</event>
<event>
 7    1  0.3001243E-009  0.2856009E+03  0.7561462E-02  0.1092669E+00
          2   -1    0    0  501    0  0.00000000000E+00  0.00000000000E+00  0.59859333744E+03  0.59859333744E+03  0.00000000000E+00 0. -1.
         -2   -1    0    0    0  501 -0.00000000000E+00 -0.00000000000E+00 -0.14635211265E+03  0.14635211265E+03  0.00000000000E+00 0.  1.
         25    2    1    2    0    0  0.73271841750E+02 -0.26479298540E+03  0.20891726767E+03  0.36712490456E+03  0.12510069106E+03 0.  0.
          5    1    3    3  502    0 -0.80119060350E+01 -0.16924997254E+03  0.80772526371E+02  0.18775360785E+03  0.41800000000E+01 0. -1.
         -5    1    3    3    0  502  0.81283747785E+02 -0.95543012854E+02  0.12814474130E+03  0.17937129670E+03  0.41800000000E+01 0. -1.
        -11    1    1    2    0    0 -0.72449394772E+02  0.22454889395E+03  0.24134686574E+03  0.33751952563E+03  0.00000000000E+00 0. -1.
         11    1    1    2    0    0 -0.82244697796E+00  0.40244091446E+02  0.19770913876E+01  0.40301019909E+02  0.00000000000E+00 0.  1.
</event>
<event>
 7    1  0.3001243E-009  0.8783852E+02  0.7561462E-02  0.1308172E+00
         -1   -1    0    0    0  501 -0.00000000000E+00  0.00000000000E+00  0.99986835403E+02  0.99986835403E+02  0.00000000000E+00 0.  1.
          1   -1    0    0  501    0  0.00000000000E+00 -0.00000000000E+00 -0.27098623555E+03  0.27098623555E+03  0.00000000000E+00 0. -1.
         25    2    1    2    0    0 -0.59781305344E+02 -0.41433730298E+02  0.21279889908E+02  0.14625486088E+03  0.12508833735E+03 0.  0.
          5    1    3    3  502    0 -0.62216775417E+02 -0.50177023689E+02 -0.36249265153E+02  0.87864341309E+02  0.41800000000E+01 0.  1.
         -5    1    3    3    0  502  0.24354700728E+01  0.87432933910E+01  0.57529155062E+02  0.58390519572E+02  0.41800000000E+01 0.  1.
        -11    1    1    2    0    0  0.25969661256E+02 -0.67035388368E+01 -0.35756711018E+01  0.27058199543E+02  0.00000000000E+00 0.  1.
         11    1    1    2    0    0  0.33811644088E+02  0.48137269134E+02 -0.18870361895E+03  0.19766001053E+03  0.00000000000E+00 0. -1.
</event>
<event>
 7    1  0.3001243E-009  0.1493896E+03  0.7561462E-02  0.1201225E+00
          1   -1    0    0  501    0  0.00000000000E+00  0.00000000000E+00  0.34482281307E+03  0.34482281307E+03  0.00000000000E+00 0. -1.
         -1   -1    0    0    0  501 -0.00000000000E+00 -0.00000000000E+00 -0.78018422655E+02  0.78018422655E+02  0.00000000000E+00 0.  1.
         25    2    1    2    0    0 -0.77217959641E+02  0.71434326794E+02  0.61911446496E+02  0.17477414383E+03  0.12508995887E+03 0.  0.
          5    1    3    3  502    0 -0.11386406714E+02  0.90798627635E+02  0.51944154827E+02  0.10530768566E+03  0.41800000000E+01 0.  1.
         -5    1    3    3    0  502 -0.65831552927E+02 -0.19364300841E+02  0.99672916694E+01  0.69466458173E+02  0.41800000000E+01 0.  1.
        -11    1    1    2    0    0  0.22951794387E+02 -0.80233225893E+02  0.14033951233E+03  0.16327686341E+03  0.00000000000E+00 0. -1.
         11    1    1    2    0    0  0.54266165254E+02  0.87988990990E+01  0.64553431587E+02  0.84790228484E+02  0.00000000000E+00 0.  1.
</event>
<event>
 7    1  0.3001243E-009  0.7228815E+02  0.7561462E-02  0.1352481E+00
          2   -1    0    0  501    0  0.00000000000E+00  0.00000000000E+00  0.16056854569E+03  0.16056854569E+03  0.00000000000E+00 0. -1.
         -2   -1    0    0    0  501 -0.00000000000E+00 -0.00000000000E+00 -0.76033729022E+02  0.76033729022E+02  0.00000000000E+00 0.  1.
         25    2    1    2    0    0  0.47148245028E+01  0.16711528873E+02  0.27838302595E+02  0.12932227368E+03  0.12509106527E+03 0.  0.
          5    1    3    3  502    0  0.21104721915E+02  0.40493046073E+02 -0.36543931909E+02  0.58634694736E+02  0.41800000000E+01 0. -1.
         -5    1    3    3    0  502 -0.16389897412E+02 -0.23781517200E+02  0.64382234504E+02  0.70687578946E+02  0.41800000000E+01 0. -1.
        -11    1    1    2    0    0 -0.31208497278E+02  0.91435393592E+01  0.61875073192E+02  0.69900638745E+02  0.00000000000E+00 0. -1.
         11    1    1    2    0    0  0.26493672775E+02 -0.25855068233E+02 -0.51785591180E+01  0.37379362287E+02  0.00000000000E+00 0.  1.
</event>
<event>
 7    1  0.4818488E-009  0.1279411E+03  0.7561462E-02  0.1230543E+00
         -1   -1    0    0    0  501 -0.00000000000E+00  0.00000000000E+00  0.48674620066E+02  0.48674620066E+02  0.00000000000E+00 0. -1.
          1   -1    0    0  501    0  0.00000000000E+00 -0.00000000000E+00 -0.46159293700E+03  0.46159293700E+03  0.00000000000E+00 0.  1.
         25    2    1    2    0    0 -0.55705423018E+02 -0.86164393584E+02 -0.20399364295E+03  0.26036128420E+03  0.12508874878E+03 0.  0.
          5    1    3    3  502    0 -0.68483139334E+02 -0.26515797601E+01 -0.50962462049E+02  0.85507989020E+02  0.41800000000E+01 0.  1.
         -5    1    3    3    0  502  0.12777716316E+02 -0.83512813824E+02 -0.15303118090E+03  0.17485329518E+03  0.41800000000E+01 0.  1.
        -11    1    1    2    0    0  0.12915610971E+02  0.18119195037E+02  0.37348329216E+01  0.22562517867E+02  0.00000000000E+00 0. -1.
         11    1    1    2    0    0  0.42789812047E+02  0.68045198547E+02 -0.21265950691E+03  0.22734375500E+03  0.00000000000E+00 0.  1.
</event>
<event>
 7    1  0.3001243E-009  0.9782501E+02  0.7561462E-02  0.1284937E+00
         -2   -1    0    0    0  501 -0.00000000000E+00  0.00000000000E+00  0.48597440838E+02  0.48597440838E+02  0.00000000000E+00 0.  1.
          2   -1    0    0  501    0  0.00000000000E+00 -0.00000000000E+00 -0.35881075090E+03  0.35881075090E+03  0.00000000000E+00 0. -1.
         25    2    1    2    0    0 -0.63483477377E+02 -0.33037596584E+02 -0.20420536375E+03  0.24993677364E+03  0.12508767143E+03 0.  0.
          5    1    3    3  502    0 -0.34782632703E+02  0.11999155710E+02  0.18059814034E+01  0.37074860004E+02  0.41800000000E+01 0.  1.
         -5    1    3    3    0  502 -0.28700844674E+02 -0.45036752294E+02 -0.20601134516E+03  0.21286191363E+03  0.41800000000E+01 0.  1.
        -11    1    1    2    0    0  0.81383533058E+02  0.23198660782E+02 -0.10770655314E+03  0.13697503022E+03  0.00000000000E+00 0. -1.
         11    1    1    2    0    0 -0.17900055681E+02  0.98389358023E+01  0.16986068258E+01  0.20496387883E+02  0.00000000000E+00 0.  1.
</event>
<event>
 6    1  0.3001243E-009  0.1133525E+03  0.7561462E-02  0.1254485E+00
         -2   -1    0    0    0  501 -0.00000000000E+00  0.00000000000E+00  0.40580308925E+02  0.40580308925E+02  0.00000000000E+00 0.  1.
          2   -1    0    0  501    0  0.00000000000E+00 -0.00000000000E+00 -0.43370613637E+03  0.43370613637E+03  0.00000000000E+00 0. -1.
          5    1    1    2  502    0  0.34838659591E+02 -0.12013641209E+02 -0.23596775961E+02  0.43958389563E+02  0.41800000000E+01 0.  1.
         -5    1    1    2    0  502 -0.81440928326E+02 -0.47882662729E+02 -0.23412145687E+03  0.25249891715E+03  0.41800000000E+01 0.  1.
        -11    1    1    2    0    0 -0.12610681426E+02  0.20023870446E+02  0.11996460685E+01  0.23694383815E+02  0.00000000000E+00 0.  1.
         11    1    1    2    0    0  0.59212950161E+02  0.39872433492E+02 -0.13660724068E+03  0.15413475476E+03  0.00000000000E+00 0. -1.
</event>
<event>
 7    1  0.3001243E-009  0.1188913E+03  0.7561462E-02  0.1244937E+00
         -3   -1    0    0    0  501 -0.00000000000E+00  0.00000000000E+00  0.24837936363E+04  0.24837936363E+04  0.00000000000E+00 0.  1.
          3   -1    0    0  501    0  0.00000000000E+00 -0.00000000000E+00 -0.18873599478E+02  0.18873599478E+02  0.00000000000E+00 0. -1.
         25    2    1    2    0    0 -0.74518007413E+02 -0.72044405558E+02  0.21685380747E+04  0.21746144834E+04  0.12508972814E+03 0.  0.
          5    1    3    3  502    0 -0.55383664960E+02 -0.70309739397E+01  0.17250938981E+04  0.17260020900E+04  0.41800000000E+01 0.  1.
         -5    1    3    3    0  502 -0.19134342453E+02 -0.65013431618E+02  0.44344417658E+03  0.44861239338E+03  0.41800000000E+01 0.  1.
        -11    1    1    2    0    0  0.54126718851E+01  0.35144302341E+02  0.20031204385E+02  0.40812597971E+02  0.00000000000E+00 0. -1.
         11    1    1    2    0    0  0.69105335528E+02  0.36900103216E+02  0.27635075774E+03  0.28724015444E+03  0.00000000000E+00 0.  1.
</event>
<event>
 7    1  0.3001243E-009  0.1061220E+03  0.7561462E-02  0.1267925E+00
         -1   -1    0    0    0  501 -0.00000000000E+00  0.00000000000E+00  0.27725204183E+03  0.27725204183E+03  0.00000000000E+00 0.  1.
          1   -1    0    0  501    0  0.00000000000E+00 -0.00000000000E+00 -0.68867295159E+02  0.68867295159E+02  0.00000000000E+00 0. -1.
         25    2    1    2    0    0 -0.13465126063E+02  0.24469966598E+02  0.21402801710E+03  0.24946922374E+03  0.12508721999E+03 0.  0.
          5    1    3    3  502    0 -0.35429190772E+02 -0.36513007144E+02  0.14923869888E+03  0.15772789510E+03  0.41800000000E+01 0. -1.
         -5    1    3    3    0  502  0.21964064708E+02  0.60982973742E+02  0.64789318221E+02  0.91741328639E+02  0.41800000000E+01 0. -1.
        -11    1    1    2    0    0 -0.39476798485E+02 -0.16146870060E+02  0.89372632344E+00  0.42660728758E+02  0.00000000000E+00 0.  1.
         11    1    1    2    0    0  0.52941924548E+02 -0.83230965379E+01 -0.65369967555E+01  0.53989384489E+02  0.00000000000E+00 0. -1.
</event>
<event>
 7    1  0.3001243E-009  0.1372329E+03  0.7561462E-02  0.1217102E+00
          1   -1    0    0  501    0  0.00000000000E+00  0.00000000000E+00  0.14043621583E+03  0.14043621583E+03  0.00000000000E+00 0. -1.
         -1   -1    0    0    0  501 -0.00000000000E+00 -0.00000000000E+00 -0.13995457819E+03  0.13995457819E+03  0.00000000000E+00 0.  1.
         25    2    1    2    0    0  0.83669996778E+02  0.27384589832E+02 -0.14979551958E+01  0.15297181775E+03  0.12509016362E+03 0.  0.
          5    1    3    3  502    0  0.35188434419E+02  0.73224070979E+02 -0.19673776977E+02  0.83693012780E+02  0.41800000000E+01 0.  1.
         -5    1    3    3    0  502  0.48481562359E+02 -0.45839481147E+02  0.18175821781E+02  0.69278804969E+02  0.41800000000E+01 0.  1.
        -11    1    1    2    0    0 -0.54505173638E+02 -0.60972445753E+02 -0.68459308826E+01  0.82068994536E+02  0.00000000000E+00 0. -1.
         11    1    1    2    0    0 -0.29164823140E+02  0.33587855921E+02  0.88255237195E+01  0.45349981732E+02  0.00000000000E+00 0.  1.
</event>
<event>
 7    1  0.3738337E-009  0.1030000E+03  0.7561462E-02  0.1274111E+00
         -1   -1    0    0    0  501 -0.00000000000E+00  0.00000000000E+00  0.31795494337E+02  0.31795494337E+02  0.00000000000E+00 0.  1.
          1   -1    0    0  501    0  0.00000000000E+00 -0.00000000000E+00 -0.55727941098E+03  0.55727941098E+03  0.00000000000E+00 0. -1.
         25    2    1    2    0    0 -0.35029735925E+02 -0.23506624524E+02 -0.14818104404E+03  0.19845747324E+03  0.12509237818E+03 0.  0.
          5    1    3    3  502    0  0.40645435513E+02 -0.27231095000E+02 -0.91145626623E+02  0.10353058300E+03  0.41800000000E+01 0. -1.
         -5    1    3    3    0  502 -0.75675171438E+02  0.37244704759E+01 -0.57035417413E+02  0.94926890247E+02  0.41800000000E+01 0. -1.
        -11    1    1    2    0    0 -0.15177730994E+02 -0.12144050121E+02 -0.19424131215E+02  0.27479780657E+02  0.00000000000E+00 0.  1.
         11    1    1    2    0    0  0.50207466920E+02  0.35650674645E+02 -0.35787874139E+03  0.36313765141E+03  0.00000000000E+00 0. -1.
</event>
<event>
 7    1  0.3001243E-009  0.1022181E+03  0.7561462E-02  0.1275700E+00
          2   -1    0    0  501    0  0.00000000000E+00  0.00000000000E+00  0.37319999050E+03  0.37319999050E+03  0.00000000000E+00 0. -1.
         -2   -1    0    0    0  501 -0.00000000000E+00 -0.00000000000E+00 -0.32210519641E+02  0.32210519641E+02  0.00000000000E+00 0.  1.
         25    2    1    2    0    0  0.28345041479E+00  0.74784896333E+01  0.23154223619E+03  0.26327784540E+03  0.12508960223E+03 0.  0.
          5    1    3    3  502    0  0.56033941378E+02 -0.52623839409E+01  0.17018293050E+03  0.17929639568E+03  0.41800000000E+01 0.  1.
         -5    1    3    3    0  502 -0.55750490963E+02  0.12740873574E+02  0.61359305693E+02  0.83981449720E+02  0.41800000000E+01 0.  1.
        -11    1    1    2    0    0 -0.13761456287E+02 -0.46963576348E+02  0.60580865309E+02  0.77878086932E+02  0.00000000000E+00 0.  1.
         11    1    1    2    0    0  0.13478005873E+02  0.39485086715E+02  0.48866369360E+02  0.64254577810E+02  0.00000000000E+00 0. -1.
</event>
<event>
 7    1  0.3001243E-009  0.1677520E+03  0.7561462E-02  0.1180213E+00
          2   -1    0    0  501    0  0.00000000000E+00  0.00000000000E+00  0.80410866497E+03  0.80410866497E+03  0.00000000000E+00 0. -1.
         -2   -1    0    0    0  501 -0.00000000000E+00 -0.00000000000E+00 -0.37864530811E+02  0.37864530811E+02  0.00000000000E+00 0.  1.
         25    2    1    2    0    0 -0.68112288903E+02 -0.11613168558E+03  0.36135844827E+03  0.40540532930E+03  0.12509076942E+03 0.  0.
          5    1    3    3  502    0 -0.10131721714E+03 -0.73795894402E+02  0.28984678723E+03  0.31581584031E+03  0.41800000000E+01 0.  1.
         -5    1    3    3    0  502  0.33204928238E+02 -0.42335791175E+02  0.71511661042E+02  0.89589488996E+02  0.41800000000E+01 0.  1.
        -11    1    1    2    0    0  0.72694473182E+02  0.46396257249E+02  0.15825599389E+03  0.18022779675E+03  0.00000000000E+00 0.  1.
         11    1    1    2    0    0 -0.45821842798E+01  0.69735428328E+02  0.24662969199E+03  0.25634006973E+03  0.00000000000E+00 0. -1.
</event>
<event>
 7    1  0.3001243E-009  0.8925385E+02  0.7561462E-02  0.1304669E+00
         -1   -1    0    0    0  501 -0.00000000000E+00  0.00000000000E+00  0.10690353011E+03  0.10690353011E+03  0.00000000000E+00 0.  1.
          1   -1    0    0  501    0  0.00000000000E+00 -0.00000000000E+00 -0.16773525727E+03  0.16773525727E+03  0.00000000000E+00 0. -1.
         25    2    1    2    0    0  0.36781364562E+02 -0.53199660295E+02 -0.72077140242E+02  0.15819542632E+03  0.12509039183E+03 0.  0.
          5    1    3    3  502    0  0.24565118579E+02 -0.35654656820E+02  0.30631508597E+02  0.53202080059E+02  0.41800000000E+01 0.  1.
         -5    1    3    3    0  502  0.12216245984E+02 -0.17545003476E+02 -0.10270864884E+03  0.10499334626E+03  0.41800000000E+01 0.  1.
        -11    1    1    2    0    0  0.27512777124E+02  0.38417568449E+02 -0.75362702187E+01  0.47850369271E+02  0.00000000000E+00 0. -1.
         11    1    1    2    0    0 -0.64294141686E+02  0.14782091846E+02  0.18781683309E+02  0.68592991788E+02  0.00000000000E+00 0.  1.
</event>
<event>
 7    1  0.3001243E-009  0.1494976E+03  0.7561462E-02  0.1201092E+00
          3   -1    0    0  501    0  0.00000000000E+00  0.00000000000E+00  0.12694762389E+03  0.12694762389E+03  0.00000000000E+00 0. -1.
         -3   -1    0    0    0  501 -0.00000000000E+00 -0.00000000000E+00 -0.21168070832E+03  0.21168070832E+03  0.00000000000E+00 0.  1.
         25    2    1    2    0    0 -0.12234808687E+02  0.12039847561E+03 -0.23551773231E+02  0.17566536521E+03  0.12513253390E+03 0.  0.
          5    1    3    3  502    0 -0.44888131266E+02  0.17658451034E+02  0.28177222874E+02  0.56019581490E+02  0.41800000000E+01 0.  1.
         -5    1    3    3    0  502  0.32653322579E+02  0.10274002457E+03 -0.51728996105E+02  0.11964578372E+03  0.41800000000E+01 0.  1.
        -11    1    1    2    0    0  0.37402796291E+02 -0.27443875116E+02 -0.46256404338E+02  0.65511757678E+02  0.00000000000E+00 0. -1.
         11    1    1    2    0    0 -0.25167987604E+02 -0.92954600491E+02 -0.14924906865E+02  0.97451209317E+02  0.00000000000E+00 0.  1.
</event>
<event>
 7    1  0.3329432E-009  0.9242090E+02  0.7561462E-02  0.1297093E+00
          2   -1    0    0  501    0  0.00000000000E+00  0.00000000000E+00  0.19695065657E+03  0.19695065657E+03  0.00000000000E+00 0. -1.
         -2   -1    0    0    0  501 -0.00000000000E+00 -0.00000000000E+00 -0.11362761989E+03  0.11362761989E+03  0.00000000000E+00 0.  1.
         25    2    1    2    0    0 -0.62604578835E+02 -0.27243705380E+01  0.12932862125E+03  0.19052646222E+03  0.12509070727E+03 0.  0.
          5    1    3    3  502    0 -0.16295573750E+02  0.49449733459E+02  0.11427086825E+02  0.53468425975E+02  0.41800000000E+01 0.  1.
         -5    1    3    3    0  502 -0.46309005086E+02 -0.52174103997E+02  0.11790153442E+03  0.13705803624E+03  0.41800000000E+01 0.  1.
        -11    1    1    2    0    0  0.12019844662E+02 -0.54197919440E+00 -0.64861658554E+02  0.65968213236E+02  0.00000000000E+00 0.  1.
         11    1    1    2    0    0  0.50584734173E+02  0.32663497324E+01  0.18856073990E+02  0.54083601010E+02  0.00000000000E+00 0. -1.
</event>
<event>
 7    1  0.3001243E-009  0.2682104E+03  0.7561462E-02  0.1102308E+00
          1   -1    0    0  501    0  0.00000000000E+00  0.00000000000E+00  0.15410854296E+04  0.15410854296E+04  0.00000000000E+00 0. -1.
         -1   -1    0    0    0  501 -0.00000000000E+00 -0.00000000000E+00 -0.51612818192E+02  0.51612818192E+02  0.00000000000E+00 0.  1.
         25    2    1    2    0    0 -0.24561613621E+02  0.25093150086E+03  0.58444814156E+03  0.64869003517E+03  0.12509692470E+03 0.  0.
          5    1    3    3  502    0 -0.53437152988E+02  0.85809493744E+02  0.31952517861E+03  0.33516057451E+03  0.41800000000E+01 0.  1.
         -5    1    3    3    0  502  0.28875539368E+02  0.16512200711E+03  0.26492296295E+03  0.31352946067E+03  0.41800000000E+01 0.  1.
        -11    1    1    2    0    0 -0.26259597807E+02 -0.16989457050E+03  0.54327403806E+03  0.56982489590E+03  0.00000000000E+00 0. -1.
         11    1    1    2    0    0  0.50821211428E+02 -0.81036930360E+02  0.36175043182E+03  0.37418331676E+03  0.00000000000E+00 0.  1.
</event>
<event>
 7    1  0.3001243E-009  0.2463303E+03  0.7561462E-02  0.1115646E+00
         -2   -1    0    0    0  501 -0.00000000000E+00  0.00000000000E+00  0.79741090671E+02  0.79741090671E+02  0.00000000000E+00 0. -1.
          2   -1    0    0  501    0  0.00000000000E+00 -0.00000000000E+00 -0.85537182768E+03  0.85537182768E+03  0.00000000000E+00 0.  1.
         25    2    1    2    0    0 -0.19258316586E+03  0.12179250405E+03 -0.51645169874E+03  0.57818016026E+03  0.12509296852E+03 0.  0.
          5    1    3    3  502    0 -0.98515930225E+02  0.12198223624E+03 -0.24545854346E+03  0.29129439306E+03  0.41800000000E+01 0.  1.
         -5    1    3    3    0  502 -0.94067235634E+02 -0.18973219176E+00 -0.27099315527E+03  0.28688576720E+03  0.41800000000E+01 0.  1.
        -11    1    1    2    0    0  0.11854663335E+03 -0.27377665844E+02 -0.16160158368E+03  0.20228176565E+03  0.00000000000E+00 0.  1.
         11    1    1    2    0    0  0.74036532510E+02 -0.94414838207E+02 -0.97577454593E+02  0.15465099245E+03  0.00000000000E+00 0. -1.
</event>
<event>
 7    1  0.3001243E-009  0.5805774E+02  0.7561462E-02  0.1406168E+00
         -1   -1    0    0    0  501 -0.00000000000E+00  0.00000000000E+00  0.90779116767E+02  0.90779116767E+02  0.00000000000E+00 0.  1.
          1   -1    0    0  501    0  0.00000000000E+00 -0.00000000000E+00 -0.16405677312E+03  0.16405677312E+03  0.00000000000E+00 0. -1.
         25    2    1    2    0    0 -0.48457864125E+01 -0.45063815772E+02 -0.74973744686E+02  0.15271883620E+03  0.12509097249E+03 0.  0.
          5    1    3    3  502    0 -0.49684482596E+01 -0.38973223349E+02  0.28667303327E+02  0.48814795875E+02  0.41800000000E+01 0. -1.
         -5    1    3    3    0  502  0.12266184714E+00 -0.60905924228E+01 -0.10364104801E+03  0.10390404032E+03  0.41800000000E+01 0. -1.
        -11    1    1    2    0    0  0.25173065548E+02  0.41561122170E+02  0.37105560022E+02  0.61137817181E+02  0.00000000000E+00 0.  1.
         11    1    1    2    0    0 -0.20327279136E+02  0.35026936016E+01 -0.35409471691E+02  0.40979236510E+02  0.00000000000E+00 0. -1.
</event>
<event>
 7    1  0.3001243E-009  0.9793477E+02  0.7561462E-02  0.1284700E+00
          2   -1    0    0  501    0  0.00000000000E+00  0.00000000000E+00  0.23205180275E+03  0.23205180275E+03  0.00000000000E+00 0.  1.
         -2   -1    0    0    0  501 -0.00000000000E+00 -0.00000000000E+00 -0.78256742068E+02  0.78256742068E+02  0.00000000000E+00 0. -1.
         25    2    1    2    0    0  0.33737169377E+02 -0.54183219662E+02  0.12975661528E+03  0.19120143328E+03  0.12508873246E+03 0.  0.
          5    1    3    3  502    0 -0.11150092241E+02 -0.69196817651E+02  0.12510092243E+03  0.14345813788E+03  0.41800000000E+01 0. -1.
         -5    1    3    3    0  502  0.44887261617E+02  0.15013597989E+02  0.46556928471E+01  0.47743295403E+02  0.41800000000E+01 0. -1.
        -11    1    1    2    0    0 -0.42715327760E+02  0.29600998931E+02 -0.29324733412E+02  0.59672090235E+02  0.00000000000E+00 0. -1.
         11    1    1    2    0    0  0.89781583832E+01  0.24582220731E+02  0.53363178821E+02  0.59435021308E+02  0.00000000000E+00 0.  1.
</event>
